<LesHouchesEvents version="3.0">
<header>
<!--
#*********************************************************************
#                                                                    *
#                        MadGraph5_aMC@NLO                           *
#                                                                    *
#                           Going Beyond                             *
#                                                                    *
#                   http://madgraph.hep.uiuc.edu                     *
#                   http://madgraph.phys.ucl.ac.be                   *
#                   http://amcatnlo.cern.ch                          *
#                                                                    *
#                     The MadGraph5_aMC@NLO team                     *
#                                                                    *
#....................................................................*
#                                                                    *
# This file contains all the information necessary to reproduce      *
# the events generated:                                              *
#                                                                    *
# 1. software version                                                *
# 2. proc_card          : code generation info including model       *
# 3. param_card         : model primary parameters in the LH format  *
# 4. run_card           : running parameters (collider and cuts)     *
# 5. pythia_card        : present only if pythia has been run        *
# 6. pgs_card           : present only if pgs has been run           *
# 7. delphes_cards      : present only if delphes has been run       *
#                                                                    *
#                                                                    *
#*********************************************************************
-->
<MGVersion>
#5.2.2.3
</MGVersion>
<MG5ProcCard>
#************************************************************
#*                     MadGraph5_aMC@NLO                    *
#*                                                          *
#*                *                       *                 *
#*                  *        * *        *                   *
#*                    * * * * 5 * * * *                     *
#*                  *        * *        *                   *
#*                *                       *                 *
#*                                                          *
#*                                                          *
#*         VERSION 2.2.3                 2015-02-10         *
#*                                                          *
#*    The MadGraph5_aMC@NLO Development Team - Find us at   *
#*    https://server06.fynu.ucl.ac.be/projects/madgraph     *
#*                                                          *
#************************************************************
#*                                                          *
#*               Command File for MadGraph5_aMC@NLO         *
#*                                                          *
#*     run as ./bin/mg5_aMC  filename                       *
#*                                                          *
#************************************************************
set group_subprocesses Auto
set ignore_six_quark_processes False
set loop_optimized_output True
set gauge unitary
set complex_mass_scheme False
import model sm
define p = g u c d s u~ c~ d~ s~
define j = g u c d s u~ c~ d~ s~
define l+ = e+ mu+
define l- = e- mu-
define vl = ve vm vt
define vl~ = ve~ vm~ vt~
import model Zprime_UFO
generate p p > zph, zph > j j
add process p p > zph, zph > b b~
output Dijet_signal
</MG5ProcCard>
<MGProcCard>
#*********************************************************************
#                        MadGraph/MadEvent                           *
#                   http://madgraph.hep.uiuc.edu                     *
#                                                                    *
#                          proc_card.dat                             *
#*********************************************************************
#                                                                    *
#            This Files is generated by MADGRAPH 5                   *
#                                                                    *
# WARNING: This Files is generated for MADEVENT (compatibility issue)*
#          This files is NOT a valid MG4 proc_card.dat               *
#          Running this in MG4 will NEVER reproduce the result of MG5*
#                                                                    *
#*********************************************************************
#*********************************************************************
# Process(es) requested : mg2 input                                  *
#*********************************************************************
# Begin PROCESS # This is TAG. Do not modify this line
p p > zph , zph > j j           #Process
# Be carefull the coupling are here in MG5 convention
          
end_coup           # End the couplings input

done               # this tells MG there are no more procs
# End PROCESS  # This is TAG. Do not modify this line
#*********************************************************************
# Model information                                                  *
#*********************************************************************
# Begin MODEL  # This is TAG. Do not modify this line
Zprime_UFO
# End   MODEL  # This is TAG. Do not modify this line
#*********************************************************************
# Start multiparticle definitions                                    *
#*********************************************************************
# Begin MULTIPARTICLES # This is TAG. Do not modify this line

# End  MULTIPARTICLES # This is TAG. Do not modify this line
</MGProcCard>
<MGRunCard>
#*********************************************************************
#                       MadGraph5_aMC@NLO                            *
#                                                                    *
#                     run_card.dat MadEvent                          *
#                                                                    *
#  This file is used to set the parameters of the run.               *
#                                                                    *
#  Some notation/conventions:                                        *
#                                                                    *
#   Lines starting with a '# ' are info or comments                  *
#                                                                    *
#   mind the format:   value    = variable     ! comment             *
#*********************************************************************
#
#*******************                                                 
# Running parameters
#*******************                                                 
#                                                                    
#*********************************************************************
# Tag name for the run (one word)                                    *
#*********************************************************************
  tag_1     = run_tag ! name of the run 
#*********************************************************************
# Run to generate the grid pack                                      *
#*********************************************************************
  .false.     = gridpack  !True = setting up the grid pack
#*********************************************************************
# Number of events and rnd seed                                      *
# Warning: Do not generate more than 1M events in a single run       *
# If you want to run Pythia, avoid more than 50k events in a run.    *
#*********************************************************************
  2000 = nevents ! Number of unweighted events requested 
 2937 = iseed   ! rnd seed (0=assigned automatically=default))
#*********************************************************************
# Collider type and energy                                           *
# lpp: 0=No PDF, 1=proton, -1=antiproton, 2=photon from proton,      *
#                                         3=photon from electron     *
#*********************************************************************
        1     = lpp1    ! beam 1 type 
        1     = lpp2    ! beam 2 type
     4000     = ebeam1  ! beam 1 total energy in GeV
     4000     = ebeam2  ! beam 2 total energy in GeV
#*********************************************************************
# Beam polarization from -100 (left-handed) to 100 (right-handed)    *
#*********************************************************************
        0     = polbeam1 ! beam polarization for beam 1
        0     = polbeam2 ! beam polarization for beam 2
#*********************************************************************
# PDF CHOICE: this automatically fixes also alpha_s and its evol.    *
#*********************************************************************
 'nn23lo1'    = pdlabel     ! PDF set                                     
 230000    = lhaid     ! if pdlabel=lhapdf, this is the lhapdf number
#*********************************************************************
# Renormalization and factorization scales                           *
#*********************************************************************
 F        = fixed_ren_scale  ! if .true. use fixed ren scale
 F        = fixed_fac_scale  ! if .true. use fixed fac scale
 91.1880  = scale            ! fixed ren scale
 91.1880  = dsqrt_q2fact1    ! fixed fact scale for pdf1
 91.1880  = dsqrt_q2fact2    ! fixed fact scale for pdf2
 1        = scalefact        ! scale factor for event-by-event scales
#*********************************************************************
# Matching - Warning! ickkw > 1 is still beta
#*********************************************************************
 0        = ickkw            ! 0 no matching, 1 MLM, 2 CKKW matching
 1        = highestmult      ! for ickkw=2, highest mult group
 1        = ktscheme         ! for ickkw=1, 1 Durham kT, 2 Pythia pTE
 1        = alpsfact         ! scale factor for QCD emission vx
 F        = chcluster        ! cluster only according to channel diag
 T        = pdfwgt           ! for ickkw=1, perform pdf reweighting
 5        = asrwgtflavor     ! highest quark flavor for a_s reweight
 T        = clusinfo         ! include clustering tag in output
 3.0      = lhe_version       ! Change the way clustering information pass to shower.        
#*********************************************************************
#**********************************************************
#
#**********************************************************
# Automatic ptj and mjj cuts if xqcut > 0
# (turn off for VBF and single top processes)
#**********************************************************
   T  = auto_ptj_mjj  ! Automatic setting of ptj and mjj
#**********************************************************
#                                                                    
#**********************************
# BW cutoff (M+/-bwcutoff*Gamma)
#**********************************
  15  = bwcutoff      ! (M+/-bwcutoff*Gamma)
#**********************************************************
# Apply pt/E/eta/dr/mij cuts on decay products or not
# (note that etmiss/ptll/ptheavy/ht/sorted cuts always apply)
#**********************************************************
   T  = cut_decays    ! Cut decay products 
#*************************************************************
# Number of helicities to sum per event (0 = all helicities)
# 0 gives more stable result, but longer run time (needed for
# long decay chains e.g.).
# Use >=2 if most helicities contribute, e.g. pure QCD.
#*************************************************************
   0  = nhel          ! Number of helicities used per event
#*******************                                                 
# Standard Cuts
#*******************                                                 
#                                                                    
#*********************************************************************
# Minimum and maximum pt's (for max, -1 means no cut)                *
#*********************************************************************
 20  = ptj       ! minimum pt for the jets 
  0  = ptb       ! minimum pt for the b 
 10  = pta       ! minimum pt for the photons 
 10  = ptl       ! minimum pt for the charged leptons 
  0  = misset    ! minimum missing Et (sum of neutrino's momenta)
  0  = ptheavy   ! minimum pt for one heavy final state
 1.0 = ptonium   ! minimum pt for the quarkonium states
 -1  = ptjmax    ! maximum pt for the jets
 -1  = ptbmax    ! maximum pt for the b
 -1  = ptamax    ! maximum pt for the photons
 -1  = ptlmax    ! maximum pt for the charged leptons
 -1  = missetmax ! maximum missing Et (sum of neutrino's momenta)
#*********************************************************************
# Minimum and maximum E's (in the center of mass frame)              *
#*********************************************************************
  0  = ej     ! minimum E for the jets 
  0  = eb     ! minimum E for the b 
  0  = ea     ! minimum E for the photons 
  0  = el     ! minimum E for the charged leptons 
 -1   = ejmax ! maximum E for the jets
 -1   = ebmax ! maximum E for the b
 -1   = eamax ! maximum E for the photons
 -1   = elmax ! maximum E for the charged leptons
#*********************************************************************
# Maximum and minimum absolute rapidity (for max, -1 means no cut)   *
#*********************************************************************
   5  = etaj    ! max rap for the jets 
  -1  = etab    ! max rap for the b
 2.5  = etaa    ! max rap for the photons 
 2.5  = etal    ! max rap for the charged leptons 
 0.6  = etaonium ! max rap for the quarkonium states
   0  = etajmin ! min rap for the jets
   0  = etabmin ! min rap for the b
   0  = etaamin ! min rap for the photons
   0  = etalmin ! main rap for the charged leptons
#*********************************************************************
# Minimum and maximum DeltaR distance                                *
#*********************************************************************
 0.4 = drjj    ! min distance between jets 
 0   = drbb    ! min distance between b's 
 0.4 = drll    ! min distance between leptons 
 0.4 = draa    ! min distance between gammas 
 0   = drbj    ! min distance between b and jet 
 0.4 = draj    ! min distance between gamma and jet 
 0.4 = drjl    ! min distance between jet and lepton 
 0   = drab    ! min distance between gamma and b 
 0   = drbl    ! min distance between b and lepton 
 0.4 = dral    ! min distance between gamma and lepton 
 -1  = drjjmax ! max distance between jets
 -1  = drbbmax ! max distance between b's
 -1  = drllmax ! max distance between leptons
 -1  = draamax ! max distance between gammas
 -1  = drbjmax ! max distance between b and jet
 -1  = drajmax ! max distance between gamma and jet
 -1  = drjlmax ! max distance between jet and lepton
 -1  = drabmax ! max distance between gamma and b
 -1  = drblmax ! max distance between b and lepton
 -1  = dralmax ! maxdistance between gamma and lepton
#*********************************************************************
# Minimum and maximum invariant mass for pairs                       *
# WARNING: for four lepton final state mmll cut require to have      *
#          different lepton masses for each flavor!                  *           
#*********************************************************************
 0   = mmjj    ! min invariant mass of a jet pair 
 0   = mmbb    ! min invariant mass of a b pair 
 0   = mmaa    ! min invariant mass of gamma gamma pair
 0   = mmll    ! min invariant mass of l+l- (same flavour) lepton pair
 -1  = mmjjmax ! max invariant mass of a jet pair
 -1  = mmbbmax ! max invariant mass of a b pair
 -1  = mmaamax ! max invariant mass of gamma gamma pair
 -1  = mmllmax ! max invariant mass of l+l- (same flavour) lepton pair
#*********************************************************************
# Minimum and maximum invariant mass for all letpons                 *
#*********************************************************************
 0   = mmnl    ! min invariant mass for all letpons (l+- and vl) 
 -1  = mmnlmax ! max invariant mass for all letpons (l+- and vl) 
#*********************************************************************
# Minimum and maximum pt for 4-momenta sum of leptons                *
#*********************************************************************
 0   = ptllmin  ! Minimum pt for 4-momenta sum of leptons(l and vl)
 -1  = ptllmax  ! Maximum pt for 4-momenta sum of leptons(l and vl)
#*********************************************************************
# Inclusive cuts                                                     *
#*********************************************************************
 0  = xptj ! minimum pt for at least one jet  
 0  = xptb ! minimum pt for at least one b 
 0  = xpta ! minimum pt for at least one photon 
 0  = xptl ! minimum pt for at least one charged lepton 
#*********************************************************************
# Control the pt's of the jets sorted by pt                          *
#*********************************************************************
 0   = ptj1min ! minimum pt for the leading jet in pt
 0   = ptj2min ! minimum pt for the second jet in pt
 0   = ptj3min ! minimum pt for the third jet in pt
 0   = ptj4min ! minimum pt for the fourth jet in pt
 -1  = ptj1max ! maximum pt for the leading jet in pt 
 -1  = ptj2max ! maximum pt for the second jet in pt
 -1  = ptj3max ! maximum pt for the third jet in pt
 -1  = ptj4max ! maximum pt for the fourth jet in pt
 0   = cutuse  ! reject event if fails any (0) / all (1) jet pt cuts
#*********************************************************************
# Control the pt's of leptons sorted by pt                           *
#*********************************************************************
 0   = ptl1min ! minimum pt for the leading lepton in pt
 0   = ptl2min ! minimum pt for the second lepton in pt
 0   = ptl3min ! minimum pt for the third lepton in pt
 0   = ptl4min ! minimum pt for the fourth lepton in pt
 -1  = ptl1max ! maximum pt for the leading lepton in pt 
 -1  = ptl2max ! maximum pt for the second lepton in pt
 -1  = ptl3max ! maximum pt for the third lepton in pt
 -1  = ptl4max ! maximum pt for the fourth lepton in pt
#*********************************************************************
# Control the Ht(k)=Sum of k leading jets                            *
#*********************************************************************
 0   = htjmin ! minimum jet HT=Sum(jet pt)
 -1  = htjmax ! maximum jet HT=Sum(jet pt)
 0   = ihtmin  !inclusive Ht for all partons (including b)
 -1  = ihtmax  !inclusive Ht for all partons (including b)
 0   = ht2min ! minimum Ht for the two leading jets
 0   = ht3min ! minimum Ht for the three leading jets
 0   = ht4min ! minimum Ht for the four leading jets
 -1  = ht2max ! maximum Ht for the two leading jets
 -1  = ht3max ! maximum Ht for the three leading jets
 -1  = ht4max ! maximum Ht for the four leading jets
#***********************************************************************
# Photon-isolation cuts, according to hep-ph/9801442                   *
# When ptgmin=0, all the other parameters are ignored                  *
# When ptgmin>0, pta and draj are not going to be used                 *
#***********************************************************************
   0 = ptgmin ! Min photon transverse momentum
 0.4 = R0gamma ! Radius of isolation code
 1.0 = xn ! n parameter of eq.(3.4) in hep-ph/9801442
 1.0 = epsgamma ! epsilon_gamma parameter of eq.(3.4) in hep-ph/9801442
 .true. = isoEM ! isolate photons from EM energy (photons and leptons)
#*********************************************************************
# WBF cuts                                                           *
#*********************************************************************
 0   = xetamin ! minimum rapidity for two jets in the WBF case  
 0   = deltaeta ! minimum rapidity for two jets in the WBF case 
#*********************************************************************
# KT DURHAM CUT                                                      *
#*********************************************************************
 -1    =  ktdurham        
 0.4  =  dparameter 
#*********************************************************************
# maximal pdg code for quark to be considered as a light jet         *
# (otherwise b cuts are applied)                                     *
#*********************************************************************
 4 = maxjetflavor    ! Maximum jet pdg code
#*********************************************************************
# Jet measure cuts                                                   *
#*********************************************************************
 0   = xqcut   ! minimum kt jet measure between partons
#*********************************************************************
#
#*********************************************************************
# Store info for systematics studies                                 *
# WARNING: If use_syst is T, matched Pythia output is                *
#          meaningful ONLY if plotted taking matchscale              *
#          reweighting into account!                                 *
#*********************************************************************
   F  = use_syst      ! Enable systematics studies
#
#**************************************
# Parameter of the systematics study
#  will be used by SysCalc (if installed)
#**************************************                                  
#
0.5 1 2 = sys_scalefact  # factorization/renormalization scale factor
0.5 1 2 = sys_alpsfact  # \alpha_s emission scale factors
30 50 = sys_matchscale # variation of merging scale
# PDF sets and number of members (0 or none for all members).
CT10nlo.LHgrid = sys_pdf # matching scales
# MSTW2008nlo68cl.LHgrid 1  = sys_pdf
</MGRunCard>
<slha>
######################################################################
## PARAM_CARD AUTOMATICALY GENERATED BY MG5 FOLLOWING UFO MODEL   ####
######################################################################
##                                                                  ##
##  Width set on Auto will be computed following the information    ##
##        present in the decay.py files of the model.               ##
##        See  arXiv:1402.1178 for more details.                    ##
##                                                                  ##
######################################################################

###################################
## INFORMATION FOR CKMBLOCK
###################################
Block ckmblock 
    1 2.277360e-01 # cabi 

###################################
## INFORMATION FOR FRBLOCK
###################################
Block frblock 
    1 1.600000e+00 # gz 

###################################
## INFORMATION FOR MASS
###################################
Block mass 
    1 5.040000e-03 # MD 
    2 2.550000e-03 # MU 
    3 1.010000e-01 # MS 
    4 1.270000e+00 # MC 
    5 4.700000e+00 # MB 
    6 1.720000e+02 # MT 
   11 5.110000e-04 # Me 
   13 1.056600e-01 # MM 
   15 1.777000e+00 # MTA 
   23 9.118760e+01 # MZ 
   25 1.200000e+02 # MH 
  10030 2.400000e+03 # MZph 
  10031 3.000000e+02 # MZpl 
## Dependent parameters, given by model restrictions.
## Those values should be edited following the 
## analytical expression. MG5 ignores those values 
## but they are important for interfacing the output of MG5
## to external program such as Pythia.
  12 0.000000 # ve : 0.0 
  14 0.000000 # vm : 0.0 
  16 0.000000 # vt : 0.0 
  21 0.000000 # g : 0.0 
  22 0.000000 # a : 0.0 
  24 79.824360 # w+ : cmath.sqrt(MZ__exp__2/2. + cmath.sqrt(MZ__exp__4/4. - (aEW*cmath.pi*MZ__exp__2)/(Gf*sqrt__2))) 

###################################
## INFORMATION FOR SMINPUTS
###################################
Block sminputs 
    1 1.279000e+02 # aEWM1 
    2 1.166370e-05 # Gf 
    3 1.184000e-01 # aS 

###################################
## INFORMATION FOR YUKAWA
###################################
Block yukawa 
    1 5.040000e-03 # ymdo 
    2 2.550000e-03 # ymup 
    3 1.010000e-01 # yms 
    4 1.270000e+00 # ymc 
    5 4.700000e+00 # ymb 
    6 1.720000e+02 # ymt 
   11 5.110000e-04 # yme 
   13 1.056600e-01 # ymm 
   15 1.777000e+00 # ymtau 

###################################
## INFORMATION FOR DECAY
###################################
DECAY   6 1.508336e+00 # WT 
DECAY  23 2.495200e+00 # WZ 
DECAY  24 2.085000e+00 # WW 
DECAY  25 5.753088e-03 # WH 
## Dependent parameters, given by model restrictions.
## Those values should be edited following the 
## analytical expression. MG5 ignores those values 
## but they are important for interfacing the output of MG5
## to external program such as Pythia.
DECAY  1 0.000000 # d : 0.0 
DECAY  2 0.000000 # u : 0.0 
DECAY  3 0.000000 # s : 0.0 
DECAY  4 0.000000 # c : 0.0 
DECAY  5 0.000000 # b : 0.0 
DECAY  11 0.000000 # e- : 0.0 
DECAY  12 0.000000 # ve : 0.0 
DECAY  13 0.000000 # mu- : 0.0 
DECAY  14 0.000000 # vm : 0.0 
DECAY  15 0.000000 # ta- : 0.0 
DECAY  16 0.000000 # vt : 0.0 
DECAY  21 0.000000 # g : 0.0 
DECAY  22 0.000000 # a : 0.0 
DECAY  10030 0.308725 # zph : (gz__exp__2*MZph*(5 + cmath.sqrt(1 - (4*MT__exp__2)/MZph__exp__2)))/(144.*cmath.pi) 
DECAY  10031 0.132629 # zpl : (5*gz__exp__2*MZpl)/(144.*cmath.pi) 
#===========================================================
# QUANTUM NUMBERS OF NEW STATE(S) (NON SM PDG CODE)
#===========================================================

Block QNUMBERS 10030  # zph 
        1 0  # 3 times electric charge
        2 3  # number of spin states (2S+1)
        3 1  # colour rep (1: singlet, 3: triplet, 8: octet)
        4 0  # Particle/Antiparticle distinction (0=own anti)
Block QNUMBERS 10031  # zpl 
        1 0  # 3 times electric charge
        2 3  # number of spin states (2S+1)
        3 1  # colour rep (1: singlet, 3: triplet, 8: octet)
        4 0  # Particle/Antiparticle distinction (0=own anti)
</slha>
## END BANNER##
<MGGenerationInfo>
#  Number of Events        :         3908
#  Integrated weight (pb)  :  0.25878E-01
#  Max wgt                 :  0.97508E-05
#  Average wgt             :  0.66218E-05
</MGGenerationInfo>
</header>
<init>
     2212     2212  0.40000000000E+04  0.40000000000E+04 0 0  247000  247000 2   1
  0.25894538064E-01  0.89119918216E-04  0.97507570000E-05   0
</init>
<event>
 5   0  0.9144244E-05  0.2415178E+04  0.7818609E-02  0.8433843E-01
        2   -1    0    0  501    0  0.00000000000E+00  0.00000000000E+00  0.18907082535E+04  0.18907082535E+04  0.25500000920E-02 0. -1.
       -2   -1    0    0    0  501  0.00000000000E+00  0.00000000000E+00 -0.77128284463E+03  0.77128284463E+03  0.25500000920E-02 0.  1.
    10030    2    1    2    0    0  0.00000000000E+00  0.00000000000E+00  0.11194254088E+04  0.26619910981E+04  0.24151777078E+04 0.  0.
        1    1    3    3  502    0  0.78054323607E+03  0.26648331380E+03  0.15319001856E+04  0.17398216227E+04  0.50400001928E-02 0. -1.
       -1    1    3    3    0  502 -0.78054323607E+03 -0.26648331380E+03 -0.41247477680E+03  0.92216947544E+03  0.50400001928E-02 0.  1.
</event>
<event>
 5   0  0.9144244E-05  0.2480644E+04  0.7818609E-02  0.8409914E-01
        2   -1    0    0  501    0  0.00000000000E+00  0.00000000000E+00  0.23516046503E+04  0.23516046503E+04  0.25500000920E-02 0. -1.
       -2   -1    0    0    0  501  0.00000000000E+00  0.00000000000E+00 -0.65419095222E+03  0.65419095223E+03  0.25500000920E-02 0.  1.
    10030    2    1    2    0    0  0.00000000000E+00  0.00000000000E+00  0.16974136981E+04  0.30057956025E+04  0.24806438563E+04 0.  0.
        1    1    3    3  502    0 -0.95758561359E+03  0.25200514975E+03 -0.56362061832E+02  0.99179306556E+03  0.50400001928E-02 0.  1.
       -1    1    3    3    0  502  0.95758561359E+03 -0.25200514975E+03  0.17537757599E+04  0.20140025370E+04  0.50400001928E-02 0. -1.
</event>
<event>
 5   0  0.9182865E-05  0.2442429E+04  0.7818609E-02  0.8423788E-01
        2   -1    0    0  501    0  0.00000000000E+00  0.00000000000E+00  0.15942808417E+04  0.15942808417E+04  0.25500000920E-02 0. -1.
       -2   -1    0    0    0  501  0.00000000000E+00  0.00000000000E+00 -0.93544662225E+03  0.93544662226E+03  0.25500000920E-02 0.  1.
    10030    2    1    2    0    0  0.00000000000E+00  0.00000000000E+00  0.65883421945E+03  0.25297274640E+04  0.24424288144E+04 0.  0.
        3    1    3    3  502    0 -0.74461866629E+03 -0.36465653419E+03  0.12580879781E+04  0.15067238356E+04  0.10100000352E+00 0. -1.
       -3    1    3    3    0  502  0.74461866629E+03  0.36465653419E+03 -0.59925375863E+03  0.10230036283E+04  0.10100000352E+00 0.  1.
</event>
<event>
 5   0  0.9144244E-05  0.2404375E+04  0.7818609E-02  0.8437867E-01
        2   -1    0    0  501    0  0.00000000000E+00  0.00000000000E+00  0.10814537561E+04  0.10814537561E+04  0.25500000920E-02 0. -1.
       -2   -1    0    0    0  501  0.00000000000E+00  0.00000000000E+00 -0.13364003281E+04  0.13364003281E+04  0.25500000920E-02 0.  1.
    10030    2    1    2    0    0  0.00000000000E+00  0.00000000000E+00 -0.25494657201E+03  0.24178540843E+04  0.24043753073E+04 0.  0.
        1    1    3    3  502    0  0.64685306406E+03  0.77267835868E+03 -0.78674321748E+03  0.12784426552E+04  0.50400001928E-02 0.  1.
       -1    1    3    3    0  502 -0.64685306406E+03 -0.77267835868E+03  0.53179664547E+03  0.11394114290E+04  0.50400001928E-02 0. -1.
</event>
<event>
 5   0  0.9182865E-05  0.2426333E+04  0.7818609E-02  0.8429710E-01
       -2   -1    0    0    0  501  0.00000000000E+00  0.00000000000E+00  0.51889658105E+03  0.51889658106E+03  0.25500000920E-02 0. -1.
        2   -1    0    0  501    0  0.00000000000E+00  0.00000000000E+00 -0.28363505737E+04  0.28363505737E+04  0.25500000920E-02 0.  1.
    10030    2    1    2    0    0  0.00000000000E+00  0.00000000000E+00 -0.23174539926E+04  0.33552471547E+04  0.24263327186E+04 0.  0.
        3    1    3    3  502    0 -0.37433061577E+03  0.11512730765E+04 -0.12677835704E+04  0.17529484585E+04  0.10100000352E+00 0. -1.
       -3    1    3    3    0  502  0.37433061577E+03 -0.11512730765E+04 -0.10496704222E+04  0.16022986962E+04  0.10100000352E+00 0.  1.
</event>
<event>
 5   0  0.4208577E-05  0.2326255E+04  0.7818609E-02  0.8467641E-01
       -1   -1    0    0    0  501  0.00000000000E+00  0.00000000000E+00  0.10960969397E+04  0.10960969397E+04  0.50400001928E-02 0. -1.
        1   -1    0    0  501    0  0.00000000000E+00  0.00000000000E+00 -0.12342571146E+04  0.12342571147E+04  0.50400001928E-02 0.  1.
    10030    2    1    2    0    0  0.00000000000E+00  0.00000000000E+00 -0.13816017491E+03  0.23303540544E+04  0.23262548839E+04 0.  0.
        1    1    3    3  502    0  0.75812713882E+03 -0.32320700951E+03  0.75312555333E+03  0.11164307541E+04  0.50400001928E-02 0. -1.
       -1    1    3    3    0  502 -0.75812713882E+03  0.32320700951E+03 -0.89128572824E+03  0.12139233003E+04  0.50400001928E-02 0.  1.
</event>
<event>
 5   0  0.4061631E-05  0.2387890E+04  0.7818609E-02  0.8444051E-01
       -1   -1    0    0    0  501  0.00000000000E+00  0.00000000000E+00  0.15063570968E+04  0.15063570968E+04  0.50400001928E-02 0. -1.
        1   -1    0    0  501    0  0.00000000000E+00  0.00000000000E+00 -0.94632555767E+03  0.94632555768E+03  0.50400001928E-02 0.  1.
    10030    2    1    2    0    0  0.00000000000E+00  0.00000000000E+00  0.56003153917E+03  0.24526826545E+04  0.23878896287E+04 0.  0.
        3    1    3    3  502    0  0.32638868217E+03  0.10177288333E+04  0.82662350596E+03  0.13511506137E+04  0.10100000352E+00 0. -1.
       -3    1    3    3    0  502 -0.32638868217E+03 -0.10177288333E+04 -0.26659196679E+03  0.11015320408E+04  0.10100000352E+00 0.  1.
</event>
<event>
 5   0  0.9144244E-05  0.2426938E+04  0.7818609E-02  0.8429487E-01
       -2   -1    0    0    0  501  0.00000000000E+00  0.00000000000E+00  0.10690546047E+04  0.10690546047E+04  0.25500000920E-02 0.  1.
        2   -1    0    0  501    0  0.00000000000E+00  0.00000000000E+00 -0.13773916800E+04  0.13773916800E+04  0.25500000920E-02 0. -1.
    10030    2    1    2    0    0  0.00000000000E+00  0.00000000000E+00 -0.30833707532E+03  0.24464462848E+04  0.24269379210E+04 0.  0.
        1    1    3    3  502    0 -0.27045707614E+03  0.89368538044E+03  0.62710099967E+03  0.11247560860E+04  0.50400001928E-02 0.  1.
       -1    1    3    3    0  502  0.27045707614E+03 -0.89368538044E+03 -0.93543807499E+03  0.13216901987E+04  0.50400001928E-02 0. -1.
</event>
<event>
 5   0  0.3934906E-05  0.2305668E+04  0.7818609E-02  0.8475690E-01
       -1   -1    0    0    0  501  0.00000000000E+00  0.00000000000E+00  0.67702398375E+03  0.67702398377E+03  0.50400001928E-02 0. -1.
        1   -1    0    0  501    0  0.00000000000E+00  0.00000000000E+00 -0.19630416234E+04  0.19630416234E+04  0.50400001928E-02 0.  1.
    10030    2    1    2    0    0  0.00000000000E+00  0.00000000000E+00 -0.12860176396E+04  0.26400656071E+04  0.23056680248E+04 0.  0.
        2    1    3    3  502    0 -0.43531991699E+03 -0.58298391387E+03  0.38091728588E+03  0.82126223135E+03  0.25500000920E-02 0. -1.
       -2    1    3    3    0  502  0.43531991699E+03  0.58298391387E+03 -0.16669349255E+04  0.18188033758E+04  0.25500000920E-02 0.  1.
</event>
<event>
 5   0  0.9144244E-05  0.2423708E+04  0.7818609E-02  0.8430680E-01
       -2   -1    0    0    0  501  0.00000000000E+00  0.00000000000E+00  0.97039877097E+03  0.97039877098E+03  0.25500000920E-02 0.  1.
        2   -1    0    0  501    0  0.00000000000E+00  0.00000000000E+00 -0.15133888656E+04  0.15133888656E+04  0.25500000920E-02 0. -1.
    10030    2    1    2    0    0  0.00000000000E+00  0.00000000000E+00 -0.54299009462E+03  0.24837876366E+04  0.24237084768E+04 0.  0.
        1    1    3    3  502    0  0.73234338304E+03 -0.50010363030E+03  0.57490811114E+03  0.10568584617E+04  0.50400001928E-02 0.  1.
       -1    1    3    3    0  502 -0.73234338304E+03  0.50010363030E+03 -0.11178982058E+04  0.14269291749E+04  0.50400001928E-02 0. -1.
</event>
<event>
 5   0  0.3934906E-05  0.2367105E+04  0.7818609E-02  0.8451923E-01
        1   -1    0    0  501    0  0.00000000000E+00  0.00000000000E+00  0.14565816365E+04  0.14565816365E+04  0.50400001928E-02 0. -1.
       -1   -1    0    0    0  501  0.00000000000E+00  0.00000000000E+00 -0.96170155531E+03  0.96170155533E+03  0.50400001928E-02 0.  1.
    10030    2    1    2    0    0  0.00000000000E+00  0.00000000000E+00  0.49488008118E+03  0.24182831918E+04  0.23671052577E+04 0.  0.
        2    1    3    3  502    0  0.54353874978E+02  0.90011042215E+03 -0.53571299031E+03  0.10488763148E+04  0.25500000920E-02 0.  1.
       -2    1    3    3    0  502 -0.54353874978E+02 -0.90011042215E+03  0.10305930715E+04  0.13694068770E+04  0.25500000920E-02 0. -1.
</event>
<event>
 5   0  0.9491680E-05  0.2319126E+04  0.7818609E-02  0.8470418E-01
        2   -1    0    0  501    0  0.00000000000E+00  0.00000000000E+00  0.13703599374E+04  0.13703599374E+04  0.25500000920E-02 0. -1.
       -2   -1    0    0    0  501  0.00000000000E+00  0.00000000000E+00 -0.98119171093E+03  0.98119171094E+03  0.25500000920E-02 0.  1.
    10030    2    1    2    0    0  0.00000000000E+00  0.00000000000E+00  0.38916822649E+03  0.23515516484E+04  0.23191255349E+04 0.  0.
        5    1    3    3  502    0  0.24353596662E+03 -0.12189067728E+03  0.13374622597E+04  0.13649155616E+04  0.46999998093E+01 0. -1.
       -5    1    3    3    0  502 -0.24353596662E+03  0.12189067728E+03 -0.94829403321E+03  0.98663608674E+03  0.46999998093E+01 0.  1.
</event>
<event>
 5   0  0.4018942E-05  0.2148180E+04  0.7818609E-02  0.8540312E-01
       -1   -1    0    0    0  501  0.00000000000E+00  0.00000000000E+00  0.43180470245E+03  0.43180470248E+03  0.50400001928E-02 0. -1.
        1   -1    0    0  501    0  0.00000000000E+00  0.00000000000E+00 -0.26717389313E+04  0.26717389313E+04  0.50400001928E-02 0.  1.
    10030    2    1    2    0    0  0.00000000000E+00  0.00000000000E+00 -0.22399342288E+04  0.31035436338E+04  0.21481800989E+04 0.  0.
        5    1    3    3  502    0 -0.21032336158E+03  0.10385985295E+04 -0.13732056174E+04  0.17345427580E+04  0.46999998093E+01 0.  1.
       -5    1    3    3    0  502  0.21032336158E+03 -0.10385985295E+04 -0.86672861149E+03  0.13690008758E+04  0.46999998093E+01 0. -1.
</event>
<event>
 5   0  0.4208577E-05  0.2256808E+04  0.7818609E-02  0.8495149E-01
       -1   -1    0    0    0  501  0.00000000000E+00  0.00000000000E+00  0.11951380746E+04  0.11951380746E+04  0.50400001928E-02 0.  1.
        1   -1    0    0  501    0  0.00000000000E+00  0.00000000000E+00 -0.10653959883E+04  0.10653959883E+04  0.50400001928E-02 0. -1.
    10030    2    1    2    0    0  0.00000000000E+00  0.00000000000E+00  0.12974208631E+03  0.22605340629E+04  0.22568077544E+04 0.  0.
        1    1    3    3  502    0  0.93738331678E+02 -0.51223490507E+03 -0.93784320597E+03  0.10727168088E+04  0.50400001928E-02 0. -1.
       -1    1    3    3    0  502 -0.93738331678E+02  0.51223490507E+03  0.10675852923E+04  0.11878172541E+04  0.50400001928E-02 0.  1.
</event>
<event>
 5   0  0.4061631E-05  0.2400195E+04  0.7818609E-02  0.8439431E-01
        1   -1    0    0  501    0  0.00000000000E+00  0.00000000000E+00  0.12081839313E+04  0.12081839313E+04  0.50400001928E-02 0.  1.
       -1   -1    0    0    0  501  0.00000000000E+00  0.00000000000E+00 -0.11920647109E+04  0.11920647109E+04  0.50400001928E-02 0. -1.
    10030    2    1    2    0    0  0.00000000000E+00  0.00000000000E+00  0.16119220363E+02  0.24002486422E+04  0.24001945161E+04 0.  0.
        3    1    3    3  502    0 -0.11117459079E+04 -0.73861823352E+02 -0.43781913134E+03  0.11971299573E+04  0.10100000352E+00 0. -1.
       -3    1    3    3    0  502  0.11117459079E+04  0.73861823352E+02  0.45393835170E+03  0.12031186849E+04  0.10100000352E+00 0.  1.
</event>
<event>
 5   0  0.4061631E-05  0.2375080E+04  0.7818609E-02  0.8448892E-01
        1   -1    0    0  501    0  0.00000000000E+00  0.00000000000E+00  0.17309394571E+04  0.17309394571E+04  0.50400001928E-02 0. -1.
       -1   -1    0    0    0  501  0.00000000000E+00  0.00000000000E+00 -0.81473198173E+03  0.81473198175E+03  0.50400001928E-02 0.  1.
    10030    2    1    2    0    0  0.00000000000E+00  0.00000000000E+00  0.91620747537E+03  0.25456714389E+04  0.23750804064E+04 0.  0.
        3    1    3    3  502    0  0.73831665404E+03  0.91414344990E+03  0.27406787141E+03  0.12065997418E+04  0.10100000352E+00 0.  1.
       -3    1    3    3    0  502 -0.73831665404E+03 -0.91414344990E+03  0.64213960396E+03  0.13390716970E+04  0.10100000352E+00 0. -1.
</event>
<event>
 5   0  0.9144244E-05  0.2382300E+04  0.7818609E-02  0.8446160E-01
       -2   -1    0    0    0  501  0.00000000000E+00  0.00000000000E+00  0.13164613938E+04  0.13164613938E+04  0.25500000920E-02 0. -1.
        2   -1    0    0  501    0  0.00000000000E+00  0.00000000000E+00 -0.10777671828E+04  0.10777671828E+04  0.25500000920E-02 0.  1.
    10030    2    1    2    0    0  0.00000000000E+00  0.00000000000E+00  0.23869421106E+03  0.23942285766E+04  0.23823004745E+04 0.  0.
        1    1    3    3  502    0  0.56487905935E+03 -0.10486201700E+04  0.10719212718E+03  0.11959024897E+04  0.50400001928E-02 0. -1.
       -1    1    3    3    0  502 -0.56487905935E+03  0.10486201700E+04  0.13150208388E+03  0.11983260870E+04  0.50400001928E-02 0.  1.
</event>
<event>
 5   0  0.4260395E-05  0.2355882E+04  0.7818609E-02  0.8456208E-01
        1   -1    0    0  501    0  0.00000000000E+00  0.00000000000E+00  0.23315833024E+04  0.23315833024E+04  0.50400001928E-02 0.  1.
       -1   -1    0    0    0  501  0.00000000000E+00  0.00000000000E+00 -0.59510858138E+03  0.59510858140E+03  0.50400001928E-02 0. -1.
    10030    2    1    2    0    0  0.00000000000E+00  0.00000000000E+00  0.17364747210E+04  0.29266918838E+04  0.23558821970E+04 0.  0.
        4    1    3    3  502    0  0.68882773314E+03  0.21928571101E+03  0.20236174967E+04  0.21488599896E+04  0.12699999809E+01 0.  1.
       -4    1    3    3    0  502 -0.68882773314E+03 -0.21928571101E+03 -0.28714277576E+03  0.77783189415E+03  0.12699999809E+01 0. -1.
</event>
<event>
 5   0  0.4208577E-05  0.2035034E+04  0.7818609E-02  0.8590414E-01
       -1   -1    0    0    0  501  0.00000000000E+00  0.00000000000E+00  0.62259317689E+03  0.62259317691E+03  0.50400001928E-02 0.  1.
        1   -1    0    0  501    0  0.00000000000E+00  0.00000000000E+00 -0.16629485240E+04  0.16629485240E+04  0.50400001928E-02 0. -1.
    10030    2    1    2    0    0  0.00000000000E+00  0.00000000000E+00 -0.10403553471E+04  0.22855417009E+04  0.20350335669E+04 0.  0.
        1    1    3    3  502    0 -0.21713795969E+03 -0.15293766094E+03  0.58297742410E+03  0.64062586484E+03  0.50400001928E-02 0.  1.
       -1    1    3    3    0  502  0.21713795969E+03  0.15293766094E+03 -0.16233327712E+04  0.16449158361E+04  0.50400001928E-02 0. -1.
</event>
<event>
 5   0  0.9750757E-05  0.1751785E+04  0.7818609E-02  0.8732368E-01
       -2   -1    0    0    0  501  0.00000000000E+00  0.00000000000E+00  0.10166300926E+04  0.10166300926E+04  0.25500000920E-02 0.  1.
        2   -1    0    0  501    0  0.00000000000E+00  0.00000000000E+00 -0.75463815498E+03  0.75463815498E+03  0.25500000920E-02 0. -1.
    10030    2    1    2    0    0  0.00000000000E+00  0.00000000000E+00  0.26199193759E+03  0.17712682476E+04  0.17517852121E+04 0.  0.
        2    1    3    3  502    0 -0.44094388230E+03  0.71195615751E+03 -0.12851939247E+03  0.84724867176E+03  0.25500000920E-02 0. -1.
       -2    1    3    3    0  502  0.44094388230E+03 -0.71195615751E+03  0.39051133006E+03  0.92401957580E+03  0.25500000920E-02 0.  1.
</event>
<event>
 5   0  0.4061631E-05  0.2291928E+04  0.7818609E-02  0.8481110E-01
       -1   -1    0    0    0  501  0.00000000000E+00  0.00000000000E+00  0.86329206226E+03  0.86329206227E+03  0.50400001928E-02 0. -1.
        1   -1    0    0  501    0  0.00000000000E+00  0.00000000000E+00 -0.15211929700E+04  0.15211929700E+04  0.50400001928E-02 0.  1.
    10030    2    1    2    0    0  0.00000000000E+00  0.00000000000E+00 -0.65790090776E+03  0.23844850323E+04  0.22919282853E+04 0.  0.
        3    1    3    3  502    0 -0.10885730053E+04  0.58156226689E+02  0.38675412734E+02  0.10908112268E+04  0.10100000352E+00 0. -1.
       -3    1    3    3    0  502  0.10885730053E+04 -0.58156226689E+02 -0.69657632049E+03  0.12936738055E+04  0.10100000352E+00 0.  1.
</event>
<event>
 5   0  0.9182865E-05  0.2391975E+04  0.7818609E-02  0.8442514E-01
       -2   -1    0    0    0  501  0.00000000000E+00  0.00000000000E+00  0.11247472052E+04  0.11247472052E+04  0.25500000920E-02 0.  1.
        2   -1    0    0  501    0  0.00000000000E+00  0.00000000000E+00 -0.12717403873E+04  0.12717403873E+04  0.25500000920E-02 0. -1.
    10030    2    1    2    0    0  0.00000000000E+00  0.00000000000E+00 -0.14699318220E+03  0.23964875925E+04  0.23919752895E+04 0.  0.
        3    1    3    3  502    0  0.44532158753E+03 -0.85424092041E+03 -0.78359844877E+03  0.12417992614E+04  0.10100000352E+00 0. -1.
       -3    1    3    3    0  502 -0.44532158753E+03  0.85424092041E+03  0.63660526658E+03  0.11546883311E+04  0.10100000352E+00 0.  1.
</event>
<event>
 5   0  0.4208577E-05  0.2389231E+04  0.7818609E-02  0.8443546E-01
       -1   -1    0    0    0  501  0.00000000000E+00  0.00000000000E+00  0.91769225919E+03  0.91769225921E+03  0.50400001928E-02 0.  1.
        1   -1    0    0  501    0  0.00000000000E+00  0.00000000000E+00 -0.15551035248E+04  0.15551035248E+04  0.50400001928E-02 0. -1.
    10030    2    1    2    0    0  0.00000000000E+00  0.00000000000E+00 -0.63741126557E+03  0.24727957840E+04  0.23892312295E+04 0.  0.
        1    1    3    3  502    0 -0.16771235273E+03  0.45840370957E+03 -0.14471826016E+04  0.15272848053E+04  0.50400001928E-02 0. -1.
       -1    1    3    3    0  502  0.16771235273E+03 -0.45840370957E+03  0.80977133598E+03  0.94551097869E+03  0.50400001928E-02 0.  1.
</event>
<event>
 5   0  0.9750757E-05  0.2414351E+04  0.7818609E-02  0.8434150E-01
       -2   -1    0    0    0  501  0.00000000000E+00  0.00000000000E+00  0.74546850036E+03  0.74546850036E+03  0.25500000920E-02 0.  1.
        2   -1    0    0  501    0  0.00000000000E+00  0.00000000000E+00 -0.19548411622E+04  0.19548411622E+04  0.25500000920E-02 0. -1.
    10030    2    1    2    0    0  0.00000000000E+00  0.00000000000E+00 -0.12093726618E+04  0.27003096625E+04  0.24143508524E+04 0.  0.
        2    1    3    3  502    0  0.21928844619E+03  0.50734062109E+03 -0.18050143669E+04  0.18877390691E+04  0.25500000920E-02 0. -1.
       -2    1    3    3    0  502 -0.21928844619E+03 -0.50734062109E+03  0.59564170507E+03  0.81257059341E+03  0.25500000920E-02 0.  1.
</event>
<event>
 5   0  0.3934906E-05  0.2193119E+04  0.7818609E-02  0.8521298E-01
       -1   -1    0    0    0  501  0.00000000000E+00  0.00000000000E+00  0.75688168846E+03  0.75688168848E+03  0.50400001928E-02 0. -1.
        1   -1    0    0  501    0  0.00000000000E+00  0.00000000000E+00 -0.15886799338E+04  0.15886799338E+04  0.50400001928E-02 0.  1.
    10030    2    1    2    0    0  0.00000000000E+00  0.00000000000E+00 -0.83179824532E+03  0.23455616223E+04  0.21931190125E+04 0.  0.
        2    1    3    3  502    0  0.61540319994E+03 -0.90641532849E+03 -0.36650555981E+03  0.11552645461E+04  0.25500000920E-02 0.  1.
       -2    1    3    3    0  502 -0.61540319994E+03  0.90641532849E+03 -0.46529268551E+03  0.11902970761E+04  0.25500000920E-02 0. -1.
</event>
<event>
 5   0  0.9182865E-05  0.2260350E+04  0.7818609E-02  0.8493721E-01
        2   -1    0    0  501    0  0.00000000000E+00  0.00000000000E+00  0.15644258169E+04  0.15644258169E+04  0.25500000920E-02 0.  1.
       -2   -1    0    0    0  501  0.00000000000E+00  0.00000000000E+00 -0.81646277187E+03  0.81646277187E+03  0.25500000920E-02 0. -1.
    10030    2    1    2    0    0  0.00000000000E+00  0.00000000000E+00  0.74796304505E+03  0.23808885888E+04  0.22603499188E+04 0.  0.
        3    1    3    3  502    0 -0.21843892819E+03  0.53618747086E+03  0.13963511718E+04  0.15116246804E+04  0.10100000352E+00 0.  1.
       -3    1    3    3    0  502  0.21843892819E+03 -0.53618747086E+03 -0.64838812676E+03  0.86926390836E+03  0.10100000352E+00 0. -1.
</event>
<event>
 5   0  0.9491680E-05  0.2262808E+04  0.7818609E-02  0.8492731E-01
        2   -1    0    0  501    0  0.00000000000E+00  0.00000000000E+00  0.13795173902E+04  0.13795173902E+04  0.25500000920E-02 0. -1.
       -2   -1    0    0    0  501  0.00000000000E+00  0.00000000000E+00 -0.92791534853E+03  0.92791534854E+03  0.25500000920E-02 0.  1.
    10030    2    1    2    0    0  0.00000000000E+00  0.00000000000E+00  0.45160204164E+03  0.23074327387E+04  0.22628083082E+04 0.  0.
        5    1    3    3  502    0 -0.31892489378E+03 -0.35703242246E+02  0.13321231353E+04  0.13702415652E+04  0.46999998093E+01 0. -1.
       -5    1    3    3    0  502  0.31892489378E+03  0.35703242246E+02 -0.88052109365E+03  0.93719117353E+03  0.46999998093E+01 0.  1.
</event>
<event>
 5   0  0.3934906E-05  0.2089016E+04  0.7818609E-02  0.8566097E-01
        1   -1    0    0  501    0  0.00000000000E+00  0.00000000000E+00  0.17136016009E+04  0.17136016009E+04  0.50400001928E-02 0.  1.
       -1   -1    0    0    0  501  0.00000000000E+00  0.00000000000E+00 -0.63666904695E+03  0.63666904697E+03  0.50400001928E-02 0. -1.
    10030    2    1    2    0    0  0.00000000000E+00  0.00000000000E+00  0.10769325539E+04  0.23502706478E+04  0.20890161302E+04 0.  0.
        2    1    3    3  502    0 -0.99286759478E+03 -0.22026176078E+03  0.80635319424E+03  0.12978855026E+04  0.25500000920E-02 0. -1.
       -2    1    3    3    0  502  0.99286759478E+03  0.22026176078E+03  0.27057935968E+03  0.10523851452E+04  0.25500000920E-02 0.  1.
</event>
<event>
 5   0  0.9182865E-05  0.2394306E+04  0.7818609E-02  0.8441639E-01
        2   -1    0    0  501    0  0.00000000000E+00  0.00000000000E+00  0.69926736180E+03  0.69926736181E+03  0.25500000920E-02 0.  1.
       -2   -1    0    0    0  501  0.00000000000E+00  0.00000000000E+00 -0.20495377594E+04  0.20495377594E+04  0.25500000920E-02 0. -1.
    10030    2    1    2    0    0  0.00000000000E+00  0.00000000000E+00 -0.13502703976E+04  0.27488051212E+04  0.23943056295E+04 0.  0.
        3    1    3    3  502    0 -0.10728095570E+04 -0.29868761897E+03 -0.11795505066E+04  0.16221818786E+04  0.10100000352E+00 0. -1.
       -3    1    3    3    0  502  0.10728095570E+04  0.29868761897E+03 -0.17071989093E+03  0.11266232426E+04  0.10100000352E+00 0.  1.
</event>
<event>
 5   0  0.9144244E-05  0.2394180E+04  0.7818609E-02  0.8441686E-01
       -2   -1    0    0    0  501  0.00000000000E+00  0.00000000000E+00  0.89757121700E+03  0.89757121700E+03  0.25500000920E-02 0. -1.
        2   -1    0    0  501    0  0.00000000000E+00  0.00000000000E+00 -0.15965584255E+04  0.15965584255E+04  0.25500000920E-02 0.  1.
    10030    2    1    2    0    0  0.00000000000E+00  0.00000000000E+00 -0.69898720851E+03  0.24941296425E+04  0.23941803516E+04 0.  0.
        1    1    3    3  502    0 -0.25171866142E+02  0.32375572700E+03  0.85081093427E+03  0.91067592452E+03  0.50400001928E-02 0. -1.
       -1    1    3    3    0  502  0.25171866142E+02 -0.32375572700E+03 -0.15497981428E+04  0.15834537180E+04  0.50400001928E-02 0.  1.
</event>
<event>
 5   0  0.4018942E-05  0.2404980E+04  0.7818609E-02  0.8437641E-01
       -1   -1    0    0    0  501  0.00000000000E+00  0.00000000000E+00  0.86883804097E+03  0.86883804099E+03  0.50400001928E-02 0. -1.
        1   -1    0    0  501    0  0.00000000000E+00  0.00000000000E+00 -0.16642714864E+04  0.16642714865E+04  0.50400001928E-02 0.  1.
    10030    2    1    2    0    0  0.00000000000E+00  0.00000000000E+00 -0.79543344548E+03  0.25331095274E+04  0.24049801479E+04 0.  0.
        5    1    3    3  502    0 -0.28991662982E+03  0.70402897158E+03  0.58259581780E+03  0.95872228616E+03  0.46999998093E+01 0. -1.
       -5    1    3    3    0  502  0.28991662982E+03 -0.70402897158E+03 -0.13780292633E+04  0.15743872413E+04  0.46999998093E+01 0.  1.
</event>
<event>
 5   0  0.9182865E-05  0.2360947E+04  0.7818609E-02  0.8454271E-01
        2   -1    0    0  501    0  0.00000000000E+00  0.00000000000E+00  0.45316774919E+03  0.45316774920E+03  0.25500000920E-02 0. -1.
       -2   -1    0    0    0  501  0.00000000000E+00  0.00000000000E+00 -0.30750591103E+04  0.30750591103E+04  0.25500000920E-02 0.  1.
    10030    2    1    2    0    0  0.00000000000E+00  0.00000000000E+00 -0.26218913611E+04  0.35282268595E+04  0.23609469419E+04 0.  0.
        3    1    3    3  502    0 -0.75338250244E+03 -0.26286209284E+02 -0.26685111729E+04  0.27729457351E+04  0.10100000352E+00 0.  1.
       -3    1    3    3    0  502  0.75338250244E+03  0.26286209284E+02  0.46619811815E+02  0.75528112437E+03  0.10100000352E+00 0. -1.
</event>
<event>
 5   0  0.4260395E-05  0.2389752E+04  0.7818609E-02  0.8443350E-01
        1   -1    0    0  501    0  0.00000000000E+00  0.00000000000E+00  0.15112001368E+04  0.15112001368E+04  0.50400001928E-02 0. -1.
       -1   -1    0    0    0  501  0.00000000000E+00  0.00000000000E+00 -0.94476462173E+03  0.94476462174E+03  0.50400001928E-02 0.  1.
    10030    2    1    2    0    0  0.00000000000E+00  0.00000000000E+00  0.56643551506E+03  0.24559647585E+04  0.23897518077E+04 0.  0.
        4    1    3    3  502    0  0.47236232681E+03 -0.85905111400E+03 -0.41881359978E+03  0.10660682101E+04  0.12699999809E+01 0.  1.
       -4    1    3    3    0  502 -0.47236232681E+03  0.85905111400E+03  0.98524911484E+03  0.13898965485E+04  0.12699999809E+01 0. -1.
</event>
<event>
 5   0  0.4208577E-05  0.1384151E+04  0.7818609E-02  0.8965372E-01
        1   -1    0    0  501    0  0.00000000000E+00  0.00000000000E+00  0.49275922427E+03  0.49275922429E+03  0.50400001928E-02 0.  1.
       -1   -1    0    0    0  501  0.00000000000E+00  0.00000000000E+00 -0.97201290732E+03  0.97201290733E+03  0.50400001928E-02 0. -1.
    10030    2    1    2    0    0  0.00000000000E+00  0.00000000000E+00 -0.47925368305E+03  0.14647721316E+04  0.13841507522E+04 0.  0.
        1    1    3    3  502    0 -0.21463794359E+03 -0.52184302551E+03 -0.66369014594E+03  0.87113385880E+03  0.50400001928E-02 0. -1.
       -1    1    3    3    0  502  0.21463794359E+03  0.52184302551E+03  0.18443646289E+03  0.59363827283E+03  0.50400001928E-02 0.  1.
</event>
<event>
 5   0  0.4061631E-05  0.2459137E+04  0.7818609E-02  0.8417689E-01
        1   -1    0    0  501    0  0.00000000000E+00  0.00000000000E+00  0.23732437625E+04  0.23732437625E+04  0.50400001928E-02 0.  1.
       -1   -1    0    0    0  501  0.00000000000E+00  0.00000000000E+00 -0.63703478100E+03  0.63703478102E+03  0.50400001928E-02 0. -1.
    10030    2    1    2    0    0  0.00000000000E+00  0.00000000000E+00  0.17362089815E+04  0.30102785435E+04  0.24591371011E+04 0.  0.
        3    1    3    3  502    0  0.11025829732E+04  0.20982181867E+03  0.14827594380E+04  0.18596478079E+04  0.10100000352E+00 0.  1.
       -3    1    3    3    0  502 -0.11025829732E+04 -0.20982181867E+03  0.25344954352E+03  0.11506307356E+04  0.10100000352E+00 0. -1.
</event>
<event>
 5   0  0.9519092E-05  0.2431758E+04  0.7818609E-02  0.8427709E-01
       -2   -1    0    0    0  501  0.00000000000E+00  0.00000000000E+00  0.13053610583E+04  0.13053610583E+04  0.25500000920E-02 0.  1.
        2   -1    0    0  501    0  0.00000000000E+00  0.00000000000E+00 -0.11325311045E+04  0.11325311045E+04  0.25500000920E-02 0. -1.
    10030    2    1    2    0    0  0.00000000000E+00  0.00000000000E+00  0.17282995377E+03  0.24378921627E+04  0.24317582125E+04 0.  0.
        4    1    3    3  502    0  0.61599577525E+03 -0.69995621956E+03 -0.69591931001E+03  0.11634839077E+04  0.12699999809E+01 0. -1.
       -4    1    3    3    0  502 -0.61599577525E+03  0.69995621956E+03  0.86874926378E+03  0.12744082551E+04  0.12699999809E+01 0.  1.
</event>
<event>
 5   0  0.9519092E-05  0.2414835E+04  0.7818609E-02  0.8433970E-01
       -2   -1    0    0    0  501  0.00000000000E+00  0.00000000000E+00  0.63803083971E+03  0.63803083972E+03  0.25500000920E-02 0.  1.
        2   -1    0    0  501    0  0.00000000000E+00  0.00000000000E+00 -0.22849325531E+04  0.22849325531E+04  0.25500000920E-02 0. -1.
    10030    2    1    2    0    0  0.00000000000E+00  0.00000000000E+00 -0.16469017134E+04  0.29229633929E+04  0.24148353448E+04 0.  0.
        4    1    3    3  502    0 -0.39345519407E+02 -0.27960620106E+03 -0.22444069232E+04  0.22620989694E+04  0.12699999809E+01 0. -1.
       -4    1    3    3    0  502  0.39345519407E+02  0.27960620106E+03  0.59750520978E+03  0.66086442345E+03  0.12699999809E+01 0.  1.
</event>
<event>
 5   0  0.3934906E-05  0.2291119E+04  0.7818609E-02  0.8481431E-01
        1   -1    0    0  501    0  0.00000000000E+00  0.00000000000E+00  0.17487831746E+04  0.17487831746E+04  0.50400001928E-02 0. -1.
       -1   -1    0    0    0  501  0.00000000000E+00  0.00000000000E+00 -0.75041150181E+03  0.75041150183E+03  0.50400001928E-02 0.  1.
    10030    2    1    2    0    0  0.00000000000E+00  0.00000000000E+00  0.99837167282E+03  0.24991946765E+04  0.22911193844E+04 0.  0.
        2    1    3    3  502    0  0.32922064891E+03 -0.23728239384E+03 -0.66937415334E+03  0.78278408725E+03  0.25500000920E-02 0.  1.
       -2    1    3    3    0  502 -0.32922064891E+03  0.23728239384E+03  0.16677458262E+04  0.17164105892E+04  0.25500000920E-02 0. -1.
</event>
<event>
 5   0  0.4018942E-05  0.2126740E+04  0.7818609E-02  0.8549555E-01
        1   -1    0    0  501    0  0.00000000000E+00  0.00000000000E+00  0.23514075644E+04  0.23514075644E+04  0.50400001928E-02 0. -1.
       -1   -1    0    0    0  501  0.00000000000E+00  0.00000000000E+00 -0.48088453322E+03  0.48088453325E+03  0.50400001928E-02 0.  1.
    10030    2    1    2    0    0  0.00000000000E+00  0.00000000000E+00  0.18705230312E+04  0.28322920977E+04  0.21267397857E+04 0.  0.
        5    1    3    3  502    0  0.58555509914E+03  0.87588890052E+03  0.74376071773E+03  0.12896736934E+04  0.46999998093E+01 0. -1.
       -5    1    3    3    0  502 -0.58555509914E+03 -0.87588890052E+03  0.11267623135E+04  0.15426184043E+04  0.46999998093E+01 0.  1.
</event>
<event>
 5   0  0.4018942E-05  0.2507889E+04  0.7818609E-02  0.8400180E-01
        1   -1    0    0  501    0  0.00000000000E+00  0.00000000000E+00  0.14348101776E+04  0.14348101776E+04  0.50400001928E-02 0. -1.
       -1   -1    0    0    0  501  0.00000000000E+00  0.00000000000E+00 -0.10958781694E+04  0.10958781694E+04  0.50400001928E-02 0.  1.
    10030    2    1    2    0    0  0.00000000000E+00  0.00000000000E+00  0.33893200817E+03  0.25306883470E+04  0.25078892725E+04 0.  0.
        5    1    3    3  502    0  0.83930287098E+03  0.92313103586E+03  0.29612537793E+03  0.12823075092E+04  0.46999998093E+01 0.  1.
       -5    1    3    3    0  502 -0.83930287098E+03 -0.92313103586E+03  0.42806630241E+02  0.12483808378E+04  0.46999998093E+01 0. -1.
</event>
<event>
 5   0  0.9750757E-05  0.2361412E+04  0.7818609E-02  0.8454093E-01
        2   -1    0    0  501    0  0.00000000000E+00  0.00000000000E+00  0.20870894602E+04  0.20870894602E+04  0.25500000920E-02 0. -1.
       -2   -1    0    0    0  501  0.00000000000E+00  0.00000000000E+00 -0.66794784002E+03  0.66794784002E+03  0.25500000920E-02 0.  1.
    10030    2    1    2    0    0  0.00000000000E+00  0.00000000000E+00  0.14191416202E+04  0.27550373002E+04  0.23614122019E+04 0.  0.
        2    1    3    3  502    0 -0.46389520641E+03 -0.34861240208E+03  0.19092427569E+04  0.19954792092E+04  0.25500000920E-02 0. -1.
       -2    1    3    3    0  502  0.46389520641E+03  0.34861240208E+03 -0.49010113675E+03  0.75955809104E+03  0.25500000920E-02 0.  1.
</event>
<event>
 5   0  0.9182865E-05  0.2531169E+04  0.7818609E-02  0.8391965E-01
       -2   -1    0    0    0  501  0.00000000000E+00  0.00000000000E+00  0.85296000730E+03  0.85296000731E+03  0.25500000920E-02 0. -1.
        2   -1    0    0  501    0  0.00000000000E+00  0.00000000000E+00 -0.18778189801E+04  0.18778189801E+04  0.25500000920E-02 0.  1.
    10030    2    1    2    0    0  0.00000000000E+00  0.00000000000E+00 -0.10248589728E+04  0.27307789874E+04  0.25311692879E+04 0.  0.
        3    1    3    3  502    0  0.45879799753E+03  0.11621683790E+04 -0.72974303058E+03  0.14469470774E+04  0.10100000352E+00 0. -1.
       -3    1    3    3    0  502 -0.45879799753E+03 -0.11621683790E+04 -0.29511594226E+03  0.12838319101E+04  0.10100000352E+00 0.  1.
</event>
<event>
 5   0  0.9144244E-05  0.2450296E+04  0.7818609E-02  0.8420910E-01
        2   -1    0    0  501    0  0.00000000000E+00  0.00000000000E+00  0.21022737418E+04  0.21022737418E+04  0.25500000920E-02 0. -1.
       -2   -1    0    0    0  501  0.00000000000E+00  0.00000000000E+00 -0.71398269689E+03  0.71398269689E+03  0.25500000920E-02 0.  1.
    10030    2    1    2    0    0  0.00000000000E+00  0.00000000000E+00  0.13882910449E+04  0.28162564387E+04  0.24502955542E+04 0.  0.
        1    1    3    3  502    0 -0.12185698616E+04 -0.84903858648E+02  0.58592360867E+03  0.13547795570E+04  0.50400001928E-02 0.  1.
       -1    1    3    3    0  502  0.12185698616E+04  0.84903858648E+02  0.80236743623E+03  0.14614768817E+04  0.50400001928E-02 0. -1.
</event>
<event>
 5   0  0.9750757E-05  0.1758959E+04  0.7818609E-02  0.8728434E-01
       -2   -1    0    0    0  501  0.00000000000E+00  0.00000000000E+00  0.11680274003E+04  0.11680274003E+04  0.25500000920E-02 0. -1.
        2   -1    0    0  501    0  0.00000000000E+00  0.00000000000E+00 -0.66221435029E+03  0.66221435030E+03  0.25500000920E-02 0.  1.
    10030    2    1    2    0    0  0.00000000000E+00  0.00000000000E+00  0.50581304999E+03  0.18302417506E+04  0.17589593583E+04 0.  0.
        2    1    3    3  502    0  0.34688631254E+03 -0.34443304821E+03 -0.50783082892E+03  0.70488040782E+03  0.25500000920E-02 0.  1.
       -2    1    3    3    0  502 -0.34688631254E+03  0.34443304821E+03  0.10136438789E+04  0.11253613428E+04  0.25500000920E-02 0. -1.
</event>
<event>
 5   0  0.9182865E-05  0.2096443E+04  0.7818609E-02  0.8562812E-01
        2   -1    0    0  501    0  0.00000000000E+00  0.00000000000E+00  0.18246483421E+04  0.18246483421E+04  0.25500000920E-02 0.  1.
       -2   -1    0    0    0  501  0.00000000000E+00  0.00000000000E+00 -0.60218065428E+03  0.60218065429E+03  0.25500000920E-02 0. -1.
    10030    2    1    2    0    0  0.00000000000E+00  0.00000000000E+00  0.12224676878E+04  0.24268289964E+04  0.20964426369E+04 0.  0.
        3    1    3    3  502    0  0.97054328718E+03  0.37966897643E+03  0.74150876469E+03  0.12790379440E+04  0.10100000352E+00 0. -1.
       -3    1    3    3    0  502 -0.97054328718E+03 -0.37966897643E+03  0.48095892312E+03  0.11477910524E+04  0.10100000352E+00 0.  1.
</event>
<event>
 5   0  0.4018942E-05  0.2410119E+04  0.7818609E-02  0.8435725E-01
       -1   -1    0    0    0  501  0.00000000000E+00  0.00000000000E+00  0.12646178567E+04  0.12646178567E+04  0.50400001928E-02 0.  1.
        1   -1    0    0  501    0  0.00000000000E+00  0.00000000000E+00 -0.11483058736E+04  0.11483058736E+04  0.50400001928E-02 0. -1.
    10030    2    1    2    0    0  0.00000000000E+00  0.00000000000E+00  0.11631198307E+03  0.24129237303E+04  0.24101187628E+04 0.  0.
        5    1    3    3  502    0  0.34992386786E+03 -0.10481332037E+04 -0.42314886947E+03  0.11832611638E+04  0.46999998093E+01 0. -1.
       -5    1    3    3    0  502 -0.34992386786E+03  0.10481332037E+04  0.53946085254E+03  0.12296625665E+04  0.46999998093E+01 0.  1.
</event>
<event>
 5   0  0.9491680E-05  0.2219007E+04  0.7818609E-02  0.8510558E-01
        2   -1    0    0  501    0  0.00000000000E+00  0.00000000000E+00  0.99894071705E+03  0.99894071705E+03  0.25500000920E-02 0.  1.
       -2   -1    0    0    0  501  0.00000000000E+00  0.00000000000E+00 -0.12323036182E+04  0.12323036182E+04  0.25500000920E-02 0. -1.
    10030    2    1    2    0    0  0.00000000000E+00  0.00000000000E+00 -0.23336290114E+03  0.22312443352E+04  0.22190072194E+04 0.  0.
        5    1    3    3  502    0  0.33102409242E+03  0.55098292978E+03  0.79263802121E+03  0.10205176438E+04  0.46999998093E+01 0.  1.
       -5    1    3    3    0  502 -0.33102409242E+03 -0.55098292978E+03 -0.10260009223E+04  0.12107266914E+04  0.46999998093E+01 0. -1.
</event>
<event>
 5   0  0.4018942E-05  0.2246668E+04  0.7818609E-02  0.8499251E-01
       -1   -1    0    0    0  501  0.00000000000E+00  0.00000000000E+00  0.60615044122E+03  0.60615044124E+03  0.50400001928E-02 0. -1.
        1   -1    0    0  501    0  0.00000000000E+00  0.00000000000E+00 -0.20817918759E+04  0.20817918759E+04  0.50400001928E-02 0.  1.
    10030    2    1    2    0    0  0.00000000000E+00  0.00000000000E+00 -0.14756414347E+04  0.26879423171E+04  0.22466678118E+04 0.  0.
        5    1    3    3  502    0  0.83616468323E+03  0.54013408200E+03 -0.13605772069E+04  0.16858554593E+04  0.46999998093E+01 0. -1.
       -5    1    3    3    0  502 -0.83616468323E+03 -0.54013408200E+03 -0.11506422781E+03  0.10020868578E+04  0.46999998093E+01 0.  1.
</event>
<event>
 5   0  0.4061631E-05  0.2119844E+04  0.7818609E-02  0.8552552E-01
       -1   -1    0    0    0  501  0.00000000000E+00  0.00000000000E+00  0.54973229386E+03  0.54973229389E+03  0.50400001928E-02 0.  1.
        1   -1    0    0  501    0  0.00000000000E+00  0.00000000000E+00 -0.20436025170E+04  0.20436025170E+04  0.50400001928E-02 0. -1.
    10030    2    1    2    0    0  0.00000000000E+00  0.00000000000E+00 -0.14938702232E+04  0.25933348109E+04  0.21198436730E+04 0.  0.
        3    1    3    3  502    0  0.98651082599E+03  0.22625870891E+03 -0.36194021281E+03  0.10748941069E+04  0.10100000352E+00 0. -1.
       -3    1    3    3    0  502 -0.98651082599E+03 -0.22625870891E+03 -0.11319300104E+04  0.15184407041E+04  0.10100000352E+00 0.  1.
</event>
<event>
 5   0  0.9182865E-05  0.2236442E+04  0.7818609E-02  0.8503411E-01
       -2   -1    0    0    0  501  0.00000000000E+00  0.00000000000E+00  0.96491748791E+03  0.96491748792E+03  0.25500000920E-02 0.  1.
        2   -1    0    0  501    0  0.00000000000E+00  0.00000000000E+00 -0.12958812697E+04  0.12958812697E+04  0.25500000920E-02 0. -1.
    10030    2    1    2    0    0  0.00000000000E+00  0.00000000000E+00 -0.33096378181E+03  0.22607987576E+04  0.22364422634E+04 0.  0.
        3    1    3    3  502    0 -0.85378173032E+03  0.35687753305E+03 -0.80010366072E+03  0.12233031900E+04  0.10100000352E+00 0. -1.
       -3    1    3    3    0  502  0.85378173032E+03 -0.35687753305E+03  0.46913987891E+03  0.10374955676E+04  0.10100000352E+00 0.  1.
</event>
<event>
 5   0  0.4208577E-05  0.2399251E+04  0.7818609E-02  0.8439784E-01
        1   -1    0    0  501    0  0.00000000000E+00  0.00000000000E+00  0.29002049697E+04  0.29002049697E+04  0.50400001928E-02 0.  1.
       -1   -1    0    0    0  501  0.00000000000E+00  0.00000000000E+00 -0.49620680953E+03  0.49620680956E+03  0.50400001928E-02 0. -1.
    10030    2    1    2    0    0  0.00000000000E+00  0.00000000000E+00  0.24039981601E+04  0.33964117792E+04  0.23992510957E+04 0.  0.
        1    1    3    3  502    0  0.44419888278E+03 -0.10861198097E+03  0.27719852375E+04  0.28094503674E+04  0.50400001928E-02 0.  1.
       -1    1    3    3    0  502 -0.44419888278E+03  0.10861198097E+03 -0.36798707736E+03  0.58696141185E+03  0.50400001928E-02 0. -1.
</event>
<event>
 5   0  0.4061631E-05  0.2531233E+04  0.7818609E-02  0.8391942E-01
       -1   -1    0    0    0  501  0.00000000000E+00  0.00000000000E+00  0.95165395834E+03  0.95165395835E+03  0.50400001928E-02 0.  1.
        1   -1    0    0  501    0  0.00000000000E+00  0.00000000000E+00 -0.16831593400E+04  0.16831593400E+04  0.50400001928E-02 0. -1.
    10030    2    1    2    0    0  0.00000000000E+00  0.00000000000E+00 -0.73150538163E+03  0.26348132983E+04  0.25312330975E+04 0.  0.
        3    1    3    3  502    0  0.11627333484E+04 -0.40821421149E+02 -0.88430474094E+03  0.14613726810E+04  0.10100000352E+00 0.  1.
       -3    1    3    3    0  502 -0.11627333484E+04  0.40821421149E+02  0.15279935931E+03  0.11734406173E+04  0.10100000352E+00 0. -1.
</event>
<event>
 5   0  0.4260395E-05  0.2338022E+04  0.7818609E-02  0.8463079E-01
        1   -1    0    0  501    0  0.00000000000E+00  0.00000000000E+00  0.97064219048E+03  0.97064219049E+03  0.50400001928E-02 0.  1.
       -1   -1    0    0    0  501  0.00000000000E+00  0.00000000000E+00 -0.14079206463E+04  0.14079206463E+04  0.50400001928E-02 0. -1.
    10030    2    1    2    0    0  0.00000000000E+00  0.00000000000E+00 -0.43727845577E+03  0.23785628367E+04  0.23380223952E+04 0.  0.
        4    1    3    3  502    0 -0.92715397898E+03 -0.22853560520E+03  0.46739969376E+03  0.10631590239E+04  0.12699999809E+01 0.  1.
       -4    1    3    3    0  502  0.92715397898E+03  0.22853560520E+03 -0.90467814953E+03  0.13154038128E+04  0.12699999809E+01 0. -1.
</event>
<event>
 5   0  0.4018942E-05  0.2363862E+04  0.7818609E-02  0.8453158E-01
       -1   -1    0    0    0  501  0.00000000000E+00  0.00000000000E+00  0.60248136179E+03  0.60248136181E+03  0.50400001928E-02 0.  1.
        1   -1    0    0  501    0  0.00000000000E+00  0.00000000000E+00 -0.23186788891E+04  0.23186788891E+04  0.50400001928E-02 0. -1.
    10030    2    1    2    0    0  0.00000000000E+00  0.00000000000E+00 -0.17161975273E+04  0.29211602509E+04  0.23638619373E+04 0.  0.
        5    1    3    3  502    0  0.67629840403E+03 -0.57439318053E+03 -0.18229648325E+04  0.20274441861E+04  0.46999998093E+01 0. -1.
       -5    1    3    3    0  502 -0.67629840403E+03  0.57439318053E+03  0.10676730516E+03  0.89371606486E+03  0.46999998093E+01 0.  1.
</event>
<event>
 5   0  0.9519092E-05  0.2346543E+04  0.7818609E-02  0.8459793E-01
       -2   -1    0    0    0  501  0.00000000000E+00  0.00000000000E+00  0.50385229987E+03  0.50385229988E+03  0.25500000920E-02 0. -1.
        2   -1    0    0  501    0  0.00000000000E+00  0.00000000000E+00 -0.27320813335E+04  0.27320813335E+04  0.25500000920E-02 0.  1.
    10030    2    1    2    0    0  0.00000000000E+00  0.00000000000E+00 -0.22282290337E+04  0.32359336334E+04  0.23465425318E+04 0.  0.
        4    1    3    3  502    0  0.35772751687E+03  0.10006485331E+04 -0.17998883971E+04  0.20901833216E+04  0.12699999809E+01 0.  1.
       -4    1    3    3    0  502 -0.35772751687E+03 -0.10006485331E+04 -0.42834063658E+03  0.11457503118E+04  0.12699999809E+01 0. -1.
</event>
<event>
 5   0  0.9144244E-05  0.2383442E+04  0.7818609E-02  0.8445729E-01
       -2   -1    0    0    0  501  0.00000000000E+00  0.00000000000E+00  0.76917665082E+03  0.76917665082E+03  0.25500000920E-02 0. -1.
        2   -1    0    0  501    0  0.00000000000E+00  0.00000000000E+00 -0.18463892038E+04  0.18463892038E+04  0.25500000920E-02 0.  1.
    10030    2    1    2    0    0  0.00000000000E+00  0.00000000000E+00 -0.10772125529E+04  0.26155658546E+04  0.23834424380E+04 0.  0.
        1    1    3    3  502    0  0.55242539541E+03 -0.30814692293E+03  0.56974191612E+03  0.85131321769E+03  0.50400001928E-02 0. -1.
       -1    1    3    3    0  502 -0.55242539541E+03  0.30814692293E+03 -0.16469544691E+04  0.17642526369E+04  0.50400001928E-02 0.  1.
</event>
<event>
 5   0  0.4260395E-05  0.2161076E+04  0.7818609E-02  0.8534806E-01
        1   -1    0    0  501    0  0.00000000000E+00  0.00000000000E+00  0.15982243745E+04  0.15982243745E+04  0.50400001928E-02 0. -1.
       -1   -1    0    0    0  501  0.00000000000E+00  0.00000000000E+00 -0.73053690151E+03  0.73053690153E+03  0.50400001928E-02 0.  1.
    10030    2    1    2    0    0  0.00000000000E+00  0.00000000000E+00  0.86768747294E+03  0.23287612760E+04  0.21610755493E+04 0.  0.
        4    1    3    3  502    0 -0.90901104186E+02 -0.98099407464E+03 -0.44379507393E+02  0.98619650111E+03  0.12699999809E+01 0.  1.
       -4    1    3    3    0  502  0.90901104186E+02  0.98099407464E+03  0.91206698033E+03  0.13425647749E+04  0.12699999809E+01 0. -1.
</event>
<event>
 5   0  0.9750757E-05  0.2403660E+04  0.7818609E-02  0.8438135E-01
       -2   -1    0    0    0  501  0.00000000000E+00  0.00000000000E+00  0.89574254731E+03  0.89574254732E+03  0.25500000920E-02 0.  1.
        2   -1    0    0  501    0  0.00000000000E+00  0.00000000000E+00 -0.16125116039E+04  0.16125116039E+04  0.25500000920E-02 0. -1.
    10030    2    1    2    0    0  0.00000000000E+00  0.00000000000E+00 -0.71676905661E+03  0.25082541512E+04  0.24036599191E+04 0.  0.
        2    1    3    3  502    0  0.10905233925E+04  0.61184328580E+02 -0.88161157967E+03  0.14036465969E+04  0.25500000920E-02 0. -1.
       -2    1    3    3    0  502 -0.10905233925E+04 -0.61184328580E+02  0.16484252306E+03  0.11046075543E+04  0.25500000920E-02 0.  1.
</event>
<event>
 5   0  0.4018942E-05  0.2381062E+04  0.7818609E-02  0.8446628E-01
       -1   -1    0    0    0  501  0.00000000000E+00  0.00000000000E+00  0.12698581609E+04  0.12698581609E+04  0.50400001928E-02 0. -1.
        1   -1    0    0  501    0  0.00000000000E+00  0.00000000000E+00 -0.11161591791E+04  0.11161591791E+04  0.50400001928E-02 0.  1.
    10030    2    1    2    0    0  0.00000000000E+00  0.00000000000E+00  0.15369898182E+03  0.23860173400E+04  0.23810618156E+04 0.  0.
        5    1    3    3  502    0 -0.82493014890E+02  0.53431988003E+03  0.11397355202E+04  0.12614761106E+04  0.46999998093E+01 0. -1.
       -5    1    3    3    0  502  0.82493014890E+02 -0.53431988003E+03 -0.98603653835E+03  0.11245412294E+04  0.46999998093E+01 0.  1.
</event>
<event>
 5   0  0.9750757E-05  0.2308967E+04  0.7818609E-02  0.8474394E-01
       -2   -1    0    0    0  501  0.00000000000E+00  0.00000000000E+00  0.70122257850E+03  0.70122257851E+03  0.25500000920E-02 0. -1.
        2   -1    0    0  501    0  0.00000000000E+00  0.00000000000E+00 -0.19007265237E+04  0.19007265237E+04  0.25500000920E-02 0.  1.
    10030    2    1    2    0    0  0.00000000000E+00  0.00000000000E+00 -0.11995039452E+04  0.26019491023E+04  0.23089671752E+04 0.  0.
        2    1    3    3  502    0 -0.10232325156E+04  0.52855476526E+03 -0.69030667344E+03  0.13427204565E+04  0.25500000920E-02 0. -1.
       -2    1    3    3    0  502  0.10232325156E+04 -0.52855476526E+03 -0.50919727180E+03  0.12592286458E+04  0.25500000920E-02 0.  1.
</event>
<event>
 5   0  0.4260395E-05  0.2230179E+04  0.7818609E-02  0.8505971E-01
       -1   -1    0    0    0  501  0.00000000000E+00  0.00000000000E+00  0.81718323102E+03  0.81718323104E+03  0.50400001928E-02 0. -1.
        1   -1    0    0  501    0  0.00000000000E+00  0.00000000000E+00 -0.15215979374E+04  0.15215979374E+04  0.50400001928E-02 0.  1.
    10030    2    1    2    0    0  0.00000000000E+00  0.00000000000E+00 -0.70441470637E+03  0.23387811684E+04  0.22301787541E+04 0.  0.
        4    1    3    3  502    0 -0.15820353144E+03 -0.10128699578E+04  0.10789308131E+03  0.10308134840E+04  0.12699999809E+01 0. -1.
       -4    1    3    3    0  502  0.15820353144E+03  0.10128699578E+04 -0.81230778767E+03  0.13079676845E+04  0.12699999809E+01 0.  1.
</event>
<event>
 5   0  0.4260395E-05  0.2451689E+04  0.7818609E-02  0.8420401E-01
        1   -1    0    0  501    0  0.00000000000E+00  0.00000000000E+00  0.16929279830E+04  0.16929279830E+04  0.50400001928E-02 0.  1.
       -1   -1    0    0    0  501  0.00000000000E+00  0.00000000000E+00 -0.88763087212E+03  0.88763087213E+03  0.50400001928E-02 0. -1.
    10030    2    1    2    0    0  0.00000000000E+00  0.00000000000E+00  0.80529711085E+03  0.25805588551E+04  0.24516893294E+04 0.  0.
        4    1    3    3  502    0  0.10743267354E+03  0.46240652366E+02 -0.88174363682E+03  0.88946806084E+03  0.12699999809E+01 0. -1.
       -4    1    3    3    0  502 -0.10743267354E+03 -0.46240652366E+02  0.16870407477E+04  0.16910907943E+04  0.12699999809E+01 0.  1.
</event>
<event>
 5   0  0.3934906E-05  0.2171952E+04  0.7818609E-02  0.8530194E-01
       -1   -1    0    0    0  501  0.00000000000E+00  0.00000000000E+00  0.23955245699E+04  0.23955245699E+04  0.50400001928E-02 0. -1.
        1   -1    0    0  501    0  0.00000000000E+00  0.00000000000E+00 -0.49231129382E+03  0.49231129384E+03  0.50400001928E-02 0.  1.
    10030    2    1    2    0    0  0.00000000000E+00  0.00000000000E+00  0.19032132761E+04  0.28878358637E+04  0.21719519335E+04 0.  0.
        2    1    3    3  502    0  0.54199338879E+02  0.10736516470E+04  0.11562031494E+04  0.15787562035E+04  0.25500000920E-02 0. -1.
       -2    1    3    3    0  502 -0.54199338879E+02 -0.10736516470E+04  0.74701012670E+03  0.13090796602E+04  0.25500000920E-02 0.  1.
</event>
<event>
 5   0  0.9519092E-05  0.2422551E+04  0.7818609E-02  0.8431109E-01
       -2   -1    0    0    0  501  0.00000000000E+00  0.00000000000E+00  0.11104258111E+04  0.11104258111E+04  0.25500000920E-02 0.  1.
        2   -1    0    0  501    0  0.00000000000E+00  0.00000000000E+00 -0.13212845460E+04  0.13212845460E+04  0.25500000920E-02 0. -1.
    10030    2    1    2    0    0  0.00000000000E+00  0.00000000000E+00 -0.21085873497E+03  0.24317103571E+04  0.24225511047E+04 0.  0.
        4    1    3    3  502    0 -0.61567850900E+03 -0.91264179954E+03  0.40166553741E+03  0.11718839096E+04  0.12699999809E+01 0.  1.
       -4    1    3    3    0  502  0.61567850900E+03  0.91264179954E+03 -0.61252427238E+03  0.12598264475E+04  0.12699999809E+01 0. -1.
</event>
<event>
 5   0  0.3234750E-05  0.2385631E+04  0.7818609E-02  0.8444903E-01
       -3   -1    0    0    0  501  0.00000000000E+00  0.00000000000E+00  0.92960749498E+03  0.92960750047E+03  0.10100000352E+00 0.  1.
        3   -1    0    0  501    0  0.00000000000E+00  0.00000000000E+00 -0.15305478875E+04  0.15305478908E+04  0.10100000352E+00 0. -1.
    10030    2    1    2    0    0  0.00000000000E+00  0.00000000000E+00 -0.60094039249E+03  0.24601553913E+04  0.23856309844E+04 0.  0.
        1    1    3    3  502    0  0.16430095538E+02 -0.13796409975E+03  0.92123442663E+03  0.93165278387E+03  0.50400001928E-02 0.  1.
       -1    1    3    3    0  502 -0.16430095538E+02  0.13796409975E+03 -0.15221748191E+04  0.15285026074E+04  0.50400001928E-02 0. -1.
</event>
<event>
 5   0  0.9491680E-05  0.1478803E+04  0.7818609E-02  0.8898673E-01
       -2   -1    0    0    0  501  0.00000000000E+00  0.00000000000E+00  0.48200979953E+03  0.48200979953E+03  0.25500000920E-02 0.  1.
        2   -1    0    0  501    0  0.00000000000E+00  0.00000000000E+00 -0.11342390020E+04  0.11342390020E+04  0.25500000920E-02 0. -1.
    10030    2    1    2    0    0  0.00000000000E+00  0.00000000000E+00 -0.65222920244E+03  0.16162488015E+04  0.14788026426E+04 0.  0.
        5    1    3    3  502    0  0.49933630769E+03  0.47303990987E+03 -0.29628990487E+02  0.68847910032E+03  0.46999998093E+01 0.  1.
       -5    1    3    3    0  502 -0.49933630769E+03 -0.47303990987E+03 -0.62260021195E+03  0.92776970118E+03  0.46999998093E+01 0. -1.
</event>
<event>
 5   0  0.9491680E-05  0.2338335E+04  0.7818609E-02  0.8462958E-01
        2   -1    0    0  501    0  0.00000000000E+00  0.00000000000E+00  0.94536118494E+03  0.94536118495E+03  0.25500000920E-02 0.  1.
       -2   -1    0    0    0  501  0.00000000000E+00  0.00000000000E+00 -0.14459575072E+04  0.14459575072E+04  0.25500000920E-02 0. -1.
    10030    2    1    2    0    0  0.00000000000E+00  0.00000000000E+00 -0.50059632222E+03  0.23913186921E+04  0.23383345375E+04 0.  0.
        5    1    3    3  502    0  0.47778745610E+03  0.33177281715E+03 -0.12874658975E+04  0.14127790282E+04  0.46999998093E+01 0. -1.
       -5    1    3    3    0  502 -0.47778745610E+03 -0.33177281715E+03  0.78686957524E+03  0.97853966391E+03  0.46999998093E+01 0.  1.
</event>
<event>
 5   0  0.9519092E-05  0.2452925E+04  0.7818609E-02  0.8419951E-01
       -2   -1    0    0    0  501  0.00000000000E+00  0.00000000000E+00  0.82378638212E+03  0.82378638212E+03  0.25500000920E-02 0.  1.
        2   -1    0    0  501    0  0.00000000000E+00  0.00000000000E+00 -0.18259710834E+04  0.18259710834E+04  0.25500000920E-02 0. -1.
    10030    2    1    2    0    0  0.00000000000E+00  0.00000000000E+00 -0.10021847013E+04  0.26497574655E+04  0.24529248767E+04 0.  0.
        4    1    3    3  502    0 -0.73800273891E+03  0.80154701948E+03 -0.11093789393E+04  0.15549433787E+04  0.12699999809E+01 0. -1.
       -4    1    3    3    0  502  0.73800273891E+03 -0.80154701948E+03  0.10719423804E+03  0.10948140868E+04  0.12699999809E+01 0.  1.
</event>
<event>
 5   0  0.4260395E-05  0.2355124E+04  0.7818609E-02  0.8456498E-01
       -1   -1    0    0    0  501  0.00000000000E+00  0.00000000000E+00  0.17363543614E+04  0.17363543614E+04  0.50400001928E-02 0. -1.
        1   -1    0    0  501    0  0.00000000000E+00  0.00000000000E+00 -0.79859998465E+03  0.79859998467E+03  0.50400001928E-02 0.  1.
    10030    2    1    2    0    0  0.00000000000E+00  0.00000000000E+00  0.93775437673E+03  0.25349543461E+04  0.23551242569E+04 0.  0.
        4    1    3    3  502    0 -0.55003638556E+03 -0.10374086984E+04  0.56451027909E+03  0.13028546738E+04  0.12699999809E+01 0. -1.
       -4    1    3    3    0  502  0.55003638556E+03  0.10374086984E+04  0.37324409764E+03  0.12320996722E+04  0.12699999809E+01 0.  1.
</event>
<event>
 5   0  0.3934906E-05  0.2395634E+04  0.7818609E-02  0.8441140E-01
       -1   -1    0    0    0  501  0.00000000000E+00  0.00000000000E+00  0.66089648274E+03  0.66089648276E+03  0.50400001928E-02 0. -1.
        1   -1    0    0  501    0  0.00000000000E+00  0.00000000000E+00 -0.21709375199E+04  0.21709375199E+04  0.50400001928E-02 0.  1.
    10030    2    1    2    0    0  0.00000000000E+00  0.00000000000E+00 -0.15100410372E+04  0.28318340027E+04  0.23956335039E+04 0.  0.
        2    1    3    3  502    0  0.28686097328E+03  0.74675396079E+03  0.29884624294E+03  0.85395536937E+03  0.25500000920E-02 0. -1.
       -2    1    3    3    0  502 -0.28686097328E+03 -0.74675396079E+03 -0.18088872801E+04  0.19778786333E+04  0.25500000920E-02 0.  1.
</event>
<event>
 5   0  0.9750757E-05  0.2352137E+04  0.7818609E-02  0.8457643E-01
        2   -1    0    0  501    0  0.00000000000E+00  0.00000000000E+00  0.11806451744E+04  0.11806451744E+04  0.25500000920E-02 0. -1.
       -2   -1    0    0    0  501  0.00000000000E+00  0.00000000000E+00 -0.11715096125E+04  0.11715096125E+04  0.25500000920E-02 0.  1.
    10030    2    1    2    0    0  0.00000000000E+00  0.00000000000E+00  0.91355618719E+01  0.23521547869E+04  0.23521370460E+04 0.  0.
        2    1    3    3  502    0 -0.10812176171E+04  0.19383776378E+03 -0.41559316384E+03  0.11744455254E+04  0.25500000920E-02 0.  1.
       -2    1    3    3    0  502  0.10812176171E+04 -0.19383776378E+03  0.42472872571E+03  0.11777092615E+04  0.25500000920E-02 0. -1.
</event>
<event>
 5   0  0.3934906E-05  0.2221673E+04  0.7818609E-02  0.8509461E-01
       -1   -1    0    0    0  501  0.00000000000E+00  0.00000000000E+00  0.66816142807E+03  0.66816142809E+03  0.50400001928E-02 0.  1.
        1   -1    0    0  501    0  0.00000000000E+00  0.00000000000E+00 -0.18467957344E+04  0.18467957344E+04  0.50400001928E-02 0. -1.
    10030    2    1    2    0    0  0.00000000000E+00  0.00000000000E+00 -0.11786343063E+04  0.25149571625E+04  0.22216729510E+04 0.  0.
        2    1    3    3  502    0  0.70690524090E+03  0.54152030285E+02 -0.15573749428E+04  0.17111587227E+04  0.25500000920E-02 0. -1.
       -2    1    3    3    0  502 -0.70690524090E+03 -0.54152030285E+02  0.37874063647E+03  0.80379843973E+03  0.25500000920E-02 0.  1.
</event>
<event>
 5   0  0.9182865E-05  0.2328231E+04  0.7818609E-02  0.8466873E-01
        2   -1    0    0  501    0  0.00000000000E+00  0.00000000000E+00  0.15349627054E+04  0.15349627054E+04  0.25500000920E-02 0.  1.
       -2   -1    0    0    0  501  0.00000000000E+00  0.00000000000E+00 -0.88286479505E+03  0.88286479506E+03  0.25500000920E-02 0. -1.
    10030    2    1    2    0    0  0.00000000000E+00  0.00000000000E+00  0.65209791037E+03  0.24178275005E+04  0.23282306882E+04 0.  0.
        3    1    3    3  502    0 -0.12865466650E+03  0.57141026868E+03 -0.71869921228E+03  0.92714092041E+03  0.10100000352E+00 0. -1.
       -3    1    3    3    0  502  0.12865466650E+03 -0.57141026868E+03  0.13707971226E+04  0.14906865801E+04  0.10100000352E+00 0.  1.
</event>
<event>
 5   0  0.9491680E-05  0.2415375E+04  0.7818609E-02  0.8433770E-01
        2   -1    0    0  501    0  0.00000000000E+00  0.00000000000E+00  0.12626091404E+04  0.12626091404E+04  0.25500000920E-02 0.  1.
       -2   -1    0    0    0  501  0.00000000000E+00  0.00000000000E+00 -0.11551546705E+04  0.11551546705E+04  0.25500000920E-02 0. -1.
    10030    2    1    2    0    0  0.00000000000E+00  0.00000000000E+00  0.10745446988E+03  0.24177638108E+04  0.24153747912E+04 0.  0.
        5    1    3    3  502    0  0.55766119877E+03  0.57133416689E+03  0.96075703249E+03  0.12491937033E+04  0.46999998093E+01 0.  1.
       -5    1    3    3    0  502 -0.55766119877E+03 -0.57133416689E+03 -0.85330256262E+03  0.11685701075E+04  0.46999998093E+01 0. -1.
</event>
<event>
 5   0  0.4018942E-05  0.2383053E+04  0.7818609E-02  0.8445876E-01
       -1   -1    0    0    0  501  0.00000000000E+00  0.00000000000E+00  0.15931721152E+04  0.15931721152E+04  0.50400001928E-02 0.  1.
        1   -1    0    0  501    0  0.00000000000E+00  0.00000000000E+00 -0.89113711913E+03  0.89113711914E+03  0.50400001928E-02 0. -1.
    10030    2    1    2    0    0  0.00000000000E+00  0.00000000000E+00  0.70203499609E+03  0.24843092344E+04  0.23830525039E+04 0.  0.
        5    1    3    3  502    0  0.71960185279E+03  0.94795993443E+03  0.29151462537E+03  0.12253398429E+04  0.46999998093E+01 0.  1.
       -5    1    3    3    0  502 -0.71960185279E+03 -0.94795993443E+03  0.41052037071E+03  0.12589693914E+04  0.46999998093E+01 0. -1.
</event>
<event>
 5   0  0.4061631E-05  0.2197609E+04  0.7818609E-02  0.8519424E-01
        1   -1    0    0  501    0  0.00000000000E+00  0.00000000000E+00  0.17588608494E+04  0.17588608494E+04  0.50400001928E-02 0. -1.
       -1   -1    0    0    0  501  0.00000000000E+00  0.00000000000E+00 -0.68645048691E+03  0.68645048692E+03  0.50400001928E-02 0.  1.
    10030    2    1    2    0    0  0.00000000000E+00  0.00000000000E+00  0.10724103624E+04  0.24453113363E+04  0.21976085971E+04 0.  0.
        3    1    3    3  502    0  0.19563974221E+03  0.78163230877E+03 -0.29509538225E+03  0.85808232104E+03  0.10100000352E+00 0.  1.
       -3    1    3    3    0  502 -0.19563974221E+03 -0.78163230877E+03  0.13675057447E+04  0.15872290152E+04  0.10100000352E+00 0. -1.
</event>
<event>
 5   0  0.9182865E-05  0.2419982E+04  0.7818609E-02  0.8432060E-01
        2   -1    0    0  501    0  0.00000000000E+00  0.00000000000E+00  0.10649171563E+04  0.10649171563E+04  0.25500000920E-02 0. -1.
       -2   -1    0    0    0  501  0.00000000000E+00  0.00000000000E+00 -0.13748283942E+04  0.13748283942E+04  0.25500000920E-02 0.  1.
    10030    2    1    2    0    0  0.00000000000E+00  0.00000000000E+00 -0.30991123793E+03  0.24397455505E+04  0.24199821024E+04 0.  0.
        3    1    3    3  502    0  0.95473330329E+03  0.59928242286E+03 -0.59834643914E+03  0.12761949593E+04  0.10100000352E+00 0.  1.
       -3    1    3    3    0  502 -0.95473330329E+03 -0.59928242286E+03  0.28843520121E+03  0.11635505912E+04  0.10100000352E+00 0. -1.
</event>
<event>
 5   0  0.9144244E-05  0.2382035E+04  0.7818609E-02  0.8446260E-01
        2   -1    0    0  501    0  0.00000000000E+00  0.00000000000E+00  0.22626545156E+04  0.22626545156E+04  0.25500000920E-02 0.  1.
       -2   -1    0    0    0  501  0.00000000000E+00  0.00000000000E+00 -0.62692877969E+03  0.62692877970E+03  0.25500000920E-02 0. -1.
    10030    2    1    2    0    0  0.00000000000E+00  0.00000000000E+00  0.16357257359E+04  0.28895832953E+04  0.23820354610E+04 0.  0.
        1    1    3    3  502    0 -0.50005588137E+03  0.58902198078E+03 -0.28163954417E+03  0.82238896588E+03  0.50400001928E-02 0. -1.
       -1    1    3    3    0  502  0.50005588137E+03 -0.58902198078E+03  0.19173652800E+04  0.20671943294E+04  0.50400001928E-02 0.  1.
</event>
<event>
 5   0  0.9144244E-05  0.2233343E+04  0.7818609E-02  0.8504677E-01
       -2   -1    0    0    0  501  0.00000000000E+00  0.00000000000E+00  0.83071386817E+03  0.83071386817E+03  0.25500000920E-02 0.  1.
        2   -1    0    0  501    0  0.00000000000E+00  0.00000000000E+00 -0.15010652448E+04  0.15010652448E+04  0.25500000920E-02 0. -1.
    10030    2    1    2    0    0  0.00000000000E+00  0.00000000000E+00 -0.67035137667E+03  0.23317791130E+04  0.22333434272E+04 0.  0.
        1    1    3    3  502    0 -0.61514717029E+03  0.82347803676E+03 -0.79079663610E+03  0.12968737170E+04  0.50400001928E-02 0. -1.
       -1    1    3    3    0  502  0.61514717029E+03 -0.82347803676E+03  0.12044525943E+03  0.10349053960E+04  0.50400001928E-02 0.  1.
</event>
<event>
 5   0  0.9750757E-05  0.2376535E+04  0.7818609E-02  0.8448341E-01
       -2   -1    0    0    0  501  0.00000000000E+00  0.00000000000E+00  0.96669104160E+03  0.96669104161E+03  0.25500000920E-02 0.  1.
        2   -1    0    0  501    0  0.00000000000E+00  0.00000000000E+00 -0.14606319839E+04  0.14606319839E+04  0.25500000920E-02 0. -1.
    10030    2    1    2    0    0  0.00000000000E+00  0.00000000000E+00 -0.49394094234E+03  0.24273230256E+04  0.23765351703E+04 0.  0.
        2    1    3    3  502    0  0.34213742179E+03 -0.66068957805E+03 -0.11932751716E+04  0.14062269977E+04  0.25500000920E-02 0. -1.
       -2    1    3    3    0  502 -0.34213742179E+03  0.66068957805E+03  0.69933422924E+03  0.10210960279E+04  0.25500000920E-02 0.  1.
</event>
<event>
 5   0  0.4208577E-05  0.2394329E+04  0.7818609E-02  0.8441630E-01
        1   -1    0    0  501    0  0.00000000000E+00  0.00000000000E+00  0.15092410753E+04  0.15092410753E+04  0.50400001928E-02 0. -1.
       -1   -1    0    0    0  501  0.00000000000E+00  0.00000000000E+00 -0.94961788052E+03  0.94961788053E+03  0.50400001928E-02 0.  1.
    10030    2    1    2    0    0  0.00000000000E+00  0.00000000000E+00  0.55962319475E+03  0.24588589558E+04  0.23943285582E+04 0.  0.
        1    1    3    3  502    0 -0.58840110856E+03  0.64567157667E+03  0.11204668891E+04  0.14207581423E+04  0.50400001928E-02 0. -1.
       -1    1    3    3    0  502  0.58840110856E+03 -0.64567157667E+03 -0.56084369431E+03  0.10381008135E+04  0.50400001928E-02 0.  1.
</event>
<event>
 5   0  0.9144244E-05  0.2592080E+04  0.7818609E-02  0.8370896E-01
       -2   -1    0    0    0  501  0.00000000000E+00  0.00000000000E+00  0.10537884152E+04  0.10537884152E+04  0.25500000920E-02 0.  1.
        2   -1    0    0  501    0  0.00000000000E+00  0.00000000000E+00 -0.15939818434E+04  0.15939818434E+04  0.25500000920E-02 0. -1.
    10030    2    1    2    0    0  0.00000000000E+00  0.00000000000E+00 -0.54019342826E+03  0.26477702586E+04  0.25920799375E+04 0.  0.
        1    1    3    3  502    0 -0.85791066765E+03 -0.43225217994E+03  0.61857565403E+03  0.11425797567E+04  0.50400001928E-02 0.  1.
       -1    1    3    3    0  502  0.85791066765E+03  0.43225217994E+03 -0.11587690823E+04  0.15051905018E+04  0.50400001928E-02 0. -1.
</event>
<event>
 5   0  0.9519092E-05  0.1375466E+04  0.7818609E-02  0.8971771E-01
        2   -1    0    0  501    0  0.00000000000E+00  0.00000000000E+00  0.58436734821E+03  0.58436734822E+03  0.25500000920E-02 0.  1.
       -2   -1    0    0    0  501  0.00000000000E+00  0.00000000000E+00 -0.80938251231E+03  0.80938251231E+03  0.25500000920E-02 0. -1.
    10030    2    1    2    0    0  0.00000000000E+00  0.00000000000E+00 -0.22501516410E+03  0.13937498605E+04  0.13754660482E+04 0.  0.
        4    1    3    3  502    0 -0.30096698374E+03 -0.35127705524E+03  0.40317623958E+03  0.61361990508E+03  0.12699999809E+01 0.  1.
       -4    1    3    3    0  502  0.30096698374E+03  0.35127705524E+03 -0.62819140368E+03  0.78012995545E+03  0.12699999809E+01 0. -1.
</event>
<event>
 5   0  0.9182865E-05  0.2065275E+04  0.7818609E-02  0.8576696E-01
       -2   -1    0    0    0  501  0.00000000000E+00  0.00000000000E+00  0.76546452774E+03  0.76546452774E+03  0.25500000920E-02 0. -1.
        2   -1    0    0  501    0  0.00000000000E+00  0.00000000000E+00 -0.13930622565E+04  0.13930622565E+04  0.25500000920E-02 0.  1.
    10030    2    1    2    0    0  0.00000000000E+00  0.00000000000E+00 -0.62759772880E+03  0.21585267843E+04  0.20652745506E+04 0.  0.
        3    1    3    3  502    0 -0.23773969190E+03  0.39644052782E+03 -0.12788852462E+04  0.13598649699E+04  0.10100000352E+00 0.  1.
       -3    1    3    3    0  502  0.23773969190E+03 -0.39644052782E+03  0.65128751741E+03  0.79866181438E+03  0.10100000352E+00 0. -1.
</event>
<event>
 5   0  0.4018942E-05  0.1408564E+04  0.7818609E-02  0.8947643E-01
       -1   -1    0    0    0  501  0.00000000000E+00  0.00000000000E+00  0.10827433426E+04  0.10827433426E+04  0.50400001928E-02 0. -1.
        1   -1    0    0  501    0  0.00000000000E+00  0.00000000000E+00 -0.45810793586E+03  0.45810793589E+03  0.50400001928E-02 0.  1.
    10030    2    1    2    0    0  0.00000000000E+00  0.00000000000E+00  0.62463540676E+03  0.15408512785E+04  0.14085642588E+04 0.  0.
        5    1    3    3  502    0  0.23772423820E+03 -0.58057002383E+03  0.66239971098E+03  0.91234304574E+03  0.46999998093E+01 0.  1.
       -5    1    3    3    0  502 -0.23772423820E+03  0.58057002383E+03 -0.37764304222E+02  0.62850823278E+03  0.46999998093E+01 0. -1.
</event>
<event>
 5   0  0.3934906E-05  0.2406410E+04  0.7818609E-02  0.8437108E-01
        1   -1    0    0  501    0  0.00000000000E+00  0.00000000000E+00  0.21905312278E+04  0.21905312278E+04  0.50400001928E-02 0.  1.
       -1   -1    0    0    0  501  0.00000000000E+00  0.00000000000E+00 -0.66089103310E+03  0.66089103312E+03  0.50400001928E-02 0. -1.
    10030    2    1    2    0    0  0.00000000000E+00  0.00000000000E+00  0.15296401947E+04  0.28514222609E+04  0.24064101448E+04 0.  0.
        2    1    3    3  502    0  0.10111899713E+04  0.20427047864E+03  0.31053277376E+02  0.10320832779E+04  0.25500000920E-02 0.  1.
       -2    1    3    3    0  502 -0.10111899713E+04 -0.20427047864E+03  0.14985869173E+04  0.18193389830E+04  0.25500000920E-02 0. -1.
</event>
<event>
 5   0  0.9144244E-05  0.2359118E+04  0.7818609E-02  0.8454970E-01
       -2   -1    0    0    0  501  0.00000000000E+00  0.00000000000E+00  0.96505486247E+03  0.96505486247E+03  0.25500000920E-02 0.  1.
        2   -1    0    0  501    0  0.00000000000E+00  0.00000000000E+00 -0.14417416170E+04  0.14417416170E+04  0.25500000920E-02 0. -1.
    10030    2    1    2    0    0  0.00000000000E+00  0.00000000000E+00 -0.47668675456E+03  0.24067964795E+04  0.23591182742E+04 0.  0.
        1    1    3    3  502    0  0.86142682227E+03 -0.71986924564E+03 -0.60772689304E+03  0.12765578238E+04  0.50400001928E-02 0. -1.
       -1    1    3    3    0  502 -0.86142682227E+03  0.71986924564E+03  0.13104013848E+03  0.11302386557E+04  0.50400001928E-02 0.  1.
</event>
<event>
 5   0  0.9519092E-05  0.2386496E+04  0.7818609E-02  0.8444577E-01
        2   -1    0    0  501    0  0.00000000000E+00  0.00000000000E+00  0.11899651994E+04  0.11899651994E+04  0.25500000920E-02 0. -1.
       -2   -1    0    0    0  501  0.00000000000E+00  0.00000000000E+00 -0.11965397715E+04  0.11965397715E+04  0.25500000920E-02 0.  1.
    10030    2    1    2    0    0  0.00000000000E+00  0.00000000000E+00 -0.65745721385E+01  0.23865049709E+04  0.23864959148E+04 0.  0.
        4    1    3    3  502    0  0.32709003720E+03 -0.86001965575E+03  0.75646382776E+03  0.11911594504E+04  0.12699999809E+01 0. -1.
       -4    1    3    3    0  502 -0.32709003720E+03  0.86001965575E+03 -0.76303839990E+03  0.11953455205E+04  0.12699999809E+01 0.  1.
</event>
<event>
 5   0  0.9182865E-05  0.1666639E+04  0.7818609E-02  0.8780623E-01
        2   -1    0    0  501    0  0.00000000000E+00  0.00000000000E+00  0.69178191631E+03  0.69178191631E+03  0.25500000920E-02 0.  1.
       -2   -1    0    0    0  501  0.00000000000E+00  0.00000000000E+00 -0.10038160335E+04  0.10038160335E+04  0.25500000920E-02 0. -1.
    10030    2    1    2    0    0  0.00000000000E+00  0.00000000000E+00 -0.31203411718E+03  0.16955979498E+04  0.16666394682E+04 0.  0.
        3    1    3    3  502    0  0.28329121283E+03  0.60707716892E+03 -0.66023425533E+03  0.94058805139E+03  0.10100000352E+00 0. -1.
       -3    1    3    3    0  502 -0.28329121283E+03 -0.60707716892E+03  0.34820013815E+03  0.75500989842E+03  0.10100000352E+00 0.  1.
</event>
<event>
 5   0  0.4061631E-05  0.2386165E+04  0.7818609E-02  0.8444701E-01
        1   -1    0    0  501    0  0.00000000000E+00  0.00000000000E+00  0.18669669903E+04  0.18669669903E+04  0.50400001928E-02 0. -1.
       -1   -1    0    0    0  501  0.00000000000E+00  0.00000000000E+00 -0.76243756286E+03  0.76243756288E+03  0.50400001928E-02 0.  1.
    10030    2    1    2    0    0  0.00000000000E+00  0.00000000000E+00  0.11045294275E+04  0.26294045532E+04  0.23861649248E+04 0.  0.
        3    1    3    3  502    0 -0.51243500334E+03  0.22199067748E+03 -0.60952247805E+03  0.82667233834E+03  0.10100000352E+00 0.  1.
       -3    1    3    3    0  502  0.51243500334E+03 -0.22199067748E+03  0.17140519055E+04  0.18027322149E+04  0.10100000352E+00 0. -1.
</event>
<event>
 5   0  0.9750757E-05  0.2386418E+04  0.7818609E-02  0.8444606E-01
       -2   -1    0    0    0  501  0.00000000000E+00  0.00000000000E+00  0.13986829704E+04  0.13986829704E+04  0.25500000920E-02 0.  1.
        2   -1    0    0  501    0  0.00000000000E+00  0.00000000000E+00 -0.10179200203E+04  0.10179200203E+04  0.25500000920E-02 0. -1.
    10030    2    1    2    0    0  0.00000000000E+00  0.00000000000E+00  0.38076295011E+03  0.24166029907E+04  0.23864177318E+04 0.  0.
        2    1    3    3  502    0 -0.69349732763E+03  0.69244141217E+03  0.87967755237E+03  0.13169078361E+04  0.25500000920E-02 0.  1.
       -2    1    3    3    0  502  0.69349732763E+03 -0.69244141217E+03 -0.49891460225E+03  0.10996951546E+04  0.25500000920E-02 0. -1.
</event>
<event>
 5   0  0.4208577E-05  0.2335314E+04  0.7818609E-02  0.8464126E-01
       -1   -1    0    0    0  501  0.00000000000E+00  0.00000000000E+00  0.17799297557E+04  0.17799297557E+04  0.50400001928E-02 0. -1.
        1   -1    0    0  501    0  0.00000000000E+00  0.00000000000E+00 -0.76599801697E+03  0.76599801699E+03  0.50400001928E-02 0.  1.
    10030    2    1    2    0    0  0.00000000000E+00  0.00000000000E+00  0.10139317387E+04  0.25459277727E+04  0.23353138232E+04 0.  0.
        1    1    3    3  502    0  0.68666531893E+03  0.93307297156E+03  0.66602940571E+03  0.13363119395E+04  0.50400001928E-02 0. -1.
       -1    1    3    3    0  502 -0.68666531893E+03 -0.93307297156E+03  0.34790233302E+03  0.12096158332E+04  0.50400001928E-02 0.  1.
</event>
<event>
 5   0  0.3934906E-05  0.1910002E+04  0.7818609E-02  0.8649894E-01
       -1   -1    0    0    0  501  0.00000000000E+00  0.00000000000E+00  0.60068462521E+03  0.60068462523E+03  0.50400001928E-02 0. -1.
        1   -1    0    0  501    0  0.00000000000E+00  0.00000000000E+00 -0.15183127321E+04  0.15183127322E+04  0.50400001928E-02 0.  1.
    10030    2    1    2    0    0  0.00000000000E+00  0.00000000000E+00 -0.91762810693E+03  0.21189973574E+04  0.19100022141E+04 0.  0.
        2    1    3    3  502    0  0.44658268009E+03 -0.84331397737E+03 -0.50051058996E+03  0.10775552910E+04  0.25500000920E-02 0. -1.
       -2    1    3    3    0  502 -0.44658268009E+03  0.84331397737E+03 -0.41711751697E+03  0.10414420663E+04  0.25500000920E-02 0.  1.
</event>
<event>
 5   0  0.9491680E-05  0.2352616E+04  0.7818609E-02  0.8457459E-01
       -2   -1    0    0    0  501  0.00000000000E+00  0.00000000000E+00  0.98024603282E+03  0.98024603283E+03  0.25500000920E-02 0.  1.
        2   -1    0    0  501    0  0.00000000000E+00  0.00000000000E+00 -0.14115854656E+04  0.14115854656E+04  0.25500000920E-02 0. -1.
    10030    2    1    2    0    0  0.00000000000E+00  0.00000000000E+00 -0.43133943280E+03  0.23918314984E+04  0.23526164606E+04 0.  0.
        5    1    3    3  502    0 -0.20000306486E+03 -0.14515861593E+03  0.95354644811E+03  0.98506099731E+03  0.46999998093E+01 0.  1.
       -5    1    3    3    0  502  0.20000306486E+03  0.14515861593E+03 -0.13848858809E+04  0.14067705011E+04  0.46999998093E+01 0. -1.
</event>
<event>
 5   0  0.4208577E-05  0.2267443E+04  0.7818609E-02  0.8490870E-01
        1   -1    0    0  501    0  0.00000000000E+00  0.00000000000E+00  0.13532592863E+04  0.13532592863E+04  0.50400001928E-02 0. -1.
       -1   -1    0    0    0  501  0.00000000000E+00  0.00000000000E+00 -0.94979872345E+03  0.94979872346E+03  0.50400001928E-02 0.  1.
    10030    2    1    2    0    0  0.00000000000E+00  0.00000000000E+00  0.40346056286E+03  0.23030580098E+04  0.22674425617E+04 0.  0.
        1    1    3    3  502    0 -0.96578460364E+03 -0.16325637687E+03  0.78160167175E+03  0.12531136096E+04  0.50400001928E-02 0. -1.
       -1    1    3    3    0  502  0.96578460364E+03  0.16325637687E+03 -0.37814110889E+03  0.10499444002E+04  0.50400001928E-02 0.  1.
</event>
<event>
 5   0  0.9519092E-05  0.2423305E+04  0.7818609E-02  0.8430830E-01
       -2   -1    0    0    0  501  0.00000000000E+00  0.00000000000E+00  0.86792884713E+03  0.86792884714E+03  0.25500000920E-02 0.  1.
        2   -1    0    0  501    0  0.00000000000E+00  0.00000000000E+00 -0.16914997322E+04  0.16914997322E+04  0.25500000920E-02 0. -1.
    10030    2    1    2    0    0  0.00000000000E+00  0.00000000000E+00 -0.82357088508E+03  0.25594285794E+04  0.24233046961E+04 0.  0.
        4    1    3    3  502    0 -0.59856635514E+03  0.61544374993E+03  0.49125598257E+03  0.98913434080E+03  0.12699999809E+01 0.  1.
       -4    1    3    3    0  502  0.59856635514E+03 -0.61544374993E+03 -0.13148268677E+04  0.15702942386E+04  0.12699999809E+01 0. -1.
</event>
<event>
 5   0  0.3234750E-05  0.2259462E+04  0.7818609E-02  0.8494078E-01
        3   -1    0    0  501    0  0.00000000000E+00  0.00000000000E+00  0.82100381783E+03  0.82100382404E+03  0.10100000352E+00 0.  1.
       -3   -1    0    0    0  501  0.00000000000E+00  0.00000000000E+00 -0.15545509445E+04  0.15545509478E+04  0.10100000352E+00 0. -1.
    10030    2    1    2    0    0  0.00000000000E+00  0.00000000000E+00 -0.73354712669E+03  0.23755547718E+04  0.22594621234E+04 0.  0.
        1    1    3    3  502    0 -0.43841578699E+02 -0.30392872918E+03  0.77628442882E+03  0.83481271606E+03  0.50400001928E-02 0.  1.
       -1    1    3    3    0  502  0.43841578699E+02  0.30392872918E+03 -0.15098315555E+04  0.15407420558E+04  0.50400001928E-02 0. -1.
</event>
<event>
 5   0  0.9182865E-05  0.2459741E+04  0.7818609E-02  0.8417470E-01
       -2   -1    0    0    0  501  0.00000000000E+00  0.00000000000E+00  0.79486000180E+03  0.79486000180E+03  0.25500000920E-02 0.  1.
        2   -1    0    0  501    0  0.00000000000E+00  0.00000000000E+00 -0.19029531785E+04  0.19029531785E+04  0.25500000920E-02 0. -1.
    10030    2    1    2    0    0  0.00000000000E+00  0.00000000000E+00 -0.11080931767E+04  0.26978131803E+04  0.24597409351E+04 0.  0.
        3    1    3    3  502    0 -0.12584445825E+03 -0.12086331389E+04 -0.34608900721E+03  0.12634906027E+04  0.10100000352E+00 0. -1.
       -3    1    3    3    0  502  0.12584445825E+03  0.12086331389E+04 -0.76200416952E+03  0.14343225776E+04  0.10100000352E+00 0.  1.
</event>
<event>
 5   0  0.9182865E-05  0.2414474E+04  0.7818609E-02  0.8434104E-01
       -2   -1    0    0    0  501  0.00000000000E+00  0.00000000000E+00  0.65013379573E+03  0.65013379574E+03  0.25500000920E-02 0. -1.
        2   -1    0    0  501    0  0.00000000000E+00  0.00000000000E+00 -0.22417257790E+04  0.22417257790E+04  0.25500000920E-02 0.  1.
    10030    2    1    2    0    0  0.00000000000E+00  0.00000000000E+00 -0.15915919833E+04  0.28918595747E+04  0.24144744270E+04 0.  0.
        3    1    3    3  502    0 -0.70481842811E+03  0.97250107544E+03 -0.64962373643E+03  0.13654810022E+04  0.10100000352E+00 0. -1.
       -3    1    3    3    0  502  0.70481842811E+03 -0.97250107544E+03 -0.94196824684E+03  0.15263785725E+04  0.10100000352E+00 0.  1.
</event>
<event>
 5   0  0.4061631E-05  0.2339225E+04  0.7818609E-02  0.8462614E-01
       -1   -1    0    0    0  501  0.00000000000E+00  0.00000000000E+00  0.81430629238E+03  0.81430629240E+03  0.50400001928E-02 0.  1.
        1   -1    0    0  501    0  0.00000000000E+00  0.00000000000E+00 -0.16799489775E+04  0.16799489775E+04  0.50400001928E-02 0. -1.
    10030    2    1    2    0    0  0.00000000000E+00  0.00000000000E+00 -0.86564268511E+03  0.24942552699E+04  0.23392246778E+04 0.  0.
        3    1    3    3  502    0  0.69325407839E+03 -0.53970775158E+03  0.39042762707E+03  0.96141531946E+03  0.10100000352E+00 0.  1.
       -3    1    3    3    0  502 -0.69325407839E+03  0.53970775158E+03 -0.12560703122E+04  0.15328399504E+04  0.10100000352E+00 0. -1.
</event>
<event>
 5   0  0.9750757E-05  0.2424083E+04  0.7818609E-02  0.8430542E-01
       -2   -1    0    0    0  501  0.00000000000E+00  0.00000000000E+00  0.66023880320E+03  0.66023880321E+03  0.25500000920E-02 0.  1.
        2   -1    0    0  501    0  0.00000000000E+00  0.00000000000E+00 -0.22250200051E+04  0.22250200051E+04  0.25500000920E-02 0. -1.
    10030    2    1    2    0    0  0.00000000000E+00  0.00000000000E+00 -0.15647812019E+04  0.28852588083E+04  0.24240829567E+04 0.  0.
        2    1    3    3  502    0  0.21905138958E+03 -0.43027862579E+03  0.54083139821E+03  0.72499779889E+03  0.25500000920E-02 0.  1.
       -2    1    3    3    0  502 -0.21905138958E+03  0.43027862579E+03 -0.21056126001E+04  0.21602610094E+04  0.25500000920E-02 0. -1.
</event>
<event>
 5   0  0.9519092E-05  0.2172522E+04  0.7818609E-02  0.8529953E-01
       -2   -1    0    0    0  501  0.00000000000E+00  0.00000000000E+00  0.16642397970E+04  0.16642397970E+04  0.25500000920E-02 0.  1.
        2   -1    0    0  501    0  0.00000000000E+00  0.00000000000E+00 -0.70900990766E+03  0.70900990767E+03  0.25500000920E-02 0. -1.
    10030    2    1    2    0    0  0.00000000000E+00  0.00000000000E+00  0.95522988933E+03  0.23732497047E+04  0.21725215808E+04 0.  0.
        4    1    3    3  502    0 -0.31666202984E+03  0.28432775316E+03  0.15693773137E+04  0.16260577721E+04  0.12699999809E+01 0.  1.
       -4    1    3    3    0  502  0.31666202984E+03 -0.28432775316E+03 -0.61414742439E+03  0.74719193260E+03  0.12699999809E+01 0. -1.
</event>
<event>
 5   0  0.9519092E-05  0.2439176E+04  0.7818609E-02  0.8424981E-01
       -2   -1    0    0    0  501  0.00000000000E+00  0.00000000000E+00  0.12083333758E+04  0.12083333758E+04  0.25500000920E-02 0.  1.
        2   -1    0    0  501    0  0.00000000000E+00  0.00000000000E+00 -0.12309477118E+04  0.12309477118E+04  0.25500000920E-02 0. -1.
    10030    2    1    2    0    0  0.00000000000E+00  0.00000000000E+00 -0.22614335981E+02  0.24392810876E+04  0.24391762577E+04 0.  0.
        4    1    3    3  502    0 -0.11330441172E+03 -0.47449071072E+03 -0.11291272174E+04  0.12300037440E+04  0.12699999809E+01 0. -1.
       -4    1    3    3    0  502  0.11330441172E+03  0.47449071072E+03  0.11065128814E+04  0.12092773437E+04  0.12699999809E+01 0.  1.
</event>
<event>
 5   0  0.4260395E-05  0.2187570E+04  0.7818609E-02  0.8523619E-01
        1   -1    0    0  501    0  0.00000000000E+00  0.00000000000E+00  0.78272152990E+03  0.78272152992E+03  0.50400001928E-02 0.  1.
       -1   -1    0    0    0  501  0.00000000000E+00  0.00000000000E+00 -0.15284696691E+04  0.15284696691E+04  0.50400001928E-02 0. -1.
    10030    2    1    2    0    0  0.00000000000E+00  0.00000000000E+00 -0.74574813919E+03  0.23111911990E+04  0.21875704495E+04 0.  0.
        4    1    3    3  502    0 -0.47720226015E+03 -0.13436660926E+03  0.65720370943E+03  0.82322215189E+03  0.12699999809E+01 0.  1.
       -4    1    3    3    0  502  0.47720226015E+03  0.13436660926E+03 -0.14029518486E+04  0.14879690471E+04  0.12699999809E+01 0. -1.
</event>
<event>
 5   0  0.4018942E-05  0.2439104E+04  0.7818609E-02  0.8425007E-01
        1   -1    0    0  501    0  0.00000000000E+00  0.00000000000E+00  0.16256869775E+04  0.16256869775E+04  0.50400001928E-02 0. -1.
       -1   -1    0    0    0  501  0.00000000000E+00  0.00000000000E+00 -0.91487883710E+03  0.91487883712E+03  0.50400001928E-02 0.  1.
    10030    2    1    2    0    0  0.00000000000E+00  0.00000000000E+00  0.71080814041E+03  0.25405658146E+04  0.24391036153E+04 0.  0.
        5    1    3    3  502    0  0.63093759207E+03 -0.34844432950E+03 -0.66928121996E+03  0.98359297336E+03  0.46999998093E+01 0. -1.
       -5    1    3    3    0  502 -0.63093759207E+03  0.34844432950E+03  0.13800893604E+04  0.15569728413E+04  0.46999998093E+01 0.  1.
</event>
<event>
 5   0  0.4208577E-05  0.2406148E+04  0.7818609E-02  0.8437206E-01
        1   -1    0    0  501    0  0.00000000000E+00  0.00000000000E+00  0.14271922560E+04  0.14271922560E+04  0.50400001928E-02 0. -1.
       -1   -1    0    0    0  501  0.00000000000E+00  0.00000000000E+00 -0.10141496736E+04  0.10141496736E+04  0.50400001928E-02 0.  1.
    10030    2    1    2    0    0  0.00000000000E+00  0.00000000000E+00  0.41304258238E+03  0.24413419296E+04  0.24061475936E+04 0.  0.
        1    1    3    3  502    0  0.57236514198E+03  0.94211863244E+02 -0.86289194696E+03  0.10397404691E+04  0.50400001928E-02 0.  1.
       -1    1    3    3    0  502 -0.57236514198E+03 -0.94211863244E+02  0.12759345293E+04  0.14016014605E+04  0.50400001928E-02 0. -1.
</event>
<event>
 5   0  0.4260395E-05  0.2360208E+04  0.7818609E-02  0.8454553E-01
       -1   -1    0    0    0  501  0.00000000000E+00  0.00000000000E+00  0.99395263272E+03  0.99395263273E+03  0.50400001928E-02 0. -1.
        1   -1    0    0  501    0  0.00000000000E+00  0.00000000000E+00 -0.14011182937E+04  0.14011182937E+04  0.50400001928E-02 0.  1.
    10030    2    1    2    0    0  0.00000000000E+00  0.00000000000E+00 -0.40716566100E+03  0.23950709265E+04  0.23602078017E+04 0.  0.
        4    1    3    3  502    0  0.10117838873E+04  0.52526637755E+03  0.10593436918E+03  0.11449170736E+04  0.12699999809E+01 0. -1.
       -4    1    3    3    0  502 -0.10117838873E+04 -0.52526637755E+03 -0.51310003017E+03  0.12501538529E+04  0.12699999809E+01 0.  1.
</event>
<event>
 5   0  0.4208577E-05  0.2307186E+04  0.7818609E-02  0.8475093E-01
        1   -1    0    0  501    0  0.00000000000E+00  0.00000000000E+00  0.21920340817E+04  0.21920340817E+04  0.50400001928E-02 0.  1.
       -1   -1    0    0    0  501  0.00000000000E+00  0.00000000000E+00 -0.60709654114E+03  0.60709654117E+03  0.50400001928E-02 0. -1.
    10030    2    1    2    0    0  0.00000000000E+00  0.00000000000E+00  0.15849375406E+04  0.27991306229E+04  0.23071855661E+04 0.  0.
        1    1    3    3  502    0  0.14249430880E+03  0.11564546650E+03  0.21742109078E+04  0.21819421563E+04  0.50400001928E-02 0.  1.
       -1    1    3    3    0  502 -0.14249430880E+03 -0.11564546650E+03 -0.58927336720E+03  0.61718846658E+03  0.50400001928E-02 0. -1.
</event>
<event>
 5   0  0.9750757E-05  0.2355909E+04  0.7818609E-02  0.8456197E-01
        2   -1    0    0  501    0  0.00000000000E+00  0.00000000000E+00  0.19735882946E+04  0.19735882946E+04  0.25500000920E-02 0. -1.
       -2   -1    0    0    0  501  0.00000000000E+00  0.00000000000E+00 -0.70307337519E+03  0.70307337520E+03  0.25500000920E-02 0.  1.
    10030    2    1    2    0    0  0.00000000000E+00  0.00000000000E+00  0.12705149194E+04  0.26766616698E+04  0.23559094919E+04 0.  0.
        2    1    3    3  502    0 -0.25078059715E+03  0.20536582363E+03  0.19219224590E+04  0.19490643827E+04  0.25500000920E-02 0. -1.
       -2    1    3    3    0  502  0.25078059715E+03 -0.20536582363E+03 -0.65140753965E+03  0.72759728706E+03  0.25500000920E-02 0.  1.
</event>
<event>
 5   0  0.4260395E-05  0.2201877E+04  0.7818609E-02  0.8517647E-01
        1   -1    0    0  501    0  0.00000000000E+00  0.00000000000E+00  0.10143478723E+04  0.10143478724E+04  0.50400001928E-02 0. -1.
       -1   -1    0    0    0  501  0.00000000000E+00  0.00000000000E+00 -0.11949205959E+04  0.11949205959E+04  0.50400001928E-02 0.  1.
    10030    2    1    2    0    0  0.00000000000E+00  0.00000000000E+00 -0.18057272359E+03  0.22092684683E+04  0.22018766216E+04 0.  0.
        4    1    3    3  502    0  0.17303796816E+03 -0.82384918518E+03 -0.80217080476E+03  0.11628195179E+04  0.12699999809E+01 0.  1.
       -4    1    3    3    0  502 -0.17303796816E+03  0.82384918518E+03  0.62159808117E+03  0.10464489504E+04  0.12699999809E+01 0. -1.
</event>
<event>
 5   0  0.9519092E-05  0.2327373E+04  0.7818609E-02  0.8467206E-01
       -2   -1    0    0    0  501  0.00000000000E+00  0.00000000000E+00  0.91624423679E+03  0.91624423679E+03  0.25500000920E-02 0.  1.
        2   -1    0    0  501    0  0.00000000000E+00  0.00000000000E+00 -0.14779540003E+04  0.14779540003E+04  0.25500000920E-02 0. -1.
    10030    2    1    2    0    0  0.00000000000E+00  0.00000000000E+00 -0.56170976351E+03  0.23941982371E+04  0.23273734853E+04 0.  0.
        4    1    3    3  502    0 -0.78466002207E+03 -0.74225412179E+03 -0.72633929839E+03  0.13016155042E+04  0.12699999809E+01 0. -1.
       -4    1    3    3    0  502  0.78466002207E+03  0.74225412179E+03  0.16462953487E+03  0.10925827329E+04  0.12699999809E+01 0.  1.
</event>
<event>
 5   0  0.4208577E-05  0.2374296E+04  0.7818609E-02  0.8449190E-01
       -1   -1    0    0    0  501  0.00000000000E+00  0.00000000000E+00  0.81380238461E+03  0.81380238463E+03  0.50400001928E-02 0.  1.
        1   -1    0    0  501    0  0.00000000000E+00  0.00000000000E+00 -0.17317726617E+04  0.17317726617E+04  0.50400001928E-02 0. -1.
    10030    2    1    2    0    0  0.00000000000E+00  0.00000000000E+00 -0.91797027711E+03  0.25455750463E+04  0.23742962930E+04 0.  0.
        1    1    3    3  502    0 -0.94723417055E+03 -0.16589595176E+03 -0.12052943503E+04  0.15419171546E+04  0.50400001928E-02 0. -1.
       -1    1    3    3    0  502  0.94723417055E+03  0.16589595176E+03  0.28732407320E+03  0.10036578918E+04  0.50400001928E-02 0.  1.
</event>
<event>
 5   0  0.4061631E-05  0.1242813E+04  0.7818609E-02  0.9076186E-01
       -1   -1    0    0    0  501  0.00000000000E+00  0.00000000000E+00  0.85749865022E+03  0.85749865024E+03  0.50400001928E-02 0.  1.
        1   -1    0    0  501    0  0.00000000000E+00  0.00000000000E+00 -0.45031702692E+03  0.45031702695E+03  0.50400001928E-02 0. -1.
    10030    2    1    2    0    0  0.00000000000E+00  0.00000000000E+00  0.40718162330E+03  0.13078156772E+04  0.12428133292E+04 0.  0.
        3    1    3    3  502    0 -0.21446902426E+03 -0.57510960155E+03  0.30560565274E+03  0.68566962989E+03  0.10100000352E+00 0.  1.
       -3    1    3    3    0  502  0.21446902426E+03  0.57510960155E+03  0.10157597057E+03  0.62214604729E+03  0.10100000352E+00 0. -1.
</event>
<event>
 5   0  0.9750757E-05  0.2340582E+04  0.7818609E-02  0.8462090E-01
        2   -1    0    0  501    0  0.00000000000E+00  0.00000000000E+00  0.21620830554E+04  0.21620830554E+04  0.25500000920E-02 0.  1.
       -2   -1    0    0    0  501  0.00000000000E+00  0.00000000000E+00 -0.63345422167E+03  0.63345422168E+03  0.25500000920E-02 0. -1.
    10030    2    1    2    0    0  0.00000000000E+00  0.00000000000E+00  0.15286288337E+04  0.27955372771E+04  0.23405816705E+04 0.  0.
        2    1    3    3  502    0  0.66043532881E+03  0.37065784535E+03 -0.30130736640E+03  0.81507557374E+03  0.25500000920E-02 0. -1.
       -2    1    3    3    0  502 -0.66043532881E+03 -0.37065784535E+03  0.18299362001E+04  0.19804617033E+04  0.25500000920E-02 0.  1.
</event>
<event>
 5   0  0.9182865E-05  0.2300096E+04  0.7818609E-02  0.8477883E-01
        2   -1    0    0  501    0  0.00000000000E+00  0.00000000000E+00  0.19951233743E+04  0.19951233743E+04  0.25500000920E-02 0. -1.
       -2   -1    0    0    0  501  0.00000000000E+00  0.00000000000E+00 -0.66292143538E+03  0.66292143539E+03  0.25500000920E-02 0.  1.
    10030    2    1    2    0    0  0.00000000000E+00  0.00000000000E+00  0.13322019389E+04  0.26580448096E+04  0.23000956946E+04 0.  0.
        3    1    3    3  502    0 -0.75024008608E+03  0.73334443696E+03  0.12105404778E+04  0.16018934136E+04  0.10100000352E+00 0. -1.
       -3    1    3    3    0  502  0.75024008608E+03 -0.73334443696E+03  0.12166146104E+03  0.10561513960E+04  0.10100000352E+00 0.  1.
</event>
<event>
 5   0  0.9491680E-05  0.2293364E+04  0.7818609E-02  0.8480542E-01
        2   -1    0    0  501    0  0.00000000000E+00  0.00000000000E+00  0.26557917091E+04  0.26557917091E+04  0.25500000920E-02 0. -1.
       -2   -1    0    0    0  501  0.00000000000E+00  0.00000000000E+00 -0.49509913641E+03  0.49509913642E+03  0.25500000920E-02 0.  1.
    10030    2    1    2    0    0  0.00000000000E+00  0.00000000000E+00  0.21606925727E+04  0.31508908455E+04  0.22933644993E+04 0.  0.
        5    1    3    3  502    0  0.37271756916E+03  0.49618394091E+03 -0.24442623609E+03  0.66699562552E+03  0.46999998093E+01 0.  1.
       -5    1    3    3    0  502 -0.37271756916E+03 -0.49618394091E+03  0.24051188088E+04  0.24838952200E+04  0.46999998093E+01 0. -1.
</event>
<event>
 5   0  0.4260395E-05  0.2500436E+04  0.7818609E-02  0.8402830E-01
       -1   -1    0    0    0  501  0.00000000000E+00  0.00000000000E+00  0.17486393537E+04  0.17486393538E+04  0.50400001928E-02 0. -1.
        1   -1    0    0  501    0  0.00000000000E+00  0.00000000000E+00 -0.89386375430E+03  0.89386375432E+03  0.50400001928E-02 0.  1.
    10030    2    1    2    0    0  0.00000000000E+00  0.00000000000E+00  0.85477559944E+03  0.26425031081E+04  0.25004362321E+04 0.  0.
        4    1    3    3  502    0 -0.11572156278E+04  0.28965665359E+03  0.31970577953E+02  0.11933451793E+04  0.12699999809E+01 0.  1.
       -4    1    3    3    0  502  0.11572156278E+04 -0.28965665359E+03  0.82280502149E+03  0.14491579288E+04  0.12699999809E+01 0. -1.
</event>
<event>
 5   0  0.4208577E-05  0.2408189E+04  0.7818609E-02  0.8436444E-01
       -1   -1    0    0    0  501  0.00000000000E+00  0.00000000000E+00  0.90860716342E+03  0.90860716343E+03  0.50400001928E-02 0. -1.
        1   -1    0    0  501    0  0.00000000000E+00  0.00000000000E+00 -0.15956764453E+04  0.15956764454E+04  0.50400001928E-02 0.  1.
    10030    2    1    2    0    0  0.00000000000E+00  0.00000000000E+00 -0.68706928193E+03  0.25042836088E+04  0.24081885713E+04 0.  0.
        1    1    3    3  502    0  0.19874840903E+03  0.37921053613E+03 -0.15138495298E+04  0.15732266078E+04  0.50400001928E-02 0.  1.
       -1    1    3    3    0  502 -0.19874840903E+03 -0.37921053613E+03  0.82678024783E+03  0.93105700095E+03  0.50400001928E-02 0. -1.
</event>
<event>
 5   0  0.4018942E-05  0.2146033E+04  0.7818609E-02  0.8541232E-01
       -1   -1    0    0    0  501  0.00000000000E+00  0.00000000000E+00  0.14203488389E+04  0.14203488389E+04  0.50400001928E-02 0. -1.
        1   -1    0    0  501    0  0.00000000000E+00  0.00000000000E+00 -0.81062092941E+03  0.81062092943E+03  0.50400001928E-02 0.  1.
    10030    2    1    2    0    0  0.00000000000E+00  0.00000000000E+00  0.60972790949E+03  0.22309697683E+04  0.21460330807E+04 0.  0.
        5    1    3    3  502    0  0.65113287656E+03  0.39094187303E+03 -0.48311514767E+03  0.90012882796E+03  0.46999998093E+01 0.  1.
       -5    1    3    3    0  502 -0.65113287656E+03 -0.39094187303E+03  0.10928430572E+04  0.13308409404E+04  0.46999998093E+01 0. -1.
</event>
<event>
 5   0  0.9182865E-05  0.1511735E+04  0.7818609E-02  0.8876686E-01
        2   -1    0    0  501    0  0.00000000000E+00  0.00000000000E+00  0.81655225482E+03  0.81655225483E+03  0.25500000920E-02 0. -1.
       -2   -1    0    0    0  501  0.00000000000E+00  0.00000000000E+00 -0.69969303086E+03  0.69969303087E+03  0.25500000920E-02 0.  1.
    10030    2    1    2    0    0  0.00000000000E+00  0.00000000000E+00  0.11685922396E+03  0.15162452857E+04  0.15117353235E+04 0.  0.
        3    1    3    3  502    0  0.29957559987E+03  0.12240039036E+03  0.74355495589E+03  0.81092624709E+03  0.10100000352E+00 0. -1.
       -3    1    3    3    0  502 -0.29957559987E+03 -0.12240039036E+03 -0.62669573193E+03  0.70531903860E+03  0.10100000352E+00 0.  1.
</event>
<event>
 5   0  0.9750757E-05  0.2402277E+04  0.7818609E-02  0.8438651E-01
        2   -1    0    0  501    0  0.00000000000E+00  0.00000000000E+00  0.92884452603E+03  0.92884452603E+03  0.25500000920E-02 0. -1.
       -2   -1    0    0    0  501  0.00000000000E+00  0.00000000000E+00 -0.15532570049E+04  0.15532570049E+04  0.25500000920E-02 0.  1.
    10030    2    1    2    0    0  0.00000000000E+00  0.00000000000E+00 -0.62441247888E+03  0.24821015309E+04  0.24022774748E+04 0.  0.
        2    1    3    3  502    0  0.17217444632E+03 -0.64177072676E+03 -0.13460650975E+04  0.15011345551E+04  0.25500000920E-02 0.  1.
       -2    1    3    3    0  502 -0.17217444632E+03  0.64177072676E+03  0.72165261865E+03  0.98096697585E+03  0.25500000920E-02 0. -1.
</event>
<event>
 5   0  0.3934906E-05  0.2331074E+04  0.7818609E-02  0.8465769E-01
       -1   -1    0    0    0  501  0.00000000000E+00  0.00000000000E+00  0.14523007211E+04  0.14523007211E+04  0.50400001928E-02 0. -1.
        1   -1    0    0  501    0  0.00000000000E+00  0.00000000000E+00 -0.93539622144E+03  0.93539622145E+03  0.50400001928E-02 0.  1.
    10030    2    1    2    0    0  0.00000000000E+00  0.00000000000E+00  0.51690449963E+03  0.23876969425E+04  0.23310740931E+04 0.  0.
        2    1    3    3  502    0 -0.95844975540E+03 -0.62226611914E+03  0.23455038156E+02  0.11429747134E+04  0.25500000920E-02 0. -1.
       -2    1    3    3    0  502  0.95844975540E+03  0.62226611914E+03  0.49344946147E+03  0.12447222291E+04  0.25500000920E-02 0.  1.
</event>
<event>
 5   0  0.3934906E-05  0.2431296E+04  0.7818609E-02  0.8427879E-01
        1   -1    0    0  501    0  0.00000000000E+00  0.00000000000E+00  0.14946160405E+04  0.14946160405E+04  0.50400001928E-02 0. -1.
       -1   -1    0    0    0  501  0.00000000000E+00  0.00000000000E+00 -0.98874925150E+03  0.98874925151E+03  0.50400001928E-02 0.  1.
    10030    2    1    2    0    0  0.00000000000E+00  0.00000000000E+00  0.50586678903E+03  0.24833652920E+04  0.24312963549E+04 0.  0.
        2    1    3    3  502    0 -0.45144929013E+03  0.36854182012E+03  0.13426321570E+04  0.14636566004E+04  0.25500000920E-02 0. -1.
       -2    1    3    3    0  502  0.45144929013E+03 -0.36854182012E+03 -0.83676536801E+03  0.10197086917E+04  0.25500000920E-02 0.  1.
</event>
<event>
 5   0  0.9144244E-05  0.2437152E+04  0.7818609E-02  0.8425724E-01
       -2   -1    0    0    0  501  0.00000000000E+00  0.00000000000E+00  0.14336139442E+04  0.14336139442E+04  0.25500000920E-02 0. -1.
        2   -1    0    0  501    0  0.00000000000E+00  0.00000000000E+00 -0.10357933993E+04  0.10357933993E+04  0.25500000920E-02 0.  1.
    10030    2    1    2    0    0  0.00000000000E+00  0.00000000000E+00  0.39782054497E+03  0.24694073435E+04  0.24371523223E+04 0.  0.
        1    1    3    3  502    0 -0.11939796422E+04  0.14411920256E+03 -0.81725391879E-01  0.12026461397E+04  0.50400001928E-02 0.  1.
       -1    1    3    3    0  502  0.11939796422E+04 -0.14411920256E+03  0.39790227036E+03  0.12667612038E+04  0.50400001928E-02 0. -1.
</event>
<event>
 5   0  0.4061631E-05  0.2265869E+04  0.7818609E-02  0.8491501E-01
       -1   -1    0    0    0  501  0.00000000000E+00  0.00000000000E+00  0.11075071222E+04  0.11075071222E+04  0.50400001928E-02 0.  1.
        1   -1    0    0  501    0  0.00000000000E+00  0.00000000000E+00 -0.11589459522E+04  0.11589459522E+04  0.50400001928E-02 0. -1.
    10030    2    1    2    0    0  0.00000000000E+00  0.00000000000E+00 -0.51438829972E+02  0.22664530744E+04  0.22658692781E+04 0.  0.
        3    1    3    3  502    0  0.96251800214E+01 -0.40399395741E+03  0.10329658320E+04  0.11091988920E+04  0.10100000352E+00 0.  1.
       -3    1    3    3    0  502 -0.96251800214E+01  0.40399395741E+03 -0.10844046620E+04  0.11572541825E+04  0.10100000352E+00 0. -1.
</event>
<event>
 5   0  0.9144244E-05  0.1735727E+04  0.7818609E-02  0.8741246E-01
        2   -1    0    0  501    0  0.00000000000E+00  0.00000000000E+00  0.10444505880E+04  0.10444505880E+04  0.25500000920E-02 0. -1.
       -2   -1    0    0    0  501  0.00000000000E+00  0.00000000000E+00 -0.72113193526E+03  0.72113193526E+03  0.25500000920E-02 0.  1.
    10030    2    1    2    0    0  0.00000000000E+00  0.00000000000E+00  0.32331865274E+03  0.17655825233E+04  0.17357265612E+04 0.  0.
        1    1    3    3  502    0  0.82888370496E+03 -0.19267387112E+03  0.33492794833E+03  0.91452072014E+03  0.50400001928E-02 0.  1.
       -1    1    3    3    0  502 -0.82888370496E+03  0.19267387112E+03 -0.11609295585E+02  0.85106180312E+03  0.50400001928E-02 0. -1.
</event>
<event>
 5   0  0.3934906E-05  0.2353557E+04  0.7818609E-02  0.8457099E-01
       -1   -1    0    0    0  501  0.00000000000E+00  0.00000000000E+00  0.11544218835E+04  0.11544218835E+04  0.50400001928E-02 0.  1.
        1   -1    0    0  501    0  0.00000000000E+00  0.00000000000E+00 -0.11995684931E+04  0.11995684931E+04  0.50400001928E-02 0. -1.
    10030    2    1    2    0    0  0.00000000000E+00  0.00000000000E+00 -0.45146609577E+02  0.23539903766E+04  0.23535574088E+04 0.  0.
        2    1    3    3  502    0  0.29875365117E+03 -0.10163002044E+04  0.49005221978E+03  0.11671636679E+04  0.25500000920E-02 0.  1.
       -2    1    3    3    0  502 -0.29875365117E+03  0.10163002044E+04 -0.53519882936E+03  0.11868267087E+04  0.25500000920E-02 0. -1.
</event>
<event>
 5   0  0.4260395E-05  0.2310503E+04  0.7818609E-02  0.8473792E-01
       -1   -1    0    0    0  501  0.00000000000E+00  0.00000000000E+00  0.11437662362E+04  0.11437662362E+04  0.50400001928E-02 0.  1.
        1   -1    0    0  501    0  0.00000000000E+00  0.00000000000E+00 -0.11668517326E+04  0.11668517326E+04  0.50400001928E-02 0. -1.
    10030    2    1    2    0    0  0.00000000000E+00  0.00000000000E+00 -0.23085496402E+02  0.23106179689E+04  0.23105026418E+04 0.  0.
        4    1    3    3  502    0  0.54520875769E+03  0.37746003133E+03  0.93448297722E+03  0.11458571954E+04  0.12699999809E+01 0.  1.
       -4    1    3    3    0  502 -0.54520875769E+03 -0.37746003133E+03 -0.95756847362E+03  0.11647607734E+04  0.12699999809E+01 0. -1.
</event>
<event>
 5   0  0.9519092E-05  0.2383549E+04  0.7818609E-02  0.8445688E-01
        2   -1    0    0  501    0  0.00000000000E+00  0.00000000000E+00  0.12863134979E+04  0.12863134979E+04  0.25500000920E-02 0. -1.
       -2   -1    0    0    0  501  0.00000000000E+00  0.00000000000E+00 -0.11041836224E+04  0.11041836224E+04  0.25500000920E-02 0.  1.
    10030    2    1    2    0    0  0.00000000000E+00  0.00000000000E+00  0.18212987547E+03  0.23904971203E+04  0.23835488647E+04 0.  0.
        4    1    3    3  502    0  0.39197577433E+03 -0.70330398638E+03 -0.79015631065E+03  0.11281090874E+04  0.12699999809E+01 0.  1.
       -4    1    3    3    0  502 -0.39197577433E+03  0.70330398638E+03  0.97228618612E+03  0.12623880329E+04  0.12699999809E+01 0. -1.
</event>
<event>
 5   0  0.9750757E-05  0.1747061E+04  0.7818609E-02  0.8734970E-01
       -2   -1    0    0    0  501  0.00000000000E+00  0.00000000000E+00  0.64304434225E+03  0.64304434225E+03  0.25500000920E-02 0.  1.
        2   -1    0    0  501    0  0.00000000000E+00  0.00000000000E+00 -0.11866299666E+04  0.11866299666E+04  0.25500000920E-02 0. -1.
    10030    2    1    2    0    0  0.00000000000E+00  0.00000000000E+00 -0.54358562434E+03  0.18296743088E+04  0.17470611739E+04 0.  0.
        2    1    3    3  502    0 -0.56515750626E+03 -0.11098212715E+03  0.41602489698E+03  0.71049050264E+03  0.25500000920E-02 0.  1.
       -2    1    3    3    0  502  0.56515750626E+03  0.11098212715E+03 -0.95961052132E+03  0.11191838062E+04  0.25500000920E-02 0. -1.
</event>
<event>
 5   0  0.4018942E-05  0.2419064E+04  0.7818609E-02  0.8432400E-01
        1   -1    0    0  501    0  0.00000000000E+00  0.00000000000E+00  0.19789205272E+04  0.19789205272E+04  0.50400001928E-02 0. -1.
       -1   -1    0    0    0  501  0.00000000000E+00  0.00000000000E+00 -0.73927587839E+03  0.73927587840E+03  0.50400001928E-02 0.  1.
    10030    2    1    2    0    0  0.00000000000E+00  0.00000000000E+00  0.12396446488E+04  0.27181964056E+04  0.24190644564E+04 0.  0.
        5    1    3    3  502    0 -0.39082135471E+03 -0.11286416750E+04  0.83412200191E+03  0.14568304520E+04  0.46999998093E+01 0. -1.
       -5    1    3    3    0  502  0.39082135471E+03  0.11286416750E+04  0.40552264688E+03  0.12613659536E+04  0.46999998093E+01 0.  1.
</event>
<event>
 5   0  0.9491680E-05  0.2388106E+04  0.7818609E-02  0.8443970E-01
       -2   -1    0    0    0  501  0.00000000000E+00  0.00000000000E+00  0.16620739215E+04  0.16620739215E+04  0.25500000920E-02 0.  1.
        2   -1    0    0  501    0  0.00000000000E+00  0.00000000000E+00 -0.85782126244E+03  0.85782126245E+03  0.25500000920E-02 0. -1.
    10030    2    1    2    0    0  0.00000000000E+00  0.00000000000E+00  0.80425265910E+03  0.25198951840E+04  0.23881058181E+04 0.  0.
        5    1    3    3  502    0 -0.56038570007E+03 -0.39012428471E+03  0.14357297244E+04  0.15898336460E+04  0.46999998093E+01 0.  1.
       -5    1    3    3    0  502  0.56038570007E+03  0.39012428471E+03 -0.63147706535E+03  0.93006153797E+03  0.46999998093E+01 0. -1.
</event>
<event>
 5   0  0.9750757E-05  0.2411089E+04  0.7818609E-02  0.8435364E-01
        2   -1    0    0  501    0  0.00000000000E+00  0.00000000000E+00  0.28888561895E+04  0.28888561895E+04  0.25500000920E-02 0.  1.
       -2   -1    0    0    0  501  0.00000000000E+00  0.00000000000E+00 -0.50308390193E+03  0.50308390194E+03  0.25500000920E-02 0. -1.
    10030    2    1    2    0    0  0.00000000000E+00  0.00000000000E+00  0.23857722875E+04  0.33919400914E+04  0.24110885873E+04 0.  0.
        2    1    3    3  502    0  0.28782078330E+03  0.84140321417E+03  0.23379772253E+04  0.25013871508E+04  0.25500000920E-02 0.  1.
       -2    1    3    3    0  502 -0.28782078330E+03 -0.84140321417E+03  0.47795062271E+02  0.89055294065E+03  0.25500000920E-02 0. -1.
</event>
<event>
 5   0  0.3234750E-05  0.2424617E+04  0.7818609E-02  0.8430345E-01
        4   -1    0    0  501    0  0.00000000000E+00  0.00000000000E+00  0.13539957654E+04  0.13539963610E+04  0.12699999809E+01 0.  1.
       -4   -1    0    0    0  501  0.00000000000E+00  0.00000000000E+00 -0.10854464192E+04  0.10854471621E+04  0.12699999809E+01 0. -1.
    10030    2    1    2    0    0  0.00000000000E+00  0.00000000000E+00  0.26854934620E+03  0.24394435231E+04  0.24246166607E+04 0.  0.
        5    1    3    3  502    0 -0.59246509377E+03  0.41450951802E+03 -0.84473086548E+03  0.11119466502E+04  0.46999998093E+01 0. -1.
       -5    1    3    3    0  502  0.59246509377E+03 -0.41450951802E+03  0.11132802117E+04  0.13274968729E+04  0.46999998093E+01 0.  1.
</event>
<event>
 5   0  0.4061631E-05  0.2427514E+04  0.7818609E-02  0.8429274E-01
       -1   -1    0    0    0  501  0.00000000000E+00  0.00000000000E+00  0.99953712643E+03  0.99953712644E+03  0.50400001928E-02 0.  1.
        1   -1    0    0  501    0  0.00000000000E+00  0.00000000000E+00 -0.14738879335E+04  0.14738879335E+04  0.50400001928E-02 0. -1.
    10030    2    1    2    0    0  0.00000000000E+00  0.00000000000E+00 -0.47435080710E+03  0.24734250600E+04  0.24275137155E+04 0.  0.
        3    1    3    3  502    0 -0.46942423556E+03  0.46234578261E+03 -0.12758085456E+04  0.14359004808E+04  0.10100000352E+00 0. -1.
       -3    1    3    3    0  502  0.46942423556E+03 -0.46234578261E+03  0.80145773847E+03  0.10375245792E+04  0.10100000352E+00 0.  1.
</event>
<event>
 5   0  0.9144244E-05  0.2293848E+04  0.7818609E-02  0.8480351E-01
       -2   -1    0    0    0  501  0.00000000000E+00  0.00000000000E+00  0.12431780610E+04  0.12431780610E+04  0.25500000920E-02 0. -1.
        2   -1    0    0  501    0  0.00000000000E+00  0.00000000000E+00 -0.10581224055E+04  0.10581224055E+04  0.25500000920E-02 0.  1.
    10030    2    1    2    0    0  0.00000000000E+00  0.00000000000E+00  0.18505565548E+03  0.23013004665E+04  0.22938479116E+04 0.  0.
        1    1    3    3  502    0 -0.28790929359E+02 -0.78031742773E+03 -0.75026717296E+03  0.10828781263E+04  0.50400001928E-02 0.  1.
       -1    1    3    3    0  502  0.28790929359E+02  0.78031742773E+03  0.93532282844E+03  0.12184223402E+04  0.50400001928E-02 0. -1.
</event>
<event>
 5   0  0.4061631E-05  0.2403764E+04  0.7818609E-02  0.8438096E-01
       -1   -1    0    0    0  501  0.00000000000E+00  0.00000000000E+00  0.10590270786E+04  0.10590270787E+04  0.50400001928E-02 0.  1.
        1   -1    0    0  501    0  0.00000000000E+00  0.00000000000E+00 -0.13640074142E+04  0.13640074142E+04  0.50400001928E-02 0. -1.
    10030    2    1    2    0    0  0.00000000000E+00  0.00000000000E+00 -0.30498033557E+03  0.24230344929E+04  0.24037643704E+04 0.  0.
        3    1    3    3  502    0 -0.72174603644E+01  0.11154719326E+04  0.29852384422E+03  0.11547494187E+04  0.10100000352E+00 0.  1.
       -3    1    3    3    0  502  0.72174603644E+01 -0.11154719326E+04 -0.60350417979E+03  0.12682850742E+04  0.10100000352E+00 0. -1.
</event>
<event>
 5   0  0.9750757E-05  0.1749717E+04  0.7818609E-02  0.8733506E-01
        2   -1    0    0  501    0  0.00000000000E+00  0.00000000000E+00  0.83703821108E+03  0.83703821108E+03  0.25500000920E-02 0. -1.
       -2   -1    0    0    0  501  0.00000000000E+00  0.00000000000E+00 -0.91438788319E+03  0.91438788319E+03  0.25500000920E-02 0.  1.
    10030    2    1    2    0    0  0.00000000000E+00  0.00000000000E+00 -0.77349672115E+02  0.17514260943E+04  0.17497172320E+04 0.  0.
        2    1    3    3  502    0  0.52006084952E+03 -0.52968602558E+03 -0.50210327045E+03  0.89617981851E+03  0.25500000920E-02 0.  1.
       -2    1    3    3    0  502 -0.52006084952E+03  0.52968602558E+03  0.42475359834E+03  0.85524627576E+03  0.25500000920E-02 0. -1.
</event>
<event>
 5   0  0.9182865E-05  0.2388384E+04  0.7818609E-02  0.8443865E-01
       -2   -1    0    0    0  501  0.00000000000E+00  0.00000000000E+00  0.64499619449E+03  0.64499619449E+03  0.25500000920E-02 0.  1.
        2   -1    0    0  501    0  0.00000000000E+00  0.00000000000E+00 -0.22110125507E+04  0.22110125507E+04  0.25500000920E-02 0. -1.
    10030    2    1    2    0    0  0.00000000000E+00  0.00000000000E+00 -0.15660163562E+04  0.28560087451E+04  0.23883841242E+04 0.  0.
        3    1    3    3  502    0 -0.10116529180E+04  0.45672060321E+03 -0.13097801106E+04  0.17168457368E+04  0.10100000352E+00 0. -1.
       -3    1    3    3    0  502  0.10116529180E+04 -0.45672060321E+03 -0.25623624561E+03  0.11391630083E+04  0.10100000352E+00 0.  1.
</event>
<event>
 5   0  0.9144244E-05  0.1469054E+04  0.7818609E-02  0.8905296E-01
       -2   -1    0    0    0  501  0.00000000000E+00  0.00000000000E+00  0.66303456838E+03  0.66303456838E+03  0.25500000920E-02 0. -1.
        2   -1    0    0  501    0  0.00000000000E+00  0.00000000000E+00 -0.81372845839E+03  0.81372845840E+03  0.25500000920E-02 0.  1.
    10030    2    1    2    0    0  0.00000000000E+00  0.00000000000E+00 -0.15069389001E+03  0.14767630268E+04  0.14690542498E+04 0.  0.
        1    1    3    3  502    0 -0.44641266124E+03  0.45042562143E+02  0.50926905022E+03  0.67872532151E+03  0.50400001928E-02 0. -1.
       -1    1    3    3    0  502  0.44641266124E+03 -0.45042562143E+02 -0.65996294024E+03  0.79803770527E+03  0.50400001928E-02 0.  1.
</event>
<event>
 5   0  0.9491680E-05  0.2399615E+04  0.7818609E-02  0.8439648E-01
       -2   -1    0    0    0  501  0.00000000000E+00  0.00000000000E+00  0.54888239051E+03  0.54888239051E+03  0.25500000920E-02 0.  1.
        2   -1    0    0  501    0  0.00000000000E+00  0.00000000000E+00 -0.26226722262E+04  0.26226722262E+04  0.25500000920E-02 0. -1.
    10030    2    1    2    0    0  0.00000000000E+00  0.00000000000E+00 -0.20737898357E+04  0.31715546167E+04  0.23996154700E+04 0.  0.
        5    1    3    3  502    0  0.11832867981E+04 -0.36289498586E+02 -0.77914130403E+03  0.14172395125E+04  0.46999998093E+01 0.  1.
       -5    1    3    3    0  502 -0.11832867981E+04  0.36289498586E+02 -0.12946485316E+04  0.17543151042E+04  0.46999998093E+01 0. -1.
</event>
<event>
 5   0  0.4260395E-05  0.1603773E+04  0.7818609E-02  0.8818234E-01
        1   -1    0    0  501    0  0.00000000000E+00  0.00000000000E+00  0.69545923858E+03  0.69545923860E+03  0.50400001928E-02 0. -1.
       -1   -1    0    0    0  501  0.00000000000E+00  0.00000000000E+00 -0.92460017733E+03  0.92460017734E+03  0.50400001928E-02 0.  1.
    10030    2    1    2    0    0  0.00000000000E+00  0.00000000000E+00 -0.22914093875E+03  0.16200594159E+04  0.16037727212E+04 0.  0.
        4    1    3    3  502    0 -0.41386025746E+02  0.74794240062E+03 -0.40363991495E+03  0.85091564306E+03  0.12699999809E+01 0.  1.
       -4    1    3    3    0  502  0.41386025746E+02 -0.74794240062E+03  0.17449897619E+03  0.76914377288E+03  0.12699999809E+01 0. -1.
</event>
<event>
 5   0  0.4018942E-05  0.2326682E+04  0.7818609E-02  0.8467475E-01
       -1   -1    0    0    0  501  0.00000000000E+00  0.00000000000E+00  0.12343140434E+04  0.12343140435E+04  0.50400001928E-02 0. -1.
        1   -1    0    0  501    0  0.00000000000E+00  0.00000000000E+00 -0.10964487375E+04  0.10964487375E+04  0.50400001928E-02 0.  1.
    10030    2    1    2    0    0  0.00000000000E+00  0.00000000000E+00  0.13786530597E+03  0.23307627809E+04  0.23266818215E+04 0.  0.
        5    1    3    3  502    0  0.84293048080E+03  0.78556593694E+03  0.22950837281E+03  0.11748794917E+04  0.46999998093E+01 0. -1.
       -5    1    3    3    0  502 -0.84293048080E+03 -0.78556593694E+03 -0.91643066848E+02  0.11558832893E+04  0.46999998093E+01 0.  1.
</event>
<event>
 5   0  0.9519092E-05  0.2427123E+04  0.7818609E-02  0.8429419E-01
       -2   -1    0    0    0  501  0.00000000000E+00  0.00000000000E+00  0.76932890325E+03  0.76932890325E+03  0.25500000920E-02 0.  1.
        2   -1    0    0  501    0  0.00000000000E+00  0.00000000000E+00 -0.19143060393E+04  0.19143060393E+04  0.25500000920E-02 0. -1.
    10030    2    1    2    0    0  0.00000000000E+00  0.00000000000E+00 -0.11449771361E+04  0.26836349426E+04  0.24271225480E+04 0.  0.
        4    1    3    3  502    0  0.65646854953E+03  0.10014496270E+04 -0.35447760461E+03  0.12488027454E+04  0.12699999809E+01 0.  1.
       -4    1    3    3    0  502 -0.65646854953E+03 -0.10014496270E+04 -0.79049953148E+03  0.14348321972E+04  0.12699999809E+01 0. -1.
</event>
<event>
 5   0  0.4260395E-05  0.2361383E+04  0.7818609E-02  0.8454104E-01
       -1   -1    0    0    0  501  0.00000000000E+00  0.00000000000E+00  0.22709265819E+04  0.22709265819E+04  0.50400001928E-02 0.  1.
        1   -1    0    0  501    0  0.00000000000E+00  0.00000000000E+00 -0.61386083447E+03  0.61386083449E+03  0.50400001928E-02 0. -1.
    10030    2    1    2    0    0  0.00000000000E+00  0.00000000000E+00  0.16570657475E+04  0.28847874164E+04  0.23613833968E+04 0.  0.
        4    1    3    3  502    0 -0.45394574601E+03 -0.39250393101E+03  0.20707218446E+04  0.21559259373E+04  0.12699999809E+01 0.  1.
       -4    1    3    3    0  502  0.45394574601E+03  0.39250393101E+03 -0.41365609718E+03  0.72886147916E+03  0.12699999809E+01 0. -1.
</event>
<event>
 5   0  0.4061631E-05  0.1295531E+04  0.7818609E-02  0.9033117E-01
       -1   -1    0    0    0  501  0.00000000000E+00  0.00000000000E+00  0.10562863573E+04  0.10562863573E+04  0.50400001928E-02 0. -1.
        1   -1    0    0  501    0  0.00000000000E+00  0.00000000000E+00 -0.39724080002E+03  0.39724080005E+03  0.50400001928E-02 0.  1.
    10030    2    1    2    0    0  0.00000000000E+00  0.00000000000E+00  0.65904555729E+03  0.14535271574E+04  0.12955308374E+04 0.  0.
        3    1    3    3  502    0  0.36832815584E+03 -0.89487790699E+02 -0.25982543257E+03  0.45954647281E+03  0.10100000352E+00 0.  1.
       -3    1    3    3    0  502 -0.36832815584E+03  0.89487790699E+02  0.91887098986E+03  0.99398068455E+03  0.10100000352E+00 0. -1.
</event>
<event>
 5   0  0.9144244E-05  0.2443411E+04  0.7818609E-02  0.8423428E-01
        2   -1    0    0  501    0  0.00000000000E+00  0.00000000000E+00  0.10438950730E+04  0.10438950730E+04  0.25500000920E-02 0.  1.
       -2   -1    0    0    0  501  0.00000000000E+00  0.00000000000E+00 -0.14298027816E+04  0.14298027816E+04  0.25500000920E-02 0. -1.
    10030    2    1    2    0    0  0.00000000000E+00  0.00000000000E+00 -0.38590770852E+03  0.24736978546E+04  0.24434107957E+04 0.  0.
        1    1    3    3  502    0 -0.31486020481E+03 -0.70517929996E+03  0.76543189080E+03  0.10873365501E+04  0.50400001928E-02 0.  1.
       -1    1    3    3    0  502  0.31486020481E+03  0.70517929996E+03 -0.11513395993E+04  0.13863613045E+04  0.50400001928E-02 0. -1.
</event>
<event>
 5   0  0.4018942E-05  0.2377788E+04  0.7818609E-02  0.8447867E-01
       -1   -1    0    0    0  501  0.00000000000E+00  0.00000000000E+00  0.85216556454E+03  0.85216556455E+03  0.50400001928E-02 0. -1.
        1   -1    0    0  501    0  0.00000000000E+00  0.00000000000E+00 -0.16586781451E+04  0.16586781451E+04  0.50400001928E-02 0.  1.
    10030    2    1    2    0    0  0.00000000000E+00  0.00000000000E+00 -0.80651258055E+03  0.25108437096E+04  0.23777875413E+04 0.  0.
        5    1    3    3  502    0 -0.66918233308E+03  0.98177026138E+03 -0.35884993795E+03  0.12411580113E+04  0.46999998093E+01 0. -1.
       -5    1    3    3    0  502  0.66918233308E+03 -0.98177026138E+03 -0.44766264260E+03  0.12696856984E+04  0.46999998093E+01 0.  1.
</event>
<event>
 5   0  0.9519092E-05  0.2406441E+04  0.7818609E-02  0.8437096E-01
       -2   -1    0    0    0  501  0.00000000000E+00  0.00000000000E+00  0.71442801238E+03  0.71442801239E+03  0.25500000920E-02 0. -1.
        2   -1    0    0  501    0  0.00000000000E+00  0.00000000000E+00 -0.20264321698E+04  0.20264321698E+04  0.25500000920E-02 0.  1.
    10030    2    1    2    0    0  0.00000000000E+00  0.00000000000E+00 -0.13120041574E+04  0.27408601822E+04  0.24064412790E+04 0.  0.
        4    1    3    3  502    0  0.85670021203E+02 -0.88828045659E+03 -0.15752254961E+04  0.18104470438E+04  0.12699999809E+01 0.  1.
       -4    1    3    3    0  502 -0.85670021203E+02  0.88828045659E+03  0.26322133863E+03  0.93041313839E+03  0.12699999809E+01 0. -1.
</event>
<event>
 5   0  0.9144244E-05  0.2377254E+04  0.7818609E-02  0.8448069E-01
        2   -1    0    0  501    0  0.00000000000E+00  0.00000000000E+00  0.11976779346E+04  0.11976779346E+04  0.25500000920E-02 0.  1.
       -2   -1    0    0    0  501  0.00000000000E+00  0.00000000000E+00 -0.11796449285E+04  0.11796449285E+04  0.25500000920E-02 0. -1.
    10030    2    1    2    0    0  0.00000000000E+00  0.00000000000E+00  0.18033006071E+02  0.23773228631E+04  0.23772544681E+04 0.  0.
        1    1    3    3  502    0  0.18242655833E+03 -0.24804790843E+03  0.11571033157E+04  0.11973701588E+04  0.50400001928E-02 0.  1.
       -1    1    3    3    0  502 -0.18242655833E+03  0.24804790843E+03 -0.11390703096E+04  0.11799527043E+04  0.50400001928E-02 0. -1.
</event>
<event>
 5   0  0.9182865E-05  0.2302293E+04  0.7818609E-02  0.8477018E-01
        2   -1    0    0  501    0  0.00000000000E+00  0.00000000000E+00  0.17574881464E+04  0.17574881464E+04  0.25500000920E-02 0. -1.
       -2   -1    0    0    0  501  0.00000000000E+00  0.00000000000E+00 -0.75399565690E+03  0.75399565690E+03  0.25500000920E-02 0.  1.
    10030    2    1    2    0    0  0.00000000000E+00  0.00000000000E+00  0.10034924895E+04  0.25114838033E+04  0.23022931433E+04 0.  0.
        3    1    3    3  502    0  0.18383869133E+03 -0.67867877486E+03  0.14960097664E+04  0.16530114262E+04  0.10100000352E+00 0. -1.
       -3    1    3    3    0  502 -0.18383869133E+03  0.67867877486E+03 -0.49251727693E+03  0.85847237705E+03  0.10100000352E+00 0.  1.
</event>
<event>
 5   0  0.9750757E-05  0.2294602E+04  0.7818609E-02  0.8480052E-01
       -2   -1    0    0    0  501  0.00000000000E+00  0.00000000000E+00  0.72864400349E+03  0.72864400349E+03  0.25500000920E-02 0. -1.
        2   -1    0    0  501    0  0.00000000000E+00  0.00000000000E+00 -0.18065061752E+04  0.18065061752E+04  0.25500000920E-02 0.  1.
    10030    2    1    2    0    0  0.00000000000E+00  0.00000000000E+00 -0.10778621717E+04  0.25351501787E+04  0.22946022678E+04 0.  0.
        2    1    3    3  502    0 -0.10309177562E+04  0.46653605728E+03 -0.74812857821E+03  0.13565189576E+04  0.25500000920E-02 0.  1.
       -2    1    3    3    0  502  0.10309177562E+04 -0.46653605728E+03 -0.32973359349E+03  0.11786312211E+04  0.25500000920E-02 0. -1.
</event>
<event>
 5   0  0.9144244E-05  0.2279592E+04  0.7818609E-02  0.8486011E-01
       -2   -1    0    0    0  501  0.00000000000E+00  0.00000000000E+00  0.57242592888E+03  0.57242592889E+03  0.25500000920E-02 0.  1.
        2   -1    0    0  501    0  0.00000000000E+00  0.00000000000E+00 -0.22695248787E+04  0.22695248787E+04  0.25500000920E-02 0. -1.
    10030    2    1    2    0    0  0.00000000000E+00  0.00000000000E+00 -0.16970989498E+04  0.28419508075E+04  0.22795919695E+04 0.  0.
        1    1    3    3  502    0 -0.17656906758E+02  0.47842455557E+02 -0.22681018798E+04  0.22686751208E+04  0.50400001928E-02 0. -1.
       -1    1    3    3    0  502  0.17656906758E+02 -0.47842455557E+02  0.57100292998E+03  0.57327568672E+03  0.50400001928E-02 0.  1.
</event>
<event>
 5   0  0.9491680E-05  0.1700420E+04  0.7818609E-02  0.8761125E-01
       -2   -1    0    0    0  501  0.00000000000E+00  0.00000000000E+00  0.55197367405E+03  0.55197367406E+03  0.25500000920E-02 0.  1.
        2   -1    0    0  501    0  0.00000000000E+00  0.00000000000E+00 -0.13095855973E+04  0.13095855973E+04  0.25500000920E-02 0. -1.
    10030    2    1    2    0    0  0.00000000000E+00  0.00000000000E+00 -0.75761192324E+03  0.18615592714E+04  0.17004196819E+04 0.  0.
        5    1    3    3  502    0  0.29431640589E+03 -0.35488343113E+03  0.40321948601E+03  0.61251321649E+03  0.46999998093E+01 0.  1.
       -5    1    3    3    0  502 -0.29431640589E+03  0.35488343113E+03 -0.11608314093E+04  0.12490460549E+04  0.46999998093E+01 0. -1.
</event>
<event>
 5   0  0.9750757E-05  0.2378859E+04  0.7818609E-02  0.8447461E-01
        2   -1    0    0  501    0  0.00000000000E+00  0.00000000000E+00  0.96915858314E+03  0.96915858315E+03  0.25500000920E-02 0.  1.
       -2   -1    0    0    0  501  0.00000000000E+00  0.00000000000E+00 -0.14597635176E+04  0.14597635176E+04  0.25500000920E-02 0. -1.
    10030    2    1    2    0    0  0.00000000000E+00  0.00000000000E+00 -0.49060493443E+03  0.24289221007E+04  0.23788588377E+04 0.  0.
        2    1    3    3  502    0 -0.96271089030E+03  0.46515865001E+03 -0.77738111042E+03  0.13219327588E+04  0.25500000920E-02 0. -1.
       -2    1    3    3    0  502  0.96271089030E+03 -0.46515865001E+03  0.28677617600E+03  0.11069893419E+04  0.25500000920E-02 0.  1.
</event>
<event>
 5   0  0.4061631E-05  0.2411930E+04  0.7818609E-02  0.8435051E-01
       -1   -1    0    0    0  501  0.00000000000E+00  0.00000000000E+00  0.58281429876E+03  0.58281429879E+03  0.50400001928E-02 0. -1.
        1   -1    0    0  501    0  0.00000000000E+00  0.00000000000E+00 -0.24953939728E+04  0.24953939729E+04  0.50400001928E-02 0.  1.
    10030    2    1    2    0    0  0.00000000000E+00  0.00000000000E+00 -0.19125796741E+04  0.30782082716E+04  0.24119297572E+04 0.  0.
        3    1    3    3  502    0 -0.60604706990E+03  0.17574921839E+03 -0.22678866396E+04  0.23540370981E+04  0.10100000352E+00 0.  1.
       -3    1    3    3    0  502  0.60604706990E+03 -0.17574921839E+03  0.35530696552E+03  0.72417117358E+03  0.10100000352E+00 0. -1.
</event>
<event>
 5   0  0.4208577E-05  0.2344023E+04  0.7818609E-02  0.8460763E-01
        1   -1    0    0  501    0  0.00000000000E+00  0.00000000000E+00  0.15245919808E+04  0.15245919808E+04  0.50400001928E-02 0. -1.
       -1   -1    0    0    0  501  0.00000000000E+00  0.00000000000E+00 -0.90096986344E+03  0.90096986345E+03  0.50400001928E-02 0.  1.
    10030    2    1    2    0    0  0.00000000000E+00  0.00000000000E+00  0.62362211740E+03  0.24255618443E+04  0.23440234033E+04 0.  0.
        1    1    3    3  502    0  0.71494882719E+03 -0.66724273843E+02 -0.64669738807E+03  0.96634438271E+03  0.50400001928E-02 0.  1.
       -1    1    3    3    0  502 -0.71494882719E+03  0.66724273843E+02  0.12703195055E+04  0.14592174616E+04  0.50400001928E-02 0. -1.
</event>
<event>
 5   0  0.9519092E-05  0.2375530E+04  0.7818609E-02  0.8448722E-01
        2   -1    0    0  501    0  0.00000000000E+00  0.00000000000E+00  0.10644974420E+04  0.10644974420E+04  0.25500000920E-02 0.  1.
       -2   -1    0    0    0  501  0.00000000000E+00  0.00000000000E+00 -0.13253071126E+04  0.13253071126E+04  0.25500000920E-02 0. -1.
    10030    2    1    2    0    0  0.00000000000E+00  0.00000000000E+00 -0.26080967061E+03  0.23898045546E+04  0.23755302829E+04 0.  0.
        4    1    3    3  502    0 -0.26912287004E+03  0.73935493956E+03  0.76472351029E+03  0.10972130631E+04  0.12699999809E+01 0.  1.
       -4    1    3    3    0  502  0.26912287004E+03 -0.73935493956E+03 -0.10255331809E+04  0.12925914915E+04  0.12699999809E+01 0. -1.
</event>
<event>
 5   0  0.9491680E-05  0.2431831E+04  0.7818609E-02  0.8427682E-01
        2   -1    0    0  501    0  0.00000000000E+00  0.00000000000E+00  0.16313845183E+04  0.16313845183E+04  0.25500000920E-02 0.  1.
       -2   -1    0    0    0  501  0.00000000000E+00  0.00000000000E+00 -0.90625515131E+03  0.90625515132E+03  0.25500000920E-02 0. -1.
    10030    2    1    2    0    0  0.00000000000E+00  0.00000000000E+00  0.72512936695E+03  0.25376396696E+04  0.24318310990E+04 0.  0.
        5    1    3    3  502    0  0.11141156741E+04  0.48208774312E+03  0.43460621865E+03  0.12894056703E+04  0.46999998093E+01 0. -1.
       -5    1    3    3    0  502 -0.11141156741E+04 -0.48208774312E+03  0.29052314830E+03  0.12482339993E+04  0.46999998093E+01 0.  1.
</event>
<event>
 5   0  0.9491680E-05  0.2488573E+04  0.7818609E-02  0.8407068E-01
        2   -1    0    0  501    0  0.00000000000E+00  0.00000000000E+00  0.89511433195E+03  0.89511433195E+03  0.25500000920E-02 0. -1.
       -2   -1    0    0    0  501  0.00000000000E+00  0.00000000000E+00 -0.17296664729E+04  0.17296664729E+04  0.25500000920E-02 0.  1.
    10030    2    1    2    0    0  0.00000000000E+00  0.00000000000E+00 -0.83455214096E+03  0.26247808049E+04  0.24885732856E+04 0.  0.
        5    1    3    3  502    0  0.10353956133E+04  0.31418049844E+03  0.23074026577E+03  0.11063528469E+04  0.46999998093E+01 0. -1.
       -5    1    3    3    0  502 -0.10353956133E+04 -0.31418049844E+03 -0.10652924067E+04  0.15184279579E+04  0.46999998093E+01 0.  1.
</event>
<event>
 5   0  0.4260395E-05  0.2390219E+04  0.7818609E-02  0.8443174E-01
        1   -1    0    0  501    0  0.00000000000E+00  0.00000000000E+00  0.10244379761E+04  0.10244379762E+04  0.50400001928E-02 0.  1.
       -1   -1    0    0    0  501  0.00000000000E+00  0.00000000000E+00 -0.13942151385E+04  0.13942151385E+04  0.50400001928E-02 0. -1.
    10030    2    1    2    0    0  0.00000000000E+00  0.00000000000E+00 -0.36977716231E+03  0.24186531146E+04  0.23902191822E+04 0.  0.
        4    1    3    3  502    0  0.76918301994E+03 -0.56270586463E+03 -0.91458057666E+03  0.13208859346E+04  0.12699999809E+01 0. -1.
       -4    1    3    3    0  502 -0.76918301994E+03  0.56270586463E+03  0.54480341434E+03  0.10977671800E+04  0.12699999809E+01 0.  1.
</event>
<event>
 5   0  0.4018942E-05  0.2399704E+04  0.7818609E-02  0.8439614E-01
        1   -1    0    0  501    0  0.00000000000E+00  0.00000000000E+00  0.14177794974E+04  0.14177794974E+04  0.50400001928E-02 0.  1.
       -1   -1    0    0    0  501  0.00000000000E+00  0.00000000000E+00 -0.10154221266E+04  0.10154221266E+04  0.50400001928E-02 0. -1.
    10030    2    1    2    0    0  0.00000000000E+00  0.00000000000E+00  0.40235737082E+03  0.24332016240E+04  0.23997038753E+04 0.  0.
        5    1    3    3  502    0  0.81299616298E+03 -0.62122109127E+03  0.83661981591E+03  0.13216781801E+04  0.46999998093E+01 0. -1.
       -5    1    3    3    0  502 -0.81299616298E+03  0.62122109127E+03 -0.43426244509E+03  0.11115234440E+04  0.46999998093E+01 0.  1.
</event>
<event>
 5   0  0.9144244E-05  0.1644895E+04  0.7818609E-02  0.8793432E-01
        2   -1    0    0  501    0  0.00000000000E+00  0.00000000000E+00  0.14430643966E+04  0.14430643966E+04  0.25500000920E-02 0.  1.
       -2   -1    0    0    0  501  0.00000000000E+00  0.00000000000E+00 -0.46873879206E+03  0.46873879207E+03  0.25500000920E-02 0. -1.
    10030    2    1    2    0    0  0.00000000000E+00  0.00000000000E+00  0.97432560456E+03  0.19118031887E+04  0.16448954522E+04 0.  0.
        1    1    3    3  502    0 -0.70755257211E+03  0.21982046417E+03  0.90212301860E+03  0.11673806661E+04  0.50400001928E-02 0. -1.
       -1    1    3    3    0  502  0.70755257211E+03 -0.21982046417E+03  0.72202585963E+02  0.74442252264E+03  0.50400001928E-02 0.  1.
</event>
<event>
 5   0  0.9519092E-05  0.2437905E+04  0.7818609E-02  0.8425447E-01
        2   -1    0    0  501    0  0.00000000000E+00  0.00000000000E+00  0.10123556637E+04  0.10123556637E+04  0.25500000920E-02 0. -1.
       -2   -1    0    0    0  501  0.00000000000E+00  0.00000000000E+00 -0.14677108737E+04  0.14677108737E+04  0.25500000920E-02 0.  1.
    10030    2    1    2    0    0  0.00000000000E+00  0.00000000000E+00 -0.45535520994E+03  0.24800665374E+04  0.24379051792E+04 0.  0.
        4    1    3    3  502    0  0.57577139448E+02 -0.11598057003E+04 -0.60473490332E+03  0.13092632682E+04  0.12699999809E+01 0.  1.
       -4    1    3    3    0  502 -0.57577139448E+02  0.11598057003E+04  0.14937969338E+03  0.11708032691E+04  0.12699999809E+01 0. -1.
</event>
<event>
 5   0  0.9519092E-05  0.2418777E+04  0.7818609E-02  0.8432507E-01
       -2   -1    0    0    0  501  0.00000000000E+00  0.00000000000E+00  0.10802382121E+04  0.10802382121E+04  0.25500000920E-02 0.  1.
        2   -1    0    0  501    0  0.00000000000E+00  0.00000000000E+00 -0.13539794409E+04  0.13539794409E+04  0.25500000920E-02 0. -1.
    10030    2    1    2    0    0  0.00000000000E+00  0.00000000000E+00 -0.27374122879E+03  0.24342176530E+04  0.24187768235E+04 0.  0.
        4    1    3    3  502    0 -0.57340210999E+03 -0.96833629830E+03 -0.58259017798E+03  0.12672324549E+04  0.12699999809E+01 0.  1.
       -4    1    3    3    0  502  0.57340210999E+03  0.96833629830E+03  0.30884894919E+03  0.11669851981E+04  0.12699999809E+01 0. -1.
</event>
<event>
 5   0  0.9750757E-05  0.2392904E+04  0.7818609E-02  0.8442165E-01
        2   -1    0    0  501    0  0.00000000000E+00  0.00000000000E+00  0.75489135951E+03  0.75489135952E+03  0.25500000920E-02 0. -1.
       -2   -1    0    0    0  501  0.00000000000E+00  0.00000000000E+00 -0.18962957714E+04  0.18962957714E+04  0.25500000920E-02 0.  1.
    10030    2    1    2    0    0  0.00000000000E+00  0.00000000000E+00 -0.11414044119E+04  0.26511871310E+04  0.23929039203E+04 0.  0.
        2    1    3    3  502    0  0.10702382216E+04  0.42984158400E+03 -0.21803055998E+03  0.11737593294E+04  0.25500000920E-02 0. -1.
       -2    1    3    3    0  502 -0.10702382216E+04 -0.42984158400E+03 -0.92337385194E+03  0.14774278015E+04  0.25500000920E-02 0.  1.
</event>
<event>
 5   0  0.3934906E-05  0.2440528E+04  0.7818609E-02  0.8424484E-01
       -1   -1    0    0    0  501  0.00000000000E+00  0.00000000000E+00  0.11233256581E+04  0.11233256581E+04  0.50400001928E-02 0. -1.
        1   -1    0    0  501    0  0.00000000000E+00  0.00000000000E+00 -0.13255682134E+04  0.13255682134E+04  0.50400001928E-02 0.  1.
    10030    2    1    2    0    0  0.00000000000E+00  0.00000000000E+00 -0.20224255535E+03  0.24488938715E+04  0.24405284556E+04 0.  0.
        2    1    3    3  502    0 -0.27560007929E+03 -0.98823565754E+03 -0.76405192567E+03  0.12791952406E+04  0.25500000920E-02 0.  1.
       -2    1    3    3    0  502  0.27560007929E+03  0.98823565754E+03  0.56180937031E+03  0.11696986309E+04  0.25500000920E-02 0. -1.
</event>
<event>
 5   0  0.4061631E-05  0.2175505E+04  0.7818609E-02  0.8528693E-01
        1   -1    0    0  501    0  0.00000000000E+00  0.00000000000E+00  0.13241071661E+04  0.13241071661E+04  0.50400001928E-02 0.  1.
       -1   -1    0    0    0  501  0.00000000000E+00  0.00000000000E+00 -0.89358753549E+03  0.89358753550E+03  0.50400001928E-02 0. -1.
    10030    2    1    2    0    0  0.00000000000E+00  0.00000000000E+00  0.43051963056E+03  0.22176947016E+04  0.21755051453E+04 0.  0.
        3    1    3    3  502    0  0.38946070463E+03 -0.98473718634E+03  0.46871519653E+03  0.11580504792E+04  0.10100000352E+00 0.  1.
       -3    1    3    3    0  502 -0.38946070463E+03  0.98473718634E+03 -0.38195565967E+02  0.10596442224E+04  0.10100000352E+00 0. -1.
</event>
<event>
 5   0  0.9491680E-05  0.1772944E+04  0.7818609E-02  0.8720821E-01
       -2   -1    0    0    0  501  0.00000000000E+00  0.00000000000E+00  0.53945228319E+03  0.53945228320E+03  0.25500000920E-02 0.  1.
        2   -1    0    0  501    0  0.00000000000E+00  0.00000000000E+00 -0.14567231607E+04  0.14567231607E+04  0.25500000920E-02 0. -1.
    10030    2    1    2    0    0  0.00000000000E+00  0.00000000000E+00 -0.91727087748E+03  0.19961754439E+04  0.17729440318E+04 0.  0.
        5    1    3    3  502    0 -0.71644333288E+03 -0.60541239271E+02  0.12516193793E+03  0.72982456220E+03  0.46999998093E+01 0.  1.
       -5    1    3    3    0  502  0.71644333288E+03  0.60541239271E+02 -0.10424328154E+04  0.12663508817E+04  0.46999998093E+01 0. -1.
</event>
<event>
 5   0  0.9144244E-05  0.2238810E+04  0.7818609E-02  0.8502446E-01
        2   -1    0    0  501    0  0.00000000000E+00  0.00000000000E+00  0.46276956344E+03  0.46276956344E+03  0.25500000920E-02 0.  1.
       -2   -1    0    0    0  501  0.00000000000E+00  0.00000000000E+00 -0.27077574384E+04  0.27077574384E+04  0.25500000920E-02 0. -1.
    10030    2    1    2    0    0  0.00000000000E+00  0.00000000000E+00 -0.22449878749E+04  0.31705270018E+04  0.22388101551E+04 0.  0.
        1    1    3    3  502    0 -0.53084736064E+03  0.87801268638E+03 -0.48859147127E+03  0.11364096196E+04  0.50400001928E-02 0.  1.
       -1    1    3    3    0  502  0.53084736064E+03 -0.87801268638E+03 -0.17563964037E+04  0.20341173822E+04  0.50400001928E-02 0. -1.
</event>
<event>
 5   0  0.4260395E-05  0.1572200E+04  0.7818609E-02  0.8837811E-01
        1   -1    0    0  501    0  0.00000000000E+00  0.00000000000E+00  0.20041881530E+04  0.20041881530E+04  0.50400001928E-02 0. -1.
       -1   -1    0    0    0  501  0.00000000000E+00  0.00000000000E+00 -0.30833110568E+03  0.30833110572E+03  0.50400001928E-02 0.  1.
    10030    2    1    2    0    0  0.00000000000E+00  0.00000000000E+00  0.16958570474E+04  0.23125192588E+04  0.15722004316E+04 0.  0.
        4    1    3    3  502    0  0.64708644112E+03  0.13164465669E+02  0.19168200075E+03  0.67500945752E+03  0.12699999809E+01 0.  1.
       -4    1    3    3    0  502 -0.64708644112E+03 -0.13164465669E+02  0.15041750466E+04  0.16375098012E+04  0.12699999809E+01 0. -1.
</event>
<event>
 5   0  0.4061631E-05  0.2121493E+04  0.7818609E-02  0.8551834E-01
        1   -1    0    0  501    0  0.00000000000E+00  0.00000000000E+00  0.10996323414E+04  0.10996323414E+04  0.50400001928E-02 0.  1.
       -1   -1    0    0    0  501  0.00000000000E+00  0.00000000000E+00 -0.10232360482E+04  0.10232360482E+04  0.50400001928E-02 0. -1.
    10030    2    1    2    0    0  0.00000000000E+00  0.00000000000E+00  0.76396293212E+02  0.21228683896E+04  0.21214932963E+04 0.  0.
        3    1    3    3  502    0  0.33526766164E+03 -0.76451751750E+03  0.69306255689E+03  0.10850009942E+04  0.10100000352E+00 0.  1.
       -3    1    3    3    0  502 -0.33526766164E+03  0.76451751750E+03 -0.61666626367E+03  0.10378673954E+04  0.10100000352E+00 0. -1.
</event>
<event>
 5   0  0.9491680E-05  0.2509724E+04  0.7818609E-02  0.8399530E-01
        2   -1    0    0  501    0  0.00000000000E+00  0.00000000000E+00  0.11995988841E+04  0.11995988841E+04  0.25500000920E-02 0.  1.
       -2   -1    0    0    0  501  0.00000000000E+00  0.00000000000E+00 -0.13126706731E+04  0.13126706731E+04  0.25500000920E-02 0. -1.
    10030    2    1    2    0    0  0.00000000000E+00  0.00000000000E+00 -0.11307178903E+03  0.25122695572E+04  0.25097237097E+04 0.  0.
        5    1    3    3  502    0 -0.53448180552E+03  0.14258442171E+03  0.10709525549E+04  0.12053889756E+04  0.46999998093E+01 0.  1.
       -5    1    3    3    0  502  0.53448180552E+03 -0.14258442171E+03 -0.11840243439E+04  0.13068805816E+04  0.46999998093E+01 0. -1.
</event>
<event>
 5   0  0.3234750E-05  0.2416195E+04  0.7818609E-02  0.8433465E-01
        4   -1    0    0  501    0  0.00000000000E+00  0.00000000000E+00  0.22850559677E+04  0.22850563207E+04  0.12699999809E+01 0.  1.
       -4   -1    0    0    0  501  0.00000000000E+00  0.00000000000E+00 -0.63871395603E+03  0.63871521865E+03  0.12699999809E+01 0. -1.
    10030    2    1    2    0    0  0.00000000000E+00  0.00000000000E+00  0.16463420117E+04  0.29237715393E+04  0.24161949413E+04 0.  0.
        4    1    3    3  502    0  0.12179291756E+03 -0.64462986102E+03  0.20507339757E+04  0.21531123112E+04  0.12699999809E+01 0.  1.
       -4    1    3    3    0  502 -0.12179291756E+03  0.64462986102E+03 -0.40439196399E+03  0.77065922815E+03  0.12699999809E+01 0. -1.
</event>
<event>
 5   0  0.9750757E-05  0.2412988E+04  0.7818609E-02  0.8434657E-01
        2   -1    0    0  501    0  0.00000000000E+00  0.00000000000E+00  0.12626254388E+04  0.12626254388E+04  0.25500000920E-02 0. -1.
       -2   -1    0    0    0  501  0.00000000000E+00  0.00000000000E+00 -0.11528579555E+04  0.11528579555E+04  0.25500000920E-02 0.  1.
    10030    2    1    2    0    0  0.00000000000E+00  0.00000000000E+00  0.10976748326E+03  0.24154833943E+04  0.24129880082E+04 0.  0.
        2    1    3    3  502    0  0.10487877939E+04  0.23584848788E+02 -0.54164837335E+03  0.11806333224E+04  0.25500000920E-02 0. -1.
       -2    1    3    3    0  502 -0.10487877939E+04 -0.23584848788E+02  0.65141585662E+03  0.12348500718E+04  0.25500000920E-02 0.  1.
</event>
<event>
 5   0  0.9519092E-05  0.2367358E+04  0.7818609E-02  0.8451826E-01
       -2   -1    0    0    0  501  0.00000000000E+00  0.00000000000E+00  0.12488121593E+04  0.12488121593E+04  0.25500000920E-02 0.  1.
        2   -1    0    0  501    0  0.00000000000E+00  0.00000000000E+00 -0.11219425666E+04  0.11219425666E+04  0.25500000920E-02 0. -1.
    10030    2    1    2    0    0  0.00000000000E+00  0.00000000000E+00  0.12686959277E+03  0.23707547259E+04  0.23673576149E+04 0.  0.
        4    1    3    3  502    0  0.16367854524E+02  0.96734634831E+03  0.74637163358E+03  0.12219243399E+04  0.12699999809E+01 0.  1.
       -4    1    3    3    0  502 -0.16367854524E+02 -0.96734634831E+03 -0.61950204081E+03  0.11488303860E+04  0.12699999809E+01 0. -1.
</event>
<event>
 5   0  0.4208577E-05  0.2218346E+04  0.7818609E-02  0.8510831E-01
       -1   -1    0    0    0  501  0.00000000000E+00  0.00000000000E+00  0.93798659352E+03  0.93798659353E+03  0.50400001928E-02 0.  1.
        1   -1    0    0  501    0  0.00000000000E+00  0.00000000000E+00 -0.13116012040E+04  0.13116012041E+04  0.50400001928E-02 0. -1.
    10030    2    1    2    0    0  0.00000000000E+00  0.00000000000E+00 -0.37361461053E+03  0.22495877976E+04  0.22183456408E+04 0.  0.
        1    1    3    3  502    0 -0.52344239284E+03 -0.97701186929E+03 -0.14474772033E+03  0.11178085855E+04  0.50400001928E-02 0.  1.
       -1    1    3    3    0  502  0.52344239284E+03  0.97701186929E+03 -0.22886689021E+03  0.11317792120E+04  0.50400001928E-02 0. -1.
</event>
<event>
 5   0  0.4208577E-05  0.2333784E+04  0.7818609E-02  0.8464718E-01
        1   -1    0    0  501    0  0.00000000000E+00  0.00000000000E+00  0.17689306074E+04  0.17689306074E+04  0.50400001928E-02 0.  1.
       -1   -1    0    0    0  501  0.00000000000E+00  0.00000000000E+00 -0.76975157295E+03  0.76975157296E+03  0.50400001928E-02 0. -1.
    10030    2    1    2    0    0  0.00000000000E+00  0.00000000000E+00  0.99917903449E+03  0.25386821804E+04  0.23337841524E+04 0.  0.
        1    1    3    3  502    0  0.14345659630E+03  0.99090492837E+03 -0.15233077378E+03  0.10127571460E+04  0.50400001928E-02 0. -1.
       -1    1    3    3    0  502 -0.14345659630E+03 -0.99090492837E+03  0.11515098083E+04  0.15259250344E+04  0.50400001928E-02 0.  1.
</event>
<event>
 5   0  0.4018942E-05  0.2327586E+04  0.7818609E-02  0.8467123E-01
        1   -1    0    0  501    0  0.00000000000E+00  0.00000000000E+00  0.28900140217E+04  0.28900140217E+04  0.50400001928E-02 0.  1.
       -1   -1    0    0    0  501  0.00000000000E+00  0.00000000000E+00 -0.46865332822E+03  0.46865332825E+03  0.50400001928E-02 0. -1.
    10030    2    1    2    0    0  0.00000000000E+00  0.00000000000E+00  0.24213606934E+04  0.33586673499E+04  0.23275864666E+04 0.  0.
        5    1    3    3  502    0 -0.14005238706E+03  0.11189764965E+04  0.79578945483E+03  0.13802267992E+04  0.46999998093E+01 0. -1.
       -5    1    3    3    0  502  0.14005238706E+03 -0.11189764965E+04  0.16255712386E+04  0.19784405507E+04  0.46999998093E+01 0.  1.
</event>
<event>
 5   0  0.9144244E-05  0.2378935E+04  0.7818609E-02  0.8447432E-01
       -2   -1    0    0    0  501  0.00000000000E+00  0.00000000000E+00  0.14473304160E+04  0.14473304160E+04  0.25500000920E-02 0. -1.
        2   -1    0    0  501    0  0.00000000000E+00  0.00000000000E+00 -0.97754627479E+03  0.97754627479E+03  0.25500000920E-02 0.  1.
    10030    2    1    2    0    0  0.00000000000E+00  0.00000000000E+00  0.46978414118E+03  0.24248766908E+04  0.23789345989E+04 0.  0.
        1    1    3    3  502    0  0.10131265303E+04  0.54872130144E+03 -0.66300449754E+02  0.11540867310E+04  0.50400001928E-02 0.  1.
       -1    1    3    3    0  502 -0.10131265303E+04 -0.54872130144E+03  0.53608459093E+03  0.12707899597E+04  0.50400001928E-02 0. -1.
</event>
<event>
 5   0  0.9519092E-05  0.2379756E+04  0.7818609E-02  0.8447122E-01
        2   -1    0    0  501    0  0.00000000000E+00  0.00000000000E+00  0.28816088899E+04  0.28816088899E+04  0.25500000920E-02 0.  1.
       -2   -1    0    0    0  501  0.00000000000E+00  0.00000000000E+00 -0.49132628440E+03  0.49132628441E+03  0.25500000920E-02 0. -1.
    10030    2    1    2    0    0  0.00000000000E+00  0.00000000000E+00  0.23902826055E+04  0.33729351744E+04  0.23797564489E+04 0.  0.
        4    1    3    3  502    0  0.33855852104E+03  0.70554406451E+03 -0.75256836163E+02  0.78618032501E+03  0.12699999809E+01 0. -1.
       -4    1    3    3    0  502 -0.33855852104E+03 -0.70554406451E+03  0.24655394417E+04  0.25867548494E+04  0.12699999809E+01 0.  1.
</event>
<event>
 5   0  0.4260395E-05  0.2167635E+04  0.7818609E-02  0.8532021E-01
       -1   -1    0    0    0  501  0.00000000000E+00  0.00000000000E+00  0.49259891959E+03  0.49259891962E+03  0.50400001928E-02 0. -1.
        1   -1    0    0  501    0  0.00000000000E+00  0.00000000000E+00 -0.23846192518E+04  0.23846192518E+04  0.50400001928E-02 0.  1.
    10030    2    1    2    0    0  0.00000000000E+00  0.00000000000E+00 -0.18920203322E+04  0.28772181714E+04  0.21676354556E+04 0.  0.
        4    1    3    3  502    0  0.55335732774E+03 -0.74039021974E+03 -0.19482052540E+03  0.94463678717E+03  0.12699999809E+01 0. -1.
       -4    1    3    3    0  502 -0.55335732774E+03  0.74039021974E+03 -0.16971998068E+04  0.19325813843E+04  0.12699999809E+01 0.  1.
</event>
<event>
 5   0  0.4018942E-05  0.2399350E+04  0.7818609E-02  0.8439747E-01
       -1   -1    0    0    0  501  0.00000000000E+00  0.00000000000E+00  0.18439854904E+04  0.18439854904E+04  0.50400001928E-02 0.  1.
        1   -1    0    0  501    0  0.00000000000E+00  0.00000000000E+00 -0.78049403470E+03  0.78049403472E+03  0.50400001928E-02 0. -1.
    10030    2    1    2    0    0  0.00000000000E+00  0.00000000000E+00  0.10634914557E+04  0.26244795251E+04  0.23993496414E+04 0.  0.
        5    1    3    3  502    0 -0.79832184852E+03  0.10064373857E+03 -0.44154786325E+03  0.91784178456E+03  0.46999998093E+01 0. -1.
       -5    1    3    3    0  502  0.79832184852E+03 -0.10064373857E+03  0.15050393190E+04  0.17066377406E+04  0.46999998093E+01 0.  1.
</event>
<event>
 5   0  0.9144244E-05  0.2218725E+04  0.7818609E-02  0.8510675E-01
        2   -1    0    0  501    0  0.00000000000E+00  0.00000000000E+00  0.14720552562E+04  0.14720552562E+04  0.25500000920E-02 0. -1.
       -2   -1    0    0    0  501  0.00000000000E+00  0.00000000000E+00 -0.83603169528E+03  0.83603169529E+03  0.25500000920E-02 0.  1.
    10030    2    1    2    0    0  0.00000000000E+00  0.00000000000E+00  0.63602356087E+03  0.23080869514E+04  0.22187247250E+04 0.  0.
        1    1    3    3  502    0  0.11846075949E+03  0.46660401722E+03 -0.72170926293E+03  0.86753473744E+03  0.50400001928E-02 0.  1.
       -1    1    3    3    0  502 -0.11846075949E+03 -0.46660401722E+03  0.13577328238E+04  0.14405522140E+04  0.50400001928E-02 0. -1.
</event>
<event>
 5   0  0.4061631E-05  0.2469305E+04  0.7818609E-02  0.8414003E-01
        1   -1    0    0  501    0  0.00000000000E+00  0.00000000000E+00  0.11945472447E+04  0.11945472448E+04  0.50400001928E-02 0. -1.
       -1   -1    0    0    0  501  0.00000000000E+00  0.00000000000E+00 -0.12761044610E+04  0.12761044610E+04  0.50400001928E-02 0.  1.
    10030    2    1    2    0    0  0.00000000000E+00  0.00000000000E+00 -0.81557216260E+02  0.24706517058E+04  0.24693052204E+04 0.  0.
        3    1    3    3  502    0 -0.11483381424E+04 -0.36987344629E+03  0.22181488363E+03  0.12266575351E+04  0.10100000352E+00 0.  1.
       -3    1    3    3    0  502  0.11483381424E+04  0.36987344629E+03 -0.30337209989E+03  0.12439941707E+04  0.10100000352E+00 0. -1.
</event>
<event>
 5   0  0.9750757E-05  0.2395215E+04  0.7818609E-02  0.8441297E-01
        2   -1    0    0  501    0  0.00000000000E+00  0.00000000000E+00  0.96804097293E+03  0.96804097294E+03  0.25500000920E-02 0. -1.
       -2   -1    0    0    0  501  0.00000000000E+00  0.00000000000E+00 -0.14816151438E+04  0.14816151438E+04  0.25500000920E-02 0.  1.
    10030    2    1    2    0    0  0.00000000000E+00  0.00000000000E+00 -0.51357417083E+03  0.24496561167E+04  0.23952153684E+04 0.  0.
        2    1    3    3  502    0  0.47833113609E+03  0.37858312581E+03 -0.13108125147E+04  0.14458061100E+04  0.25500000920E-02 0.  1.
       -2    1    3    3    0  502 -0.47833113609E+03 -0.37858312581E+03  0.79723834392E+03  0.10038500067E+04  0.25500000920E-02 0. -1.
</event>
<event>
 5   0  0.9750757E-05  0.2424865E+04  0.7818609E-02  0.8430253E-01
       -2   -1    0    0    0  501  0.00000000000E+00  0.00000000000E+00  0.97047609532E+03  0.97047609532E+03  0.25500000920E-02 0.  1.
        2   -1    0    0  501    0  0.00000000000E+00  0.00000000000E+00 -0.15147122729E+04  0.15147122729E+04  0.25500000920E-02 0. -1.
    10030    2    1    2    0    0  0.00000000000E+00  0.00000000000E+00 -0.54423617758E+03  0.24851883682E+04  0.24248645753E+04 0.  0.
        2    1    3    3  502    0  0.67988461233E+03  0.11079966633E+03  0.75043634231E+03  0.10186630238E+04  0.25500000920E-02 0.  1.
       -2    1    3    3    0  502 -0.67988461233E+03 -0.11079966633E+03 -0.12946725199E+04  0.14665253444E+04  0.25500000920E-02 0. -1.
</event>
<event>
 5   0  0.9519092E-05  0.1979862E+04  0.7818609E-02  0.8616094E-01
       -2   -1    0    0    0  501  0.00000000000E+00  0.00000000000E+00  0.13095154729E+04  0.13095154729E+04  0.25500000920E-02 0. -1.
        2   -1    0    0  501    0  0.00000000000E+00  0.00000000000E+00 -0.74834033916E+03  0.74834033917E+03  0.25500000920E-02 0.  1.
    10030    2    1    2    0    0  0.00000000000E+00  0.00000000000E+00  0.56117513377E+03  0.20578558121E+04  0.19798618671E+04 0.  0.
        4    1    3    3  502    0 -0.12334444554E+03 -0.57246688771E+03 -0.54899536098E+03  0.80270150682E+03  0.12699999809E+01 0.  1.
       -4    1    3    3    0  502  0.12334444554E+03  0.57246688771E+03  0.11101704948E+04  0.12551543053E+04  0.12699999809E+01 0. -1.
</event>
<event>
 5   0  0.9491680E-05  0.2473632E+04  0.7818609E-02  0.8412440E-01
        2   -1    0    0  501    0  0.00000000000E+00  0.00000000000E+00  0.84532164407E+03  0.84532164407E+03  0.25500000920E-02 0. -1.
       -2   -1    0    0    0  501  0.00000000000E+00  0.00000000000E+00 -0.18096228946E+04  0.18096228946E+04  0.25500000920E-02 0.  1.
    10030    2    1    2    0    0  0.00000000000E+00  0.00000000000E+00 -0.96430125057E+03  0.26549445387E+04  0.24736316625E+04 0.  0.
        5    1    3    3  502    0  0.10913961909E+04 -0.54939328061E+03 -0.68780053107E+03  0.14021662821E+04  0.46999998093E+01 0. -1.
       -5    1    3    3    0  502 -0.10913961909E+04  0.54939328061E+03 -0.27650071950E+03  0.12527782566E+04  0.46999998093E+01 0.  1.
</event>
<event>
 5   0  0.9144244E-05  0.1413645E+04  0.7818609E-02  0.8944000E-01
        2   -1    0    0  501    0  0.00000000000E+00  0.00000000000E+00  0.17214340918E+04  0.17214340918E+04  0.25500000920E-02 0.  1.
       -2   -1    0    0    0  501  0.00000000000E+00  0.00000000000E+00 -0.29022198550E+03  0.29022198551E+03  0.25500000920E-02 0. -1.
    10030    2    1    2    0    0  0.00000000000E+00  0.00000000000E+00  0.14312121063E+04  0.20116560773E+04  0.14136449625E+04 0.  0.
        1    1    3    3  502    0  0.14770343011E+03  0.65005396798E+03  0.38123522955E+03  0.76793669324E+03  0.50400001928E-02 0.  1.
       -1    1    3    3    0  502 -0.14770343011E+03 -0.65005396798E+03  0.10499768767E+04  0.12437193841E+04  0.50400001928E-02 0. -1.
</event>
<event>
 5   0  0.9491680E-05  0.2401783E+04  0.7818609E-02  0.8438836E-01
       -2   -1    0    0    0  501  0.00000000000E+00  0.00000000000E+00  0.16807075513E+04  0.16807075513E+04  0.25500000920E-02 0.  1.
        2   -1    0    0  501    0  0.00000000000E+00  0.00000000000E+00 -0.85805524255E+03  0.85805524255E+03  0.25500000920E-02 0. -1.
    10030    2    1    2    0    0  0.00000000000E+00  0.00000000000E+00  0.82265230873E+03  0.25387627938E+04  0.24017826093E+04 0.  0.
        5    1    3    3  502    0 -0.87478274740E+03 -0.80892997468E+03  0.56989965203E+03  0.13207650292E+04  0.46999998093E+01 0.  1.
       -5    1    3    3    0  502  0.87478274740E+03  0.80892997468E+03  0.25275265670E+03  0.12179977646E+04  0.46999998093E+01 0. -1.
</event>
<event>
 5   0  0.4260395E-05  0.1475899E+04  0.7818609E-02  0.8900640E-01
       -1   -1    0    0    0  501  0.00000000000E+00  0.00000000000E+00  0.70572533845E+03  0.70572533847E+03  0.50400001928E-02 0.  1.
        1   -1    0    0  501    0  0.00000000000E+00  0.00000000000E+00 -0.77164539529E+03  0.77164539531E+03  0.50400001928E-02 0. -1.
    10030    2    1    2    0    0  0.00000000000E+00  0.00000000000E+00 -0.65920056840E+02  0.14773707338E+04  0.14758993296E+04 0.  0.
        4    1    3    3  502    0  0.40734664681E+03 -0.41139000009E+03  0.42509323791E+03  0.71824710000E+03  0.12699999809E+01 0.  1.
       -4    1    3    3    0  502 -0.40734664681E+03  0.41139000009E+03 -0.49101329475E+03  0.75912363378E+03  0.12699999809E+01 0. -1.
</event>
<event>
 5   0  0.4018942E-05  0.1276462E+04  0.7818609E-02  0.9048442E-01
       -1   -1    0    0    0  501  0.00000000000E+00  0.00000000000E+00  0.43651430668E+03  0.43651430671E+03  0.50400001928E-02 0. -1.
        1   -1    0    0  501    0  0.00000000000E+00  0.00000000000E+00 -0.93316257311E+03  0.93316257312E+03  0.50400001928E-02 0.  1.
    10030    2    1    2    0    0  0.00000000000E+00  0.00000000000E+00 -0.49664826643E+03  0.13696768798E+04  0.12764620067E+04 0.  0.
        5    1    3    3  502    0 -0.60381627182E+03 -0.18214125310E+03 -0.14347902204E+03  0.64682134006E+03  0.46999998093E+01 0.  1.
       -5    1    3    3    0  502  0.60381627182E+03  0.18214125310E+03 -0.35316924439E+03  0.72285553977E+03  0.46999998093E+01 0. -1.
</event>
<event>
 5   0  0.9519092E-05  0.2376554E+04  0.7818609E-02  0.8448334E-01
        2   -1    0    0  501    0  0.00000000000E+00  0.00000000000E+00  0.91228883959E+03  0.91228883959E+03  0.25500000920E-02 0.  1.
       -2   -1    0    0    0  501  0.00000000000E+00  0.00000000000E+00 -0.15477580732E+04  0.15477580732E+04  0.25500000920E-02 0. -1.
    10030    2    1    2    0    0  0.00000000000E+00  0.00000000000E+00 -0.63546923359E+03  0.24600469128E+04  0.23765541581E+04 0.  0.
        4    1    3    3  502    0  0.93259373448E+03 -0.69078765704E+03 -0.53660038079E+02  0.11618087938E+04  0.12699999809E+01 0.  1.
       -4    1    3    3    0  502 -0.93259373448E+03  0.69078765704E+03 -0.58180919551E+03  0.12982381190E+04  0.12699999809E+01 0. -1.
</event>
<event>
 5   0  0.9750757E-05  0.2514553E+04  0.7818609E-02  0.8397819E-01
        2   -1    0    0  501    0  0.00000000000E+00  0.00000000000E+00  0.21273706732E+04  0.21273706732E+04  0.25500000920E-02 0.  1.
       -2   -1    0    0    0  501  0.00000000000E+00  0.00000000000E+00 -0.74305081977E+03  0.74305081978E+03  0.25500000920E-02 0. -1.
    10030    2    1    2    0    0  0.00000000000E+00  0.00000000000E+00  0.13843198534E+04  0.28704214929E+04  0.25145532587E+04 0.  0.
        2    1    3    3  502    0  0.77812441697E+03 -0.71534239480E+03 -0.85042495091E+02  0.10603888796E+04  0.25500000920E-02 0. -1.
       -2    1    3    3    0  502 -0.77812441697E+03  0.71534239480E+03  0.14693623485E+04  0.18100326133E+04  0.25500000920E-02 0.  1.
</event>
<event>
 5   0  0.4018942E-05  0.1512511E+04  0.7818609E-02  0.8876175E-01
        1   -1    0    0  501    0  0.00000000000E+00  0.00000000000E+00  0.77527795672E+03  0.77527795674E+03  0.50400001928E-02 0. -1.
       -1   -1    0    0    0  501  0.00000000000E+00  0.00000000000E+00 -0.73770005419E+03  0.73770005421E+03  0.50400001928E-02 0.  1.
    10030    2    1    2    0    0  0.00000000000E+00  0.00000000000E+00  0.37577902528E+02  0.15129780109E+04  0.15125112769E+04 0.  0.
        5    1    3    3  502    0 -0.56428093972E+03  0.50178115971E+03 -0.22493500875E+02  0.75546367136E+03  0.46999998093E+01 0.  1.
       -5    1    3    3    0  502  0.56428093972E+03 -0.50178115971E+03  0.60071403404E+02  0.75751433958E+03  0.46999998093E+01 0. -1.
</event>
<event>
 5   0  0.4260395E-05  0.2570761E+04  0.7818609E-02  0.8378202E-01
       -1   -1    0    0    0  501  0.00000000000E+00  0.00000000000E+00  0.67487420965E+03  0.67487420967E+03  0.50400001928E-02 0. -1.
        1   -1    0    0  501    0  0.00000000000E+00  0.00000000000E+00 -0.24481636558E+04  0.24481636558E+04  0.50400001928E-02 0.  1.
    10030    2    1    2    0    0  0.00000000000E+00  0.00000000000E+00 -0.17732894462E+04  0.31230378655E+04  0.25707605975E+04 0.  0.
        4    1    3    3  502    0  0.24718594200E+03  0.11299903260E+04 -0.20566556314E+03  0.11748527412E+04  0.12699999809E+01 0. -1.
       -4    1    3    3    0  502 -0.24718594200E+03 -0.11299903260E+04 -0.15676238830E+04  0.19481851243E+04  0.12699999809E+01 0.  1.
</event>
<event>
 5   0  0.9491680E-05  0.2203657E+04  0.7818609E-02  0.8516907E-01
        2   -1    0    0  501    0  0.00000000000E+00  0.00000000000E+00  0.10440561799E+04  0.10440561799E+04  0.25500000920E-02 0. -1.
       -2   -1    0    0    0  501  0.00000000000E+00  0.00000000000E+00 -0.11627978682E+04  0.11627978682E+04  0.25500000920E-02 0.  1.
    10030    2    1    2    0    0  0.00000000000E+00  0.00000000000E+00 -0.11874168836E+03  0.22068540481E+04  0.22036572331E+04 0.  0.
        5    1    3    3  502    0  0.11408278132E+03 -0.10925846934E+04  0.25887946816E+02  0.10988396012E+04  0.46999998093E+01 0.  1.
       -5    1    3    3    0  502 -0.11408278132E+03  0.10925846934E+04 -0.14462963518E+03  0.11080144470E+04  0.46999998093E+01 0. -1.
</event>
<event>
 5   0  0.3934906E-05  0.2391416E+04  0.7818609E-02  0.8442724E-01
       -1   -1    0    0    0  501  0.00000000000E+00  0.00000000000E+00  0.13897746536E+04  0.13897746536E+04  0.50400001928E-02 0. -1.
        1   -1    0    0  501    0  0.00000000000E+00  0.00000000000E+00 -0.10287405786E+04  0.10287405786E+04  0.50400001928E-02 0.  1.
    10030    2    1    2    0    0  0.00000000000E+00  0.00000000000E+00  0.36103407496E+03  0.24185152322E+04  0.23914159666E+04 0.  0.
        2    1    3    3  502    0  0.94533323369E+03 -0.72516557798E+03  0.28264424981E+03  0.12245030870E+04  0.25500000920E-02 0.  1.
       -2    1    3    3    0  502 -0.94533323369E+03  0.72516557798E+03  0.78389825151E+02  0.11940121452E+04  0.25500000920E-02 0. -1.
</event>
<event>
 5   0  0.4061631E-05  0.2409808E+04  0.7818609E-02  0.8435841E-01
       -1   -1    0    0    0  501  0.00000000000E+00  0.00000000000E+00  0.78158020261E+03  0.78158020263E+03  0.50400001928E-02 0.  1.
        1   -1    0    0  501    0  0.00000000000E+00  0.00000000000E+00 -0.18575102557E+04  0.18575102557E+04  0.50400001928E-02 0. -1.
    10030    2    1    2    0    0  0.00000000000E+00  0.00000000000E+00 -0.10759300531E+04  0.26390904584E+04  0.24098076621E+04 0.  0.
        3    1    3    3  502    0 -0.10809732675E+04  0.32902241657E+03 -0.99614219844E+03  0.15063393526E+04  0.10100000352E+00 0. -1.
       -3    1    3    3    0  502  0.10809732675E+04 -0.32902241657E+03 -0.79787854671E+02  0.11327511057E+04  0.10100000352E+00 0.  1.
</event>
<event>
 5   0  0.4208577E-05  0.2100273E+04  0.7818609E-02  0.8561123E-01
        1   -1    0    0  501    0  0.00000000000E+00  0.00000000000E+00  0.10571967779E+04  0.10571967780E+04  0.50400001928E-02 0.  1.
       -1   -1    0    0    0  501  0.00000000000E+00  0.00000000000E+00 -0.10431229567E+04  0.10431229567E+04  0.50400001928E-02 0. -1.
    10030    2    1    2    0    0  0.00000000000E+00  0.00000000000E+00  0.14073821282E+02  0.21003197346E+04  0.21002725812E+04 0.  0.
        1    1    3    3  502    0 -0.80242184070E+03 -0.61033417159E+03 -0.28690440465E+03  0.10481902255E+04  0.50400001928E-02 0. -1.
       -1    1    3    3    0  502  0.80242184070E+03  0.61033417159E+03  0.30097822593E+03  0.10521295091E+04  0.50400001928E-02 0.  1.
</event>
<event>
 5   0  0.9144244E-05  0.2370954E+04  0.7818609E-02  0.8450459E-01
       -2   -1    0    0    0  501  0.00000000000E+00  0.00000000000E+00  0.98870903290E+03  0.98870903290E+03  0.25500000920E-02 0.  1.
        2   -1    0    0  501    0  0.00000000000E+00  0.00000000000E+00 -0.14214050884E+04  0.14214050884E+04  0.25500000920E-02 0. -1.
    10030    2    1    2    0    0  0.00000000000E+00  0.00000000000E+00 -0.43269605551E+03  0.24101141213E+04  0.23709542807E+04 0.  0.
        1    1    3    3  502    0  0.67302564258E+03 -0.97588969416E+03 -0.22208388026E+03  0.12060868379E+04  0.50400001928E-02 0.  1.
       -1    1    3    3    0  502 -0.67302564258E+03  0.97588969416E+03 -0.21061217525E+03  0.12040272834E+04  0.50400001928E-02 0. -1.
</event>
<event>
 5   0  0.9182865E-05  0.2366062E+04  0.7818609E-02  0.8452320E-01
       -2   -1    0    0    0  501  0.00000000000E+00  0.00000000000E+00  0.55345539810E+03  0.55345539811E+03  0.25500000920E-02 0.  1.
        2   -1    0    0  501    0  0.00000000000E+00  0.00000000000E+00 -0.25287725776E+04  0.25287725776E+04  0.25500000920E-02 0. -1.
    10030    2    1    2    0    0  0.00000000000E+00  0.00000000000E+00 -0.19753171795E+04  0.30822279757E+04  0.23660624114E+04 0.  0.
        3    1    3    3  502    0  0.81597928573E+03 -0.81977617694E+03 -0.66405892718E+03  0.13337276499E+04  0.10100000352E+00 0.  1.
       -3    1    3    3    0  502 -0.81597928573E+03  0.81977617694E+03 -0.13112582523E+04  0.17485003259E+04  0.10100000352E+00 0. -1.
</event>
<event>
 5   0  0.9491680E-05  0.2370208E+04  0.7818609E-02  0.8450742E-01
       -2   -1    0    0    0  501  0.00000000000E+00  0.00000000000E+00  0.13162707645E+04  0.13162707646E+04  0.25500000920E-02 0.  1.
        2   -1    0    0  501    0  0.00000000000E+00  0.00000000000E+00 -0.10670084218E+04  0.10670084218E+04  0.25500000920E-02 0. -1.
    10030    2    1    2    0    0  0.00000000000E+00  0.00000000000E+00  0.24926234273E+03  0.23832791864E+04  0.23702084222E+04 0.  0.
        5    1    3    3  502    0  0.71628962608E+03 -0.44563701309E+03 -0.71229695243E+03  0.11041069759E+04  0.46999998093E+01 0. -1.
       -5    1    3    3    0  502 -0.71628962608E+03  0.44563701309E+03  0.96155929516E+03  0.12791722104E+04  0.46999998093E+01 0.  1.
</event>
<event>
 5   0  0.9519092E-05  0.2382729E+04  0.7818609E-02  0.8445998E-01
       -2   -1    0    0    0  501  0.00000000000E+00  0.00000000000E+00  0.25065245168E+04  0.25065245169E+04  0.25500000920E-02 0. -1.
        2   -1    0    0  501    0  0.00000000000E+00  0.00000000000E+00 -0.56626191375E+03  0.56626191376E+03  0.25500000920E-02 0.  1.
    10030    2    1    2    0    0  0.00000000000E+00  0.00000000000E+00  0.19402626031E+04  0.30727864306E+04  0.23827289983E+04 0.  0.
        4    1    3    3  502    0  0.41089394146E+02  0.78129638831E+03 -0.18853351077E+03  0.80477256556E+03  0.12699999809E+01 0. -1.
       -4    1    3    3    0  502 -0.41089394146E+02 -0.78129638831E+03  0.21287961139E+04  0.22680138650E+04  0.12699999809E+01 0.  1.
</event>
<event>
 5   0  0.9144244E-05  0.1932535E+04  0.7818609E-02  0.8638829E-01
       -2   -1    0    0    0  501  0.00000000000E+00  0.00000000000E+00  0.13958493066E+04  0.13958493066E+04  0.25500000920E-02 0. -1.
        2   -1    0    0  501    0  0.00000000000E+00  0.00000000000E+00 -0.66889249072E+03  0.66889249072E+03  0.25500000920E-02 0.  1.
    10030    2    1    2    0    0  0.00000000000E+00  0.00000000000E+00  0.72695681587E+03  0.20647417973E+04  0.19325352461E+04 0.  0.
        1    1    3    3  502    0  0.66167505768E+03  0.69719269707E+03  0.25781056470E+03  0.99516723524E+03  0.50400001928E-02 0.  1.
       -1    1    3    3    0  502 -0.66167505768E+03 -0.69719269707E+03  0.46914625117E+03  0.10695745621E+04  0.50400001928E-02 0. -1.
</event>
<event>
 5   0  0.3934906E-05  0.2443378E+04  0.7818609E-02  0.8423440E-01
        1   -1    0    0  501    0  0.00000000000E+00  0.00000000000E+00  0.13200118532E+04  0.13200118532E+04  0.50400001928E-02 0.  1.
       -1   -1    0    0    0  501  0.00000000000E+00  0.00000000000E+00 -0.11306896211E+04  0.11306896211E+04  0.50400001928E-02 0. -1.
    10030    2    1    2    0    0  0.00000000000E+00  0.00000000000E+00  0.18932223207E+03  0.24507014743E+04  0.24433777458E+04 0.  0.
        2    1    3    3  502    0 -0.79121802957E+03 -0.68693550169E+03 -0.53540755402E+03  0.11766765073E+04  0.25500000920E-02 0. -1.
       -2    1    3    3    0  502  0.79121802957E+03  0.68693550169E+03  0.72472978609E+03  0.12740249670E+04  0.25500000920E-02 0.  1.
</event>
<event>
 5   0  0.4061631E-05  0.2413249E+04  0.7818609E-02  0.8434560E-01
       -1   -1    0    0    0  501  0.00000000000E+00  0.00000000000E+00  0.16189877499E+04  0.16189877499E+04  0.50400001928E-02 0.  1.
        1   -1    0    0  501    0  0.00000000000E+00  0.00000000000E+00 -0.89929227593E+03  0.89929227595E+03  0.50400001928E-02 0. -1.
    10030    2    1    2    0    0  0.00000000000E+00  0.00000000000E+00  0.71969547393E+03  0.25182800258E+04  0.24132494097E+04 0.  0.
        3    1    3    3  502    0 -0.34506244413E+03 -0.42737494607E+02  0.15655785162E+04  0.16037240050E+04  0.10100000352E+00 0.  1.
       -3    1    3    3    0  502  0.34506244413E+03  0.42737494607E+02 -0.84588304225E+03  0.91455602079E+03  0.10100000352E+00 0. -1.
</event>
<event>
 5   0  0.9182865E-05  0.2409200E+04  0.7818609E-02  0.8436067E-01
        2   -1    0    0  501    0  0.00000000000E+00  0.00000000000E+00  0.18461982583E+04  0.18461982583E+04  0.25500000920E-02 0.  1.
       -2   -1    0    0    0  501  0.00000000000E+00  0.00000000000E+00 -0.78597224117E+03  0.78597224118E+03  0.25500000920E-02 0. -1.
    10030    2    1    2    0    0  0.00000000000E+00  0.00000000000E+00  0.10602260171E+04  0.26321704994E+04  0.24091995207E+04 0.  0.
        3    1    3    3  502    0  0.86486114191E+03 -0.76873889576E+03  0.16428613603E+03  0.11687318894E+04  0.10100000352E+00 0.  1.
       -3    1    3    3    0  502 -0.86486114191E+03  0.76873889576E+03  0.89593988105E+03  0.14634386100E+04  0.10100000352E+00 0. -1.
</event>
<event>
 5   0  0.9182865E-05  0.2407034E+04  0.7818609E-02  0.8436875E-01
        2   -1    0    0  501    0  0.00000000000E+00  0.00000000000E+00  0.12437083289E+04  0.12437083289E+04  0.25500000920E-02 0.  1.
       -2   -1    0    0    0  501  0.00000000000E+00  0.00000000000E+00 -0.11646246592E+04  0.11646246592E+04  0.25500000920E-02 0. -1.
    10030    2    1    2    0    0  0.00000000000E+00  0.00000000000E+00  0.79083669656E+02  0.24083329881E+04  0.24070341823E+04 0.  0.
        3    1    3    3  502    0 -0.50179748170E+02  0.47723096235E+03  0.11438520135E+04  0.12404292957E+04  0.10100000352E+00 0.  1.
       -3    1    3    3    0  502  0.50179748170E+02 -0.47723096235E+03 -0.10647683439E+04  0.11679036925E+04  0.10100000352E+00 0. -1.
</event>
<event>
 5   0  0.4260395E-05  0.2405610E+04  0.7818609E-02  0.8437406E-01
       -1   -1    0    0    0  501  0.00000000000E+00  0.00000000000E+00  0.62470925940E+03  0.62470925942E+03  0.50400001928E-02 0.  1.
        1   -1    0    0  501    0  0.00000000000E+00  0.00000000000E+00 -0.23158601732E+04  0.23158601732E+04  0.50400001928E-02 0. -1.
    10030    2    1    2    0    0  0.00000000000E+00  0.00000000000E+00 -0.16911509138E+04  0.29405694326E+04  0.24056095225E+04 0.  0.
        4    1    3    3  502    0 -0.19961049684E+03 -0.11161930389E+04 -0.35508799000E+03  0.11882004646E+04  0.12699999809E+01 0.  1.
       -4    1    3    3    0  502  0.19961049684E+03  0.11161930389E+04 -0.13360629238E+04  0.17523689679E+04  0.12699999809E+01 0. -1.
</event>
<event>
 5   0  0.4208577E-05  0.1359242E+04  0.7818609E-02  0.8983861E-01
        1   -1    0    0  501    0  0.00000000000E+00  0.00000000000E+00  0.68959385834E+03  0.68959385836E+03  0.50400001928E-02 0.  1.
       -1   -1    0    0    0  501  0.00000000000E+00  0.00000000000E+00 -0.66979281449E+03  0.66979281451E+03  0.50400001928E-02 0. -1.
    10030    2    1    2    0    0  0.00000000000E+00  0.00000000000E+00  0.19801043846E+02  0.13593866729E+04  0.13592424526E+04 0.  0.
        1    1    3    3  502    0  0.30613284835E+03  0.24202224231E+03  0.56637031071E+03  0.68779896444E+03  0.50400001928E-02 0.  1.
       -1    1    3    3    0  502 -0.30613284835E+03 -0.24202224231E+03 -0.54656926686E+03  0.67158770843E+03  0.50400001928E-02 0. -1.
</event>
<event>
 5   0  0.9491680E-05  0.2401282E+04  0.7818609E-02  0.8439024E-01
       -2   -1    0    0    0  501  0.00000000000E+00  0.00000000000E+00  0.10556904185E+04  0.10556904185E+04  0.25500000920E-02 0.  1.
        2   -1    0    0  501    0  0.00000000000E+00  0.00000000000E+00 -0.13654938257E+04  0.13654938257E+04  0.25500000920E-02 0. -1.
    10030    2    1    2    0    0  0.00000000000E+00  0.00000000000E+00 -0.30980340719E+03  0.24211842442E+04  0.24012819479E+04 0.  0.
        5    1    3    3  502    0  0.19385479490E+03  0.11751361315E+04 -0.20136596869E+01  0.11910292834E+04  0.46999998093E+01 0.  1.
       -5    1    3    3    0  502 -0.19385479490E+03 -0.11751361315E+04 -0.30778974750E+03  0.12301549608E+04  0.46999998093E+01 0. -1.
</event>
<event>
 5   0  0.4260395E-05  0.2414873E+04  0.7818609E-02  0.8433956E-01
       -1   -1    0    0    0  501  0.00000000000E+00  0.00000000000E+00  0.16404409486E+04  0.16404409486E+04  0.50400001928E-02 0. -1.
        1   -1    0    0  501    0  0.00000000000E+00  0.00000000000E+00 -0.88872616518E+03  0.88872616519E+03  0.50400001928E-02 0.  1.
    10030    2    1    2    0    0  0.00000000000E+00  0.00000000000E+00  0.75171478344E+03  0.25291671138E+04  0.24148729105E+04 0.  0.
        4    1    3    3  502    0  0.59869748462E+03 -0.13842364132E+03 -0.71271098931E+03  0.94104109886E+03  0.12699999809E+01 0.  1.
       -4    1    3    3    0  502 -0.59869748462E+03  0.13842364132E+03  0.14644257728E+04  0.15881260150E+04  0.12699999809E+01 0. -1.
</event>
<event>
 5   0  0.4208577E-05  0.2406900E+04  0.7818609E-02  0.8436925E-01
       -1   -1    0    0    0  501  0.00000000000E+00  0.00000000000E+00  0.88846042893E+03  0.88846042894E+03  0.50400001928E-02 0.  1.
        1   -1    0    0  501    0  0.00000000000E+00  0.00000000000E+00 -0.16301140152E+04  0.16301140152E+04  0.50400001928E-02 0. -1.
    10030    2    1    2    0    0  0.00000000000E+00  0.00000000000E+00 -0.74165358624E+03  0.25185744441E+04  0.24068999125E+04 0.  0.
        1    1    3    3  502    0  0.14130741031E+03 -0.10948175743E+04  0.13067886022E+03  0.11116070663E+04  0.50400001928E-02 0.  1.
       -1    1    3    3    0  502 -0.14130741031E+03  0.10948175743E+04 -0.87233244646E+03  0.14069673779E+04  0.50400001928E-02 0. -1.
</event>
<event>
 5   0  0.9519092E-05  0.1863840E+04  0.7818609E-02  0.8673068E-01
        2   -1    0    0  501    0  0.00000000000E+00  0.00000000000E+00  0.11004378794E+04  0.11004378794E+04  0.25500000920E-02 0. -1.
       -2   -1    0    0    0  501  0.00000000000E+00  0.00000000000E+00 -0.78920886592E+03  0.78920886593E+03  0.25500000920E-02 0.  1.
    10030    2    1    2    0    0  0.00000000000E+00  0.00000000000E+00  0.31122901352E+03  0.18896467454E+04  0.18638404769E+04 0.  0.
        4    1    3    3  502    0  0.42724519282E+02 -0.45399599901E+02 -0.78709152970E+03  0.78955759590E+03  0.12699999809E+01 0.  1.
       -4    1    3    3    0  502 -0.42724519282E+02  0.45399599901E+02  0.10983205432E+04  0.11000891495E+04  0.12699999809E+01 0. -1.
</event>
<event>
 5   0  0.4061631E-05  0.2367816E+04  0.7818609E-02  0.8451652E-01
        1   -1    0    0  501    0  0.00000000000E+00  0.00000000000E+00  0.17743517196E+04  0.17743517196E+04  0.50400001928E-02 0.  1.
       -1   -1    0    0    0  501  0.00000000000E+00  0.00000000000E+00 -0.78994370550E+03  0.78994370552E+03  0.50400001928E-02 0. -1.
    10030    2    1    2    0    0  0.00000000000E+00  0.00000000000E+00  0.98440801409E+03  0.25642954251E+04  0.23678158478E+04 0.  0.
        3    1    3    3  502    0  0.72857718765E+03  0.77385616365E+03 -0.72567211443E+02  0.10653375478E+04  0.10100000352E+00 0. -1.
       -3    1    3    3    0  502 -0.72857718765E+03 -0.77385616365E+03  0.10569752255E+04  0.14989578773E+04  0.10100000352E+00 0.  1.
</event>
<event>
 5   0  0.4061631E-05  0.2375518E+04  0.7818609E-02  0.8448727E-01
        1   -1    0    0  501    0  0.00000000000E+00  0.00000000000E+00  0.22499428423E+04  0.22499428423E+04  0.50400001928E-02 0. -1.
       -1   -1    0    0    0  501  0.00000000000E+00  0.00000000000E+00 -0.62702536882E+03  0.62702536884E+03  0.50400001928E-02 0.  1.
    10030    2    1    2    0    0  0.00000000000E+00  0.00000000000E+00  0.16229174735E+04  0.28769682112E+04  0.23755178303E+04 0.  0.
        3    1    3    3  502    0 -0.26176748742E+03  0.25728354919E+03  0.21795382118E+04  0.22102271080E+04  0.10100000352E+00 0. -1.
       -3    1    3    3    0  502  0.26176748742E+03 -0.25728354919E+03 -0.55662073828E+03  0.66674110316E+03  0.10100000352E+00 0.  1.
</event>
<event>
 5   0  0.4208577E-05  0.2298380E+04  0.7818609E-02  0.8478560E-01
       -1   -1    0    0    0  501  0.00000000000E+00  0.00000000000E+00  0.11751446718E+04  0.11751446718E+04  0.50400001928E-02 0.  1.
        1   -1    0    0  501    0  0.00000000000E+00  0.00000000000E+00 -0.11238081802E+04  0.11238081802E+04  0.50400001928E-02 0. -1.
    10030    2    1    2    0    0  0.00000000000E+00  0.00000000000E+00  0.51336491637E+02  0.22989528520E+04  0.22983795989E+04 0.  0.
        1    1    3    3  502    0 -0.59545165537E+03 -0.95902490628E+03 -0.18966608029E+03  0.11446679286E+04  0.50400001928E-02 0.  1.
       -1    1    3    3    0  502  0.59545165537E+03  0.95902490628E+03  0.24100257193E+03  0.11542849234E+04  0.50400001928E-02 0. -1.
</event>
<event>
 5   0  0.4018942E-05  0.2345570E+04  0.7818609E-02  0.8460167E-01
       -1   -1    0    0    0  501  0.00000000000E+00  0.00000000000E+00  0.10460729754E+04  0.10460729754E+04  0.50400001928E-02 0.  1.
        1   -1    0    0  501    0  0.00000000000E+00  0.00000000000E+00 -0.13148454565E+04  0.13148454565E+04  0.50400001928E-02 0. -1.
    10030    2    1    2    0    0  0.00000000000E+00  0.00000000000E+00 -0.26877248111E+03  0.23609184319E+04  0.23455696953E+04 0.  0.
        5    1    3    3  502    0 -0.51325358403E+03 -0.20374122533E+03 -0.11757881408E+04  0.12990148461E+04  0.46999998093E+01 0. -1.
       -5    1    3    3    0  502  0.51325358403E+03  0.20374122533E+03  0.90701565971E+03  0.10619035857E+04  0.46999998093E+01 0.  1.
</event>
<event>
 5   0  0.4018942E-05  0.2441757E+04  0.7818609E-02  0.8424034E-01
        1   -1    0    0  501    0  0.00000000000E+00  0.00000000000E+00  0.19282419023E+04  0.19282419023E+04  0.50400001928E-02 0.  1.
       -1   -1    0    0    0  501  0.00000000000E+00  0.00000000000E+00 -0.77300689670E+03  0.77300689672E+03  0.50400001928E-02 0. -1.
    10030    2    1    2    0    0  0.00000000000E+00  0.00000000000E+00  0.11552350056E+04  0.27012487991E+04  0.24417569814E+04 0.  0.
        5    1    3    3  502    0 -0.10683240375E+04 -0.53171524530E+03  0.86286608096E+03  0.14726158069E+04  0.46999998093E+01 0.  1.
       -5    1    3    3    0  502  0.10683240375E+04  0.53171524530E+03  0.29236892467E+03  0.12286329921E+04  0.46999998093E+01 0. -1.
</event>
<event>
 5   0  0.3934906E-05  0.2355898E+04  0.7818609E-02  0.8456202E-01
       -1   -1    0    0    0  501  0.00000000000E+00  0.00000000000E+00  0.11087616087E+04  0.11087616087E+04  0.50400001928E-02 0.  1.
        1   -1    0    0  501    0  0.00000000000E+00  0.00000000000E+00 -0.12514542127E+04  0.12514542127E+04  0.50400001928E-02 0. -1.
    10030    2    1    2    0    0  0.00000000000E+00  0.00000000000E+00 -0.14269260406E+03  0.23602158214E+04  0.23558984580E+04 0.  0.
        2    1    3    3  502    0 -0.10226619789E+04 -0.24412872526E+03 -0.60347694216E+03  0.12122791664E+04  0.25500000920E-02 0. -1.
       -2    1    3    3    0  502  0.10226619789E+04  0.24412872526E+03  0.46078433810E+03  0.11479366550E+04  0.25500000920E-02 0.  1.
</event>
<event>
 5   0  0.3934906E-05  0.2397274E+04  0.7818609E-02  0.8440525E-01
        1   -1    0    0  501    0  0.00000000000E+00  0.00000000000E+00  0.16436769849E+04  0.16436769850E+04  0.50400001928E-02 0.  1.
       -1   -1    0    0    0  501  0.00000000000E+00  0.00000000000E+00 -0.87409569004E+03  0.87409569006E+03  0.50400001928E-02 0. -1.
    10030    2    1    2    0    0  0.00000000000E+00  0.00000000000E+00  0.76958129490E+03  0.25177726750E+04  0.23972742592E+04 0.  0.
        2    1    3    3  502    0  0.55911484321E+03  0.10269840543E+04  0.10805970891E+03  0.11743008798E+04  0.25500000920E-02 0. -1.
       -2    1    3    3    0  502 -0.55911484321E+03 -0.10269840543E+04  0.66152158599E+03  0.13434717952E+04  0.25500000920E-02 0.  1.
</event>
<event>
 5   0  0.3934906E-05  0.2463477E+04  0.7818609E-02  0.8416114E-01
       -1   -1    0    0    0  501  0.00000000000E+00  0.00000000000E+00  0.81098090722E+03  0.81098090724E+03  0.50400001928E-02 0. -1.
        1   -1    0    0  501    0  0.00000000000E+00  0.00000000000E+00 -0.18707963610E+04  0.18707963610E+04  0.50400001928E-02 0.  1.
    10030    2    1    2    0    0  0.00000000000E+00  0.00000000000E+00 -0.10598154538E+04  0.26817772682E+04  0.24634773229E+04 0.  0.
        2    1    3    3  502    0 -0.24281830266E+03  0.22506788975E+03 -0.18214486994E+04  0.18512945869E+04  0.25500000920E-02 0.  1.
       -2    1    3    3    0  502  0.24281830266E+03 -0.22506788975E+03  0.76163324562E+03  0.83048268130E+03  0.25500000920E-02 0. -1.
</event>
<event>
 5   0  0.9491680E-05  0.2468851E+04  0.7818609E-02  0.8414167E-01
       -2   -1    0    0    0  501  0.00000000000E+00  0.00000000000E+00  0.14419418950E+04  0.14419418950E+04  0.25500000920E-02 0.  1.
        2   -1    0    0  501    0  0.00000000000E+00  0.00000000000E+00 -0.10567741504E+04  0.10567741504E+04  0.25500000920E-02 0. -1.
    10030    2    1    2    0    0  0.00000000000E+00  0.00000000000E+00  0.38516774463E+03  0.24987160454E+04  0.24688514908E+04 0.  0.
        5    1    3    3  502    0  0.11436225270E+03 -0.10421269650E+04  0.85213970082E+03  0.13510260899E+04  0.46999998093E+01 0.  1.
       -5    1    3    3    0  502 -0.11436225270E+03  0.10421269650E+04 -0.46697195619E+03  0.11476899554E+04  0.46999998093E+01 0. -1.
</event>
<event>
 5   0  0.4208577E-05  0.2317799E+04  0.7818609E-02  0.8470936E-01
       -1   -1    0    0    0  501  0.00000000000E+00  0.00000000000E+00  0.70921833413E+03  0.70921833415E+03  0.50400001928E-02 0. -1.
        1   -1    0    0  501    0  0.00000000000E+00  0.00000000000E+00 -0.18937010867E+04  0.18937010867E+04  0.50400001928E-02 0.  1.
    10030    2    1    2    0    0  0.00000000000E+00  0.00000000000E+00 -0.11844827525E+04  0.26029194208E+04  0.23177985504E+04 0.  0.
        1    1    3    3  502    0 -0.37525238020E+03 -0.10656879135E+04 -0.88193199901E+03  0.14332861294E+04  0.50400001928E-02 0.  1.
       -1    1    3    3    0  502  0.37525238020E+03  0.10656879135E+04 -0.30255075353E+03  0.11696332914E+04  0.50400001928E-02 0. -1.
</event>
<event>
 5   0  0.3234750E-05  0.1592560E+04  0.7818609E-02  0.8825132E-01
       -3   -1    0    0    0  501  0.00000000000E+00  0.00000000000E+00  0.16833050831E+04  0.16833050862E+04  0.10100000352E+00 0. -1.
        3   -1    0    0  501    0  0.00000000000E+00  0.00000000000E+00 -0.37667661845E+03  0.37667663199E+03  0.10100000352E+00 0.  1.
    10030    2    1    2    0    0  0.00000000000E+00  0.00000000000E+00  0.13066284647E+04  0.20599817182E+04  0.15925598056E+04 0.  0.
        5    1    3    3  502    0 -0.48872104299E+03  0.33399046846E+03 -0.35580172732E+02  0.59303113710E+03  0.46999998093E+01 0.  1.
       -5    1    3    3    0  502  0.48872104299E+03 -0.33399046846E+03  0.13422086374E+04  0.14669505811E+04  0.46999998093E+01 0. -1.
</event>
<event>
 5   0  0.9491680E-05  0.2671885E+04  0.7818609E-02  0.8344185E-01
        2   -1    0    0  501    0  0.00000000000E+00  0.00000000000E+00  0.16047333499E+04  0.16047333499E+04  0.25500000920E-02 0. -1.
       -2   -1    0    0    0  501  0.00000000000E+00  0.00000000000E+00 -0.11121737786E+04  0.11121737786E+04  0.25500000920E-02 0.  1.
    10030    2    1    2    0    0  0.00000000000E+00  0.00000000000E+00  0.49255957130E+03  0.27169071284E+04  0.26718849925E+04 0.  0.
        5    1    3    3  502    0 -0.59205563772E+03 -0.11955034762E+04  0.31790693862E+03  0.13714391534E+04  0.46999998093E+01 0.  1.
       -5    1    3    3    0  502  0.59205563772E+03  0.11955034762E+04  0.17465263269E+03  0.13454679751E+04  0.46999998093E+01 0. -1.
</event>
<event>
 5   0  0.4260395E-05  0.2406613E+04  0.7818609E-02  0.8437032E-01
       -1   -1    0    0    0  501  0.00000000000E+00  0.00000000000E+00  0.14343104431E+04  0.14343104431E+04  0.50400001928E-02 0.  1.
        1   -1    0    0  501    0  0.00000000000E+00  0.00000000000E+00 -0.10095072558E+04  0.10095072558E+04  0.50400001928E-02 0. -1.
    10030    2    1    2    0    0  0.00000000000E+00  0.00000000000E+00  0.42480318730E+03  0.24438176989E+04  0.24066132214E+04 0.  0.
        4    1    3    3  502    0 -0.23104113680E+03  0.98993088704E+03 -0.44144853498E+03  0.11082515914E+04  0.12699999809E+01 0. -1.
       -4    1    3    3    0  502  0.23104113680E+03 -0.98993088704E+03  0.86625172229E+03  0.13355661074E+04  0.12699999809E+01 0.  1.
</event>
<event>
 5   0  0.9519092E-05  0.2374249E+04  0.7818609E-02  0.8449208E-01
       -2   -1    0    0    0  501  0.00000000000E+00  0.00000000000E+00  0.77552432228E+03  0.77552432228E+03  0.25500000920E-02 0. -1.
        2   -1    0    0  501    0  0.00000000000E+00  0.00000000000E+00 -0.18171769548E+04  0.18171769548E+04  0.25500000920E-02 0.  1.
    10030    2    1    2    0    0  0.00000000000E+00  0.00000000000E+00 -0.10416526325E+04  0.25927012770E+04  0.23742492930E+04 0.  0.
        4    1    3    3  502    0  0.10934622389E+04 -0.46153842075E+03 -0.54725950977E+03  0.13069705298E+04  0.12699999809E+01 0.  1.
       -4    1    3    3    0  502 -0.10934622389E+04  0.46153842075E+03 -0.49439312270E+03  0.12857307473E+04  0.12699999809E+01 0. -1.
</event>
<event>
 5   0  0.9144244E-05  0.1853782E+04  0.7818609E-02  0.8678210E-01
       -2   -1    0    0    0  501  0.00000000000E+00  0.00000000000E+00  0.54522057079E+03  0.54522057080E+03  0.25500000920E-02 0.  1.
        2   -1    0    0  501    0  0.00000000000E+00  0.00000000000E+00 -0.15757414768E+04  0.15757414768E+04  0.25500000920E-02 0. -1.
    10030    2    1    2    0    0  0.00000000000E+00  0.00000000000E+00 -0.10305209060E+04  0.21209620476E+04  0.18537817211E+04 0.  0.
        1    1    3    3  502    0 -0.30416268064E+03  0.41652975072E+03 -0.13963978725E+04  0.14886030323E+04  0.50400001928E-02 0. -1.
       -1    1    3    3    0  502  0.30416268064E+03 -0.41652975072E+03  0.36587696650E+03  0.63235901525E+03  0.50400001928E-02 0.  1.
</event>
<event>
 5   0  0.4061631E-05  0.1819496E+04  0.7818609E-02  0.8696000E-01
        1   -1    0    0  501    0  0.00000000000E+00  0.00000000000E+00  0.12527646835E+04  0.12527646835E+04  0.50400001928E-02 0. -1.
       -1   -1    0    0    0  501  0.00000000000E+00  0.00000000000E+00 -0.66065213338E+03  0.66065213340E+03  0.50400001928E-02 0.  1.
    10030    2    1    2    0    0  0.00000000000E+00  0.00000000000E+00  0.59211255014E+03  0.19134168169E+04  0.18194962609E+04 0.  0.
        3    1    3    3  502    0 -0.80911020180E+03  0.18267028781E+03 -0.96880562388E+02  0.83511293026E+03  0.10100000352E+00 0.  1.
       -3    1    3    3    0  502  0.80911020180E+03 -0.18267028781E+03  0.68899311253E+03  0.10783038867E+04  0.10100000352E+00 0. -1.
</event>
<event>
 5   0  0.9182865E-05  0.2308768E+04  0.7818609E-02  0.8474472E-01
       -2   -1    0    0    0  501  0.00000000000E+00  0.00000000000E+00  0.10378980945E+04  0.10378980945E+04  0.25500000920E-02 0. -1.
        2   -1    0    0  501    0  0.00000000000E+00  0.00000000000E+00 -0.12839429653E+04  0.12839429653E+04  0.25500000920E-02 0.  1.
    10030    2    1    2    0    0  0.00000000000E+00  0.00000000000E+00 -0.24604487081E+03  0.23218410598E+04  0.23087675995E+04 0.  0.
        3    1    3    3  502    0 -0.39931463387E+03 -0.54734143014E+02  0.96483946844E+03  0.10456400974E+04  0.10100000352E+00 0. -1.
       -3    1    3    3    0  502  0.39931463387E+03  0.54734143014E+02 -0.12108843393E+04  0.12762009624E+04  0.10100000352E+00 0.  1.
</event>
<event>
 5   0  0.4260395E-05  0.2342411E+04  0.7818609E-02  0.8461384E-01
        1   -1    0    0  501    0  0.00000000000E+00  0.00000000000E+00  0.10717458143E+04  0.10717458143E+04  0.50400001928E-02 0. -1.
       -1   -1    0    0    0  501  0.00000000000E+00  0.00000000000E+00 -0.12798956254E+04  0.12798956254E+04  0.50400001928E-02 0.  1.
    10030    2    1    2    0    0  0.00000000000E+00  0.00000000000E+00 -0.20814981111E+03  0.23516414398E+04  0.23424113895E+04 0.  0.
        4    1    3    3  502    0 -0.52261813356E+03  0.82084300058E+03  0.55026648119E+03  0.11179032867E+04  0.12699999809E+01 0. -1.
       -4    1    3    3    0  502  0.52261813356E+03 -0.82084300058E+03 -0.75841629229E+03  0.12337381531E+04  0.12699999809E+01 0.  1.
</event>
<event>
 5   0  0.9750757E-05  0.2447425E+04  0.7818609E-02  0.8421959E-01
       -2   -1    0    0    0  501  0.00000000000E+00  0.00000000000E+00  0.15044482259E+04  0.15044482259E+04  0.25500000920E-02 0.  1.
        2   -1    0    0  501    0  0.00000000000E+00  0.00000000000E+00 -0.99536330577E+03  0.99536330577E+03  0.25500000920E-02 0. -1.
    10030    2    1    2    0    0  0.00000000000E+00  0.00000000000E+00  0.50908492017E+03  0.24998115317E+04  0.24474252263E+04 0.  0.
        2    1    3    3  502    0  0.55817342281E+03  0.10524819082E+04 -0.31080021476E+02  0.11917389415E+04  0.25500000920E-02 0. -1.
       -2    1    3    3    0  502 -0.55817342281E+03 -0.10524819082E+04  0.54016494165E+03  0.13080725902E+04  0.25500000920E-02 0.  1.
</event>
<event>
 5   0  0.4260395E-05  0.2417726E+04  0.7818609E-02  0.8432897E-01
        1   -1    0    0  501    0  0.00000000000E+00  0.00000000000E+00  0.11570758765E+04  0.11570758765E+04  0.50400001928E-02 0.  1.
       -1   -1    0    0    0  501  0.00000000000E+00  0.00000000000E+00 -0.12629677884E+04  0.12629677884E+04  0.50400001928E-02 0. -1.
    10030    2    1    2    0    0  0.00000000000E+00  0.00000000000E+00 -0.10589191188E+03  0.24200436649E+04  0.24177258412E+04 0.  0.
        4    1    3    3  502    0 -0.10168190566E+04  0.64897818921E+03 -0.13210567596E+03  0.12134855609E+04  0.12699999809E+01 0. -1.
       -4    1    3    3    0  502  0.10168190566E+04 -0.64897818921E+03  0.26213764080E+02  0.12065581040E+04  0.12699999809E+01 0.  1.
</event>
<event>
 5   0  0.4260395E-05  0.2392544E+04  0.7818609E-02  0.8442300E-01
       -1   -1    0    0    0  501  0.00000000000E+00  0.00000000000E+00  0.12362861857E+04  0.12362861857E+04  0.50400001928E-02 0. -1.
        1   -1    0    0  501    0  0.00000000000E+00  0.00000000000E+00 -0.11575525520E+04  0.11575525520E+04  0.50400001928E-02 0.  1.
    10030    2    1    2    0    0  0.00000000000E+00  0.00000000000E+00  0.78733633751E+02  0.23938387377E+04  0.23925436082E+04 0.  0.
        4    1    3    3  502    0  0.80535473651E+03 -0.37203785066E+03  0.84233236472E+03  0.12233289989E+04  0.12699999809E+01 0. -1.
       -4    1    3    3    0  502 -0.80535473651E+03  0.37203785066E+03 -0.76359873096E+03  0.11705097389E+04  0.12699999809E+01 0.  1.
</event>
<event>
 5   0  0.3934906E-05  0.2275922E+04  0.7818609E-02  0.8487476E-01
        1   -1    0    0  501    0  0.00000000000E+00  0.00000000000E+00  0.15508202249E+04  0.15508202249E+04  0.50400001928E-02 0. -1.
       -1   -1    0    0    0  501  0.00000000000E+00  0.00000000000E+00 -0.83501311234E+03  0.83501311235E+03  0.50400001928E-02 0.  1.
    10030    2    1    2    0    0  0.00000000000E+00  0.00000000000E+00  0.71580711252E+03  0.23858333372E+04  0.22759219869E+04 0.  0.
        2    1    3    3  502    0  0.24145095389E+03  0.31343635462E+03 -0.76058850152E+03  0.85734227715E+03  0.25500000920E-02 0.  1.
       -2    1    3    3    0  502 -0.24145095389E+03 -0.31343635462E+03  0.14763956140E+04  0.15284910601E+04  0.25500000920E-02 0. -1.
</event>
<event>
 5   0  0.9750757E-05  0.2527814E+04  0.7818609E-02  0.8393143E-01
        2   -1    0    0  501    0  0.00000000000E+00  0.00000000000E+00  0.11088613763E+04  0.11088613763E+04  0.25500000920E-02 0.  1.
       -2   -1    0    0    0  501  0.00000000000E+00  0.00000000000E+00 -0.14406314367E+04  0.14406314367E+04  0.25500000920E-02 0. -1.
    10030    2    1    2    0    0  0.00000000000E+00  0.00000000000E+00 -0.33177006041E+03  0.25494928130E+04  0.25278137255E+04 0.  0.
        2    1    3    3  502    0  0.12355672393E+04  0.14461796016E+03  0.59458526719E+02  0.12454220464E+04  0.25500000920E-02 0.  1.
       -2    1    3    3    0  502 -0.12355672393E+04 -0.14461796016E+03 -0.39122858713E+03  0.13040707667E+04  0.25500000920E-02 0. -1.
</event>
<event>
 5   0  0.9144244E-05  0.2391362E+04  0.7818609E-02  0.8442745E-01
       -2   -1    0    0    0  501  0.00000000000E+00  0.00000000000E+00  0.99612504737E+03  0.99612504737E+03  0.25500000920E-02 0.  1.
        2   -1    0    0  501    0  0.00000000000E+00  0.00000000000E+00 -0.14352144791E+04  0.14352144791E+04  0.25500000920E-02 0. -1.
    10030    2    1    2    0    0  0.00000000000E+00  0.00000000000E+00 -0.43908943173E+03  0.24313395265E+04  0.23913620311E+04 0.  0.
        1    1    3    3  502    0 -0.18649973742E+03  0.35457139331E+03 -0.13649436362E+04  0.14225238680E+04  0.50400001928E-02 0. -1.
       -1    1    3    3    0  502  0.18649973742E+03 -0.35457139331E+03  0.92585420442E+03  0.10088156585E+04  0.50400001928E-02 0.  1.
</event>
<event>
 5   0  0.3234750E-05  0.2462699E+04  0.7818609E-02  0.8416396E-01
        4   -1    0    0  501    0  0.00000000000E+00  0.00000000000E+00  0.10901597210E+04  0.10901604607E+04  0.12699999809E+01 0.  1.
       -4   -1    0    0    0  501  0.00000000000E+00  0.00000000000E+00 -0.13908234053E+04  0.13908239851E+04  0.12699999809E+01 0. -1.
    10030    2    1    2    0    0  0.00000000000E+00  0.00000000000E+00 -0.30066368434E+03  0.24809844459E+04  0.24626987574E+04 0.  0.
        5    1    3    3  502    0  0.89627162062E+03  0.10264630499E+03 -0.99462383918E+03  0.13428096490E+04  0.46999998093E+01 0. -1.
       -5    1    3    3    0  502 -0.89627162062E+03 -0.10264630499E+03  0.69396015484E+03  0.11381747969E+04  0.46999998093E+01 0.  1.
</event>
<event>
 5   0  0.9144244E-05  0.1682230E+04  0.7818609E-02  0.8771565E-01
        2   -1    0    0  501    0  0.00000000000E+00  0.00000000000E+00  0.92034468044E+03  0.92034468045E+03  0.25500000920E-02 0. -1.
       -2   -1    0    0    0  501  0.00000000000E+00  0.00000000000E+00 -0.76870594022E+03  0.76870594023E+03  0.25500000920E-02 0.  1.
    10030    2    1    2    0    0  0.00000000000E+00  0.00000000000E+00  0.15163874022E+03  0.16890506207E+04  0.16822299759E+04 0.  0.
        1    1    3    3  502    0  0.71743150824E+03 -0.43646068014E+03  0.27997184075E+02  0.84023195408E+03  0.50400001928E-02 0.  1.
       -1    1    3    3    0  502 -0.71743150824E+03  0.43646068014E+03  0.12364155615E+03  0.84881866659E+03  0.50400001928E-02 0. -1.
</event>
<event>
 5   0  0.4208577E-05  0.1517665E+04  0.7818609E-02  0.8872790E-01
       -1   -1    0    0    0  501  0.00000000000E+00  0.00000000000E+00  0.11865383906E+04  0.11865383906E+04  0.50400001928E-02 0.  1.
        1   -1    0    0  501    0  0.00000000000E+00  0.00000000000E+00 -0.48529976115E+03  0.48529976118E+03  0.50400001928E-02 0. -1.
    10030    2    1    2    0    0  0.00000000000E+00  0.00000000000E+00  0.70123862944E+03  0.16718381518E+04  0.15176650455E+04 0.  0.
        1    1    3    3  502    0 -0.31325782316E+03  0.64187779755E+03  0.63295474101E+03  0.95434232587E+03  0.50400001928E-02 0.  1.
       -1    1    3    3    0  502  0.31325782316E+03 -0.64187779755E+03  0.68283888429E+02  0.71749582591E+03  0.50400001928E-02 0. -1.
</event>
<event>
 5   0  0.9491680E-05  0.2371248E+04  0.7818609E-02  0.8450347E-01
       -2   -1    0    0    0  501  0.00000000000E+00  0.00000000000E+00  0.27666499273E+04  0.27666499273E+04  0.25500000920E-02 0. -1.
        2   -1    0    0  501    0  0.00000000000E+00  0.00000000000E+00 -0.50808912165E+03  0.50808912165E+03  0.25500000920E-02 0.  1.
    10030    2    1    2    0    0  0.00000000000E+00  0.00000000000E+00  0.22585608057E+04  0.32747390490E+04  0.23712483898E+04 0.  0.
        5    1    3    3  502    0  0.33258347882E+03  0.39463751443E+03 -0.34481236989E+03  0.62069976527E+03  0.46999998093E+01 0.  1.
       -5    1    3    3    0  502 -0.33258347882E+03 -0.39463751443E+03  0.26033731756E+04  0.26540392837E+04  0.46999998093E+01 0. -1.
</event>
<event>
 5   0  0.9519092E-05  0.2392493E+04  0.7818609E-02  0.8442319E-01
       -2   -1    0    0    0  501  0.00000000000E+00  0.00000000000E+00  0.11638207239E+04  0.11638207239E+04  0.25500000920E-02 0.  1.
        2   -1    0    0  501    0  0.00000000000E+00  0.00000000000E+00 -0.12295759444E+04  0.12295759444E+04  0.25500000920E-02 0. -1.
    10030    2    1    2    0    0  0.00000000000E+00  0.00000000000E+00 -0.65755220430E+02  0.23933966683E+04  0.23924932315E+04 0.  0.
        4    1    3    3  502    0  0.54174450187E+02  0.11614993470E+04  0.24827788841E+03  0.11889739807E+04  0.12699999809E+01 0.  1.
       -4    1    3    3    0  502 -0.54174450187E+02 -0.11614993470E+04 -0.31403310884E+03  0.12044226876E+04  0.12699999809E+01 0. -1.
</event>
<event>
 5   0  0.9519092E-05  0.1236673E+04  0.7818609E-02  0.9081349E-01
       -2   -1    0    0    0  501  0.00000000000E+00  0.00000000000E+00  0.57297705603E+03  0.57297705603E+03  0.25500000920E-02 0.  1.
        2   -1    0    0  501    0  0.00000000000E+00  0.00000000000E+00 -0.66728653244E+03  0.66728653244E+03  0.25500000920E-02 0. -1.
    10030    2    1    2    0    0  0.00000000000E+00  0.00000000000E+00 -0.94309476412E+02  0.12402635885E+04  0.12366727504E+04 0.  0.
        4    1    3    3  502    0 -0.43648066047E+03  0.37712674953E+03  0.17619869491E+03  0.60314802923E+03  0.12699999809E+01 0.  1.
       -4    1    3    3    0  502  0.43648066047E+03 -0.37712674953E+03 -0.27050817132E+03  0.63711555924E+03  0.12699999809E+01 0. -1.
</event>
<event>
 5   0  0.3934906E-05  0.2438106E+04  0.7818609E-02  0.8425374E-01
       -1   -1    0    0    0  501  0.00000000000E+00  0.00000000000E+00  0.96661294827E+03  0.96661294828E+03  0.50400001928E-02 0. -1.
        1   -1    0    0  501    0  0.00000000000E+00  0.00000000000E+00 -0.15374198993E+04  0.15374198993E+04  0.50400001928E-02 0.  1.
    10030    2    1    2    0    0  0.00000000000E+00  0.00000000000E+00 -0.57080695106E+03  0.25040328476E+04  0.24381058071E+04 0.  0.
        2    1    3    3  502    0  0.68775508879E+03 -0.98662449895E+03 -0.48992383431E+03  0.12986378739E+04  0.25500000920E-02 0. -1.
       -2    1    3    3    0  502 -0.68775508879E+03  0.98662449895E+03 -0.80883116747E+02  0.12053949737E+04  0.25500000920E-02 0.  1.
</event>
<event>
 5   0  0.4061631E-05  0.2411331E+04  0.7818609E-02  0.8435274E-01
       -1   -1    0    0    0  501  0.00000000000E+00  0.00000000000E+00  0.14045838107E+04  0.14045838107E+04  0.50400001928E-02 0.  1.
        1   -1    0    0  501    0  0.00000000000E+00  0.00000000000E+00 -0.10349182078E+04  0.10349182078E+04  0.50400001928E-02 0. -1.
    10030    2    1    2    0    0  0.00000000000E+00  0.00000000000E+00  0.36966560287E+03  0.24395020185E+04  0.24113310516E+04 0.  0.
        3    1    3    3  502    0  0.10060134746E+04 -0.63851311603E+03  0.37101332310E+03  0.12479635437E+04  0.10100000352E+00 0. -1.
       -3    1    3    3    0  502 -0.10060134746E+04  0.63851311603E+03 -0.13477202387E+01  0.11915384748E+04  0.10100000352E+00 0.  1.
</event>
<event>
 5   0  0.4018942E-05  0.2338608E+04  0.7818609E-02  0.8462852E-01
       -1   -1    0    0    0  501  0.00000000000E+00  0.00000000000E+00  0.17084494402E+04  0.17084494402E+04  0.50400001928E-02 0.  1.
        1   -1    0    0  501    0  0.00000000000E+00  0.00000000000E+00 -0.80029987658E+03  0.80029987660E+03  0.50400001928E-02 0. -1.
    10030    2    1    2    0    0  0.00000000000E+00  0.00000000000E+00  0.90814956365E+03  0.25087493168E+04  0.23386080272E+04 0.  0.
        5    1    3    3  502    0  0.10535240128E+03  0.22187280805E+02 -0.79496123879E+03  0.80223242583E+03  0.46999998093E+01 0. -1.
       -5    1    3    3    0  502 -0.10535240128E+03 -0.22187280805E+02  0.17031108024E+04  0.17065168910E+04  0.46999998093E+01 0.  1.
</event>
<event>
 5   0  0.9519092E-05  0.2370827E+04  0.7818609E-02  0.8450507E-01
       -2   -1    0    0    0  501  0.00000000000E+00  0.00000000000E+00  0.77367095304E+03  0.77367095305E+03  0.25500000920E-02 0.  1.
        2   -1    0    0  501    0  0.00000000000E+00  0.00000000000E+00 -0.18162825252E+04  0.18162825252E+04  0.25500000920E-02 0. -1.
    10030    2    1    2    0    0  0.00000000000E+00  0.00000000000E+00 -0.10426115722E+04  0.25899534783E+04  0.23708268872E+04 0.  0.
        4    1    3    3  502    0 -0.28885836071E+03  0.86471199139E+03  0.30637377040E+03  0.96178608885E+03  0.12699999809E+01 0.  1.
       -4    1    3    3    0  502  0.28885836071E+03 -0.86471199139E+03 -0.13489853426E+04  0.16281673894E+04  0.12699999809E+01 0. -1.
</event>
<event>
 5   0  0.9491680E-05  0.2261566E+04  0.7818609E-02  0.8493231E-01
       -2   -1    0    0    0  501  0.00000000000E+00  0.00000000000E+00  0.92229079062E+03  0.92229079063E+03  0.25500000920E-02 0.  1.
        2   -1    0    0  501    0  0.00000000000E+00  0.00000000000E+00 -0.13864066545E+04  0.13864066545E+04  0.25500000920E-02 0. -1.
    10030    2    1    2    0    0  0.00000000000E+00  0.00000000000E+00 -0.46411586386E+03  0.23086974451E+04  0.22615659084E+04 0.  0.
        5    1    3    3  502    0  0.28361400583E+03 -0.14815780354E+03 -0.13392156818E+04  0.13769198856E+04  0.46999998093E+01 0. -1.
       -5    1    3    3    0  502 -0.28361400583E+03  0.14815780354E+03  0.87509981793E+03  0.93177755950E+03  0.46999998093E+01 0.  1.
</event>
<event>
 5   0  0.9144244E-05  0.2501418E+04  0.7818609E-02  0.8402481E-01
       -2   -1    0    0    0  501  0.00000000000E+00  0.00000000000E+00  0.71373634197E+03  0.71373634197E+03  0.25500000920E-02 0.  1.
        2   -1    0    0  501    0  0.00000000000E+00  0.00000000000E+00 -0.21916678744E+04  0.21916678744E+04  0.25500000920E-02 0. -1.
    10030    2    1    2    0    0  0.00000000000E+00  0.00000000000E+00 -0.14779315324E+04  0.29054042164E+04  0.25014180070E+04 0.  0.
        1    1    3    3  502    0 -0.41390864547E+03 -0.45405508310E+03 -0.20043039458E+04  0.20963589130E+04  0.50400001928E-02 0. -1.
       -1    1    3    3    0  502  0.41390864547E+03  0.45405508310E+03  0.52637241333E+03  0.80904530332E+03  0.50400001928E-02 0.  1.
</event>
<event>
 5   0  0.9144244E-05  0.2257371E+04  0.7818609E-02  0.8494922E-01
       -2   -1    0    0    0  501  0.00000000000E+00  0.00000000000E+00  0.69922449864E+03  0.69922449865E+03  0.25500000920E-02 0. -1.
        2   -1    0    0  501    0  0.00000000000E+00  0.00000000000E+00 -0.18219190210E+04  0.18219190210E+04  0.25500000920E-02 0.  1.
    10030    2    1    2    0    0  0.00000000000E+00  0.00000000000E+00 -0.11226945223E+04  0.25211435196E+04  0.22573705181E+04 0.  0.
        1    1    3    3  502    0  0.44021691526E+03 -0.13423071244E+03  0.58967001028E+03  0.74801038609E+03  0.50400001928E-02 0. -1.
       -1    1    3    3    0  502 -0.44021691526E+03  0.13423071244E+03 -0.17123645326E+04  0.17731331335E+04  0.50400001928E-02 0.  1.
</event>
<event>
 5   0  0.3234750E-05  0.1205342E+04  0.7818609E-02  0.9108193E-01
       -3   -1    0    0    0  501  0.00000000000E+00  0.00000000000E+00  0.25150260099E+03  0.25150262127E+03  0.10100000352E+00 0. -1.
        3   -1    0    0  501    0  0.00000000000E+00  0.00000000000E+00 -0.14441703292E+04  0.14441703328E+04  0.10100000352E+00 0.  1.
    10030    2    1    2    0    0  0.00000000000E+00  0.00000000000E+00 -0.11926677282E+04  0.16956729540E+04  0.12053424646E+04 0.  0.
        4    1    3    3  502    0  0.42813590440E+03  0.34813686285E+03 -0.93720698444E+03  0.10875928340E+04  0.12699999809E+01 0.  1.
       -4    1    3    3    0  502 -0.42813590440E+03 -0.34813686285E+03 -0.25546074380E+03  0.60808012008E+03  0.12699999809E+01 0. -1.
</event>
<event>
 5   0  0.3234750E-05  0.1939860E+04  0.7818609E-02  0.8635266E-01
       -3   -1    0    0    0  501  0.00000000000E+00  0.00000000000E+00  0.92686308501E+03  0.92686309051E+03  0.10100000352E+00 0.  1.
        3   -1    0    0  501    0  0.00000000000E+00  0.00000000000E+00 -0.10149976451E+04  0.10149976501E+04  0.10100000352E+00 0. -1.
    10030    2    1    2    0    0  0.00000000000E+00  0.00000000000E+00 -0.88134560073E+02  0.19418607406E+04  0.19398596432E+04 0.  0.
        4    1    3    3  502    0 -0.64164107197E+03  0.19693398336E+03 -0.74498668680E+03  0.10027427564E+04  0.12699999809E+01 0. -1.
       -4    1    3    3    0  502  0.64164107197E+03 -0.19693398336E+03  0.65685212673E+03  0.93911798424E+03  0.12699999809E+01 0.  1.
</event>
<event>
 5   0  0.9519092E-05  0.2344020E+04  0.7818609E-02  0.8460764E-01
       -2   -1    0    0    0  501  0.00000000000E+00  0.00000000000E+00  0.97563777520E+03  0.97563777520E+03  0.25500000920E-02 0.  1.
        2   -1    0    0  501    0  0.00000000000E+00  0.00000000000E+00 -0.14079070680E+04  0.14079070680E+04  0.25500000920E-02 0. -1.
    10030    2    1    2    0    0  0.00000000000E+00  0.00000000000E+00 -0.43226929282E+03  0.23835448432E+04  0.23440198971E+04 0.  0.
        4    1    3    3  502    0  0.11404551886E+04  0.76636887760E+02  0.47259035830E+02  0.11440044926E+04  0.12699999809E+01 0. -1.
       -4    1    3    3    0  502 -0.11404551886E+04 -0.76636887760E+02 -0.47952832865E+03  0.12395403506E+04  0.12699999809E+01 0.  1.
</event>
<event>
 5   0  0.4260395E-05  0.2444159E+04  0.7818609E-02  0.8423154E-01
        1   -1    0    0  501    0  0.00000000000E+00  0.00000000000E+00  0.10950572113E+04  0.10950572113E+04  0.50400001928E-02 0. -1.
       -1   -1    0    0    0  501  0.00000000000E+00  0.00000000000E+00 -0.13638354311E+04  0.13638354311E+04  0.50400001928E-02 0.  1.
    10030    2    1    2    0    0  0.00000000000E+00  0.00000000000E+00 -0.26877821976E+03  0.24588926425E+04  0.24441586069E+04 0.  0.
        4    1    3    3  502    0  0.65152402545E+03  0.54253042608E+03  0.75106059206E+03  0.11326590152E+04  0.12699999809E+01 0. -1.
       -4    1    3    3    0  502 -0.65152402545E+03 -0.54253042608E+03 -0.10198388118E+04  0.13262336272E+04  0.12699999809E+01 0.  1.
</event>
<event>
 5   0  0.9519092E-05  0.2299547E+04  0.7818609E-02  0.8478100E-01
       -2   -1    0    0    0  501  0.00000000000E+00  0.00000000000E+00  0.94568457701E+03  0.94568457702E+03  0.25500000920E-02 0. -1.
        2   -1    0    0  501    0  0.00000000000E+00  0.00000000000E+00 -0.13979075591E+04  0.13979075591E+04  0.25500000920E-02 0.  1.
    10030    2    1    2    0    0  0.00000000000E+00  0.00000000000E+00 -0.45222298213E+03  0.23435921362E+04  0.22995474501E+04 0.  0.
        4    1    3    3  502    0 -0.16491178605E+03  0.34867015990E+03 -0.13300064803E+04  0.13848052672E+04  0.12699999809E+01 0.  1.
       -4    1    3    3    0  502  0.16491178605E+03 -0.34867015990E+03  0.87778349815E+03  0.95878686897E+03  0.12699999809E+01 0. -1.
</event>
<event>
 5   0  0.4061631E-05  0.2592226E+04  0.7818609E-02  0.8370847E-01
       -1   -1    0    0    0  501  0.00000000000E+00  0.00000000000E+00  0.13183504154E+04  0.13183504154E+04  0.50400001928E-02 0. -1.
        1   -1    0    0  501    0  0.00000000000E+00  0.00000000000E+00 -0.12742502024E+04  0.12742502024E+04  0.50400001928E-02 0.  1.
    10030    2    1    2    0    0  0.00000000000E+00  0.00000000000E+00  0.44100213028E+02  0.25926006178E+04  0.25922255177E+04 0.  0.
        3    1    3    3  502    0  0.63167800899E+03 -0.10413979856E+04  0.46526364393E+03  0.13038393842E+04  0.10100000352E+00 0. -1.
       -3    1    3    3    0  502 -0.63167800899E+03  0.10413979856E+04 -0.42116343090E+03  0.12887612335E+04  0.10100000352E+00 0.  1.
</event>
<event>
 5   0  0.4260395E-05  0.2247614E+04  0.7818609E-02  0.8498867E-01
       -1   -1    0    0    0  501  0.00000000000E+00  0.00000000000E+00  0.10306090421E+04  0.10306090421E+04  0.50400001928E-02 0. -1.
        1   -1    0    0  501    0  0.00000000000E+00  0.00000000000E+00 -0.12254329224E+04  0.12254329224E+04  0.50400001928E-02 0.  1.
    10030    2    1    2    0    0  0.00000000000E+00  0.00000000000E+00 -0.19482388039E+03  0.22560419645E+04  0.22476140686E+04 0.  0.
        4    1    3    3  502    0 -0.10773252382E+03  0.69529357422E+03 -0.97699752068E+03  0.12039789115E+04  0.12699999809E+01 0.  1.
       -4    1    3    3    0  502  0.10773252382E+03 -0.69529357422E+03  0.78217364029E+03  0.10520630530E+04  0.12699999809E+01 0. -1.
</event>
<event>
 5   0  0.3934906E-05  0.1525034E+04  0.7818609E-02  0.8867974E-01
       -1   -1    0    0    0  501  0.00000000000E+00  0.00000000000E+00  0.85461801945E+03  0.85461801946E+03  0.50400001928E-02 0.  1.
        1   -1    0    0  501    0  0.00000000000E+00  0.00000000000E+00 -0.68034186040E+03  0.68034186042E+03  0.50400001928E-02 0. -1.
    10030    2    1    2    0    0  0.00000000000E+00  0.00000000000E+00  0.17427615905E+03  0.15349598799E+04  0.15250343121E+04 0.  0.
        2    1    3    3  502    0 -0.37904995544E+03 -0.43273563047E+03  0.59088867609E+03  0.82467473717E+03  0.25500000920E-02 0.  1.
       -2    1    3    3    0  502  0.37904995544E+03  0.43273563047E+03 -0.41661251704E+03  0.71028514271E+03  0.25500000920E-02 0. -1.
</event>
<event>
 5   0  0.9144244E-05  0.2319265E+04  0.7818609E-02  0.8470364E-01
        2   -1    0    0  501    0  0.00000000000E+00  0.00000000000E+00  0.24149773475E+04  0.24149773475E+04  0.25500000920E-02 0. -1.
       -2   -1    0    0    0  501  0.00000000000E+00  0.00000000000E+00 -0.55683655841E+03  0.55683655841E+03  0.25500000920E-02 0.  1.
    10030    2    1    2    0    0  0.00000000000E+00  0.00000000000E+00  0.18581407891E+04  0.29718139059E+04  0.23192651205E+04 0.  0.
        1    1    3    3  502    0 -0.29904048597E+03  0.11175616169E+04  0.10314068390E+04  0.15498933019E+04  0.50400001928E-02 0. -1.
       -1    1    3    3    0  502  0.29904048597E+03 -0.11175616169E+04  0.82673395011E+03  0.14219206040E+04  0.50400001928E-02 0.  1.
</event>
<event>
 5   0  0.4061631E-05  0.2343988E+04  0.7818609E-02  0.8460776E-01
       -1   -1    0    0    0  501  0.00000000000E+00  0.00000000000E+00  0.14584720591E+04  0.14584720591E+04  0.50400001928E-02 0.  1.
        1   -1    0    0  501    0  0.00000000000E+00  0.00000000000E+00 -0.94178688857E+03  0.94178688859E+03  0.50400001928E-02 0. -1.
    10030    2    1    2    0    0  0.00000000000E+00  0.00000000000E+00  0.51668517050E+03  0.24002589477E+04  0.23439879374E+04 0.  0.
        3    1    3    3  502    0  0.77584798983E+03  0.73430991365E+03  0.75201431577E+03  0.13063983672E+04  0.10100000352E+00 0.  1.
       -3    1    3    3    0  502 -0.77584798983E+03 -0.73430991365E+03 -0.23532914527E+03  0.10938605804E+04  0.10100000352E+00 0. -1.
</event>
<event>
 5   0  0.9144244E-05  0.2494486E+04  0.7818609E-02  0.8404952E-01
        2   -1    0    0  501    0  0.00000000000E+00  0.00000000000E+00  0.18903496393E+04  0.18903496393E+04  0.25500000920E-02 0.  1.
       -2   -1    0    0    0  501  0.00000000000E+00  0.00000000000E+00 -0.82292469209E+03  0.82292469210E+03  0.25500000920E-02 0. -1.
    10030    2    1    2    0    0  0.00000000000E+00  0.00000000000E+00  0.10674249472E+04  0.27132743314E+04  0.24944862356E+04 0.  0.
        1    1    3    3  502    0 -0.31606797973E+03 -0.11949689886E+04  0.71495732708E+03  0.14279404158E+04  0.50400001928E-02 0.  1.
       -1    1    3    3    0  502  0.31606797973E+03  0.11949689886E+04  0.35246762015E+03  0.12853339156E+04  0.50400001928E-02 0. -1.
</event>
<event>
 5   0  0.9750757E-05  0.1887587E+04  0.7818609E-02  0.8661060E-01
       -2   -1    0    0    0  501  0.00000000000E+00  0.00000000000E+00  0.74607811443E+03  0.74607811444E+03  0.25500000920E-02 0. -1.
        2   -1    0    0  501    0  0.00000000000E+00  0.00000000000E+00 -0.11939048316E+04  0.11939048317E+04  0.25500000920E-02 0.  1.
    10030    2    1    2    0    0  0.00000000000E+00  0.00000000000E+00 -0.44782671721E+03  0.19399829461E+04  0.18875871006E+04 0.  0.
        2    1    3    3  502    0 -0.74469050219E+01 -0.53940298082E+03  0.57200897871E+03  0.78626032829E+03  0.25500000920E-02 0. -1.
       -2    1    3    3    0  502  0.74469050219E+01  0.53940298082E+03 -0.10198356959E+04  0.11537226178E+04  0.25500000920E-02 0.  1.
</event>
<event>
 5   0  0.9519092E-05  0.2424368E+04  0.7818609E-02  0.8430437E-01
        2   -1    0    0  501    0  0.00000000000E+00  0.00000000000E+00  0.11533248493E+04  0.11533248493E+04  0.25500000920E-02 0. -1.
       -2   -1    0    0    0  501  0.00000000000E+00  0.00000000000E+00 -0.12740467397E+04  0.12740467397E+04  0.25500000920E-02 0.  1.
    10030    2    1    2    0    0  0.00000000000E+00  0.00000000000E+00 -0.12072189040E+03  0.24273715889E+04  0.24243677642E+04 0.  0.
        4    1    3    3  502    0 -0.10365120858E+04 -0.10476590610E+03 -0.68085046191E+03  0.12445449624E+04  0.12699999809E+01 0.  1.
       -4    1    3    3    0  502  0.10365120858E+04  0.10476590610E+03  0.56012857151E+03  0.11828266266E+04  0.12699999809E+01 0. -1.
</event>
<event>
 5   0  0.4260395E-05  0.2376425E+04  0.7818609E-02  0.8448383E-01
       -1   -1    0    0    0  501  0.00000000000E+00  0.00000000000E+00  0.69583898097E+03  0.69583898099E+03  0.50400001928E-02 0.  1.
        1   -1    0    0  501    0  0.00000000000E+00  0.00000000000E+00 -0.20289886140E+04  0.20289886140E+04  0.50400001928E-02 0. -1.
    10030    2    1    2    0    0  0.00000000000E+00  0.00000000000E+00 -0.13331496330E+04  0.27248275950E+04  0.23764253572E+04 0.  0.
        4    1    3    3  502    0 -0.26354939466E+03 -0.41320147887E+03  0.57454738053E+03  0.75518213097E+03  0.12699999809E+01 0.  1.
       -4    1    3    3    0  502  0.26354939466E+03  0.41320147887E+03 -0.19076970135E+04  0.19696454640E+04  0.12699999809E+01 0. -1.
</event>
<event>
 5   0  0.4208577E-05  0.2372870E+04  0.7818609E-02  0.8449731E-01
        1   -1    0    0  501    0  0.00000000000E+00  0.00000000000E+00  0.11075292637E+04  0.11075292637E+04  0.50400001928E-02 0. -1.
       -1   -1    0    0    0  501  0.00000000000E+00  0.00000000000E+00 -0.12709619274E+04  0.12709619274E+04  0.50400001928E-02 0.  1.
    10030    2    1    2    0    0  0.00000000000E+00  0.00000000000E+00 -0.16343266372E+03  0.23784911910E+04  0.23728695940E+04 0.  0.
        1    1    3    3  502    0 -0.22256576568E+03 -0.11653512753E+04 -0.88690739848E+02  0.11897248263E+04  0.50400001928E-02 0.  1.
       -1    1    3    3    0  502  0.22256576568E+03  0.11653512753E+04 -0.74741923868E+02  0.11887663648E+04  0.50400001928E-02 0. -1.
</event>
<event>
 5   0  0.9519092E-05  0.2344989E+04  0.7818609E-02  0.8460391E-01
        2   -1    0    0  501    0  0.00000000000E+00  0.00000000000E+00  0.12228635793E+04  0.12228635793E+04  0.25500000920E-02 0.  1.
       -2   -1    0    0    0  501  0.00000000000E+00  0.00000000000E+00 -0.11242003384E+04  0.11242003384E+04  0.25500000920E-02 0. -1.
    10030    2    1    2    0    0  0.00000000000E+00  0.00000000000E+00  0.98663240962E+02  0.23470639177E+04  0.23449892534E+04 0.  0.
        4    1    3    3  502    0 -0.27095040715E+03 -0.51219306515E+03  0.10695401381E+04  0.12164183404E+04  0.12699999809E+01 0.  1.
       -4    1    3    3    0  502  0.27095040715E+03  0.51219306515E+03 -0.97087689710E+03  0.11306455772E+04  0.12699999809E+01 0. -1.
</event>
<event>
 5   0  0.9491680E-05  0.2335725E+04  0.7818609E-02  0.8463967E-01
        2   -1    0    0  501    0  0.00000000000E+00  0.00000000000E+00  0.18293116534E+04  0.18293116534E+04  0.25500000920E-02 0. -1.
       -2   -1    0    0    0  501  0.00000000000E+00  0.00000000000E+00 -0.74558272682E+03  0.74558272682E+03  0.25500000920E-02 0.  1.
    10030    2    1    2    0    0  0.00000000000E+00  0.00000000000E+00  0.10837289266E+04  0.25748943802E+04  0.23357253013E+04 0.  0.
        5    1    3    3  502    0 -0.89521009132E+03 -0.34358323302E+03 -0.19305474621E+03  0.97813228688E+03  0.46999998093E+01 0.  1.
       -5    1    3    3    0  502  0.89521009132E+03  0.34358323302E+03  0.12767836728E+04  0.15967620933E+04  0.46999998093E+01 0. -1.
</event>
<event>
 5   0  0.3934906E-05  0.1475680E+04  0.7818609E-02  0.8900788E-01
       -1   -1    0    0    0  501  0.00000000000E+00  0.00000000000E+00  0.15458625459E+04  0.15458625459E+04  0.50400001928E-02 0. -1.
        1   -1    0    0  501    0  0.00000000000E+00  0.00000000000E+00 -0.35217105589E+03  0.35217105593E+03  0.50400001928E-02 0.  1.
    10030    2    1    2    0    0  0.00000000000E+00  0.00000000000E+00  0.11936914900E+04  0.18980336018E+04  0.14756802433E+04 0.  0.
        2    1    3    3  502    0  0.46976925536E+03  0.50318857222E+03  0.25527023138E+03  0.73419669267E+03  0.25500000920E-02 0.  1.
       -2    1    3    3    0  502 -0.46976925536E+03 -0.50318857222E+03  0.93842125861E+03  0.11638369092E+04  0.25500000920E-02 0. -1.
</event>
<event>
 5   0  0.4061631E-05  0.2377240E+04  0.7818609E-02  0.8448074E-01
       -1   -1    0    0    0  501  0.00000000000E+00  0.00000000000E+00  0.87315538270E+03  0.87315538271E+03  0.50400001928E-02 0.  1.
        1   -1    0    0  501    0  0.00000000000E+00  0.00000000000E+00 -0.16180596523E+04  0.16180596523E+04  0.50400001928E-02 0. -1.
    10030    2    1    2    0    0  0.00000000000E+00  0.00000000000E+00 -0.74490426956E+03  0.24912150350E+04  0.23772399920E+04 0.  0.
        3    1    3    3  502    0  0.74250607032E+02 -0.11673124006E+04 -0.59397796532E+03  0.13118464951E+04  0.10100000352E+00 0.  1.
       -3    1    3    3    0  502 -0.74250607032E+02  0.11673124006E+04 -0.15092630424E+03  0.11793685399E+04  0.10100000352E+00 0. -1.
</event>
<event>
 5   0  0.9750757E-05  0.2418588E+04  0.7818609E-02  0.8432577E-01
        2   -1    0    0  501    0  0.00000000000E+00  0.00000000000E+00  0.19341358259E+04  0.19341358259E+04  0.25500000920E-02 0.  1.
       -2   -1    0    0    0  501  0.00000000000E+00  0.00000000000E+00 -0.75609584438E+03  0.75609584439E+03  0.25500000920E-02 0. -1.
    10030    2    1    2    0    0  0.00000000000E+00  0.00000000000E+00  0.11780399815E+04  0.26902316703E+04  0.24185880678E+04 0.  0.
        2    1    3    3  502    0 -0.11911755993E+04 -0.19305280817E+03  0.50127134432E+03  0.13066911095E+04  0.25500000920E-02 0. -1.
       -2    1    3    3    0  502  0.11911755993E+04  0.19305280817E+03  0.67676863722E+03  0.13835405608E+04  0.25500000920E-02 0.  1.
</event>
<event>
 5   0  0.9519092E-05  0.2354913E+04  0.7818609E-02  0.8456579E-01
        2   -1    0    0  501    0  0.00000000000E+00  0.00000000000E+00  0.10027622310E+04  0.10027622310E+04  0.25500000920E-02 0. -1.
       -2   -1    0    0    0  501  0.00000000000E+00  0.00000000000E+00 -0.13825851887E+04  0.13825851887E+04  0.25500000920E-02 0.  1.
    10030    2    1    2    0    0  0.00000000000E+00  0.00000000000E+00 -0.37982295768E+03  0.23853474196E+04  0.23549133388E+04 0.  0.
        4    1    3    3  502    0  0.11432338091E+04  0.33081025182E+02 -0.47339386489E+03  0.12378130960E+04  0.12699999809E+01 0. -1.
       -4    1    3    3    0  502 -0.11432338091E+04 -0.33081025182E+02  0.93570907212E+02  0.11475343237E+04  0.12699999809E+01 0.  1.
</event>
<event>
 5   0  0.4208577E-05  0.2411702E+04  0.7818609E-02  0.8435135E-01
       -1   -1    0    0    0  501  0.00000000000E+00  0.00000000000E+00  0.14748464481E+04  0.14748464481E+04  0.50400001928E-02 0. -1.
        1   -1    0    0  501    0  0.00000000000E+00  0.00000000000E+00 -0.98591742795E+03  0.98591742796E+03  0.50400001928E-02 0.  1.
    10030    2    1    2    0    0  0.00000000000E+00  0.00000000000E+00  0.48892902014E+03  0.24607638761E+04  0.24117021514E+04 0.  0.
        1    1    3    3  502    0 -0.64601833458E+03  0.34993396921E+03 -0.73116892738E+03  0.10365333916E+04  0.50400001928E-02 0.  1.
       -1    1    3    3    0  502  0.64601833458E+03 -0.34993396921E+03  0.12200979475E+04  0.14242304845E+04  0.50400001928E-02 0. -1.
</event>
<event>
 5   0  0.4208577E-05  0.2421862E+04  0.7818609E-02  0.8431364E-01
       -1   -1    0    0    0  501  0.00000000000E+00  0.00000000000E+00  0.80439184793E+03  0.80439184795E+03  0.50400001928E-02 0.  1.
        1   -1    0    0  501    0  0.00000000000E+00  0.00000000000E+00 -0.18229346892E+04  0.18229346892E+04  0.50400001928E-02 0. -1.
    10030    2    1    2    0    0  0.00000000000E+00  0.00000000000E+00 -0.10185428412E+04  0.26273265371E+04  0.24218619311E+04 0.  0.
        1    1    3    3  502    0  0.24836294179E+03 -0.47658591861E+03  0.66793244341E+03  0.85729343731E+03  0.50400001928E-02 0.  1.
       -1    1    3    3    0  502 -0.24836294179E+03  0.47658591861E+03 -0.16864752846E+04  0.17700330998E+04  0.50400001928E-02 0. -1.
</event>
<event>
 5   0  0.9182865E-05  0.2428340E+04  0.7818609E-02  0.8428969E-01
       -2   -1    0    0    0  501  0.00000000000E+00  0.00000000000E+00  0.79909816469E+03  0.79909816469E+03  0.25500000920E-02 0.  1.
        2   -1    0    0  501    0  0.00000000000E+00  0.00000000000E+00 -0.18448404015E+04  0.18448404015E+04  0.25500000920E-02 0. -1.
    10030    2    1    2    0    0  0.00000000000E+00  0.00000000000E+00 -0.10457422368E+04  0.26439385662E+04  0.24283398271E+04 0.  0.
        3    1    3    3  502    0  0.64998670411E+03  0.31247195833E+03 -0.15863672523E+04  0.17426079621E+04  0.10100000352E+00 0. -1.
       -3    1    3    3    0  502 -0.64998670411E+03 -0.31247195833E+03  0.54062501549E+03  0.90133060408E+03  0.10100000352E+00 0.  1.
</event>
<event>
 5   0  0.4260395E-05  0.2408330E+04  0.7818609E-02  0.8436391E-01
       -1   -1    0    0    0  501  0.00000000000E+00  0.00000000000E+00  0.72129956163E+03  0.72129956164E+03  0.50400001928E-02 0.  1.
        1   -1    0    0  501    0  0.00000000000E+00  0.00000000000E+00 -0.20102790988E+04  0.20102790988E+04  0.50400001928E-02 0. -1.
    10030    2    1    2    0    0  0.00000000000E+00  0.00000000000E+00 -0.12889795372E+04  0.27315786604E+04  0.24083300710E+04 0.  0.
        4    1    3    3  502    0  0.77322835193E+03  0.88737250095E+03 -0.35598758444E+03  0.12296506873E+04  0.12699999809E+01 0. -1.
       -4    1    3    3    0  502 -0.77322835193E+03 -0.88737250095E+03 -0.93299195272E+03  0.15019279731E+04  0.12699999809E+01 0.  1.
</event>
<event>
 5   0  0.4061631E-05  0.2157063E+04  0.7818609E-02  0.8536515E-01
        1   -1    0    0  501    0  0.00000000000E+00  0.00000000000E+00  0.15168075336E+04  0.15168075336E+04  0.50400001928E-02 0.  1.
       -1   -1    0    0    0  501  0.00000000000E+00  0.00000000000E+00 -0.76689366963E+03  0.76689366965E+03  0.50400001928E-02 0. -1.
    10030    2    1    2    0    0  0.00000000000E+00  0.00000000000E+00  0.74991386397E+03  0.22837012033E+04  0.21570629065E+04 0.  0.
        3    1    3    3  502    0 -0.80128032733E+03  0.10923297982E+03 -0.38055472507E+03  0.89375830951E+03  0.10100000352E+00 0. -1.
       -3    1    3    3    0  502  0.80128032733E+03 -0.10923297982E+03  0.11304685890E+04  0.13899428937E+04  0.10100000352E+00 0.  1.
</event>
<event>
 5   0  0.4208577E-05  0.2422972E+04  0.7818609E-02  0.8430953E-01
        1   -1    0    0  501    0  0.00000000000E+00  0.00000000000E+00  0.13609313350E+04  0.13609313350E+04  0.50400001928E-02 0.  1.
       -1   -1    0    0    0  501  0.00000000000E+00  0.00000000000E+00 -0.10784512114E+04  0.10784512115E+04  0.50400001928E-02 0. -1.
    10030    2    1    2    0    0  0.00000000000E+00  0.00000000000E+00  0.28248012354E+03  0.24393825465E+04  0.24229717678E+04 0.  0.
        1    1    3    3  502    0  0.98977238622E+03  0.64151341060E+03  0.41971648338E+03  0.12519388000E+04  0.50400001928E-02 0.  1.
       -1    1    3    3    0  502 -0.98977238622E+03 -0.64151341060E+03 -0.13723635984E+03  0.11874437465E+04  0.50400001928E-02 0. -1.
</event>
<event>
 5   0  0.4061631E-05  0.2237566E+04  0.7818609E-02  0.8502953E-01
        1   -1    0    0  501    0  0.00000000000E+00  0.00000000000E+00  0.12106537020E+04  0.12106537020E+04  0.50400001928E-02 0.  1.
       -1   -1    0    0    0  501  0.00000000000E+00  0.00000000000E+00 -0.10338840166E+04  0.10338840166E+04  0.50400001928E-02 0. -1.
    10030    2    1    2    0    0  0.00000000000E+00  0.00000000000E+00  0.17676968544E+03  0.22445377186E+04  0.22375660993E+04 0.  0.
        3    1    3    3  502    0 -0.13167594929E+03 -0.24002238313E+03  0.11765347925E+04  0.12079666503E+04  0.10100000352E+00 0.  1.
       -3    1    3    3    0  502  0.13167594929E+03  0.24002238313E+03 -0.99976510710E+03  0.10365710683E+04  0.10100000352E+00 0. -1.
</event>
<event>
 5   0  0.3234750E-05  0.1664284E+04  0.7818609E-02  0.8782001E-01
       -4   -1    0    0    0  501  0.00000000000E+00  0.00000000000E+00  0.13433159498E+04  0.13433165502E+04  0.12699999809E+01 0. -1.
        4   -1    0    0  501    0  0.00000000000E+00  0.00000000000E+00 -0.51548461119E+03  0.51548617564E+03  0.12699999809E+01 0.  1.
    10030    2    1    2    0    0  0.00000000000E+00  0.00000000000E+00  0.82783133864E+03  0.18588027258E+04  0.16642844854E+04 0.  0.
        2    1    3    3  502    0  0.29128575829E+03 -0.69493303331E+03  0.80828811900E+03  0.11050380071E+04  0.25500000920E-02 0. -1.
       -2    1    3    3    0  502 -0.29128575829E+03  0.69493303331E+03  0.19543219638E+02  0.75376471873E+03  0.25500000920E-02 0.  1.
</event>
<event>
 5   0  0.4260395E-05  0.2349826E+04  0.7818609E-02  0.8458531E-01
       -1   -1    0    0    0  501  0.00000000000E+00  0.00000000000E+00  0.64855377498E+03  0.64855377500E+03  0.50400001928E-02 0. -1.
        1   -1    0    0  501    0  0.00000000000E+00  0.00000000000E+00 -0.21284595051E+04  0.21284595051E+04  0.50400001928E-02 0.  1.
    10030    2    1    2    0    0  0.00000000000E+00  0.00000000000E+00 -0.14799057301E+04  0.27770132801E+04  0.23498259059E+04 0.  0.
        4    1    3    3  502    0 -0.11163212983E+04  0.21018755253E+03 -0.38528274532E+03  0.11994984181E+04  0.12699999809E+01 0. -1.
       -4    1    3    3    0  502  0.11163212983E+04 -0.21018755253E+03 -0.10946229848E+04  0.15775148620E+04  0.12699999809E+01 0.  1.
</event>
<event>
 5   0  0.4208577E-05  0.2431307E+04  0.7818609E-02  0.8427875E-01
       -1   -1    0    0    0  501  0.00000000000E+00  0.00000000000E+00  0.80887731380E+03  0.80887731382E+03  0.50400001928E-02 0. -1.
        1   -1    0    0  501    0  0.00000000000E+00  0.00000000000E+00 -0.18269937691E+04  0.18269937691E+04  0.50400001928E-02 0.  1.
    10030    2    1    2    0    0  0.00000000000E+00  0.00000000000E+00 -0.10181164553E+04  0.26358710829E+04  0.24313073128E+04 0.  0.
        1    1    3    3  502    0 -0.55713194751E+03 -0.65986778002E+03  0.41849228769E+03  0.95966519626E+03  0.50400001928E-02 0. -1.
       -1    1    3    3    0  502  0.55713194751E+03  0.65986778002E+03 -0.14366087430E+04  0.16762058867E+04  0.50400001928E-02 0.  1.
</event>
<event>
 5   0  0.4061631E-05  0.2440689E+04  0.7818609E-02  0.8424425E-01
        1   -1    0    0  501    0  0.00000000000E+00  0.00000000000E+00  0.14335753672E+04  0.14335753672E+04  0.50400001928E-02 0.  1.
       -1   -1    0    0    0  501  0.00000000000E+00  0.00000000000E+00 -0.10388295710E+04  0.10388295710E+04  0.50400001928E-02 0. -1.
    10030    2    1    2    0    0  0.00000000000E+00  0.00000000000E+00  0.39474579623E+03  0.24724049382E+04  0.24406888239E+04 0.  0.
        3    1    3    3  502    0  0.12111930641E+04 -0.12758405385E+03  0.11907591289E+03  0.12237015210E+04  0.10100000352E+00 0. -1.
       -3    1    3    3    0  502 -0.12111930641E+04  0.12758405385E+03  0.27566988334E+03  0.12487034172E+04  0.10100000352E+00 0.  1.
</event>
<event>
 5   0  0.9491680E-05  0.2316980E+04  0.7818609E-02  0.8471256E-01
        2   -1    0    0  501    0  0.00000000000E+00  0.00000000000E+00  0.23625093060E+04  0.23625093060E+04  0.25500000920E-02 0.  1.
       -2   -1    0    0    0  501  0.00000000000E+00  0.00000000000E+00 -0.56808215395E+03  0.56808215396E+03  0.25500000920E-02 0. -1.
    10030    2    1    2    0    0  0.00000000000E+00  0.00000000000E+00  0.17944271520E+04  0.29305914599E+04  0.23169802548E+04 0.  0.
        5    1    3    3  502    0 -0.20016330841E+01 -0.95640452100E+03  0.17240731275E+04  0.19715891695E+04  0.46999998093E+01 0.  1.
       -5    1    3    3    0  502  0.20016330841E+01  0.95640452100E+03  0.70354024547E+02  0.95900229045E+03  0.46999998093E+01 0. -1.
</event>
<event>
 5   0  0.9519092E-05  0.2360574E+04  0.7818609E-02  0.8454413E-01
        2   -1    0    0  501    0  0.00000000000E+00  0.00000000000E+00  0.16300429129E+04  0.16300429129E+04  0.25500000920E-02 0. -1.
       -2   -1    0    0    0  501  0.00000000000E+00  0.00000000000E+00 -0.85462635137E+03  0.85462635137E+03  0.25500000920E-02 0.  1.
    10030    2    1    2    0    0  0.00000000000E+00  0.00000000000E+00  0.77541656153E+03  0.24846692643E+04  0.23605741905E+04 0.  0.
        4    1    3    3  502    0  0.11410375582E+04 -0.11066416483E+03  0.92120221674E+02  0.11500873944E+04  0.12699999809E+01 0. -1.
       -4    1    3    3    0  502 -0.11410375582E+04  0.11066416483E+03  0.68329633985E+03  0.13345818699E+04  0.12699999809E+01 0.  1.
</event>
<event>
 5   0  0.4018942E-05  0.2350306E+04  0.7818609E-02  0.8458346E-01
        1   -1    0    0  501    0  0.00000000000E+00  0.00000000000E+00  0.96539455420E+03  0.96539455421E+03  0.50400001928E-02 0. -1.
       -1   -1    0    0    0  501  0.00000000000E+00  0.00000000000E+00 -0.14304868976E+04  0.14304868976E+04  0.50400001928E-02 0.  1.
    10030    2    1    2    0    0  0.00000000000E+00  0.00000000000E+00 -0.46509234338E+03  0.23958814518E+04  0.23503057340E+04 0.  0.
        5    1    3    3  502    0  0.54521970874E+03 -0.69113158674E+03 -0.10261243844E+04  0.13519913991E+04  0.46999998093E+01 0.  1.
       -5    1    3    3    0  502 -0.54521970874E+03  0.69113158674E+03  0.56103204105E+03  0.10438900527E+04  0.46999998093E+01 0. -1.
</event>
<event>
 5   0  0.9519092E-05  0.2388979E+04  0.7818609E-02  0.8443641E-01
       -2   -1    0    0    0  501  0.00000000000E+00  0.00000000000E+00  0.19850781405E+04  0.19850781405E+04  0.25500000920E-02 0. -1.
        2   -1    0    0  501    0  0.00000000000E+00  0.00000000000E+00 -0.71876496452E+03  0.71876496452E+03  0.25500000920E-02 0.  1.
    10030    2    1    2    0    0  0.00000000000E+00  0.00000000000E+00  0.12663131760E+04  0.27038431050E+04  0.23889785426E+04 0.  0.
        4    1    3    3  502    0  0.59822426575E+03 -0.66367859467E+03 -0.26408327911E+03  0.93170979406E+03  0.12699999809E+01 0. -1.
       -4    1    3    3    0  502 -0.59822426575E+03  0.66367859467E+03  0.15303964551E+04  0.17721333110E+04  0.12699999809E+01 0.  1.
</event>
<event>
 5   0  0.4061631E-05  0.2398764E+04  0.7818609E-02  0.8439967E-01
       -1   -1    0    0    0  501  0.00000000000E+00  0.00000000000E+00  0.15199521510E+04  0.15199521510E+04  0.50400001928E-02 0.  1.
        1   -1    0    0  501    0  0.00000000000E+00  0.00000000000E+00 -0.94642235776E+03  0.94642235777E+03  0.50400001928E-02 0. -1.
    10030    2    1    2    0    0  0.00000000000E+00  0.00000000000E+00  0.57352979325E+03  0.24663745088E+04  0.23987635969E+04 0.  0.
        3    1    3    3  502    0  0.73824698876E+03  0.87678379716E+03 -0.76401955663E+02  0.11487365722E+04  0.10100000352E+00 0. -1.
       -3    1    3    3    0  502 -0.73824698876E+03 -0.87678379716E+03  0.64993174891E+03  0.13176379365E+04  0.10100000352E+00 0.  1.
</event>
<event>
 5   0  0.9750757E-05  0.2382923E+04  0.7818609E-02  0.8445925E-01
        2   -1    0    0  501    0  0.00000000000E+00  0.00000000000E+00  0.23197553920E+04  0.23197553920E+04  0.25500000920E-02 0.  1.
       -2   -1    0    0    0  501  0.00000000000E+00  0.00000000000E+00 -0.61195249094E+03  0.61195249094E+03  0.25500000920E-02 0. -1.
    10030    2    1    2    0    0  0.00000000000E+00  0.00000000000E+00  0.17078029010E+04  0.29317078829E+04  0.23829226513E+04 0.  0.
        2    1    3    3  502    0  0.48013931053E+03 -0.24109117750E+03 -0.45445763895E+03  0.70369770427E+03  0.25500000920E-02 0. -1.
       -2    1    3    3    0  502 -0.48013931053E+03  0.24109117750E+03  0.21622605400E+04  0.22280101787E+04  0.25500000920E-02 0.  1.
</event>
<event>
 5   0  0.9144244E-05  0.2294730E+04  0.7818609E-02  0.8480002E-01
       -2   -1    0    0    0  501  0.00000000000E+00  0.00000000000E+00  0.93215540494E+03  0.93215540494E+03  0.25500000920E-02 0.  1.
        2   -1    0    0  501    0  0.00000000000E+00  0.00000000000E+00 -0.14122605895E+04  0.14122605895E+04  0.25500000920E-02 0. -1.
    10030    2    1    2    0    0  0.00000000000E+00  0.00000000000E+00 -0.48010518460E+03  0.23444159945E+04  0.22947299115E+04 0.  0.
        1    1    3    3  502    0 -0.98003798108E+03  0.28391697606E+03 -0.77616508709E+03  0.12819966989E+04  0.50400001928E-02 0. -1.
       -1    1    3    3    0  502  0.98003798108E+03 -0.28391697606E+03  0.29605990249E+03  0.10624192955E+04  0.50400001928E-02 0.  1.
</event>
<event>
 5   0  0.4260395E-05  0.2417344E+04  0.7818609E-02  0.8433038E-01
        1   -1    0    0  501    0  0.00000000000E+00  0.00000000000E+00  0.15012618400E+04  0.15012618400E+04  0.50400001928E-02 0.  1.
       -1   -1    0    0    0  501  0.00000000000E+00  0.00000000000E+00 -0.97310706110E+03  0.97310706111E+03  0.50400001928E-02 0. -1.
    10030    2    1    2    0    0  0.00000000000E+00  0.00000000000E+00  0.52815477885E+03  0.24743689011E+04  0.24173444083E+04 0.  0.
        4    1    3    3  502    0 -0.78311964891E+03 -0.48216484560E+03  0.10668795108E+04  0.14085428024E+04  0.12699999809E+01 0.  1.
       -4    1    3    3    0  502  0.78311964891E+03  0.48216484560E+03 -0.53872473194E+03  0.10658260986E+04  0.12699999809E+01 0. -1.
</event>
<event>
 5   0  0.9144244E-05  0.2392308E+04  0.7818609E-02  0.8442389E-01
        2   -1    0    0  501    0  0.00000000000E+00  0.00000000000E+00  0.10148642390E+04  0.10148642390E+04  0.25500000920E-02 0. -1.
       -2   -1    0    0    0  501  0.00000000000E+00  0.00000000000E+00 -0.14098286651E+04  0.14098286651E+04  0.25500000920E-02 0.  1.
    10030    2    1    2    0    0  0.00000000000E+00  0.00000000000E+00 -0.39496442609E+03  0.24246929040E+04  0.23923082538E+04 0.  0.
        1    1    3    3  502    0 -0.13894549980E+03  0.10410970167E+04 -0.77759013388E+03  0.13068417143E+04  0.50400001928E-02 0.  1.
       -1    1    3    3    0  502  0.13894549980E+03 -0.10410970167E+04  0.38262570779E+03  0.11178511897E+04  0.50400001928E-02 0. -1.
</event>
<event>
 5   0  0.3934906E-05  0.2386300E+04  0.7818609E-02  0.8444651E-01
        1   -1    0    0  501    0  0.00000000000E+00  0.00000000000E+00  0.14574048136E+04  0.14574048136E+04  0.50400001928E-02 0.  1.
       -1   -1    0    0    0  501  0.00000000000E+00  0.00000000000E+00 -0.97680923791E+03  0.97680923793E+03  0.50400001928E-02 0. -1.
    10030    2    1    2    0    0  0.00000000000E+00  0.00000000000E+00  0.48059557568E+03  0.24342140515E+04  0.23862996336E+04 0.  0.
        2    1    3    3  502    0 -0.31248224105E+03  0.44514913439E+03  0.13236022335E+04  0.14309876922E+04  0.25500000920E-02 0.  1.
       -2    1    3    3    0  502  0.31248224105E+03 -0.44514913439E+03 -0.84300665783E+03  0.10032263593E+04  0.25500000920E-02 0. -1.
</event>
<event>
 5   0  0.9519092E-05  0.2701524E+04  0.7818609E-02  0.8334511E-01
        2   -1    0    0  501    0  0.00000000000E+00  0.00000000000E+00  0.29514896127E+04  0.29514896127E+04  0.25500000920E-02 0. -1.
       -2   -1    0    0    0  501  0.00000000000E+00  0.00000000000E+00 -0.61818219718E+03  0.61818219718E+03  0.25500000920E-02 0.  1.
    10030    2    1    2    0    0  0.00000000000E+00  0.00000000000E+00  0.23333074156E+04  0.35696718099E+04  0.27015242614E+04 0.  0.
        4    1    3    3  502    0  0.38039901301E+03 -0.95086471376E+03  0.23304286521E+04  0.25455346057E+04  0.12699999809E+01 0. -1.
       -4    1    3    3    0  502 -0.38039901301E+03  0.95086471376E+03  0.28787634233E+01  0.10241372043E+04  0.12699999809E+01 0.  1.
</event>
<event>
 5   0  0.9182865E-05  0.2391323E+04  0.7818609E-02  0.8442759E-01
        2   -1    0    0  501    0  0.00000000000E+00  0.00000000000E+00  0.16087622754E+04  0.16087622754E+04  0.25500000920E-02 0.  1.
       -2   -1    0    0    0  501  0.00000000000E+00  0.00000000000E+00 -0.88863738070E+03  0.88863738071E+03  0.25500000920E-02 0. -1.
    10030    2    1    2    0    0  0.00000000000E+00  0.00000000000E+00  0.72012489473E+03  0.24973996561E+04  0.23913228930E+04 0.  0.
        3    1    3    3  502    0 -0.68102773542E+03  0.45408485169E+03 -0.55015768372E+03  0.98623796120E+03  0.10100000352E+00 0. -1.
       -3    1    3    3    0  502  0.68102773542E+03 -0.45408485169E+03  0.12702825785E+04  0.15111616949E+04  0.10100000352E+00 0.  1.
</event>
<event>
 5   0  0.3934906E-05  0.2397891E+04  0.7818609E-02  0.8440293E-01
       -1   -1    0    0    0  501  0.00000000000E+00  0.00000000000E+00  0.99059045561E+03  0.99059045562E+03  0.50400001928E-02 0. -1.
        1   -1    0    0  501    0  0.00000000000E+00  0.00000000000E+00 -0.14511251737E+04  0.14511251737E+04  0.50400001928E-02 0.  1.
    10030    2    1    2    0    0  0.00000000000E+00  0.00000000000E+00 -0.46053471808E+03  0.24417156293E+04  0.23978913628E+04 0.  0.
        2    1    3    3  502    0  0.68943363376E+03  0.97735644834E+03 -0.14552142360E+03  0.12048737889E+04  0.25500000920E-02 0.  1.
       -2    1    3    3    0  502 -0.68943363376E+03 -0.97735644834E+03 -0.31501329447E+03  0.12368418404E+04  0.25500000920E-02 0. -1.
</event>
<event>
 5   0  0.4260395E-05  0.2346765E+04  0.7818609E-02  0.8459707E-01
       -1   -1    0    0    0  501  0.00000000000E+00  0.00000000000E+00  0.96123696535E+03  0.96123696536E+03  0.50400001928E-02 0. -1.
        1   -1    0    0  501    0  0.00000000000E+00  0.00000000000E+00 -0.14323490330E+04  0.14323490331E+04  0.50400001928E-02 0.  1.
    10030    2    1    2    0    0  0.00000000000E+00  0.00000000000E+00 -0.47111206770E+03  0.23935859984E+04  0.23467652954E+04 0.  0.
        4    1    3    3  502    0  0.54784779361E+03  0.57740352201E+03  0.64378928574E+03  0.10237178759E+04  0.12699999809E+01 0. -1.
       -4    1    3    3    0  502 -0.54784779361E+03 -0.57740352201E+03 -0.11149013534E+04  0.13698681225E+04  0.12699999809E+01 0.  1.
</event>
<event>
 5   0  0.4061631E-05  0.2558370E+04  0.7818609E-02  0.8382481E-01
        1   -1    0    0  501    0  0.00000000000E+00  0.00000000000E+00  0.19426375855E+04  0.19426375855E+04  0.50400001928E-02 0. -1.
       -1   -1    0    0    0  501  0.00000000000E+00  0.00000000000E+00 -0.84231564105E+03  0.84231564107E+03  0.50400001928E-02 0.  1.
    10030    2    1    2    0    0  0.00000000000E+00  0.00000000000E+00  0.11003219445E+04  0.27849532266E+04  0.25583698116E+04 0.  0.
        3    1    3    3  502    0 -0.10549206022E+04  0.70763218129E+03  0.38610424143E+03  0.13276585692E+04  0.10100000352E+00 0.  1.
       -3    1    3    3    0  502  0.10549206022E+04 -0.70763218129E+03  0.71421770304E+03  0.14572946574E+04  0.10100000352E+00 0. -1.
</event>
<event>
 5   0  0.4061631E-05  0.1463305E+04  0.7818609E-02  0.8909228E-01
       -1   -1    0    0    0  501  0.00000000000E+00  0.00000000000E+00  0.81540416655E+03  0.81540416657E+03  0.50400001928E-02 0.  1.
        1   -1    0    0  501    0  0.00000000000E+00  0.00000000000E+00 -0.65650337889E+03  0.65650337891E+03  0.50400001928E-02 0. -1.
    10030    2    1    2    0    0  0.00000000000E+00  0.00000000000E+00  0.15890078766E+03  0.14719075455E+04  0.14633052867E+04 0.  0.
        3    1    3    3  502    0 -0.21693428544E+03 -0.52303713395E+03 -0.38661699840E+03  0.68563914805E+03  0.10100000352E+00 0. -1.
       -3    1    3    3    0  502  0.21693428544E+03  0.52303713395E+03  0.54551778605E+03  0.78626839743E+03  0.10100000352E+00 0.  1.
</event>
<event>
 5   0  0.9182865E-05  0.2405488E+04  0.7818609E-02  0.8437452E-01
        2   -1    0    0  501    0  0.00000000000E+00  0.00000000000E+00  0.21213579304E+04  0.21213579304E+04  0.25500000920E-02 0. -1.
       -2   -1    0    0    0  501  0.00000000000E+00  0.00000000000E+00 -0.68191858232E+03  0.68191858233E+03  0.25500000920E-02 0.  1.
    10030    2    1    2    0    0  0.00000000000E+00  0.00000000000E+00  0.14394393481E+04  0.28032765128E+04  0.24054882187E+04 0.  0.
        3    1    3    3  502    0  0.85898815744E+03 -0.80297344259E+03  0.10144593386E+04  0.15529825382E+04  0.10100000352E+00 0.  1.
       -3    1    3    3    0  502 -0.85898815744E+03  0.80297344259E+03  0.42498000954E+03  0.12502939746E+04  0.10100000352E+00 0. -1.
</event>
<event>
 5   0  0.9491680E-05  0.2255859E+04  0.7818609E-02  0.8495532E-01
       -2   -1    0    0    0  501  0.00000000000E+00  0.00000000000E+00  0.10753049858E+04  0.10753049858E+04  0.25500000920E-02 0.  1.
        2   -1    0    0  501    0  0.00000000000E+00  0.00000000000E+00 -0.11831292516E+04  0.11831292517E+04  0.25500000920E-02 0. -1.
    10030    2    1    2    0    0  0.00000000000E+00  0.00000000000E+00 -0.10782426587E+03  0.22584342374E+04  0.22558588459E+04 0.  0.
        5    1    3    3  502    0  0.10472761156E+04  0.12694895473E+03  0.34566680570E+03  0.11101400497E+04  0.46999998093E+01 0. -1.
       -5    1    3    3    0  502 -0.10472761156E+04 -0.12694895473E+03 -0.45349107157E+03  0.11482941877E+04  0.46999998093E+01 0.  1.
</event>
<event>
 5   0  0.9750757E-05  0.2472443E+04  0.7818609E-02  0.8412869E-01
       -2   -1    0    0    0  501  0.00000000000E+00  0.00000000000E+00  0.11579209369E+04  0.11579209369E+04  0.25500000920E-02 0.  1.
        2   -1    0    0  501    0  0.00000000000E+00  0.00000000000E+00 -0.13198164977E+04  0.13198164977E+04  0.25500000920E-02 0. -1.
    10030    2    1    2    0    0  0.00000000000E+00  0.00000000000E+00 -0.16189556079E+03  0.24777374346E+04  0.24724426429E+04 0.  0.
        2    1    3    3  502    0  0.78257311407E+02  0.62459362036E+03  0.98528641730E+03  0.11692008901E+04  0.25500000920E-02 0.  1.
       -2    1    3    3    0  502 -0.78257311407E+02 -0.62459362036E+03 -0.11471819781E+04  0.13085365445E+04  0.25500000920E-02 0. -1.
</event>
<event>
 5   0  0.4061631E-05  0.2416178E+04  0.7818609E-02  0.8433472E-01
        1   -1    0    0  501    0  0.00000000000E+00  0.00000000000E+00  0.97927330060E+03  0.97927330061E+03  0.50400001928E-02 0.  1.
       -1   -1    0    0    0  501  0.00000000000E+00  0.00000000000E+00 -0.14903689361E+04  0.14903689361E+04  0.50400001928E-02 0. -1.
    10030    2    1    2    0    0  0.00000000000E+00  0.00000000000E+00 -0.51109563552E+03  0.24696422367E+04  0.24161775657E+04 0.  0.
        3    1    3    3  502    0  0.28879200657E+03  0.54090253175E+03 -0.13194950280E+04  0.14550063612E+04  0.10100000352E+00 0. -1.
       -3    1    3    3    0  502 -0.28879200657E+03 -0.54090253175E+03  0.80839939252E+03  0.10146358755E+04  0.10100000352E+00 0.  1.
</event>
<event>
 5   0  0.9750757E-05  0.2432174E+04  0.7818609E-02  0.8427555E-01
       -2   -1    0    0    0  501  0.00000000000E+00  0.00000000000E+00  0.65550717220E+03  0.65550717220E+03  0.25500000920E-02 0.  1.
        2   -1    0    0  501    0  0.00000000000E+00  0.00000000000E+00 -0.22560669537E+04  0.22560669537E+04  0.25500000920E-02 0. -1.
    10030    2    1    2    0    0  0.00000000000E+00  0.00000000000E+00 -0.16005597815E+04  0.29115741259E+04  0.24321743927E+04 0.  0.
        2    1    3    3  502    0 -0.89943130913E+03  0.81393119265E+02  0.17465853356E+03  0.91984081398E+03  0.25500000920E-02 0.  1.
       -2    1    3    3    0  502  0.89943130913E+03 -0.81393119265E+02 -0.17752183151E+04  0.19917333120E+04  0.25500000920E-02 0. -1.
</event>
<event>
 5   0  0.4208577E-05  0.2377948E+04  0.7818609E-02  0.8447806E-01
        1   -1    0    0  501    0  0.00000000000E+00  0.00000000000E+00  0.16672592210E+04  0.16672592210E+04  0.50400001928E-02 0.  1.
       -1   -1    0    0    0  501  0.00000000000E+00  0.00000000000E+00 -0.84789417645E+03  0.84789417646E+03  0.50400001928E-02 0. -1.
    10030    2    1    2    0    0  0.00000000000E+00  0.00000000000E+00  0.81936504454E+03  0.25151533975E+04  0.23779481778E+04 0.  0.
        1    1    3    3  502    0  0.83814559303E+03  0.41490334630E+02 -0.48120516741E+03  0.96735096845E+03  0.50400001928E-02 0. -1.
       -1    1    3    3    0  502 -0.83814559303E+03 -0.41490334630E+02  0.13005702120E+04  0.15478024290E+04  0.50400001928E-02 0.  1.
</event>
<event>
 5   0  0.4018942E-05  0.2465423E+04  0.7818609E-02  0.8415408E-01
        1   -1    0    0  501    0  0.00000000000E+00  0.00000000000E+00  0.15744716396E+04  0.15744716397E+04  0.50400001928E-02 0.  1.
       -1   -1    0    0    0  501  0.00000000000E+00  0.00000000000E+00 -0.96513521031E+03  0.96513521033E+03  0.50400001928E-02 0. -1.
    10030    2    1    2    0    0  0.00000000000E+00  0.00000000000E+00  0.60933642934E+03  0.25396068500E+04  0.24654233041E+04 0.  0.
        5    1    3    3  502    0 -0.59467255423E+03  0.15355491444E+03  0.14056317759E+04  0.15339613222E+04  0.46999998093E+01 0.  1.
       -5    1    3    3    0  502  0.59467255423E+03 -0.15355491444E+03 -0.79629534661E+03  0.10056455278E+04  0.46999998093E+01 0. -1.
</event>
<event>
 5   0  0.9519092E-05  0.2257660E+04  0.7818609E-02  0.8494805E-01
        2   -1    0    0  501    0  0.00000000000E+00  0.00000000000E+00  0.14709267075E+04  0.14709267075E+04  0.25500000920E-02 0.  1.
       -2   -1    0    0    0  501  0.00000000000E+00  0.00000000000E+00 -0.86629544707E+03  0.86629544707E+03  0.25500000920E-02 0. -1.
    10030    2    1    2    0    0  0.00000000000E+00  0.00000000000E+00  0.60463126046E+03  0.23372221546E+04  0.22576599476E+04 0.  0.
        4    1    3    3  502    0  0.53986217520E+03  0.40762824311E+03  0.12378456599E+04  0.14106294494E+04  0.12699999809E+01 0.  1.
       -4    1    3    3    0  502 -0.53986217520E+03 -0.40762824311E+03 -0.63321439945E+03  0.92659270522E+03  0.12699999809E+01 0. -1.
</event>
<event>
 5   0  0.4061631E-05  0.2375711E+04  0.7818609E-02  0.8448653E-01
       -1   -1    0    0    0  501  0.00000000000E+00  0.00000000000E+00  0.15586392794E+04  0.15586392794E+04  0.50400001928E-02 0.  1.
        1   -1    0    0  501    0  0.00000000000E+00  0.00000000000E+00 -0.90527721145E+03  0.90527721146E+03  0.50400001928E-02 0. -1.
    10030    2    1    2    0    0  0.00000000000E+00  0.00000000000E+00  0.65336206792E+03  0.24639164908E+04  0.23757109424E+04 0.  0.
        3    1    3    3  502    0 -0.94353028912E+03  0.37524281897E+03 -0.31260055784E+03  0.10624385623E+04  0.10100000352E+00 0. -1.
       -3    1    3    3    0  502  0.94353028912E+03 -0.37524281897E+03  0.96596262576E+03  0.14014779286E+04  0.10100000352E+00 0.  1.
</event>
<event>
 5   0  0.3234750E-05  0.2447126E+04  0.7818609E-02  0.8422068E-01
        3   -1    0    0  501    0  0.00000000000E+00  0.00000000000E+00  0.18710398313E+04  0.18710398340E+04  0.10100000352E+00 0. -1.
       -3   -1    0    0    0  501  0.00000000000E+00  0.00000000000E+00 -0.80014668389E+03  0.80014669027E+03  0.10100000352E+00 0.  1.
    10030    2    1    2    0    0  0.00000000000E+00  0.00000000000E+00  0.10708931474E+04  0.26711865243E+04  0.24471259294E+04 0.  0.
        5    1    3    3  502    0 -0.49433420549E+03 -0.10871577596E+04  0.82590416736E+03  0.14520392848E+04  0.46999998093E+01 0.  1.
       -5    1    3    3    0  502  0.49433420549E+03  0.10871577596E+04  0.24498898001E+03  0.12191472394E+04  0.46999998093E+01 0. -1.
</event>
<event>
 5   0  0.4208577E-05  0.2047720E+04  0.7818609E-02  0.8584629E-01
       -1   -1    0    0    0  501  0.00000000000E+00  0.00000000000E+00  0.69618156860E+03  0.69618156862E+03  0.50400001928E-02 0.  1.
        1   -1    0    0  501    0  0.00000000000E+00  0.00000000000E+00 -0.15057696688E+04  0.15057696688E+04  0.50400001928E-02 0. -1.
    10030    2    1    2    0    0  0.00000000000E+00  0.00000000000E+00 -0.80958810016E+03  0.22019512374E+04  0.20477197953E+04 0.  0.
        1    1    3    3  502    0  0.40476665088E+02 -0.51696165684E+03  0.54453714570E+03  0.75193644554E+03  0.50400001928E-02 0.  1.
       -1    1    3    3    0  502 -0.40476665088E+02  0.51696165684E+03 -0.13541252459E+04  0.14500147918E+04  0.50400001928E-02 0. -1.
</event>
<event>
 5   0  0.3934906E-05  0.2033753E+04  0.7818609E-02  0.8591001E-01
       -1   -1    0    0    0  501  0.00000000000E+00  0.00000000000E+00  0.14245603457E+04  0.14245603457E+04  0.50400001928E-02 0.  1.
        1   -1    0    0  501    0  0.00000000000E+00  0.00000000000E+00 -0.72586417867E+03  0.72586417869E+03  0.50400001928E-02 0. -1.
    10030    2    1    2    0    0  0.00000000000E+00  0.00000000000E+00  0.69869616705E+03  0.21504245244E+04  0.20337525172E+04 0.  0.
        2    1    3    3  502    0  0.61132662439E+03  0.11296106921E+03  0.12002217088E+04  0.13516702982E+04  0.25500000920E-02 0.  1.
       -2    1    3    3    0  502 -0.61132662439E+03 -0.11296106921E+03 -0.50152554174E+03  0.79875422620E+03  0.25500000920E-02 0. -1.
</event>
<event>
 5   0  0.4260395E-05  0.2388039E+04  0.7818609E-02  0.8443995E-01
        1   -1    0    0  501    0  0.00000000000E+00  0.00000000000E+00  0.17947577451E+04  0.17947577451E+04  0.50400001928E-02 0. -1.
       -1   -1    0    0    0  501  0.00000000000E+00  0.00000000000E+00 -0.79435908447E+03  0.79435908448E+03  0.50400001928E-02 0.  1.
    10030    2    1    2    0    0  0.00000000000E+00  0.00000000000E+00  0.10003986606E+04  0.25891168296E+04  0.23880386255E+04 0.  0.
        4    1    3    3  502    0 -0.10715278145E+03 -0.23359873172E+03 -0.76401508209E+03  0.80608358412E+03  0.12699999809E+01 0.  1.
       -4    1    3    3    0  502  0.10715278145E+03  0.23359873172E+03  0.17644137427E+04  0.17830332454E+04  0.12699999809E+01 0. -1.
</event>
<event>
 5   0  0.3234750E-05  0.2386867E+04  0.7818609E-02  0.8444437E-01
       -3   -1    0    0    0  501  0.00000000000E+00  0.00000000000E+00  0.11629284183E+04  0.11629284227E+04  0.10100000352E+00 0. -1.
        3   -1    0    0  501    0  0.00000000000E+00  0.00000000000E+00 -0.12247387257E+04  0.12247387299E+04  0.10100000352E+00 0.  1.
    10030    2    1    2    0    0  0.00000000000E+00  0.00000000000E+00 -0.61810307347E+02  0.23876671526E+04  0.23868669669E+04 0.  0.
        4    1    3    3  502    0  0.95993021667E+02  0.86452724305E+03  0.78647333079E+03  0.11726738366E+04  0.12699999809E+01 0. -1.
       -4    1    3    3    0  502 -0.95993021667E+02 -0.86452724305E+03 -0.84828363814E+03  0.12149933160E+04  0.12699999809E+01 0.  1.
</event>
<event>
 5   0  0.9144244E-05  0.2423211E+04  0.7818609E-02  0.8430864E-01
       -2   -1    0    0    0  501  0.00000000000E+00  0.00000000000E+00  0.12920773840E+04  0.12920773840E+04  0.25500000920E-02 0. -1.
        2   -1    0    0  501    0  0.00000000000E+00  0.00000000000E+00 -0.11361457684E+04  0.11361457684E+04  0.25500000920E-02 0.  1.
    10030    2    1    2    0    0  0.00000000000E+00  0.00000000000E+00  0.15593161557E+03  0.24282231524E+04  0.24232113010E+04 0.  0.
        1    1    3    3  502    0  0.75366772568E+03 -0.32535675516E+03 -0.81500926541E+03  0.11567679809E+04  0.50400001928E-02 0.  1.
       -1    1    3    3    0  502 -0.75366772568E+03  0.32535675516E+03  0.97094088099E+03  0.12714551716E+04  0.50400001928E-02 0. -1.
</event>
<event>
 5   0  0.3934906E-05  0.2380132E+04  0.7818609E-02  0.8446979E-01
       -1   -1    0    0    0  501  0.00000000000E+00  0.00000000000E+00  0.86831747696E+03  0.86831747697E+03  0.50400001928E-02 0.  1.
        1   -1    0    0  501    0  0.00000000000E+00  0.00000000000E+00 -0.16310360361E+04  0.16310360361E+04  0.50400001928E-02 0. -1.
    10030    2    1    2    0    0  0.00000000000E+00  0.00000000000E+00 -0.76271855911E+03  0.24993535130E+04  0.23801320095E+04 0.  0.
        2    1    3    3  502    0 -0.39725231810E+03 -0.52906740418E+03  0.65739997885E+03  0.93268239750E+03  0.25500000920E-02 0.  1.
       -2    1    3    3    0  502  0.39725231810E+03  0.52906740418E+03 -0.14201185380E+04  0.15666711155E+04  0.25500000920E-02 0. -1.
</event>
<event>
 5   0  0.9182865E-05  0.1284673E+04  0.7818609E-02  0.9041808E-01
       -2   -1    0    0    0  501  0.00000000000E+00  0.00000000000E+00  0.70014419245E+03  0.70014419246E+03  0.25500000920E-02 0.  1.
        2   -1    0    0  501    0  0.00000000000E+00  0.00000000000E+00 -0.58930193921E+03  0.58930193922E+03  0.25500000920E-02 0. -1.
    10030    2    1    2    0    0  0.00000000000E+00  0.00000000000E+00  0.11084225324E+03  0.12894461317E+04  0.12846732353E+04 0.  0.
        3    1    3    3  502    0 -0.11089234801E+03 -0.18592397146E+03  0.66242533439E+03  0.69690183660E+03  0.10100000352E+00 0.  1.
       -3    1    3    3    0  502  0.11089234801E+03  0.18592397146E+03 -0.55158308115E+03  0.59254429507E+03  0.10100000352E+00 0. -1.
</event>
<event>
 5   0  0.4260395E-05  0.2456637E+04  0.7818609E-02  0.8418599E-01
        1   -1    0    0  501    0  0.00000000000E+00  0.00000000000E+00  0.17809790248E+04  0.17809790248E+04  0.50400001928E-02 0.  1.
       -1   -1    0    0    0  501  0.00000000000E+00  0.00000000000E+00 -0.84715586915E+03  0.84715586917E+03  0.50400001928E-02 0. -1.
    10030    2    1    2    0    0  0.00000000000E+00  0.00000000000E+00  0.93382315562E+03  0.26281348940E+04  0.24566374040E+04 0.  0.
        4    1    3    3  502    0 -0.81533147964E+03  0.16051403434E+03  0.14346224723E+04  0.16579123703E+04  0.12699999809E+01 0.  1.
       -4    1    3    3    0  502  0.81533147964E+03 -0.16051403434E+03 -0.50079931663E+03  0.97022252362E+03  0.12699999809E+01 0. -1.
</event>
<event>
 5   0  0.9144244E-05  0.2045999E+04  0.7818609E-02  0.8585411E-01
        2   -1    0    0  501    0  0.00000000000E+00  0.00000000000E+00  0.18498486020E+04  0.18498486020E+04  0.25500000920E-02 0.  1.
       -2   -1    0    0    0  501  0.00000000000E+00  0.00000000000E+00 -0.56573736832E+03  0.56573736832E+03  0.25500000920E-02 0. -1.
    10030    2    1    2    0    0  0.00000000000E+00  0.00000000000E+00  0.12841112337E+04  0.24155859703E+04  0.20459994916E+04 0.  0.
        1    1    3    3  502    0 -0.55010270039E+03  0.68579524034E+03  0.24501059588E+02  0.87950463023E+03  0.50400001928E-02 0. -1.
       -1    1    3    3    0  502  0.55010270039E+03 -0.68579524034E+03  0.12596101741E+04  0.15360813401E+04  0.50400001928E-02 0.  1.
</event>
<event>
 5   0  0.4061631E-05  0.1350757E+04  0.7818609E-02  0.8990255E-01
       -1   -1    0    0    0  501  0.00000000000E+00  0.00000000000E+00  0.55317619887E+03  0.55317619889E+03  0.50400001928E-02 0.  1.
        1   -1    0    0  501    0  0.00000000000E+00  0.00000000000E+00 -0.82457712819E+03  0.82457712820E+03  0.50400001928E-02 0. -1.
    10030    2    1    2    0    0  0.00000000000E+00  0.00000000000E+00 -0.27140092932E+03  0.13777533271E+04  0.13507574786E+04 0.  0.
        3    1    3    3  502    0 -0.48255962753E+03  0.13283721777E+03  0.32682331204E+03  0.59776501072E+03  0.10100000352E+00 0.  1.
       -3    1    3    3    0  502  0.48255962753E+03 -0.13283721777E+03 -0.59822424136E+03  0.77998831638E+03  0.10100000352E+00 0. -1.
</event>
<event>
 5   0  0.9519092E-05  0.2381864E+04  0.7818609E-02  0.8446325E-01
        2   -1    0    0  501    0  0.00000000000E+00  0.00000000000E+00  0.17576686017E+04  0.17576686017E+04  0.25500000920E-02 0.  1.
       -2   -1    0    0    0  501  0.00000000000E+00  0.00000000000E+00 -0.80693207808E+03  0.80693207808E+03  0.25500000920E-02 0. -1.
    10030    2    1    2    0    0  0.00000000000E+00  0.00000000000E+00  0.95073652362E+03  0.25646006798E+04  0.23818641249E+04 0.  0.
        4    1    3    3  502    0 -0.60010593178E+03 -0.89454936828E+03 -0.71507832855E+02  0.10795650442E+04  0.12699999809E+01 0. -1.
       -4    1    3    3    0  502  0.60010593178E+03  0.89454936828E+03  0.10222443565E+04  0.14850356356E+04  0.12699999809E+01 0.  1.
</event>
<event>
 5   0  0.9519092E-05  0.2226634E+04  0.7818609E-02  0.8507423E-01
        2   -1    0    0  501    0  0.00000000000E+00  0.00000000000E+00  0.96539008299E+03  0.96539008299E+03  0.25500000920E-02 0. -1.
       -2   -1    0    0    0  501  0.00000000000E+00  0.00000000000E+00 -0.12839109505E+04  0.12839109505E+04  0.25500000920E-02 0.  1.
    10030    2    1    2    0    0  0.00000000000E+00  0.00000000000E+00 -0.31852086749E+03  0.22493010335E+04  0.22266341406E+04 0.  0.
        4    1    3    3  502    0 -0.50794587023E+03  0.90718235237E+03 -0.56141412502E+03  0.11815990268E+04  0.12699999809E+01 0.  1.
       -4    1    3    3    0  502  0.50794587023E+03 -0.90718235237E+03  0.24289325753E+03  0.10677020066E+04  0.12699999809E+01 0. -1.
</event>
<event>
 5   0  0.9491680E-05  0.2484644E+04  0.7818609E-02  0.8408477E-01
       -2   -1    0    0    0  501  0.00000000000E+00  0.00000000000E+00  0.78564370372E+03  0.78564370372E+03  0.25500000920E-02 0.  1.
        2   -1    0    0  501    0  0.00000000000E+00  0.00000000000E+00 -0.19644583084E+04  0.19644583084E+04  0.25500000920E-02 0. -1.
    10030    2    1    2    0    0  0.00000000000E+00  0.00000000000E+00 -0.11788146047E+04  0.27501020122E+04  0.24846442814E+04 0.  0.
        5    1    3    3  502    0 -0.68001925624E+03  0.90818040212E+03 -0.29249947556E+02  0.11349429418E+04  0.46999998093E+01 0.  1.
       -5    1    3    3    0  502  0.68001925624E+03 -0.90818040212E+03 -0.11495646572E+04  0.16151590704E+04  0.46999998093E+01 0. -1.
</event>
<event>
 5   0  0.9750757E-05  0.2381819E+04  0.7818609E-02  0.8446342E-01
       -2   -1    0    0    0  501  0.00000000000E+00  0.00000000000E+00  0.10850582685E+04  0.10850582685E+04  0.25500000920E-02 0. -1.
        2   -1    0    0  501    0  0.00000000000E+00  0.00000000000E+00 -0.13070874135E+04  0.13070874135E+04  0.25500000920E-02 0.  1.
    10030    2    1    2    0    0  0.00000000000E+00  0.00000000000E+00 -0.22202914500E+03  0.23921456820E+04  0.23818194773E+04 0.  0.
        2    1    3    3  502    0 -0.63749850850E+03 -0.51041929837E+03 -0.98156762943E+03  0.12768740030E+04  0.25500000920E-02 0.  1.
       -2    1    3    3    0  502  0.63749850850E+03  0.51041929837E+03  0.75953848443E+03  0.11152716789E+04  0.25500000920E-02 0. -1.
</event>
<event>
 5   0  0.9182865E-05  0.2401838E+04  0.7818609E-02  0.8438816E-01
        2   -1    0    0  501    0  0.00000000000E+00  0.00000000000E+00  0.11278371487E+04  0.11278371487E+04  0.25500000920E-02 0. -1.
       -2   -1    0    0    0  501  0.00000000000E+00  0.00000000000E+00 -0.12787359330E+04  0.12787359330E+04  0.25500000920E-02 0.  1.
    10030    2    1    2    0    0  0.00000000000E+00  0.00000000000E+00 -0.15089878432E+03  0.24065730817E+04  0.24018375371E+04 0.  0.
        3    1    3    3  502    0  0.63310550124E+03  0.69376044311E+03 -0.82530969391E+03  0.12503048545E+04  0.10100000352E+00 0.  1.
       -3    1    3    3    0  502 -0.63310550124E+03 -0.69376044311E+03  0.67441090959E+03  0.11562682272E+04  0.10100000352E+00 0. -1.
</event>
<event>
 5   0  0.9182865E-05  0.2382467E+04  0.7818609E-02  0.8446097E-01
        2   -1    0    0  501    0  0.00000000000E+00  0.00000000000E+00  0.86575715016E+03  0.86575715017E+03  0.25500000920E-02 0. -1.
       -2   -1    0    0    0  501  0.00000000000E+00  0.00000000000E+00 -0.16390708400E+04  0.16390708400E+04  0.25500000920E-02 0.  1.
    10030    2    1    2    0    0  0.00000000000E+00  0.00000000000E+00 -0.77331368983E+03  0.25048279902E+04  0.23824670402E+04 0.  0.
        3    1    3    3  502    0 -0.59137325143E+03  0.21080096808E+03  0.67769955171E+03  0.92381603322E+03  0.10100000352E+00 0. -1.
       -3    1    3    3    0  502  0.59137325143E+03 -0.21080096808E+03 -0.14510132415E+04  0.15810119569E+04  0.10100000352E+00 0.  1.
</event>
<event>
 5   0  0.9750757E-05  0.2409120E+04  0.7818609E-02  0.8436097E-01
        2   -1    0    0  501    0  0.00000000000E+00  0.00000000000E+00  0.15969399252E+04  0.15969399252E+04  0.25500000920E-02 0.  1.
       -2   -1    0    0    0  501  0.00000000000E+00  0.00000000000E+00 -0.90859054998E+03  0.90859054998E+03  0.25500000920E-02 0. -1.
    10030    2    1    2    0    0  0.00000000000E+00  0.00000000000E+00  0.68834937522E+03  0.25055304752E+04  0.24091197769E+04 0.  0.
        2    1    3    3  502    0 -0.96068268343E+03 -0.28592973356E+03  0.10389646264E+04  0.14436462606E+04  0.25500000920E-02 0.  1.
       -2    1    3    3    0  502  0.96068268343E+03  0.28592973356E+03 -0.35061525122E+03  0.10618842146E+04  0.25500000920E-02 0. -1.
</event>
<event>
 5   0  0.3234750E-05  0.1241584E+04  0.7818609E-02  0.9077217E-01
        4   -1    0    0  501    0  0.00000000000E+00  0.00000000000E+00  0.38731355223E+03  0.38731563439E+03  0.12699999809E+01 0. -1.
       -4   -1    0    0    0  501  0.00000000000E+00  0.00000000000E+00 -0.99501028862E+03  0.99501109912E+03  0.12699999809E+01 0.  1.
    10030    2    1    2    0    0  0.00000000000E+00  0.00000000000E+00 -0.60769673639E+03  0.13823267335E+04  0.12415844211E+04 0.  0.
        5    1    3    3  502    0  0.50083069627E+02  0.22784599069E+03 -0.94433235532E+03  0.97273212995E+03  0.46999998093E+01 0.  1.
       -5    1    3    3    0  502 -0.50083069627E+02 -0.22784599069E+03  0.33663561893E+03  0.40959460356E+03  0.46999998093E+01 0. -1.
</event>
<event>
 5   0  0.9182865E-05  0.1955166E+04  0.7818609E-02  0.8627874E-01
        2   -1    0    0  501    0  0.00000000000E+00  0.00000000000E+00  0.10738894603E+04  0.10738894603E+04  0.25500000920E-02 0. -1.
       -2   -1    0    0    0  501  0.00000000000E+00  0.00000000000E+00 -0.88991289157E+03  0.88991289158E+03  0.25500000920E-02 0.  1.
    10030    2    1    2    0    0  0.00000000000E+00  0.00000000000E+00  0.18397656875E+03  0.19638023519E+04  0.19551655427E+04 0.  0.
        3    1    3    3  502    0  0.46484252921E+03  0.21569361685E+03  0.92817152752E+03  0.10602380431E+04  0.10100000352E+00 0. -1.
       -3    1    3    3    0  502 -0.46484252921E+03 -0.21569361685E+03 -0.74419495877E+03  0.90356430882E+03  0.10100000352E+00 0.  1.
</event>
<event>
 5   0  0.4208577E-05  0.2396388E+04  0.7818609E-02  0.8440857E-01
        1   -1    0    0  501    0  0.00000000000E+00  0.00000000000E+00  0.11551696283E+04  0.11551696283E+04  0.50400001928E-02 0. -1.
       -1   -1    0    0    0  501  0.00000000000E+00  0.00000000000E+00 -0.12428209786E+04  0.12428209786E+04  0.50400001928E-02 0.  1.
    10030    2    1    2    0    0  0.00000000000E+00  0.00000000000E+00 -0.87651350365E+02  0.23979906069E+04  0.23963881555E+04 0.  0.
        1    1    3    3  502    0  0.44973446225E+03 -0.15850816854E+03  0.10561286905E+04  0.11587897725E+04  0.50400001928E-02 0. -1.
       -1    1    3    3    0  502 -0.44973446225E+03  0.15850816854E+03 -0.11437800409E+04  0.12392008344E+04  0.50400001928E-02 0.  1.
</event>
<event>
 5   0  0.9144244E-05  0.2502894E+04  0.7818609E-02  0.8401955E-01
       -2   -1    0    0    0  501  0.00000000000E+00  0.00000000000E+00  0.96387831745E+03  0.96387831745E+03  0.25500000920E-02 0. -1.
        2   -1    0    0  501    0  0.00000000000E+00  0.00000000000E+00 -0.16248110534E+04  0.16248110534E+04  0.25500000920E-02 0.  1.
    10030    2    1    2    0    0  0.00000000000E+00  0.00000000000E+00 -0.66093273594E+03  0.25886893708E+04  0.25028944399E+04 0.  0.
        1    1    3    3  502    0 -0.49987646933E+03  0.20658611070E+03 -0.14976739704E+04  0.15923509749E+04  0.50400001928E-02 0.  1.
       -1    1    3    3    0  502  0.49987646933E+03 -0.20658611070E+03  0.83674123445E+03  0.99633839592E+03  0.50400001928E-02 0. -1.
</event>
<event>
 5   0  0.9750757E-05  0.2431848E+04  0.7818609E-02  0.8427676E-01
        2   -1    0    0  501    0  0.00000000000E+00  0.00000000000E+00  0.13346011405E+04  0.13346011405E+04  0.25500000920E-02 0.  1.
       -2   -1    0    0    0  501  0.00000000000E+00  0.00000000000E+00 -0.11077997229E+04  0.11077997229E+04  0.25500000920E-02 0. -1.
    10030    2    1    2    0    0  0.00000000000E+00  0.00000000000E+00  0.22680141758E+03  0.24424008634E+04  0.24318476709E+04 0.  0.
        2    1    3    3  502    0  0.17399230259E+03 -0.71277156019E+03 -0.86042248084E+03  0.11307711811E+04  0.25500000920E-02 0. -1.
       -2    1    3    3    0  502 -0.17399230259E+03  0.71277156019E+03  0.10872238984E+04  0.13116296824E+04  0.25500000920E-02 0.  1.
</event>
<event>
 5   0  0.3934906E-05  0.1404858E+04  0.7818609E-02  0.8950310E-01
       -1   -1    0    0    0  501  0.00000000000E+00  0.00000000000E+00  0.42880286407E+03  0.42880286410E+03  0.50400001928E-02 0.  1.
        1   -1    0    0  501    0  0.00000000000E+00  0.00000000000E+00 -0.11506598557E+04  0.11506598557E+04  0.50400001928E-02 0. -1.
    10030    2    1    2    0    0  0.00000000000E+00  0.00000000000E+00 -0.72185699167E+03  0.15794627198E+04  0.14048576323E+04 0.  0.
        2    1    3    3  502    0  0.61766069632E+03 -0.21808303820E+03 -0.64611039791E+03  0.92006716799E+03  0.25500000920E-02 0. -1.
       -2    1    3    3    0  502 -0.61766069632E+03  0.21808303820E+03 -0.75746593755E+02  0.65939555185E+03  0.25500000920E-02 0.  1.
</event>
<event>
 5   0  0.9491680E-05  0.2438958E+04  0.7818609E-02  0.8425061E-01
       -2   -1    0    0    0  501  0.00000000000E+00  0.00000000000E+00  0.14755815181E+04  0.14755815181E+04  0.25500000920E-02 0.  1.
        2   -1    0    0  501    0  0.00000000000E+00  0.00000000000E+00 -0.10078256652E+04  0.10078256652E+04  0.25500000920E-02 0. -1.
    10030    2    1    2    0    0  0.00000000000E+00  0.00000000000E+00  0.46775585287E+03  0.24834071833E+04  0.24389579128E+04 0.  0.
        5    1    3    3  502    0  0.22345936753E+03 -0.10752606514E+04  0.77362084762E+03  0.13433654988E+04  0.46999998093E+01 0.  1.
       -5    1    3    3    0  502 -0.22345936753E+03  0.10752606514E+04 -0.30586499476E+03  0.11400416845E+04  0.46999998093E+01 0. -1.
</event>
<event>
 5   0  0.4061631E-05  0.2348598E+04  0.7818609E-02  0.8459002E-01
        1   -1    0    0  501    0  0.00000000000E+00  0.00000000000E+00  0.97155079032E+03  0.97155079034E+03  0.50400001928E-02 0. -1.
       -1   -1    0    0    0  501  0.00000000000E+00  0.00000000000E+00 -0.14193582559E+04  0.14193582559E+04  0.50400001928E-02 0.  1.
    10030    2    1    2    0    0  0.00000000000E+00  0.00000000000E+00 -0.44780746558E+03  0.23909090462E+04  0.23485984206E+04 0.  0.
        3    1    3    3  502    0  0.85335250427E+02  0.30064911222E+02 -0.14158046933E+04  0.14186926882E+04  0.10100000352E+00 0.  1.
       -3    1    3    3    0  502 -0.85335250427E+02 -0.30064911222E+02  0.96799722769E+03  0.97221635805E+03  0.10100000352E+00 0. -1.
</event>
<event>
 5   0  0.4061631E-05  0.2659566E+04  0.7818609E-02  0.8348245E-01
       -1   -1    0    0    0  501  0.00000000000E+00  0.00000000000E+00  0.11370609499E+04  0.11370609499E+04  0.50400001928E-02 0.  1.
        1   -1    0    0  501    0  0.00000000000E+00  0.00000000000E+00 -0.15551703353E+04  0.15551703354E+04  0.50400001928E-02 0. -1.
    10030    2    1    2    0    0  0.00000000000E+00  0.00000000000E+00 -0.41810938544E+03  0.26922312853E+04  0.26595664750E+04 0.  0.
        3    1    3    3  502    0 -0.52517490636E+03  0.64460369169E+03 -0.12595873056E+04  0.15092656467E+04  0.10100000352E+00 0. -1.
       -3    1    3    3    0  502  0.52517490636E+03 -0.64460369169E+03  0.84147792020E+03  0.11829656386E+04  0.10100000352E+00 0.  1.
</event>
<event>
 5   0  0.4260395E-05  0.2372635E+04  0.7818609E-02  0.8449820E-01
        1   -1    0    0  501    0  0.00000000000E+00  0.00000000000E+00  0.16401210597E+04  0.16401210597E+04  0.50400001928E-02 0.  1.
       -1   -1    0    0    0  501  0.00000000000E+00  0.00000000000E+00 -0.85807625114E+03  0.85807625116E+03  0.50400001928E-02 0. -1.
    10030    2    1    2    0    0  0.00000000000E+00  0.00000000000E+00  0.78204480855E+03  0.24981973109E+04  0.23726347636E+04 0.  0.
        4    1    3    3  502    0  0.50473412614E+02 -0.39314660408E+03 -0.78629010986E+03  0.88054844696E+03  0.12699999809E+01 0. -1.
       -4    1    3    3    0  502 -0.50473412614E+02  0.39314660408E+03  0.15683349184E+04  0.16176488639E+04  0.12699999809E+01 0.  1.
</event>
<event>
 5   0  0.9519092E-05  0.2317815E+04  0.7818609E-02  0.8470930E-01
       -2   -1    0    0    0  501  0.00000000000E+00  0.00000000000E+00  0.47672516859E+03  0.47672516860E+03  0.25500000920E-02 0.  1.
        2   -1    0    0  501    0  0.00000000000E+00  0.00000000000E+00 -0.28172762144E+04  0.28172762144E+04  0.25500000920E-02 0. -1.
    10030    2    1    2    0    0  0.00000000000E+00  0.00000000000E+00 -0.23405510458E+04  0.32940013830E+04  0.23178149005E+04 0.  0.
        4    1    3    3  502    0  0.10936549710E+04 -0.37809301766E+03 -0.10800640089E+04  0.15829009450E+04  0.12699999809E+01 0.  1.
       -4    1    3    3    0  502 -0.10936549710E+04  0.37809301766E+03 -0.12604870370E+04  0.17111004380E+04  0.12699999809E+01 0. -1.
</event>
<event>
 5   0  0.9750757E-05  0.2716961E+04  0.7818609E-02  0.8329523E-01
        2   -1    0    0  501    0  0.00000000000E+00  0.00000000000E+00  0.94908695996E+03  0.94908695996E+03  0.25500000920E-02 0. -1.
       -2   -1    0    0    0  501  0.00000000000E+00  0.00000000000E+00 -0.19444679039E+04  0.19444679039E+04  0.25500000920E-02 0.  1.
    10030    2    1    2    0    0  0.00000000000E+00  0.00000000000E+00 -0.99538094392E+03  0.28935548638E+04  0.27169608990E+04 0.  0.
        2    1    3    3  502    0  0.95549170177E+03  0.81569902343E+03  0.52759261660E+02  0.12574230906E+04  0.25500000920E-02 0. -1.
       -2    1    3    3    0  502 -0.95549170177E+03 -0.81569902343E+03 -0.10481402056E+04  0.16361317733E+04  0.25500000920E-02 0.  1.
</event>
<event>
 5   0  0.9519092E-05  0.2456597E+04  0.7818609E-02  0.8418613E-01
        2   -1    0    0  501    0  0.00000000000E+00  0.00000000000E+00  0.17897263090E+04  0.17897263090E+04  0.25500000920E-02 0.  1.
       -2   -1    0    0    0  501  0.00000000000E+00  0.00000000000E+00 -0.84298783711E+03  0.84298783712E+03  0.25500000920E-02 0. -1.
    10030    2    1    2    0    0  0.00000000000E+00  0.00000000000E+00  0.94673847189E+03  0.26327141461E+04  0.24565972484E+04 0.  0.
        4    1    3    3  502    0  0.72739167000E+03  0.86655404215E+03  0.98588131795E+03  0.15006592337E+04  0.12699999809E+01 0.  1.
       -4    1    3    3    0  502 -0.72739167000E+03 -0.86655404215E+03 -0.39142846062E+02  0.11320549125E+04  0.12699999809E+01 0. -1.
</event>
<event>
 5   0  0.9144244E-05  0.2412637E+04  0.7818609E-02  0.8434788E-01
       -2   -1    0    0    0  501  0.00000000000E+00  0.00000000000E+00  0.10917876129E+04  0.10917876129E+04  0.25500000920E-02 0.  1.
        2   -1    0    0  501    0  0.00000000000E+00  0.00000000000E+00 -0.13328641231E+04  0.13328641231E+04  0.25500000920E-02 0. -1.
    10030    2    1    2    0    0  0.00000000000E+00  0.00000000000E+00 -0.24107651014E+03  0.24246517360E+04  0.24126371789E+04 0.  0.
        1    1    3    3  502    0 -0.89073755955E+03 -0.23461481013E+03 -0.90335693652E+03  0.12901593948E+04  0.50400001928E-02 0. -1.
       -1    1    3    3    0  502  0.89073755955E+03  0.23461481013E+03  0.66228042638E+03  0.11344923412E+04  0.50400001928E-02 0.  1.
</event>
<event>
 5   0  0.9182865E-05  0.2290716E+04  0.7818609E-02  0.8481591E-01
        2   -1    0    0  501    0  0.00000000000E+00  0.00000000000E+00  0.12662444958E+04  0.12662444958E+04  0.25500000920E-02 0.  1.
       -2   -1    0    0    0  501  0.00000000000E+00  0.00000000000E+00 -0.10360120552E+04  0.10360120552E+04  0.25500000920E-02 0. -1.
    10030    2    1    2    0    0  0.00000000000E+00  0.00000000000E+00  0.23023244059E+03  0.23022565510E+04  0.22907156633E+04 0.  0.
        3    1    3    3  502    0  0.11039179835E+04  0.29918748682E+03  0.17622126189E+03  0.11572389598E+04  0.10100000352E+00 0. -1.
       -3    1    3    3    0  502 -0.11039179835E+04 -0.29918748682E+03  0.54011178702E+02  0.11450175913E+04  0.10100000352E+00 0.  1.
</event>
<event>
 5   0  0.4208577E-05  0.2550343E+04  0.7818609E-02  0.8385267E-01
        1   -1    0    0  501    0  0.00000000000E+00  0.00000000000E+00  0.19837949178E+04  0.19837949178E+04  0.50400001928E-02 0.  1.
       -1   -1    0    0    0  501  0.00000000000E+00  0.00000000000E+00 -0.81967229893E+03  0.81967229895E+03  0.50400001928E-02 0. -1.
    10030    2    1    2    0    0  0.00000000000E+00  0.00000000000E+00  0.11641226189E+04  0.28034672168E+04  0.25503425189E+04 0.  0.
        1    1    3    3  502    0  0.10856458295E+03  0.71634487744E+03  0.17355554117E+04  0.18807149809E+04  0.50400001928E-02 0.  1.
       -1    1    3    3    0  502 -0.10856458295E+03 -0.71634487744E+03 -0.57143279283E+03  0.92275223590E+03  0.50400001928E-02 0. -1.
</event>
<event>
 5   0  0.9750757E-05  0.2385449E+04  0.7818609E-02  0.8444971E-01
        2   -1    0    0  501    0  0.00000000000E+00  0.00000000000E+00  0.15974966763E+04  0.15974966763E+04  0.25500000920E-02 0.  1.
       -2   -1    0    0    0  501  0.00000000000E+00  0.00000000000E+00 -0.89051342250E+03  0.89051342250E+03  0.25500000920E-02 0. -1.
    10030    2    1    2    0    0  0.00000000000E+00  0.00000000000E+00  0.70698325377E+03  0.24880100988E+04  0.23854494190E+04 0.  0.
        2    1    3    3  502    0  0.19429729969E+03 -0.10420501507E+03 -0.86907479918E+03  0.89660533816E+03  0.25500000920E-02 0. -1.
       -2    1    3    3    0  502 -0.19429729969E+03  0.10420501507E+03  0.15760580530E+04  0.15914047606E+04  0.25500000920E-02 0.  1.
</event>
<event>
 5   0  0.3934906E-05  0.2442564E+04  0.7818609E-02  0.8423738E-01
       -1   -1    0    0    0  501  0.00000000000E+00  0.00000000000E+00  0.10984470365E+04  0.10984470366E+04  0.50400001928E-02 0.  1.
        1   -1    0    0  501    0  0.00000000000E+00  0.00000000000E+00 -0.13578527865E+04  0.13578527865E+04  0.50400001928E-02 0. -1.
    10030    2    1    2    0    0  0.00000000000E+00  0.00000000000E+00 -0.25940574997E+03  0.24562998231E+04  0.24425637101E+04 0.  0.
        2    1    3    3  502    0  0.40963009541E+03  0.13600511713E+03  0.10191908544E+04  0.11068171505E+04  0.25500000920E-02 0.  1.
       -2    1    3    3    0  502 -0.40963009541E+03 -0.13600511713E+03 -0.12785966044E+04  0.13494826726E+04  0.25500000920E-02 0. -1.
</event>
<event>
 5   0  0.9519092E-05  0.2391446E+04  0.7818609E-02  0.8442713E-01
       -2   -1    0    0    0  501  0.00000000000E+00  0.00000000000E+00  0.10509292657E+04  0.10509292657E+04  0.25500000920E-02 0.  1.
        2   -1    0    0  501    0  0.00000000000E+00  0.00000000000E+00 -0.13604655188E+04  0.13604655188E+04  0.25500000920E-02 0. -1.
    10030    2    1    2    0    0  0.00000000000E+00  0.00000000000E+00 -0.30953625311E+03  0.24113947846E+04  0.23914456120E+04 0.  0.
        4    1    3    3  502    0 -0.86539985933E+03 -0.23355009187E+03  0.64321764970E+03  0.11032647550E+04  0.12699999809E+01 0.  1.
       -4    1    3    3    0  502  0.86539985933E+03  0.23355009187E+03 -0.95275390281E+03  0.13081300295E+04  0.12699999809E+01 0. -1.
</event>
<event>
 5   0  0.9519092E-05  0.2360561E+04  0.7818609E-02  0.8454418E-01
        2   -1    0    0  501    0  0.00000000000E+00  0.00000000000E+00  0.27960625826E+04  0.27960625826E+04  0.25500000920E-02 0. -1.
       -2   -1    0    0    0  501  0.00000000000E+00  0.00000000000E+00 -0.49822283375E+03  0.49822283376E+03  0.25500000920E-02 0.  1.
    10030    2    1    2    0    0  0.00000000000E+00  0.00000000000E+00  0.22978397489E+04  0.32942854164E+04  0.23605611394E+04 0.  0.
        4    1    3    3  502    0  0.29572944181E+03  0.80301207375E+03  0.22833381250E+04  0.24384254960E+04  0.12699999809E+01 0. -1.
       -4    1    3    3    0  502 -0.29572944181E+03 -0.80301207375E+03  0.14501623833E+02  0.85585992039E+03  0.12699999809E+01 0.  1.
</event>
<event>
 5   0  0.4208577E-05  0.1886734E+04  0.7818609E-02  0.8661488E-01
        1   -1    0    0  501    0  0.00000000000E+00  0.00000000000E+00  0.57896283731E+03  0.57896283734E+03  0.50400001928E-02 0.  1.
       -1   -1    0    0    0  501  0.00000000000E+00  0.00000000000E+00 -0.15371303461E+04  0.15371303461E+04  0.50400001928E-02 0. -1.
    10030    2    1    2    0    0  0.00000000000E+00  0.00000000000E+00 -0.95816750878E+03  0.21160931834E+04  0.18867340528E+04 0.  0.
        1    1    3    3  502    0 -0.55139079670E+03  0.57548954988E+03 -0.10451362942E+04  0.13143553196E+04  0.50400001928E-02 0. -1.
       -1    1    3    3    0  502  0.55139079670E+03 -0.57548954988E+03  0.86968785369E+02  0.80173786387E+03  0.50400001928E-02 0.  1.
</event>
<event>
 5   0  0.4061631E-05  0.2448377E+04  0.7818609E-02  0.8421611E-01
        1   -1    0    0  501    0  0.00000000000E+00  0.00000000000E+00  0.70257584654E+03  0.70257584656E+03  0.50400001928E-02 0.  1.
       -1   -1    0    0    0  501  0.00000000000E+00  0.00000000000E+00 -0.21330618631E+04  0.21330618631E+04  0.50400001928E-02 0. -1.
    10030    2    1    2    0    0  0.00000000000E+00  0.00000000000E+00 -0.14304860165E+04  0.28356377096E+04  0.24483772129E+04 0.  0.
        3    1    3    3  502    0  0.29451574537E+03  0.31244095759E+03 -0.20429925956E+04  0.20876248782E+04  0.10100000352E+00 0. -1.
       -3    1    3    3    0  502 -0.29451574537E+03 -0.31244095759E+03  0.61250657912E+03  0.74801283138E+03  0.10100000352E+00 0.  1.
</event>
<event>
 5   0  0.9182865E-05  0.2325172E+04  0.7818609E-02  0.8468062E-01
        2   -1    0    0  501    0  0.00000000000E+00  0.00000000000E+00  0.14574369516E+04  0.14574369516E+04  0.25500000920E-02 0.  1.
       -2   -1    0    0    0  501  0.00000000000E+00  0.00000000000E+00 -0.92738584625E+03  0.92738584626E+03  0.25500000920E-02 0. -1.
    10030    2    1    2    0    0  0.00000000000E+00  0.00000000000E+00  0.53005110536E+03  0.23848227979E+04  0.23251721663E+04 0.  0.
        3    1    3    3  502    0 -0.73098782717E+03  0.56859691684E+03 -0.45582828097E+03  0.10321943079E+04  0.10100000352E+00 0.  1.
       -3    1    3    3    0  502  0.73098782717E+03 -0.56859691684E+03  0.98587938632E+03  0.13526284900E+04  0.10100000352E+00 0. -1.
</event>
<event>
 5   0  0.4018942E-05  0.2383215E+04  0.7818609E-02  0.8445814E-01
        1   -1    0    0  501    0  0.00000000000E+00  0.00000000000E+00  0.15014779455E+04  0.15014779455E+04  0.50400001928E-02 0. -1.
       -1   -1    0    0    0  501  0.00000000000E+00  0.00000000000E+00 -0.94568720355E+03  0.94568720356E+03  0.50400001928E-02 0.  1.
    10030    2    1    2    0    0  0.00000000000E+00  0.00000000000E+00  0.55579074197E+03  0.24471651491E+04  0.23832150381E+04 0.  0.
        5    1    3    3  502    0  0.39264332508E+03  0.11014621737E+04  0.51321436627E+03  0.12770273202E+04  0.46999998093E+01 0. -1.
       -5    1    3    3    0  502 -0.39264332508E+03 -0.11014621737E+04  0.42576375695E+02  0.11701378289E+04  0.46999998093E+01 0.  1.
</event>
<event>
 5   0  0.4260395E-05  0.2010743E+04  0.7818609E-02  0.8601614E-01
        1   -1    0    0  501    0  0.00000000000E+00  0.00000000000E+00  0.14528442716E+04  0.14528442716E+04  0.50400001928E-02 0.  1.
       -1   -1    0    0    0  501  0.00000000000E+00  0.00000000000E+00 -0.69571936316E+03  0.69571936318E+03  0.50400001928E-02 0. -1.
    10030    2    1    2    0    0  0.00000000000E+00  0.00000000000E+00  0.75712490844E+03  0.21485636348E+04  0.20107430382E+04 0.  0.
        4    1    3    3  502    0 -0.59516040174E+03  0.55418231711E+03 -0.25308634876E+03  0.85169728028E+03  0.12699999809E+01 0. -1.
       -4    1    3    3    0  502  0.59516040174E+03 -0.55418231711E+03  0.10102112572E+04  0.12968663545E+04  0.12699999809E+01 0.  1.
</event>
<event>
 5   0  0.9519092E-05  0.2355697E+04  0.7818609E-02  0.8456279E-01
       -2   -1    0    0    0  501  0.00000000000E+00  0.00000000000E+00  0.93901740833E+03  0.93901740834E+03  0.25500000920E-02 0.  1.
        2   -1    0    0  501    0  0.00000000000E+00  0.00000000000E+00 -0.14774237147E+04  0.14774237147E+04  0.25500000920E-02 0. -1.
    10030    2    1    2    0    0  0.00000000000E+00  0.00000000000E+00 -0.53840630632E+03  0.24164411230E+04  0.23556965743E+04 0.  0.
        4    1    3    3  502    0  0.40269547178E+03  0.17182987674E+03 -0.13908504842E+04  0.14581343669E+04  0.12699999809E+01 0. -1.
       -4    1    3    3    0  502 -0.40269547178E+03 -0.17182987674E+03  0.85244417788E+03  0.95830675613E+03  0.12699999809E+01 0.  1.
</event>
<event>
 5   0  0.9144244E-05  0.2396853E+04  0.7818609E-02  0.8440683E-01
        2   -1    0    0  501    0  0.00000000000E+00  0.00000000000E+00  0.18981825749E+04  0.18981825749E+04  0.25500000920E-02 0.  1.
       -2   -1    0    0    0  501  0.00000000000E+00  0.00000000000E+00 -0.75663250569E+03  0.75663250569E+03  0.25500000920E-02 0. -1.
    10030    2    1    2    0    0  0.00000000000E+00  0.00000000000E+00  0.11415500692E+04  0.26548150806E+04  0.23968534690E+04 0.  0.
        1    1    3    3  502    0  0.49679051652E+03  0.51819337555E+03 -0.49214200454E+03  0.87036138726E+03  0.50400001928E-02 0. -1.
       -1    1    3    3    0  502 -0.49679051652E+03 -0.51819337555E+03  0.16336920738E+04  0.17844536934E+04  0.50400001928E-02 0.  1.
</event>
<event>
 5   0  0.3934906E-05  0.2391172E+04  0.7818609E-02  0.8442816E-01
        1   -1    0    0  501    0  0.00000000000E+00  0.00000000000E+00  0.10481641765E+04  0.10481641765E+04  0.50400001928E-02 0. -1.
       -1   -1    0    0    0  501  0.00000000000E+00  0.00000000000E+00 -0.13637423562E+04  0.13637423562E+04  0.50400001928E-02 0.  1.
    10030    2    1    2    0    0  0.00000000000E+00  0.00000000000E+00 -0.31557817969E+03  0.24119065327E+04  0.23911720003E+04 0.  0.
        2    1    3    3  502    0  0.39426008044E+03  0.10607270318E+02 -0.12962355583E+04  0.13549096456E+04  0.25500000920E-02 0.  1.
       -2    1    3    3    0  502 -0.39426008044E+03 -0.10607270318E+02  0.98065737857E+03  0.10569968871E+04  0.25500000920E-02 0. -1.
</event>
<event>
 5   0  0.9750757E-05  0.2146228E+04  0.7818609E-02  0.8541149E-01
        2   -1    0    0  501    0  0.00000000000E+00  0.00000000000E+00  0.77880904512E+03  0.77880904512E+03  0.25500000920E-02 0.  1.
       -2   -1    0    0    0  501  0.00000000000E+00  0.00000000000E+00 -0.14786340690E+04  0.14786340690E+04  0.25500000920E-02 0. -1.
    10030    2    1    2    0    0  0.00000000000E+00  0.00000000000E+00 -0.69982502390E+03  0.22574431141E+04  0.21462279351E+04 0.  0.
        2    1    3    3  502    0  0.10083060865E+02  0.44103620279E+03  0.67902176374E+03  0.80974388292E+03  0.25500000920E-02 0.  1.
       -2    1    3    3    0  502 -0.10083060865E+02 -0.44103620279E+03 -0.13788467876E+04  0.14476992312E+04  0.25500000920E-02 0. -1.
</event>
<event>
 5   0  0.9144244E-05  0.2357241E+04  0.7818609E-02  0.8455688E-01
        2   -1    0    0  501    0  0.00000000000E+00  0.00000000000E+00  0.11779442322E+04  0.11779442322E+04  0.25500000920E-02 0.  1.
       -2   -1    0    0    0  501  0.00000000000E+00  0.00000000000E+00 -0.11792967713E+04  0.11792967713E+04  0.25500000920E-02 0. -1.
    10030    2    1    2    0    0  0.00000000000E+00  0.00000000000E+00 -0.13525390740E+01  0.23572410035E+04  0.23572406155E+04 0.  0.
        1    1    3    3  502    0  0.99369623519E+03  0.55418146543E+03  0.30688926247E+03  0.11784440266E+04  0.50400001928E-02 0.  1.
       -1    1    3    3    0  502 -0.99369623519E+03 -0.55418146543E+03 -0.30824180155E+03  0.11787969769E+04  0.50400001928E-02 0. -1.
</event>
<event>
 5   0  0.9182865E-05  0.2295809E+04  0.7818609E-02  0.8479575E-01
       -2   -1    0    0    0  501  0.00000000000E+00  0.00000000000E+00  0.11231137678E+04  0.11231137678E+04  0.25500000920E-02 0.  1.
        2   -1    0    0  501    0  0.00000000000E+00  0.00000000000E+00 -0.11732426357E+04  0.11732426357E+04  0.25500000920E-02 0. -1.
    10030    2    1    2    0    0  0.00000000000E+00  0.00000000000E+00 -0.50128867972E+02  0.22963564035E+04  0.22958091882E+04 0.  0.
        3    1    3    3  502    0 -0.68031119958E+02  0.25767897760E+03 -0.11418690816E+04  0.11725577591E+04  0.10100000352E+00 0. -1.
       -3    1    3    3    0  502  0.68031119958E+02 -0.25767897760E+03  0.10917402136E+04  0.11237986444E+04  0.10100000352E+00 0.  1.
</event>
<event>
 5   0  0.9750757E-05  0.2391301E+04  0.7818609E-02  0.8442768E-01
        2   -1    0    0  501    0  0.00000000000E+00  0.00000000000E+00  0.18714491060E+04  0.18714491060E+04  0.25500000920E-02 0. -1.
       -2   -1    0    0    0  501  0.00000000000E+00  0.00000000000E+00 -0.76388913589E+03  0.76388913589E+03  0.25500000920E-02 0.  1.
    10030    2    1    2    0    0  0.00000000000E+00  0.00000000000E+00  0.11075599702E+04  0.26353382419E+04  0.23913006005E+04 0.  0.
        2    1    3    3  502    0  0.44696903088E+03 -0.10290033472E+04  0.98123768912E+02  0.11261693821E+04  0.25500000920E-02 0.  1.
       -2    1    3    3    0  502 -0.44696903088E+03  0.10290033472E+04  0.10094362012E+04  0.15091688598E+04  0.25500000920E-02 0. -1.
</event>
<event>
 5   0  0.4018942E-05  0.2361424E+04  0.7818609E-02  0.8454089E-01
       -1   -1    0    0    0  501  0.00000000000E+00  0.00000000000E+00  0.11527619639E+04  0.11527619639E+04  0.50400001928E-02 0.  1.
        1   -1    0    0  501    0  0.00000000000E+00  0.00000000000E+00 -0.12093394087E+04  0.12093394087E+04  0.50400001928E-02 0. -1.
    10030    2    1    2    0    0  0.00000000000E+00  0.00000000000E+00 -0.56577444814E+02  0.23621013726E+04  0.23614236992E+04 0.  0.
        5    1    3    3  502    0  0.36845011345E+03  0.11786387194E+03 -0.11441405672E+04  0.12077777552E+04  0.46999998093E+01 0. -1.
       -5    1    3    3    0  502 -0.36845011345E+03 -0.11786387194E+03  0.10875631224E+04  0.11543236174E+04  0.46999998093E+01 0.  1.
</event>
<event>
 5   0  0.9519092E-05  0.2352790E+04  0.7818609E-02  0.8457393E-01
       -2   -1    0    0    0  501  0.00000000000E+00  0.00000000000E+00  0.15916216050E+04  0.15916216050E+04  0.25500000920E-02 0. -1.
        2   -1    0    0  501    0  0.00000000000E+00  0.00000000000E+00 -0.86949416998E+03  0.86949416998E+03  0.25500000920E-02 0.  1.
    10030    2    1    2    0    0  0.00000000000E+00  0.00000000000E+00  0.72212743498E+03  0.24611157749E+04  0.23527904338E+04 0.  0.
        4    1    3    3  502    0 -0.61110248208E+03 -0.82924093068E+03 -0.23326568779E+03  0.10561729303E+04  0.12699999809E+01 0.  1.
       -4    1    3    3    0  502  0.61110248208E+03  0.82924093068E+03  0.95539312278E+03  0.14049428446E+04  0.12699999809E+01 0. -1.
</event>
<event>
 5   0  0.4061631E-05  0.2382610E+04  0.7818609E-02  0.8446043E-01
        1   -1    0    0  501    0  0.00000000000E+00  0.00000000000E+00  0.13654694965E+04  0.13654694965E+04  0.50400001928E-02 0.  1.
       -1   -1    0    0    0  501  0.00000000000E+00  0.00000000000E+00 -0.10393554031E+04  0.10393554031E+04  0.50400001928E-02 0. -1.
    10030    2    1    2    0    0  0.00000000000E+00  0.00000000000E+00  0.32611409340E+03  0.24048248996E+04  0.23826104163E+04 0.  0.
        3    1    3    3  502    0  0.23134098785E+03  0.21049295483E+03 -0.99717442612E+03  0.10450754915E+04  0.10100000352E+00 0. -1.
       -3    1    3    3    0  502 -0.23134098785E+03 -0.21049295483E+03  0.13232885195E+04  0.13597494081E+04  0.10100000352E+00 0.  1.
</event>
<event>
 5   0  0.4061631E-05  0.2366195E+04  0.7818609E-02  0.8452269E-01
       -1   -1    0    0    0  501  0.00000000000E+00  0.00000000000E+00  0.11604231216E+04  0.11604231216E+04  0.50400001928E-02 0. -1.
        1   -1    0    0  501    0  0.00000000000E+00  0.00000000000E+00 -0.12062151270E+04  0.12062151270E+04  0.50400001928E-02 0.  1.
    10030    2    1    2    0    0  0.00000000000E+00  0.00000000000E+00 -0.45792005423E+02  0.23666382486E+04  0.23661951932E+04 0.  0.
        3    1    3    3  502    0  0.36200705307E+03  0.85647514404E+03 -0.75455271800E+03  0.11974759260E+04  0.10100000352E+00 0.  1.
       -3    1    3    3    0  502 -0.36200705307E+03 -0.85647514404E+03  0.70876071258E+03  0.11691623227E+04  0.10100000352E+00 0. -1.
</event>
<event>
 5   0  0.9182865E-05  0.2256299E+04  0.7818609E-02  0.8495354E-01
       -2   -1    0    0    0  501  0.00000000000E+00  0.00000000000E+00  0.93669183830E+03  0.93669183830E+03  0.25500000920E-02 0.  1.
        2   -1    0    0  501    0  0.00000000000E+00  0.00000000000E+00 -0.13587408131E+04  0.13587408132E+04  0.25500000920E-02 0. -1.
    10030    2    1    2    0    0  0.00000000000E+00  0.00000000000E+00 -0.42204897485E+03  0.22954326515E+04  0.22562991203E+04 0.  0.
        3    1    3    3  502    0  0.58640343532E+03  0.38202575748E+03 -0.11111922482E+04  0.13132253771E+04  0.10100000352E+00 0. -1.
       -3    1    3    3    0  502 -0.58640343532E+03 -0.38202575748E+03  0.68914327338E+03  0.98220727435E+03  0.10100000352E+00 0.  1.
</event>
<event>
 5   0  0.3234750E-05  0.2370632E+04  0.7818609E-02  0.8450581E-01
        3   -1    0    0  501    0  0.00000000000E+00  0.00000000000E+00  0.10728725259E+04  0.10728725307E+04  0.10100000352E+00 0.  1.
       -3   -1    0    0    0  501  0.00000000000E+00  0.00000000000E+00 -0.13095445528E+04  0.13095445567E+04  0.10100000352E+00 0. -1.
    10030    2    1    2    0    0  0.00000000000E+00  0.00000000000E+00 -0.23667202681E+03  0.23824170874E+04  0.23706323059E+04 0.  0.
        5    1    3    3  502    0 -0.20814777645E+03 -0.89041248968E+03  0.63959641152E+03  0.11159146734E+04  0.46999998093E+01 0.  1.
       -5    1    3    3    0  502  0.20814777645E+03  0.89041248968E+03 -0.87626843833E+03  0.12665024140E+04  0.46999998093E+01 0. -1.
</event>
<event>
 5   0  0.4061631E-05  0.2365935E+04  0.7818609E-02  0.8452368E-01
       -1   -1    0    0    0  501  0.00000000000E+00  0.00000000000E+00  0.12676166508E+04  0.12676166508E+04  0.50400001928E-02 0. -1.
        1   -1    0    0  501    0  0.00000000000E+00  0.00000000000E+00 -0.11039709609E+04  0.11039709609E+04  0.50400001928E-02 0.  1.
    10030    2    1    2    0    0  0.00000000000E+00  0.00000000000E+00  0.16364568995E+03  0.23715876117E+04  0.23659348867E+04 0.  0.
        3    1    3    3  502    0 -0.21143064460E+02  0.99694890136E+03 -0.55613927980E+03  0.11417727663E+04  0.10100000352E+00 0.  1.
       -3    1    3    3    0  502  0.21143064460E+02 -0.99694890136E+03  0.71978496975E+03  0.12298148454E+04  0.10100000352E+00 0. -1.
</event>
<event>
 5   0  0.4260395E-05  0.2378921E+04  0.7818609E-02  0.8447438E-01
       -1   -1    0    0    0  501  0.00000000000E+00  0.00000000000E+00  0.93109126539E+03  0.93109126540E+03  0.50400001928E-02 0. -1.
        1   -1    0    0  501    0  0.00000000000E+00  0.00000000000E+00 -0.15195244412E+04  0.15195244413E+04  0.50400001928E-02 0.  1.
    10030    2    1    2    0    0  0.00000000000E+00  0.00000000000E+00 -0.58843317585E+03  0.24506157067E+04  0.23789207089E+04 0.  0.
        4    1    3    3  502    0  0.80171695403E+03  0.78608697617E+03 -0.69864435645E+03  0.13224176187E+04  0.12699999809E+01 0.  1.
       -4    1    3    3    0  502 -0.80171695403E+03 -0.78608697617E+03  0.11021118060E+03  0.11281980880E+04  0.12699999809E+01 0. -1.
</event>
<event>
 5   0  0.4018942E-05  0.2354776E+04  0.7818609E-02  0.8456631E-01
        1   -1    0    0  501    0  0.00000000000E+00  0.00000000000E+00  0.12221653318E+04  0.12221653319E+04  0.50400001928E-02 0.  1.
       -1   -1    0    0    0  501  0.00000000000E+00  0.00000000000E+00 -0.11342512018E+04  0.11342512018E+04  0.50400001928E-02 0. -1.
    10030    2    1    2    0    0  0.00000000000E+00  0.00000000000E+00  0.87914130047E+02  0.23564165337E+04  0.23547759948E+04 0.  0.
        5    1    3    3  502    0  0.32469716212E+03  0.19864427847E+02  0.11762919337E+04  0.12204538688E+04  0.46999998093E+01 0.  1.
       -5    1    3    3    0  502 -0.32469716212E+03 -0.19864427847E+02 -0.10883778036E+04  0.11359626649E+04  0.46999998093E+01 0. -1.
</event>
<event>
 5   0  0.4260395E-05  0.2400288E+04  0.7818609E-02  0.8439396E-01
       -1   -1    0    0    0  501  0.00000000000E+00  0.00000000000E+00  0.11416025361E+04  0.11416025361E+04  0.50400001928E-02 0.  1.
        1   -1    0    0  501    0  0.00000000000E+00  0.00000000000E+00 -0.12616870970E+04  0.12616870971E+04  0.50400001928E-02 0. -1.
    10030    2    1    2    0    0  0.00000000000E+00  0.00000000000E+00 -0.12008456095E+03  0.24032896332E+04  0.24002876409E+04 0.  0.
        4    1    3    3  502    0 -0.47777381052E+03 -0.29249046019E+03  0.10026640294E+04  0.11485448411E+04  0.12699999809E+01 0.  1.
       -4    1    3    3    0  502  0.47777381052E+03  0.29249046019E+03 -0.11227485903E+04  0.12547447921E+04  0.12699999809E+01 0. -1.
</event>
<event>
 5   0  0.9182865E-05  0.2339141E+04  0.7818609E-02  0.8462646E-01
        2   -1    0    0  501    0  0.00000000000E+00  0.00000000000E+00  0.17626942334E+04  0.17626942334E+04  0.25500000920E-02 0.  1.
       -2   -1    0    0    0  501  0.00000000000E+00  0.00000000000E+00 -0.77602544280E+03  0.77602544281E+03  0.25500000920E-02 0. -1.
    10030    2    1    2    0    0  0.00000000000E+00  0.00000000000E+00  0.98666879061E+03  0.25387196762E+04  0.23391413579E+04 0.  0.
        3    1    3    3  502    0 -0.48266387691E+03  0.52478389600E+03 -0.51287776311E+03  0.87829731052E+03  0.10100000352E+00 0. -1.
       -3    1    3    3    0  502  0.48266387691E+03 -0.52478389600E+03  0.14995465537E+04  0.16604223657E+04  0.10100000352E+00 0.  1.
</event>
<event>
 5   0  0.4208577E-05  0.2363325E+04  0.7818609E-02  0.8453363E-01
        1   -1    0    0  501    0  0.00000000000E+00  0.00000000000E+00  0.10917555429E+04  0.10917555429E+04  0.50400001928E-02 0.  1.
       -1   -1    0    0    0  501  0.00000000000E+00  0.00000000000E+00 -0.12789735499E+04  0.12789735499E+04  0.50400001928E-02 0. -1.
    10030    2    1    2    0    0  0.00000000000E+00  0.00000000000E+00 -0.18721800704E+03  0.23707290929E+04  0.23633251680E+04 0.  0.
        1    1    3    3  502    0  0.11289126238E+04 -0.32533165215E+03 -0.22066307994E+03  0.11953980889E+04  0.50400001928E-02 0. -1.
       -1    1    3    3    0  502 -0.11289126238E+04  0.32533165215E+03  0.33445072896E+02  0.11753310040E+04  0.50400001928E-02 0.  1.
</event>
<event>
 5   0  0.9182865E-05  0.2580752E+04  0.7818609E-02  0.8374769E-01
        2   -1    0    0  501    0  0.00000000000E+00  0.00000000000E+00  0.21376358553E+04  0.21376358553E+04  0.25500000920E-02 0. -1.
       -2   -1    0    0    0  501  0.00000000000E+00  0.00000000000E+00 -0.77893054145E+03  0.77893054146E+03  0.25500000920E-02 0.  1.
    10030    2    1    2    0    0  0.00000000000E+00  0.00000000000E+00  0.13587053138E+04  0.29165663968E+04  0.25807517154E+04 0.  0.
        3    1    3    3  502    0 -0.37393399592E+03 -0.55121153880E+03 -0.56962943051E+03  0.87643510434E+03  0.10100000352E+00 0.  1.
       -3    1    3    3    0  502  0.37393399592E+03  0.55121153880E+03  0.19283347444E+04  0.20401312924E+04  0.10100000352E+00 0. -1.
</event>
<event>
 5   0  0.9519092E-05  0.2181207E+04  0.7818609E-02  0.8526291E-01
       -2   -1    0    0    0  501  0.00000000000E+00  0.00000000000E+00  0.10930410345E+04  0.10930410345E+04  0.25500000920E-02 0.  1.
        2   -1    0    0  501    0  0.00000000000E+00  0.00000000000E+00 -0.10881714769E+04  0.10881714769E+04  0.25500000920E-02 0. -1.
    10030    2    1    2    0    0  0.00000000000E+00  0.00000000000E+00  0.48695576588E+01  0.21812125114E+04  0.21812070758E+04 0.  0.
        4    1    3    3  502    0 -0.10188415528E+04 -0.18332118479E+02 -0.38620520944E+03  0.10897386168E+04  0.12699999809E+01 0. -1.
       -4    1    3    3    0  502  0.10188415528E+04  0.18332118479E+02  0.39107476710E+03  0.10914738946E+04  0.12699999809E+01 0.  1.
</event>
<event>
 5   0  0.4260395E-05  0.2370804E+04  0.7818609E-02  0.8450516E-01
       -1   -1    0    0    0  501  0.00000000000E+00  0.00000000000E+00  0.92432356327E+03  0.92432356328E+03  0.50400001928E-02 0.  1.
        1   -1    0    0  501    0  0.00000000000E+00  0.00000000000E+00 -0.15202224659E+04  0.15202224659E+04  0.50400001928E-02 0. -1.
    10030    2    1    2    0    0  0.00000000000E+00  0.00000000000E+00 -0.59589890259E+03  0.24445460292E+04  0.23708036162E+04 0.  0.
        4    1    3    3  502    0  0.21111260280E+03  0.10772967450E+04 -0.75911834260E+03  0.13346906303E+04  0.12699999809E+01 0.  1.
       -4    1    3    3    0  502 -0.21111260280E+03 -0.10772967450E+04  0.16321944001E+03  0.11098553988E+04  0.12699999809E+01 0. -1.
</event>
<event>
 5   0  0.4208577E-05  0.2390970E+04  0.7818609E-02  0.8442892E-01
        1   -1    0    0  501    0  0.00000000000E+00  0.00000000000E+00  0.12286499672E+04  0.12286499673E+04  0.50400001928E-02 0. -1.
       -1   -1    0    0    0  501  0.00000000000E+00  0.00000000000E+00 -0.11632152095E+04  0.11632152095E+04  0.50400001928E-02 0.  1.
    10030    2    1    2    0    0  0.00000000000E+00  0.00000000000E+00  0.65434757723E+02  0.23918651768E+04  0.23909699530E+04 0.  0.
        1    1    3    3  502    0 -0.10587959031E+04  0.20846321322E+03 -0.48194454104E+03  0.11818528742E+04  0.50400001928E-02 0.  1.
       -1    1    3    3    0  502  0.10587959031E+04 -0.20846321322E+03  0.54737929876E+03  0.12100123026E+04  0.50400001928E-02 0. -1.
</event>
<event>
 5   0  0.9750757E-05  0.2413060E+04  0.7818609E-02  0.8434630E-01
       -2   -1    0    0    0  501  0.00000000000E+00  0.00000000000E+00  0.11640921571E+04  0.11640921571E+04  0.25500000920E-02 0. -1.
        2   -1    0    0  501    0  0.00000000000E+00  0.00000000000E+00 -0.12505152768E+04  0.12505152768E+04  0.25500000920E-02 0.  1.
    10030    2    1    2    0    0  0.00000000000E+00  0.00000000000E+00 -0.86423119735E+02  0.24146074339E+04  0.24130603192E+04 0.  0.
        2    1    3    3  502    0  0.65964786884E+03 -0.45426565560E+03 -0.94613283476E+03  0.12396208847E+04  0.25500000920E-02 0. -1.
       -2    1    3    3    0  502 -0.65964786884E+03  0.45426565560E+03  0.85970971502E+03  0.11749865492E+04  0.25500000920E-02 0.  1.
</event>
<event>
 5   0  0.9182865E-05  0.2259334E+04  0.7818609E-02  0.8494130E-01
       -2   -1    0    0    0  501  0.00000000000E+00  0.00000000000E+00  0.15490306154E+04  0.15490306154E+04  0.25500000920E-02 0. -1.
        2   -1    0    0  501    0  0.00000000000E+00  0.00000000000E+00 -0.82383607697E+03  0.82383607697E+03  0.25500000920E-02 0.  1.
    10030    2    1    2    0    0  0.00000000000E+00  0.00000000000E+00  0.72519453840E+03  0.23728666923E+04  0.22593338003E+04 0.  0.
        3    1    3    3  502    0 -0.27568047484E+03  0.10146278415E+04  0.79648923045E+03  0.13190392282E+04  0.10100000352E+00 0. -1.
       -3    1    3    3    0  502  0.27568047484E+03 -0.10146278415E+04 -0.71294692054E+02  0.10538274642E+04  0.10100000352E+00 0.  1.
</event>
<event>
 5   0  0.4260395E-05  0.2011613E+04  0.7818609E-02  0.8601211E-01
        1   -1    0    0  501    0  0.00000000000E+00  0.00000000000E+00  0.10270625909E+04  0.10270625909E+04  0.50400001928E-02 0. -1.
       -1   -1    0    0    0  501  0.00000000000E+00  0.00000000000E+00 -0.98498983803E+03  0.98498983804E+03  0.50400001928E-02 0.  1.
    10030    2    1    2    0    0  0.00000000000E+00  0.00000000000E+00  0.42072752864E+02  0.20120524289E+04  0.20116125025E+04 0.  0.
        4    1    3    3  502    0  0.30779815669E+03  0.60557780650E+03  0.76294006639E+03  0.10215396922E+04  0.12699999809E+01 0. -1.
       -4    1    3    3    0  502 -0.30779815669E+03 -0.60557780650E+03 -0.72086731353E+03  0.99051273672E+03  0.12699999809E+01 0.  1.
</event>
<event>
 5   0  0.3934906E-05  0.2207796E+04  0.7818609E-02  0.8515190E-01
        1   -1    0    0  501    0  0.00000000000E+00  0.00000000000E+00  0.91240873902E+03  0.91240873903E+03  0.50400001928E-02 0.  1.
       -1   -1    0    0    0  501  0.00000000000E+00  0.00000000000E+00 -0.13355761330E+04  0.13355761330E+04  0.50400001928E-02 0. -1.
    10030    2    1    2    0    0  0.00000000000E+00  0.00000000000E+00 -0.42316739399E+03  0.22479848721E+04  0.22077964901E+04 0.  0.
        2    1    3    3  502    0  0.71173973428E+03  0.35655707270E+03 -0.99028260418E+03  0.12705770467E+04  0.25500000920E-02 0. -1.
       -2    1    3    3    0  502 -0.71173973428E+03 -0.35655707270E+03  0.56711521019E+03  0.97740782536E+03  0.25500000920E-02 0.  1.
</event>
<event>
 5   0  0.4208577E-05  0.2346211E+04  0.7818609E-02  0.8459921E-01
        1   -1    0    0  501    0  0.00000000000E+00  0.00000000000E+00  0.11194026090E+04  0.11194026090E+04  0.50400001928E-02 0.  1.
       -1   -1    0    0    0  501  0.00000000000E+00  0.00000000000E+00 -0.12293842563E+04  0.12293842563E+04  0.50400001928E-02 0. -1.
    10030    2    1    2    0    0  0.00000000000E+00  0.00000000000E+00 -0.10998164736E+03  0.23487868653E+04  0.23462105140E+04 0.  0.
        1    1    3    3  502    0 -0.24499133027E+02 -0.11603901124E+04 -0.22567885120E+03  0.11823858779E+04  0.50400001928E-02 0.  1.
       -1    1    3    3    0  502  0.24499133027E+02  0.11603901124E+04  0.11569720384E+03  0.11664009874E+04  0.50400001928E-02 0. -1.
</event>
<event>
 5   0  0.9750757E-05  0.2286118E+04  0.7818609E-02  0.8483415E-01
        2   -1    0    0  501    0  0.00000000000E+00  0.00000000000E+00  0.16365012773E+04  0.16365012773E+04  0.25500000920E-02 0.  1.
       -2   -1    0    0    0  501  0.00000000000E+00  0.00000000000E+00 -0.79840109957E+03  0.79840109957E+03  0.25500000920E-02 0. -1.
    10030    2    1    2    0    0  0.00000000000E+00  0.00000000000E+00  0.83810017775E+03  0.24349023769E+04  0.22861184740E+04 0.  0.
        2    1    3    3  502    0  0.51854334008E+03 -0.29532829187E+02 -0.66546489861E+03  0.84415811008E+03  0.25500000920E-02 0. -1.
       -2    1    3    3    0  502 -0.51854334008E+03  0.29532829187E+02  0.15035650764E+04  0.15907442668E+04  0.25500000920E-02 0.  1.
</event>
<event>
 5   0  0.4018942E-05  0.2293935E+04  0.7818609E-02  0.8480316E-01
        1   -1    0    0  501    0  0.00000000000E+00  0.00000000000E+00  0.23068057930E+04  0.23068057930E+04  0.50400001928E-02 0.  1.
       -1   -1    0    0    0  501  0.00000000000E+00  0.00000000000E+00 -0.57028422908E+03  0.57028422910E+03  0.50400001928E-02 0. -1.
    10030    2    1    2    0    0  0.00000000000E+00  0.00000000000E+00  0.17365215639E+04  0.28770900221E+04  0.22939354510E+04 0.  0.
        5    1    3    3  502    0 -0.66505478655E+03  0.55597613231E+03  0.18102641203E+04  0.20071087674E+04  0.46999998093E+01 0.  1.
       -5    1    3    3    0  502  0.66505478655E+03 -0.55597613231E+03 -0.73742556460E+02  0.86998125465E+03  0.46999998093E+01 0. -1.
</event>
<event>
 5   0  0.4061631E-05  0.2048140E+04  0.7818609E-02  0.8584439E-01
       -1   -1    0    0    0  501  0.00000000000E+00  0.00000000000E+00  0.60201490080E+03  0.60201490082E+03  0.50400001928E-02 0. -1.
        1   -1    0    0  501    0  0.00000000000E+00  0.00000000000E+00 -0.17420153922E+04  0.17420153922E+04  0.50400001928E-02 0.  1.
    10030    2    1    2    0    0  0.00000000000E+00  0.00000000000E+00 -0.11400004914E+04  0.23440302930E+04  0.20481398620E+04 0.  0.
        3    1    3    3  502    0 -0.52696690606E+03 -0.76321379406E+03 -0.10669284087E+04  0.14136922066E+04  0.10100000352E+00 0.  1.
       -3    1    3    3    0  502  0.52696690606E+03  0.76321379406E+03 -0.73072082682E+02  0.93033808639E+03  0.10100000352E+00 0. -1.
</event>
<event>
 5   0  0.9182865E-05  0.2521524E+04  0.7818609E-02  0.8395358E-01
        2   -1    0    0  501    0  0.00000000000E+00  0.00000000000E+00  0.19536307608E+04  0.19536307608E+04  0.25500000920E-02 0. -1.
       -2   -1    0    0    0  501  0.00000000000E+00  0.00000000000E+00 -0.81362376778E+03  0.81362376779E+03  0.25500000920E-02 0.  1.
    10030    2    1    2    0    0  0.00000000000E+00  0.00000000000E+00  0.11400069930E+04  0.27672545286E+04  0.25215236826E+04 0.  0.
        3    1    3    3  502    0  0.51476518337E+03  0.92596249954E+03  0.13200794531E+04  0.16926309454E+04  0.10100000352E+00 0. -1.
       -3    1    3    3    0  502 -0.51476518337E+03 -0.92596249954E+03 -0.18007246006E+03  0.10746235832E+04  0.10100000352E+00 0.  1.
</event>
<event>
 5   0  0.9182865E-05  0.2461857E+04  0.7818609E-02  0.8416702E-01
        2   -1    0    0  501    0  0.00000000000E+00  0.00000000000E+00  0.11903575152E+04  0.11903575152E+04  0.25500000920E-02 0. -1.
       -2   -1    0    0    0  501  0.00000000000E+00  0.00000000000E+00 -0.12728823983E+04  0.12728823983E+04  0.25500000920E-02 0.  1.
    10030    2    1    2    0    0  0.00000000000E+00  0.00000000000E+00 -0.82524883043E+02  0.24632399135E+04  0.24618571273E+04 0.  0.
        3    1    3    3  502    0 -0.71292253485E+02 -0.95322696988E+03  0.73471225455E+03  0.12056228053E+04  0.10100000352E+00 0. -1.
       -3    1    3    3    0  502  0.71292253485E+02  0.95322696988E+03 -0.81723713760E+03  0.12576171082E+04  0.10100000352E+00 0.  1.
</event>
<event>
 5   0  0.4208577E-05  0.2369271E+04  0.7818609E-02  0.8451098E-01
        1   -1    0    0  501    0  0.00000000000E+00  0.00000000000E+00  0.22052380676E+04  0.22052380676E+04  0.50400001928E-02 0.  1.
       -1   -1    0    0    0  501  0.00000000000E+00  0.00000000000E+00 -0.63637621114E+03  0.63637621116E+03  0.50400001928E-02 0. -1.
    10030    2    1    2    0    0  0.00000000000E+00  0.00000000000E+00  0.15688618565E+04  0.28416142788E+04  0.23692708129E+04 0.  0.
        1    1    3    3  502    0 -0.71729474345E+03 -0.48352830813E+03  0.17551365368E+04  0.19567359650E+04  0.50400001928E-02 0.  1.
       -1    1    3    3    0  502  0.71729474345E+03  0.48352830813E+03 -0.18627468032E+03  0.88487831383E+03  0.50400001928E-02 0. -1.
</event>
<event>
 5   0  0.9144244E-05  0.2308635E+04  0.7818609E-02  0.8474524E-01
       -2   -1    0    0    0  501  0.00000000000E+00  0.00000000000E+00  0.13936147444E+04  0.13936147444E+04  0.25500000920E-02 0.  1.
        2   -1    0    0  501    0  0.00000000000E+00  0.00000000000E+00 -0.95611018611E+03  0.95611018611E+03  0.25500000920E-02 0. -1.
    10030    2    1    2    0    0  0.00000000000E+00  0.00000000000E+00  0.43750455824E+03  0.23497249305E+04  0.23086353134E+04 0.  0.
        1    1    3    3  502    0 -0.10462284237E+04  0.61223496515E+02  0.71120995371E+03  0.12665551032E+04  0.50400001928E-02 0.  1.
       -1    1    3    3    0  502  0.10462284237E+04 -0.61223496515E+02 -0.27370539546E+03  0.10831698273E+04  0.50400001928E-02 0. -1.
</event>
<event>
 5   0  0.3934906E-05  0.1267833E+04  0.7818609E-02  0.9055470E-01
       -1   -1    0    0    0  501  0.00000000000E+00  0.00000000000E+00  0.16931694935E+03  0.16931694943E+03  0.50400001928E-02 0. -1.
        1   -1    0    0  501    0  0.00000000000E+00  0.00000000000E+00 -0.23733603310E+04  0.23733603310E+04  0.50400001928E-02 0.  1.
    10030    2    1    2    0    0  0.00000000000E+00  0.00000000000E+00 -0.22040433817E+04  0.25426772804E+04  0.12678330033E+04 0.  0.
        2    1    3    3  502    0  0.31737275085E+03  0.45945855156E+03 -0.17037559557E+04  0.17929339029E+04  0.25500000920E-02 0.  1.
       -2    1    3    3    0  502 -0.31737275085E+03 -0.45945855156E+03 -0.50028742594E+03  0.74974337753E+03  0.25500000920E-02 0. -1.
</event>
<event>
 5   0  0.4208577E-05  0.2854164E+04  0.7818609E-02  0.8286647E-01
        1   -1    0    0  501    0  0.00000000000E+00  0.00000000000E+00  0.16854828024E+04  0.16854828024E+04  0.50400001928E-02 0.  1.
       -1   -1    0    0    0  501  0.00000000000E+00  0.00000000000E+00 -0.12082969466E+04  0.12082969466E+04  0.50400001928E-02 0. -1.
    10030    2    1    2    0    0  0.00000000000E+00  0.00000000000E+00  0.47718585581E+03  0.28937797489E+04  0.28541644827E+04 0.  0.
        1    1    3    3  502    0 -0.85079033807E+03 -0.95734496346E+03  0.87678186490E+03  0.15521275776E+04  0.50400001928E-02 0.  1.
       -1    1    3    3    0  502  0.85079033807E+03  0.95734496346E+03 -0.39959600909E+03  0.13416521714E+04  0.50400001928E-02 0. -1.
</event>
<event>
 5   0  0.3934906E-05  0.2484881E+04  0.7818609E-02  0.8408392E-01
       -1   -1    0    0    0  501  0.00000000000E+00  0.00000000000E+00  0.13111494555E+04  0.13111494555E+04  0.50400001928E-02 0.  1.
        1   -1    0    0  501    0  0.00000000000E+00  0.00000000000E+00 -0.11773317018E+04  0.11773317018E+04  0.50400001928E-02 0. -1.
    10030    2    1    2    0    0  0.00000000000E+00  0.00000000000E+00  0.13381775368E+03  0.24884811573E+04  0.24848805361E+04 0.  0.
        2    1    3    3  502    0  0.10339669992E+04 -0.40508834699E+03  0.62491775389E+03  0.12742474341E+04  0.25500000920E-02 0.  1.
       -2    1    3    3    0  502 -0.10339669992E+04  0.40508834699E+03 -0.49110000021E+03  0.12142337231E+04  0.25500000920E-02 0. -1.
</event>
<event>
 5   0  0.9182865E-05  0.2390548E+04  0.7818609E-02  0.8443051E-01
       -2   -1    0    0    0  501  0.00000000000E+00  0.00000000000E+00  0.11706457594E+04  0.11706457594E+04  0.25500000920E-02 0. -1.
        2   -1    0    0  501    0  0.00000000000E+00  0.00000000000E+00 -0.12204204807E+04  0.12204204807E+04  0.25500000920E-02 0.  1.
    10030    2    1    2    0    0  0.00000000000E+00  0.00000000000E+00 -0.49774721341E+02  0.23910662401E+04  0.23905481048E+04 0.  0.
        3    1    3    3  502    0 -0.73765096028E+03 -0.50489926165E+03 -0.81855026855E+03  0.12120547661E+04  0.10100000352E+00 0.  1.
       -3    1    3    3    0  502  0.73765096028E+03  0.50489926165E+03  0.76877554721E+03  0.11790114740E+04  0.10100000352E+00 0. -1.
</event>
<event>
 5   0  0.4260395E-05  0.2418870E+04  0.7818609E-02  0.8432473E-01
       -1   -1    0    0    0  501  0.00000000000E+00  0.00000000000E+00  0.71396679522E+03  0.71396679523E+03  0.50400001928E-02 0.  1.
        1   -1    0    0  501    0  0.00000000000E+00  0.00000000000E+00 -0.20487409248E+04  0.20487409248E+04  0.50400001928E-02 0. -1.
    10030    2    1    2    0    0  0.00000000000E+00  0.00000000000E+00 -0.13347741295E+04  0.27627077200E+04  0.24188699777E+04 0.  0.
        4    1    3    3  502    0  0.10624979460E+04 -0.47544120701E+03 -0.29241243240E+03  0.12001886810E+04  0.12699999809E+01 0.  1.
       -4    1    3    3    0  502 -0.10624979460E+04  0.47544120701E+03 -0.10423616971E+04  0.15625190390E+04  0.12699999809E+01 0. -1.
</event>
<event>
 5   0  0.3934906E-05  0.2297636E+04  0.7818609E-02  0.8478854E-01
       -1   -1    0    0    0  501  0.00000000000E+00  0.00000000000E+00  0.10227232210E+04  0.10227232210E+04  0.50400001928E-02 0. -1.
        1   -1    0    0  501    0  0.00000000000E+00  0.00000000000E+00 -0.12904597267E+04  0.12904597267E+04  0.50400001928E-02 0.  1.
    10030    2    1    2    0    0  0.00000000000E+00  0.00000000000E+00 -0.26773650569E+03  0.23131829477E+04  0.22976362882E+04 0.  0.
        2    1    3    3  502    0  0.54024121651E+03  0.10135066482E+04 -0.10672604207E+03  0.11534499321E+04  0.25500000920E-02 0.  1.
       -2    1    3    3    0  502 -0.54024121651E+03 -0.10135066482E+04 -0.16101046362E+03  0.11597330155E+04  0.25500000920E-02 0. -1.
</event>
<event>
 5   0  0.9750757E-05  0.2396216E+04  0.7818609E-02  0.8440921E-01
        2   -1    0    0  501    0  0.00000000000E+00  0.00000000000E+00  0.23993912858E+04  0.23993912858E+04  0.25500000920E-02 0. -1.
       -2   -1    0    0    0  501  0.00000000000E+00  0.00000000000E+00 -0.59826147018E+03  0.59826147019E+03  0.25500000920E-02 0.  1.
    10030    2    1    2    0    0  0.00000000000E+00  0.00000000000E+00  0.18011298157E+04  0.29976527560E+04  0.23962164829E+04 0.  0.
        2    1    3    3  502    0 -0.27224875330E+03  0.43303173823E+03 -0.45480366025E+03  0.68445762424E+03  0.25500000920E-02 0.  1.
       -2    1    3    3    0  502  0.27224875330E+03 -0.43303173823E+03  0.22559334759E+04  0.23131951318E+04  0.25500000920E-02 0. -1.
</event>
<event>
 5   0  0.4061631E-05  0.2449863E+04  0.7818609E-02  0.8421068E-01
       -1   -1    0    0    0  501  0.00000000000E+00  0.00000000000E+00  0.90531006971E+03  0.90531006972E+03  0.50400001928E-02 0. -1.
        1   -1    0    0  501    0  0.00000000000E+00  0.00000000000E+00 -0.16573958404E+04  0.16573958404E+04  0.50400001928E-02 0.  1.
    10030    2    1    2    0    0  0.00000000000E+00  0.00000000000E+00 -0.75208577071E+03  0.25627059102E+04  0.24498629707E+04 0.  0.
        3    1    3    3  502    0 -0.24806802346E+03  0.51239961011E+03  0.75851906409E+03  0.94838931114E+03  0.10100000352E+00 0. -1.
       -3    1    3    3    0  502  0.24806802346E+03 -0.51239961011E+03 -0.15106048348E+04  0.16143165990E+04  0.10100000352E+00 0.  1.
</event>
<event>
 5   0  0.9491680E-05  0.2404559E+04  0.7818609E-02  0.8437799E-01
        2   -1    0    0  501    0  0.00000000000E+00  0.00000000000E+00  0.18370819984E+04  0.18370819984E+04  0.25500000920E-02 0. -1.
       -2   -1    0    0    0  501  0.00000000000E+00  0.00000000000E+00 -0.78683285535E+03  0.78683285536E+03  0.25500000920E-02 0.  1.
    10030    2    1    2    0    0  0.00000000000E+00  0.00000000000E+00  0.10502491431E+04  0.26239148538E+04  0.24045593978E+04 0.  0.
        5    1    3    3  502    0 -0.86106213869E+02 -0.10503313972E+04  0.11565695709E+04  0.15646998391E+04  0.46999998093E+01 0. -1.
       -5    1    3    3    0  502  0.86106213869E+02  0.10503313972E+04 -0.10632042784E+03  0.10592150147E+04  0.46999998093E+01 0.  1.
</event>
<event>
 5   0  0.4061631E-05  0.2393337E+04  0.7818609E-02  0.8442002E-01
       -1   -1    0    0    0  501  0.00000000000E+00  0.00000000000E+00  0.11873633617E+04  0.11873633617E+04  0.50400001928E-02 0. -1.
        1   -1    0    0  501    0  0.00000000000E+00  0.00000000000E+00 -0.12060467274E+04  0.12060467274E+04  0.50400001928E-02 0.  1.
    10030    2    1    2    0    0  0.00000000000E+00  0.00000000000E+00 -0.18683365761E+02  0.23934100891E+04  0.23933371653E+04 0.  0.
        3    1    3    3  502    0  0.36328523604E+02  0.11955189134E+04  0.28480793698E+02  0.11964097959E+04  0.10100000352E+00 0.  1.
       -3    1    3    3    0  502 -0.36328523604E+02 -0.11955189134E+04 -0.47164159459E+02  0.11970002932E+04  0.10100000352E+00 0. -1.
</event>
<event>
 5   0  0.9750757E-05  0.2422044E+04  0.7818609E-02  0.8431296E-01
        2   -1    0    0  501    0  0.00000000000E+00  0.00000000000E+00  0.10730621962E+04  0.10730621962E+04  0.25500000920E-02 0.  1.
       -2   -1    0    0    0  501  0.00000000000E+00  0.00000000000E+00 -0.13667188150E+04  0.13667188150E+04  0.25500000920E-02 0. -1.
    10030    2    1    2    0    0  0.00000000000E+00  0.00000000000E+00 -0.29365661879E+03  0.24397810113E+04  0.24220440073E+04 0.  0.
        2    1    3    3  502    0  0.72613305014E+02  0.45952976849E+03  0.97945357644E+03  0.10843291053E+04  0.25500000920E-02 0.  1.
       -2    1    3    3    0  502 -0.72613305014E+02 -0.45952976849E+03 -0.12731101952E+04  0.13554519060E+04  0.25500000920E-02 0. -1.
</event>
<event>
 5   0  0.9519092E-05  0.2431015E+04  0.7818609E-02  0.8427982E-01
       -2   -1    0    0    0  501  0.00000000000E+00  0.00000000000E+00  0.15172278099E+04  0.15172278099E+04  0.25500000920E-02 0.  1.
        2   -1    0    0  501    0  0.00000000000E+00  0.00000000000E+00 -0.97378817936E+03  0.97378817936E+03  0.25500000920E-02 0. -1.
    10030    2    1    2    0    0  0.00000000000E+00  0.00000000000E+00  0.54343963051E+03  0.24910159892E+04  0.24310150198E+04 0.  0.
        4    1    3    3  502    0 -0.32656319271E+03 -0.31693958603E+03 -0.88320240054E+03  0.99355035768E+03  0.12699999809E+01 0. -1.
       -4    1    3    3    0  502  0.32656319271E+03  0.31693958603E+03  0.14266420310E+04  0.14974656315E+04  0.12699999809E+01 0.  1.
</event>
<event>
 5   0  0.4208577E-05  0.2378224E+04  0.7818609E-02  0.8447702E-01
        1   -1    0    0  501    0  0.00000000000E+00  0.00000000000E+00  0.10796406908E+04  0.10796406909E+04  0.50400001928E-02 0. -1.
       -1   -1    0    0    0  501  0.00000000000E+00  0.00000000000E+00 -0.13096828281E+04  0.13096828281E+04  0.50400001928E-02 0.  1.
    10030    2    1    2    0    0  0.00000000000E+00  0.00000000000E+00 -0.23004213724E+03  0.23893235189E+04  0.23782236004E+04 0.  0.
        1    1    3    3  502    0 -0.41054610880E+03  0.96300855335E+03  0.45157325734E+03  0.11401105157E+04  0.50400001928E-02 0. -1.
       -1    1    3    3    0  502  0.41054610880E+03 -0.96300855335E+03 -0.68161539458E+03  0.12492130032E+04  0.50400001928E-02 0.  1.
</event>
<event>
 5   0  0.9182865E-05  0.2428551E+04  0.7818609E-02  0.8428891E-01
       -2   -1    0    0    0  501  0.00000000000E+00  0.00000000000E+00  0.81052769555E+03  0.81052769556E+03  0.25500000920E-02 0. -1.
        2   -1    0    0  501    0  0.00000000000E+00  0.00000000000E+00 -0.18191423301E+04  0.18191423301E+04  0.25500000920E-02 0.  1.
    10030    2    1    2    0    0  0.00000000000E+00  0.00000000000E+00 -0.10086146346E+04  0.26296700257E+04  0.24285512065E+04 0.  0.
        3    1    3    3  502    0  0.35087138873E+03  0.75887361025E+03 -0.14578391310E+04  0.16805638429E+04  0.10100000352E+00 0.  1.
       -3    1    3    3    0  502 -0.35087138873E+03 -0.75887361025E+03  0.44922449649E+03  0.94910618279E+03  0.10100000352E+00 0. -1.
</event>
<event>
 5   0  0.9750757E-05  0.2389979E+04  0.7818609E-02  0.8443265E-01
        2   -1    0    0  501    0  0.00000000000E+00  0.00000000000E+00  0.11434026674E+04  0.11434026674E+04  0.25500000920E-02 0. -1.
       -2   -1    0    0    0  501  0.00000000000E+00  0.00000000000E+00 -0.12489036192E+04  0.12489036192E+04  0.25500000920E-02 0.  1.
    10030    2    1    2    0    0  0.00000000000E+00  0.00000000000E+00 -0.10550095180E+03  0.23923062867E+04  0.23899788531E+04 0.  0.
        2    1    3    3  502    0 -0.62569889433E+03  0.48352625969E+03  0.84405894278E+03  0.11566037563E+04  0.25500000920E-02 0. -1.
       -2    1    3    3    0  502  0.62569889433E+03 -0.48352625969E+03 -0.94955989458E+03  0.12357025304E+04  0.25500000920E-02 0.  1.
</event>
<event>
 5   0  0.4061631E-05  0.2391629E+04  0.7818609E-02  0.8442644E-01
        1   -1    0    0  501    0  0.00000000000E+00  0.00000000000E+00  0.11488718717E+04  0.11488718717E+04  0.50400001928E-02 0.  1.
       -1   -1    0    0    0  501  0.00000000000E+00  0.00000000000E+00 -0.12446757070E+04  0.12446757070E+04  0.50400001928E-02 0. -1.
    10030    2    1    2    0    0  0.00000000000E+00  0.00000000000E+00 -0.95803835335E+02  0.23935475787E+04  0.23916294940E+04 0.  0.
        3    1    3    3  502    0 -0.66307441390E+03  0.20139849341E+03 -0.10232315367E+04  0.12358122104E+04  0.10100000352E+00 0. -1.
       -3    1    3    3    0  502  0.66307441390E+03 -0.20139849341E+03  0.92742770136E+03  0.11577353683E+04  0.10100000352E+00 0.  1.
</event>
<event>
 5   0  0.4061631E-05  0.2362899E+04  0.7818609E-02  0.8453526E-01
        1   -1    0    0  501    0  0.00000000000E+00  0.00000000000E+00  0.28322908225E+04  0.28322908225E+04  0.50400001928E-02 0.  1.
       -1   -1    0    0    0  501  0.00000000000E+00  0.00000000000E+00 -0.49282483409E+03  0.49282483412E+03  0.50400001928E-02 0. -1.
    10030    2    1    2    0    0  0.00000000000E+00  0.00000000000E+00  0.23394659884E+04  0.33251156567E+04  0.23628992825E+04 0.  0.
        3    1    3    3  502    0  0.77690084632E+03 -0.51759169280E+03  0.15074045293E+03  0.94562084358E+03  0.10100000352E+00 0. -1.
       -3    1    3    3    0  502 -0.77690084632E+03  0.51759169280E+03  0.21887255355E+04  0.23794948131E+04  0.10100000352E+00 0.  1.
</event>
<event>
 5   0  0.4260395E-05  0.2370202E+04  0.7818609E-02  0.8450744E-01
       -1   -1    0    0    0  501  0.00000000000E+00  0.00000000000E+00  0.11184098116E+04  0.11184098116E+04  0.50400001928E-02 0. -1.
        1   -1    0    0  501    0  0.00000000000E+00  0.00000000000E+00 -0.12557689585E+04  0.12557689586E+04  0.50400001928E-02 0.  1.
    10030    2    1    2    0    0  0.00000000000E+00  0.00000000000E+00 -0.13735914692E+03  0.23741787702E+04  0.23702019529E+04 0.  0.
        4    1    3    3  502    0  0.86759403111E+02 -0.39560857790E+03  0.10469347614E+04  0.11225450318E+04  0.12699999809E+01 0. -1.
       -4    1    3    3    0  502 -0.86759403111E+02  0.39560857790E+03 -0.11842939083E+04  0.12516337384E+04  0.12699999809E+01 0.  1.
</event>
<event>
 5   0  0.9182865E-05  0.2400609E+04  0.7818609E-02  0.8439276E-01
        2   -1    0    0  501    0  0.00000000000E+00  0.00000000000E+00  0.26995077395E+04  0.26995077395E+04  0.25500000920E-02 0. -1.
       -2   -1    0    0    0  501  0.00000000000E+00  0.00000000000E+00 -0.53370117062E+03  0.53370117062E+03  0.25500000920E-02 0.  1.
    10030    2    1    2    0    0  0.00000000000E+00  0.00000000000E+00  0.21658065689E+04  0.32332089101E+04  0.24006086234E+04 0.  0.
        3    1    3    3  502    0  0.95011803973E+03  0.66271291895E+03  0.15062827960E+04  0.19002106657E+04  0.10100000352E+00 0. -1.
       -3    1    3    3    0  502 -0.95011803973E+03 -0.66271291895E+03  0.65952377283E+03  0.13329982444E+04  0.10100000352E+00 0.  1.
</event>
<event>
 5   0  0.9750757E-05  0.2380888E+04  0.7818609E-02  0.8446694E-01
        2   -1    0    0  501    0  0.00000000000E+00  0.00000000000E+00  0.95573935388E+03  0.95573935388E+03  0.25500000920E-02 0. -1.
       -2   -1    0    0    0  501  0.00000000000E+00  0.00000000000E+00 -0.14827855201E+04  0.14827855201E+04  0.25500000920E-02 0.  1.
    10030    2    1    2    0    0  0.00000000000E+00  0.00000000000E+00 -0.52704616622E+03  0.24385248740E+04  0.23808876285E+04 0.  0.
        2    1    3    3  502    0  0.10911734652E+04 -0.35580713706E+03 -0.58724132813E+03  0.12892286948E+04  0.25500000920E-02 0. -1.
       -2    1    3    3    0  502 -0.10911734652E+04  0.35580713706E+03  0.60195161909E+02  0.11492961792E+04  0.25500000920E-02 0.  1.
</event>
<event>
 5   0  0.9519092E-05  0.2042324E+04  0.7818609E-02  0.8587085E-01
        2   -1    0    0  501    0  0.00000000000E+00  0.00000000000E+00  0.18552883639E+04  0.18552883639E+04  0.25500000920E-02 0. -1.
       -2   -1    0    0    0  501  0.00000000000E+00  0.00000000000E+00 -0.56205372355E+03  0.56205372356E+03  0.25500000920E-02 0.  1.
    10030    2    1    2    0    0  0.00000000000E+00  0.00000000000E+00  0.12932346403E+04  0.24173420875E+04  0.20423239050E+04 0.  0.
        4    1    3    3  502    0  0.49392276459E+03 -0.31988608326E+03  0.16344169333E+04  0.17371261118E+04  0.12699999809E+01 0. -1.
       -4    1    3    3    0  502 -0.49392276459E+03  0.31988608326E+03 -0.34118229292E+03  0.68021597566E+03  0.12699999809E+01 0.  1.
</event>
<event>
 5   0  0.3934906E-05  0.2394772E+04  0.7818609E-02  0.8441464E-01
       -1   -1    0    0    0  501  0.00000000000E+00  0.00000000000E+00  0.10952708011E+04  0.10952708011E+04  0.50400001928E-02 0. -1.
        1   -1    0    0  501    0  0.00000000000E+00  0.00000000000E+00 -0.13090212875E+04  0.13090212875E+04  0.50400001928E-02 0.  1.
    10030    2    1    2    0    0  0.00000000000E+00  0.00000000000E+00 -0.21375048641E+03  0.24042920886E+04  0.23947716335E+04 0.  0.
        2    1    3    3  502    0 -0.77812773315E+02 -0.30121882569E+03 -0.12677354466E+04  0.13053508231E+04  0.25500000920E-02 0.  1.
       -2    1    3    3    0  502  0.77812773315E+02  0.30121882569E+03  0.10539849602E+04  0.10989412655E+04  0.25500000920E-02 0. -1.
</event>
<event>
 5   0  0.9182865E-05  0.2383043E+04  0.7818609E-02  0.8445879E-01
       -2   -1    0    0    0  501  0.00000000000E+00  0.00000000000E+00  0.13525219851E+04  0.13525219851E+04  0.25500000920E-02 0.  1.
        2   -1    0    0  501    0  0.00000000000E+00  0.00000000000E+00 -0.10496859716E+04  0.10496859716E+04  0.25500000920E-02 0. -1.
    10030    2    1    2    0    0  0.00000000000E+00  0.00000000000E+00  0.30283601354E+03  0.24022079567E+04  0.23830428902E+04 0.  0.
        3    1    3    3  502    0 -0.43628357189E+03  0.98473843223E+03 -0.36225862108E+03  0.11363469777E+04  0.10100000352E+00 0.  1.
       -3    1    3    3    0  502  0.43628357189E+03 -0.98473843223E+03  0.66509463462E+03  0.12658609790E+04  0.10100000352E+00 0. -1.
</event>
<event>
 5   0  0.9750757E-05  0.2402852E+04  0.7818609E-02  0.8438437E-01
       -2   -1    0    0    0  501  0.00000000000E+00  0.00000000000E+00  0.94780146346E+03  0.94780146346E+03  0.25500000920E-02 0. -1.
        2   -1    0    0  501    0  0.00000000000E+00  0.00000000000E+00 -0.15229181828E+04  0.15229181828E+04  0.25500000920E-02 0.  1.
    10030    2    1    2    0    0  0.00000000000E+00  0.00000000000E+00 -0.57511671938E+03  0.24707196463E+04  0.24028517078E+04 0.  0.
        2    1    3    3  502    0 -0.57159575534E+03 -0.46827351094E+03 -0.12616390329E+04  0.14620994624E+04  0.25500000920E-02 0.  1.
       -2    1    3    3    0  502  0.57159575534E+03  0.46827351094E+03  0.68652231348E+03  0.10086201840E+04  0.25500000920E-02 0. -1.
</event>
<event>
 5   0  0.4208577E-05  0.2421974E+04  0.7818609E-02  0.8431323E-01
       -1   -1    0    0    0  501  0.00000000000E+00  0.00000000000E+00  0.88040450407E+03  0.88040450408E+03  0.50400001928E-02 0. -1.
        1   -1    0    0  501    0  0.00000000000E+00  0.00000000000E+00 -0.16656992100E+04  0.16656992100E+04  0.50400001928E-02 0.  1.
    10030    2    1    2    0    0  0.00000000000E+00  0.00000000000E+00 -0.78529470594E+03  0.25461037141E+04  0.24219736472E+04 0.  0.
        1    1    3    3  502    0 -0.62789776868E+03 -0.69048125152E+03 -0.12038629637E+04  0.15232550679E+04  0.50400001928E-02 0.  1.
       -1    1    3    3    0  502  0.62789776868E+03  0.69048125152E+03  0.41856825771E+03  0.10228486462E+04  0.50400001928E-02 0. -1.
</event>
<event>
 5   0  0.4018942E-05  0.2379266E+04  0.7818609E-02  0.8447307E-01
       -1   -1    0    0    0  501  0.00000000000E+00  0.00000000000E+00  0.60729779023E+03  0.60729779025E+03  0.50400001928E-02 0.  1.
        1   -1    0    0  501    0  0.00000000000E+00  0.00000000000E+00 -0.23303664557E+04  0.23303664557E+04  0.50400001928E-02 0. -1.
    10030    2    1    2    0    0  0.00000000000E+00  0.00000000000E+00 -0.17230686654E+04  0.29376642459E+04  0.23792657683E+04 0.  0.
        5    1    3    3  502    0  0.54299344982E+02  0.54005286763E+03  0.44549181504E+03  0.70220407715E+03  0.46999998093E+01 0.  1.
       -5    1    3    3    0  502 -0.54299344982E+02 -0.54005286763E+03 -0.21685604805E+04  0.22354601688E+04  0.46999998093E+01 0. -1.
</event>
<event>
 5   0  0.4260395E-05  0.2464738E+04  0.7818609E-02  0.8415657E-01
       -1   -1    0    0    0  501  0.00000000000E+00  0.00000000000E+00  0.24009295740E+04  0.24009295740E+04  0.50400001928E-02 0. -1.
        1   -1    0    0  501    0  0.00000000000E+00  0.00000000000E+00 -0.63256035205E+03  0.63256035207E+03  0.50400001928E-02 0.  1.
    10030    2    1    2    0    0  0.00000000000E+00  0.00000000000E+00  0.17683692220E+04  0.30334899261E+04  0.24647375979E+04 0.  0.
        4    1    3    3  502    0 -0.78438685932E+02 -0.51820895939E+03  0.22569259302E+04  0.23169828270E+04  0.12699999809E+01 0. -1.
       -4    1    3    3    0  502  0.78438685932E+02  0.51820895939E+03 -0.48855670824E+03  0.71650709914E+03  0.12699999809E+01 0.  1.
</event>
<event>
 5   0  0.4061631E-05  0.2407852E+04  0.7818609E-02  0.8436570E-01
       -1   -1    0    0    0  501  0.00000000000E+00  0.00000000000E+00  0.76900624488E+03  0.76900624489E+03  0.50400001928E-02 0. -1.
        1   -1    0    0  501    0  0.00000000000E+00  0.00000000000E+00 -0.18848200755E+04  0.18848200755E+04  0.50400001928E-02 0.  1.
    10030    2    1    2    0    0  0.00000000000E+00  0.00000000000E+00 -0.11158138306E+04  0.26538263204E+04  0.24078524943E+04 0.  0.
        3    1    3    3  502    0  0.54841380740E+03 -0.23782282344E+03  0.59389553335E+03  0.84263237193E+03  0.10100000352E+00 0. -1.
       -3    1    3    3    0  502 -0.54841380740E+03  0.23782282344E+03 -0.17097093640E+04  0.18111939485E+04  0.10100000352E+00 0.  1.
</event>
<event>
 5   0  0.9182865E-05  0.2334357E+04  0.7818609E-02  0.8464496E-01
       -2   -1    0    0    0  501  0.00000000000E+00  0.00000000000E+00  0.74313320877E+03  0.74313320877E+03  0.25500000920E-02 0.  1.
        2   -1    0    0  501    0  0.00000000000E+00  0.00000000000E+00 -0.18331919506E+04  0.18331919506E+04  0.25500000920E-02 0. -1.
    10030    2    1    2    0    0  0.00000000000E+00  0.00000000000E+00 -0.10900587418E+04  0.25763251593E+04  0.23343571419E+04 0.  0.
        3    1    3    3  502    0 -0.68387719594E+03  0.50361963481E+03  0.33857391854E+03  0.91430468893E+03  0.10100000352E+00 0.  1.
       -3    1    3    3    0  502  0.68387719594E+03 -0.50361963481E+03 -0.14286326603E+04  0.16620204704E+04  0.10100000352E+00 0. -1.
</event>
<event>
 5   0  0.3934906E-05  0.2383456E+04  0.7818609E-02  0.8445723E-01
        1   -1    0    0  501    0  0.00000000000E+00  0.00000000000E+00  0.16263623707E+04  0.16263623707E+04  0.50400001928E-02 0. -1.
       -1   -1    0    0    0  501  0.00000000000E+00  0.00000000000E+00 -0.87324671179E+03  0.87324671180E+03  0.50400001928E-02 0.  1.
    10030    2    1    2    0    0  0.00000000000E+00  0.00000000000E+00  0.75311565894E+03  0.24996090825E+04  0.23834559719E+04 0.  0.
        2    1    3    3  502    0 -0.20979555599E+03  0.64341550171E+03 -0.65217281756E+03  0.93985481172E+03  0.25500000920E-02 0.  1.
       -2    1    3    3    0  502  0.20979555599E+03 -0.64341550171E+03  0.14052884765E+04  0.15597542708E+04  0.25500000920E-02 0. -1.
</event>
<event>
 5   0  0.9144244E-05  0.2453298E+04  0.7818609E-02  0.8419815E-01
        2   -1    0    0  501    0  0.00000000000E+00  0.00000000000E+00  0.14163203727E+04  0.14163203727E+04  0.25500000920E-02 0. -1.
       -2   -1    0    0    0  501  0.00000000000E+00  0.00000000000E+00 -0.10623778537E+04  0.10623778537E+04  0.25500000920E-02 0.  1.
    10030    2    1    2    0    0  0.00000000000E+00  0.00000000000E+00  0.35394251901E+03  0.24786982264E+04  0.24532976971E+04 0.  0.
        1    1    3    3  502    0 -0.58970952249E+03 -0.38571544007E+03 -0.83748299064E+03  0.10944914258E+04  0.50400001928E-02 0.  1.
       -1    1    3    3    0  502  0.58970952249E+03  0.38571544007E+03  0.11914255096E+04  0.13842068005E+04  0.50400001928E-02 0. -1.
</event>
<event>
 5   0  0.3934906E-05  0.2442616E+04  0.7818609E-02  0.8423719E-01
        1   -1    0    0  501    0  0.00000000000E+00  0.00000000000E+00  0.16050904787E+04  0.16050904787E+04  0.50400001928E-02 0. -1.
       -1   -1    0    0    0  501  0.00000000000E+00  0.00000000000E+00 -0.92928900678E+03  0.92928900679E+03  0.50400001928E-02 0.  1.
    10030    2    1    2    0    0  0.00000000000E+00  0.00000000000E+00  0.67580147188E+03  0.25343794855E+04  0.24426157592E+04 0.  0.
        2    1    3    3  502    0 -0.10610783870E+04 -0.58753634723E+03  0.48648187376E+03  0.13068094414E+04  0.25500000920E-02 0. -1.
       -2    1    3    3    0  502  0.10610783870E+04  0.58753634723E+03  0.18931959811E+03  0.12275700440E+04  0.25500000920E-02 0.  1.
</event>
<event>
 5   0  0.4061631E-05  0.2414557E+04  0.7818609E-02  0.8434074E-01
       -1   -1    0    0    0  501  0.00000000000E+00  0.00000000000E+00  0.80545917017E+03  0.80545917018E+03  0.50400001928E-02 0.  1.
        1   -1    0    0  501    0  0.00000000000E+00  0.00000000000E+00 -0.18095535726E+04  0.18095535726E+04  0.50400001928E-02 0. -1.
    10030    2    1    2    0    0  0.00000000000E+00  0.00000000000E+00 -0.10040944024E+04  0.26150127427E+04  0.24145571179E+04 0.  0.
        3    1    3    3  502    0  0.36420534876E+03 -0.83413253348E+03 -0.13610523863E+04  0.16373412069E+04  0.10100000352E+00 0. -1.
       -3    1    3    3    0  502 -0.36420534876E+03  0.83413253348E+03  0.35695798390E+03  0.97767153582E+03  0.10100000352E+00 0.  1.
</event>
<event>
 5   0  0.9144244E-05  0.2448903E+04  0.7818609E-02  0.8421419E-01
        2   -1    0    0  501    0  0.00000000000E+00  0.00000000000E+00  0.13901294117E+04  0.13901294117E+04  0.25500000920E-02 0.  1.
       -2   -1    0    0    0  501  0.00000000000E+00  0.00000000000E+00 -0.10785193056E+04  0.10785193056E+04  0.25500000920E-02 0. -1.
    10030    2    1    2    0    0  0.00000000000E+00  0.00000000000E+00  0.31161010609E+03  0.24686487173E+04  0.24489029444E+04 0.  0.
        1    1    3    3  502    0 -0.50209860059E+03 -0.65641607501E+03  0.10665811966E+04  0.13492888932E+04  0.50400001928E-02 0.  1.
       -1    1    3    3    0  502  0.50209860059E+03  0.65641607501E+03 -0.75497109052E+03  0.11193598241E+04  0.50400001928E-02 0. -1.
</event>
<event>
 5   0  0.4260395E-05  0.2440525E+04  0.7818609E-02  0.8424486E-01
        1   -1    0    0  501    0  0.00000000000E+00  0.00000000000E+00  0.17502516906E+04  0.17502516906E+04  0.50400001928E-02 0. -1.
       -1   -1    0    0    0  501  0.00000000000E+00  0.00000000000E+00 -0.85075796258E+03  0.85075796260E+03  0.50400001928E-02 0.  1.
    10030    2    1    2    0    0  0.00000000000E+00  0.00000000000E+00  0.89949372805E+03  0.26010096532E+04  0.24405249946E+04 0.  0.
        4    1    3    3  502    0  0.81075299227E+03 -0.63508818254E+02 -0.51985019554E+03  0.96519408576E+03  0.12699999809E+01 0.  1.
       -4    1    3    3    0  502 -0.81075299227E+03  0.63508818254E+02  0.14193439236E+04  0.16358155675E+04  0.12699999809E+01 0. -1.
</event>
<event>
 5   0  0.9750757E-05  0.2338302E+04  0.7818609E-02  0.8462971E-01
       -2   -1    0    0    0  501  0.00000000000E+00  0.00000000000E+00  0.66814009829E+03  0.66814009829E+03  0.25500000920E-02 0.  1.
        2   -1    0    0  501    0  0.00000000000E+00  0.00000000000E+00 -0.20458489752E+04  0.20458489752E+04  0.25500000920E-02 0. -1.
    10030    2    1    2    0    0  0.00000000000E+00  0.00000000000E+00 -0.13777088769E+04  0.27139890734E+04  0.23383017216E+04 0.  0.
        2    1    3    3  502    0 -0.46225070729E+03 -0.10606017651E+03  0.55147929333E+03  0.72736090657E+03  0.25500000920E-02 0.  1.
       -2    1    3    3    0  502  0.46225070729E+03  0.10606017651E+03 -0.19291881702E+04  0.19866281669E+04  0.25500000920E-02 0. -1.
</event>
<event>
 5   0  0.4018942E-05  0.1894660E+04  0.7818609E-02  0.8657519E-01
       -1   -1    0    0    0  501  0.00000000000E+00  0.00000000000E+00  0.63655574033E+03  0.63655574035E+03  0.50400001928E-02 0. -1.
        1   -1    0    0  501    0  0.00000000000E+00  0.00000000000E+00 -0.14098277777E+04  0.14098277777E+04  0.50400001928E-02 0.  1.
    10030    2    1    2    0    0  0.00000000000E+00  0.00000000000E+00 -0.77327203741E+03  0.20463835181E+04  0.18946598268E+04 0.  0.
        5    1    3    3  502    0 -0.74797594790E+03  0.54935211261E+03 -0.59201057940E+03  0.11007971559E+04  0.46999998093E+01 0.  1.
       -5    1    3    3    0  502  0.74797594790E+03 -0.54935211261E+03 -0.18126145801E+03  0.94558636222E+03  0.46999998093E+01 0. -1.
</event>
<event>
 5   0  0.9182865E-05  0.2515131E+04  0.7818609E-02  0.8397615E-01
        2   -1    0    0  501    0  0.00000000000E+00  0.00000000000E+00  0.11931580520E+04  0.11931580520E+04  0.25500000920E-02 0.  1.
       -2   -1    0    0    0  501  0.00000000000E+00  0.00000000000E+00 -0.13254500965E+04  0.13254500965E+04  0.25500000920E-02 0. -1.
    10030    2    1    2    0    0  0.00000000000E+00  0.00000000000E+00 -0.13229204457E+03  0.25186081485E+04  0.25151313724E+04 0.  0.
        3    1    3    3  502    0  0.13811921270E+03  0.10211360365E+04  0.65573586348E+03  0.12213866115E+04  0.10100000352E+00 0.  1.
       -3    1    3    3    0  502 -0.13811921270E+03 -0.10211360365E+04 -0.78802790805E+03  0.12972215370E+04  0.10100000352E+00 0. -1.
</event>
<event>
 5   0  0.3934906E-05  0.2393447E+04  0.7818609E-02  0.8441961E-01
        1   -1    0    0  501    0  0.00000000000E+00  0.00000000000E+00  0.22075151786E+04  0.22075151786E+04  0.50400001928E-02 0.  1.
       -1   -1    0    0    0  501  0.00000000000E+00  0.00000000000E+00 -0.64875954576E+03  0.64875954578E+03  0.50400001928E-02 0. -1.
    10030    2    1    2    0    0  0.00000000000E+00  0.00000000000E+00  0.15587556328E+04  0.28562747244E+04  0.23934465062E+04 0.  0.
        2    1    3    3  502    0  0.35953448351E+03  0.10120786574E+04  0.14950932134E+03  0.10843990459E+04  0.25500000920E-02 0. -1.
       -2    1    3    3    0  502 -0.35953448351E+03 -0.10120786574E+04  0.14092463115E+04  0.17718756785E+04  0.25500000920E-02 0.  1.
</event>
<event>
 5   0  0.9750757E-05  0.2420614E+04  0.7818609E-02  0.8431826E-01
       -2   -1    0    0    0  501  0.00000000000E+00  0.00000000000E+00  0.68188940999E+03  0.68188940999E+03  0.25500000920E-02 0.  1.
        2   -1    0    0  501    0  0.00000000000E+00  0.00000000000E+00 -0.21482116116E+04  0.21482116116E+04  0.25500000920E-02 0. -1.
    10030    2    1    2    0    0  0.00000000000E+00  0.00000000000E+00 -0.14663222016E+04  0.28301010216E+04  0.24206137638E+04 0.  0.
        2    1    3    3  502    0  0.21475244968E+03  0.11433044868E+04 -0.34261919509E+03  0.12127042826E+04  0.25500000920E-02 0.  1.
       -2    1    3    3    0  502 -0.21475244968E+03 -0.11433044868E+04 -0.11237030065E+04  0.16173967389E+04  0.25500000920E-02 0. -1.
</event>
<event>
 5   0  0.9144244E-05  0.2382861E+04  0.7818609E-02  0.8445948E-01
        2   -1    0    0  501    0  0.00000000000E+00  0.00000000000E+00  0.10854557906E+04  0.10854557906E+04  0.25500000920E-02 0. -1.
       -2   -1    0    0    0  501  0.00000000000E+00  0.00000000000E+00 -0.13077521315E+04  0.13077521315E+04  0.25500000920E-02 0.  1.
    10030    2    1    2    0    0  0.00000000000E+00  0.00000000000E+00 -0.22229634088E+03  0.23932079221E+04  0.23828614091E+04 0.  0.
        1    1    3    3  502    0  0.96771816459E+03  0.28586668798E+03  0.52509194963E+03  0.11375059406E+04  0.50400001928E-02 0. -1.
       -1    1    3    3    0  502 -0.96771816459E+03 -0.28586668798E+03 -0.74738829051E+03  0.12557019814E+04  0.50400001928E-02 0.  1.
</event>
<event>
 5   0  0.4061631E-05  0.2428226E+04  0.7818609E-02  0.8429011E-01
        1   -1    0    0  501    0  0.00000000000E+00  0.00000000000E+00  0.96819827986E+03  0.96819827987E+03  0.50400001928E-02 0. -1.
       -1   -1    0    0    0  501  0.00000000000E+00  0.00000000000E+00 -0.15224882966E+04  0.15224882966E+04  0.50400001928E-02 0.  1.
    10030    2    1    2    0    0  0.00000000000E+00  0.00000000000E+00 -0.55429001675E+03  0.24906865765E+04  0.24282261426E+04 0.  0.
        3    1    3    3  502    0  0.10908810367E+03 -0.12802430711E+03 -0.15104800513E+04  0.15198159208E+04  0.10100000352E+00 0.  1.
       -3    1    3    3    0  502 -0.10908810367E+03  0.12802430711E+03  0.95619003458E+03  0.97087065565E+03  0.10100000352E+00 0. -1.
</event>
<event>
 5   0  0.4260395E-05  0.2416747E+04  0.7818609E-02  0.8433260E-01
       -1   -1    0    0    0  501  0.00000000000E+00  0.00000000000E+00  0.93663652123E+03  0.93663652125E+03  0.50400001928E-02 0.  1.
        1   -1    0    0  501    0  0.00000000000E+00  0.00000000000E+00 -0.15589474084E+04  0.15589474084E+04  0.50400001928E-02 0. -1.
    10030    2    1    2    0    0  0.00000000000E+00  0.00000000000E+00 -0.62231088713E+03  0.24955839296E+04  0.24167474650E+04 0.  0.
        4    1    3    3  502    0 -0.42010615349E+03 -0.29084428227E+03 -0.14419040325E+04  0.15297609057E+04  0.12699999809E+01 0. -1.
       -4    1    3    3    0  502  0.42010615349E+03  0.29084428227E+03  0.81959314537E+03  0.96582302394E+03  0.12699999809E+01 0.  1.
</event>
<event>
 5   0  0.9750757E-05  0.1243998E+04  0.7818609E-02  0.9075194E-01
        2   -1    0    0  501    0  0.00000000000E+00  0.00000000000E+00  0.12374053286E+04  0.12374053286E+04  0.25500000920E-02 0. -1.
       -2   -1    0    0    0  501  0.00000000000E+00  0.00000000000E+00 -0.31265632840E+03  0.31265632841E+03  0.25500000920E-02 0.  1.
    10030    2    1    2    0    0  0.00000000000E+00  0.00000000000E+00  0.92474900021E+03  0.15500616570E+04  0.12439977601E+04 0.  0.
        2    1    3    3  502    0 -0.16751155235E+03 -0.43932551755E+03  0.96976465641E+03  0.10777339743E+04  0.25500000920E-02 0. -1.
       -2    1    3    3    0  502  0.16751155235E+03  0.43932551755E+03 -0.45015656209E+02  0.47232768271E+03  0.25500000920E-02 0.  1.
</event>
<event>
 5   0  0.9519092E-05  0.2371332E+04  0.7818609E-02  0.8450315E-01
       -2   -1    0    0    0  501  0.00000000000E+00  0.00000000000E+00  0.64635273941E+03  0.64635273941E+03  0.25500000920E-02 0.  1.
        2   -1    0    0  501    0  0.00000000000E+00  0.00000000000E+00 -0.21749802489E+04  0.21749802489E+04  0.25500000920E-02 0. -1.
    10030    2    1    2    0    0  0.00000000000E+00  0.00000000000E+00 -0.15286275095E+04  0.28213329883E+04  0.23713324879E+04 0.  0.
        4    1    3    3  502    0 -0.10938802859E+04  0.11782942694E+03 -0.23846237454E+03  0.11257547560E+04  0.12699999809E+01 0. -1.
       -4    1    3    3    0  502  0.10938802859E+04 -0.11782942694E+03 -0.12901651350E+04  0.16955782324E+04  0.12699999809E+01 0.  1.
</event>
<event>
 5   0  0.9182865E-05  0.2378920E+04  0.7818609E-02  0.8447438E-01
        2   -1    0    0  501    0  0.00000000000E+00  0.00000000000E+00  0.10370243015E+04  0.10370243015E+04  0.25500000920E-02 0.  1.
       -2   -1    0    0    0  501  0.00000000000E+00  0.00000000000E+00 -0.13643025400E+04  0.13643025400E+04  0.25500000920E-02 0. -1.
    10030    2    1    2    0    0  0.00000000000E+00  0.00000000000E+00 -0.32727823850E+03  0.24013268415E+04  0.23789198293E+04 0.  0.
        3    1    3    3  502    0 -0.52845712813E+03 -0.90159650189E+03 -0.73703147762E+03  0.12788114004E+04  0.10100000352E+00 0. -1.
       -3    1    3    3    0  502  0.52845712813E+03  0.90159650189E+03  0.40975323912E+03  0.11225154412E+04  0.10100000352E+00 0.  1.
</event>
<event>
 5   0  0.9491680E-05  0.2409763E+04  0.7818609E-02  0.8435857E-01
       -2   -1    0    0    0  501  0.00000000000E+00  0.00000000000E+00  0.85022571009E+03  0.85022571009E+03  0.25500000920E-02 0. -1.
        2   -1    0    0  501    0  0.00000000000E+00  0.00000000000E+00 -0.17074756709E+04  0.17074756709E+04  0.25500000920E-02 0.  1.
    10030    2    1    2    0    0  0.00000000000E+00  0.00000000000E+00 -0.85724996080E+03  0.25577013810E+04  0.24097632371E+04 0.  0.
        5    1    3    3  502    0 -0.78343374500E+03 -0.10356936452E+03 -0.13939790978E+04  0.16024028399E+04  0.46999998093E+01 0.  1.
       -5    1    3    3    0  502  0.78343374500E+03  0.10356936452E+03  0.53672913705E+03  0.95529854110E+03  0.46999998093E+01 0. -1.
</event>
<event>
 5   0  0.4260395E-05  0.2341257E+04  0.7818609E-02  0.8461830E-01
       -1   -1    0    0    0  501  0.00000000000E+00  0.00000000000E+00  0.12881344945E+04  0.12881344945E+04  0.50400001928E-02 0. -1.
        1   -1    0    0  501    0  0.00000000000E+00  0.00000000000E+00 -0.10638413267E+04  0.10638413267E+04  0.50400001928E-02 0.  1.
    10030    2    1    2    0    0  0.00000000000E+00  0.00000000000E+00  0.22429316781E+03  0.23519758212E+04  0.23412566793E+04 0.  0.
        4    1    3    3  502    0 -0.12512524586E+03  0.81384285535E+03  0.94804548133E+03  0.12557023405E+04  0.12699999809E+01 0. -1.
       -4    1    3    3    0  502  0.12512524586E+03 -0.81384285535E+03 -0.72375231353E+03  0.10962734807E+04  0.12699999809E+01 0.  1.
</event>
<event>
 5   0  0.4018942E-05  0.2242573E+04  0.7818609E-02  0.8500914E-01
        1   -1    0    0  501    0  0.00000000000E+00  0.00000000000E+00  0.81034459997E+03  0.81034459999E+03  0.50400001928E-02 0. -1.
       -1   -1    0    0    0  501  0.00000000000E+00  0.00000000000E+00 -0.15515423143E+04  0.15515423143E+04  0.50400001928E-02 0.  1.
    10030    2    1    2    0    0  0.00000000000E+00  0.00000000000E+00 -0.74119771431E+03  0.23618869143E+04  0.22425734646E+04 0.  0.
        5    1    3    3  502    0  0.47283105006E+03  0.10404306625E+03 -0.14357767641E+04  0.15152132417E+04  0.46999998093E+01 0.  1.
       -5    1    3    3    0  502 -0.47283105006E+03 -0.10404306625E+03  0.69457904975E+03  0.84667367260E+03  0.46999998093E+01 0. -1.
</event>
<event>
 5   0  0.4208577E-05  0.2297841E+04  0.7818609E-02  0.8478773E-01
       -1   -1    0    0    0  501  0.00000000000E+00  0.00000000000E+00  0.57942856713E+03  0.57942856715E+03  0.50400001928E-02 0.  1.
        1   -1    0    0  501    0  0.00000000000E+00  0.00000000000E+00 -0.22781373841E+04  0.22781373841E+04  0.50400001928E-02 0. -1.
    10030    2    1    2    0    0  0.00000000000E+00  0.00000000000E+00 -0.16987088169E+04  0.28575659512E+04  0.22978406213E+04 0.  0.
        1    1    3    3  502    0  0.15968269113E+02 -0.91392827569E+03 -0.17149645875E+04  0.19433536516E+04  0.50400001928E-02 0. -1.
       -1    1    3    3    0  502 -0.15968269113E+02  0.91392827569E+03  0.16255770546E+02  0.91421229965E+03  0.50400001928E-02 0.  1.
</event>
<event>
 5   0  0.9519092E-05  0.2370337E+04  0.7818609E-02  0.8450693E-01
        2   -1    0    0  501    0  0.00000000000E+00  0.00000000000E+00  0.14056552400E+04  0.14056552400E+04  0.25500000920E-02 0. -1.
       -2   -1    0    0    0  501  0.00000000000E+00  0.00000000000E+00 -0.99926642267E+03  0.99926642268E+03  0.25500000920E-02 0.  1.
    10030    2    1    2    0    0  0.00000000000E+00  0.00000000000E+00  0.40638881734E+03  0.24049216627E+04  0.23703367552E+04 0.  0.
        4    1    3    3  502    0  0.11450603048E+04  0.28658394739E+03  0.31118523328E+03  0.12207093524E+04  0.12699999809E+01 0. -1.
       -4    1    3    3    0  502 -0.11450603048E+04 -0.28658394739E+03  0.95203584063E+02  0.11842123103E+04  0.12699999809E+01 0.  1.
</event>
<event>
 5   0  0.9519092E-05  0.2315060E+04  0.7818609E-02  0.8472007E-01
       -2   -1    0    0    0  501  0.00000000000E+00  0.00000000000E+00  0.55130068916E+03  0.55130068917E+03  0.25500000920E-02 0. -1.
        2   -1    0    0  501    0  0.00000000000E+00  0.00000000000E+00 -0.24303890011E+04  0.24303890011E+04  0.25500000920E-02 0.  1.
    10030    2    1    2    0    0  0.00000000000E+00  0.00000000000E+00 -0.18790883120E+04  0.29816896903E+04  0.23150595079E+04 0.  0.
        4    1    3    3  502    0 -0.96240526765E+03 -0.36952540284E+03 -0.16175274842E+04  0.19181161846E+04  0.12699999809E+01 0.  1.
       -4    1    3    3    0  502  0.96240526765E+03  0.36952540284E+03 -0.26156082779E+03  0.10635735057E+04  0.12699999809E+01 0. -1.
</event>
<event>
 5   0  0.3234750E-05  0.1378460E+04  0.7818609E-02  0.8969560E-01
        3   -1    0    0  501    0  0.00000000000E+00  0.00000000000E+00  0.24376243160E+03  0.24376245252E+03  0.10100000352E+00 0.  1.
       -3   -1    0    0    0  501  0.00000000000E+00  0.00000000000E+00 -0.19487735022E+04  0.19487735049E+04  0.10100000352E+00 0. -1.
    10030    2    1    2    0    0  0.00000000000E+00  0.00000000000E+00 -0.17050110707E+04  0.21925359574E+04  0.13784597105E+04 0.  0.
        1    1    3    3  502    0  0.16321548116E+02  0.14778008238E+03 -0.19229628755E+04  0.19287020419E+04  0.50400001928E-02 0. -1.
       -1    1    3    3    0  502 -0.16321548116E+02 -0.14778008238E+03  0.21795180489E+03  0.26383391549E+03  0.50400001928E-02 0.  1.
</event>
<event>
 5   0  0.9750757E-05  0.2150797E+04  0.7818609E-02  0.8539191E-01
        2   -1    0    0  501    0  0.00000000000E+00  0.00000000000E+00  0.24100859598E+04  0.24100859598E+04  0.25500000920E-02 0.  1.
       -2   -1    0    0    0  501  0.00000000000E+00  0.00000000000E+00 -0.47985085225E+03  0.47985085226E+03  0.25500000920E-02 0. -1.
    10030    2    1    2    0    0  0.00000000000E+00  0.00000000000E+00  0.19302351076E+04  0.28899368121E+04  0.21507968773E+04 0.  0.
        2    1    3    3  502    0 -0.22093764149E+03 -0.40560585458E+03  0.22700254306E+04  0.23165372879E+04  0.25500000920E-02 0.  1.
       -2    1    3    3    0  502  0.22093764149E+03  0.40560585458E+03 -0.33979032303E+03  0.57339952418E+03  0.25500000920E-02 0. -1.
</event>
<event>
 5   0  0.3934906E-05  0.2378393E+04  0.7818609E-02  0.8447637E-01
        1   -1    0    0  501    0  0.00000000000E+00  0.00000000000E+00  0.15863846212E+04  0.15863846212E+04  0.50400001928E-02 0. -1.
       -1   -1    0    0    0  501  0.00000000000E+00  0.00000000000E+00 -0.89145377125E+03  0.89145377127E+03  0.50400001928E-02 0.  1.
    10030    2    1    2    0    0  0.00000000000E+00  0.00000000000E+00  0.69493084992E+03  0.24778383924E+04  0.23783931998E+04 0.  0.
        2    1    3    3  502    0  0.80737638087E+03  0.37246882278E+03 -0.47523552086E+03  0.10081857193E+04  0.25500000920E-02 0.  1.
       -2    1    3    3    0  502 -0.80737638087E+03 -0.37246882278E+03  0.11701663708E+04  0.14696526731E+04  0.25500000920E-02 0. -1.
</event>
<event>
 5   0  0.4061631E-05  0.2309028E+04  0.7818609E-02  0.8474370E-01
       -1   -1    0    0    0  501  0.00000000000E+00  0.00000000000E+00  0.14502687029E+04  0.14502687029E+04  0.50400001928E-02 0.  1.
        1   -1    0    0  501    0  0.00000000000E+00  0.00000000000E+00 -0.91907285437E+03  0.91907285438E+03  0.50400001928E-02 0. -1.
    10030    2    1    2    0    0  0.00000000000E+00  0.00000000000E+00  0.53119584849E+03  0.23693415573E+04  0.23090280175E+04 0.  0.
        3    1    3    3  502    0  0.35971557971E+03 -0.16322222698E+03 -0.84757321749E+03  0.93510275525E+03  0.10100000352E+00 0. -1.
       -3    1    3    3    0  502 -0.35971557971E+03  0.16322222698E+03  0.13787690660E+04  0.14342388020E+04  0.10100000352E+00 0.  1.
</event>
<event>
 5   0  0.9491680E-05  0.2118973E+04  0.7818609E-02  0.8552931E-01
        2   -1    0    0  501    0  0.00000000000E+00  0.00000000000E+00  0.61192392046E+03  0.61192392046E+03  0.25500000920E-02 0.  1.
       -2   -1    0    0    0  501  0.00000000000E+00  0.00000000000E+00 -0.18343969719E+04  0.18343969719E+04  0.25500000920E-02 0. -1.
    10030    2    1    2    0    0  0.00000000000E+00  0.00000000000E+00 -0.12224730514E+04  0.24463208923E+04  0.21189727574E+04 0.  0.
        5    1    3    3  502    0 -0.35574922151E+02 -0.97950854619E+03 -0.10756015474E+04  0.14552124745E+04  0.46999998093E+01 0.  1.
       -5    1    3    3    0  502  0.35574922151E+02  0.97950854619E+03 -0.14687150396E+03  0.99110841780E+03  0.46999998093E+01 0. -1.
</event>
<event>
 5   0  0.9144244E-05  0.2420386E+04  0.7818609E-02  0.8431911E-01
        2   -1    0    0  501    0  0.00000000000E+00  0.00000000000E+00  0.11334321175E+04  0.11334321175E+04  0.25500000920E-02 0. -1.
       -2   -1    0    0    0  501  0.00000000000E+00  0.00000000000E+00 -0.12921526118E+04  0.12921526118E+04  0.25500000920E-02 0.  1.
    10030    2    1    2    0    0  0.00000000000E+00  0.00000000000E+00 -0.15872049434E+03  0.24255847293E+04  0.24203861435E+04 0.  0.
        1    1    3    3  502    0 -0.43855927058E+03  0.86126598005E+03  0.65052676397E+03  0.11650314987E+04  0.50400001928E-02 0. -1.
       -1    1    3    3    0  502  0.43855927058E+03 -0.86126598005E+03 -0.80924725831E+03  0.12605532307E+04  0.50400001928E-02 0.  1.
</event>
<event>
 5   0  0.4260395E-05  0.2008552E+04  0.7818609E-02  0.8602633E-01
        1   -1    0    0  501    0  0.00000000000E+00  0.00000000000E+00  0.10886741192E+04  0.10886741193E+04  0.50400001928E-02 0. -1.
       -1   -1    0    0    0  501  0.00000000000E+00  0.00000000000E+00 -0.92642051727E+03  0.92642051729E+03  0.50400001928E-02 0.  1.
    10030    2    1    2    0    0  0.00000000000E+00  0.00000000000E+00  0.16225360197E+03  0.20150946365E+04  0.20085517576E+04 0.  0.
        4    1    3    3  502    0 -0.74846346444E+03 -0.64117445869E+03 -0.11254655592E+03  0.99195291432E+03  0.12699999809E+01 0. -1.
       -4    1    3    3    0  502  0.74846346444E+03  0.64117445869E+03  0.27480015789E+03  0.10231417222E+04  0.12699999809E+01 0.  1.
</event>
<event>
 5   0  0.4260395E-05  0.2325672E+04  0.7818609E-02  0.8467867E-01
        1   -1    0    0  501    0  0.00000000000E+00  0.00000000000E+00  0.12593957412E+04  0.12593957412E+04  0.50400001928E-02 0.  1.
       -1   -1    0    0    0  501  0.00000000000E+00  0.00000000000E+00 -0.10736798469E+04  0.10736798469E+04  0.50400001928E-02 0. -1.
    10030    2    1    2    0    0  0.00000000000E+00  0.00000000000E+00  0.18571589429E+03  0.23330755881E+04  0.23256722267E+04 0.  0.
        4    1    3    3  502    0  0.61778634735E+03 -0.98300055877E+03  0.27565091012E+02  0.11613403966E+04  0.12699999809E+01 0. -1.
       -4    1    3    3    0  502 -0.61778634735E+03  0.98300055877E+03  0.15815080328E+03  0.11717351915E+04  0.12699999809E+01 0.  1.
</event>
<event>
 5   0  0.4018942E-05  0.2325134E+04  0.7818609E-02  0.8468076E-01
       -1   -1    0    0    0  501  0.00000000000E+00  0.00000000000E+00  0.94766104330E+03  0.94766104332E+03  0.50400001928E-02 0. -1.
        1   -1    0    0  501    0  0.00000000000E+00  0.00000000000E+00 -0.14262085663E+04  0.14262085663E+04  0.50400001928E-02 0.  1.
    10030    2    1    2    0    0  0.00000000000E+00  0.00000000000E+00 -0.47854752297E+03  0.23738696096E+04  0.23251342309E+04 0.  0.
        5    1    3    3  502    0  0.28575192564E+03  0.10617276049E+04  0.14629324700E+03  0.11092084899E+04  0.46999998093E+01 0. -1.
       -5    1    3    3    0  502 -0.28575192564E+03 -0.10617276049E+04 -0.62484076997E+03  0.12646611197E+04  0.46999998093E+01 0.  1.
</event>
<event>
 5   0  0.9519092E-05  0.2395950E+04  0.7818609E-02  0.8441021E-01
        2   -1    0    0  501    0  0.00000000000E+00  0.00000000000E+00  0.15815628523E+04  0.15815628523E+04  0.25500000920E-02 0.  1.
       -2   -1    0    0    0  501  0.00000000000E+00  0.00000000000E+00 -0.90742134750E+03  0.90742134750E+03  0.25500000920E-02 0. -1.
    10030    2    1    2    0    0  0.00000000000E+00  0.00000000000E+00  0.67414150483E+03  0.24889841998E+04  0.23959498280E+04 0.  0.
        4    1    3    3  502    0  0.24829406830E+03  0.71884336627E+03  0.12986235536E+04  0.15049287280E+04  0.12699999809E+01 0.  1.
       -4    1    3    3    0  502 -0.24829406830E+03 -0.71884336627E+03 -0.62448204872E+03  0.98405547184E+03  0.12699999809E+01 0. -1.
</event>
<event>
 5   0  0.4018942E-05  0.2158582E+04  0.7818609E-02  0.8535868E-01
        1   -1    0    0  501    0  0.00000000000E+00  0.00000000000E+00  0.16680697057E+04  0.16680697057E+04  0.50400001928E-02 0.  1.
       -1   -1    0    0    0  501  0.00000000000E+00  0.00000000000E+00 -0.69833357545E+03  0.69833357547E+03  0.50400001928E-02 0. -1.
    10030    2    1    2    0    0  0.00000000000E+00  0.00000000000E+00  0.96973613029E+03  0.23664032812E+04  0.21585820177E+04 0.  0.
        5    1    3    3  502    0 -0.36091072454E+03  0.16626431615E+03  0.15849459342E+04  0.16340061439E+04  0.46999998093E+01 0.  1.
       -5    1    3    3    0  502  0.36091072454E+03 -0.16626431615E+03 -0.61520980392E+03  0.73239713732E+03  0.46999998093E+01 0. -1.
</event>
<event>
 5   0  0.9182865E-05  0.2449234E+04  0.7818609E-02  0.8421298E-01
       -2   -1    0    0    0  501  0.00000000000E+00  0.00000000000E+00  0.78882444889E+03  0.78882444889E+03  0.25500000920E-02 0. -1.
        2   -1    0    0  501    0  0.00000000000E+00  0.00000000000E+00 -0.19011660004E+04  0.19011660004E+04  0.25500000920E-02 0.  1.
    10030    2    1    2    0    0  0.00000000000E+00  0.00000000000E+00 -0.11123415515E+04  0.26899904493E+04  0.24492335311E+04 0.  0.
        3    1    3    3  502    0  0.75064736187E+03  0.96385630603E+03 -0.46300439375E+03  0.13064698693E+04  0.10100000352E+00 0.  1.
       -3    1    3    3    0  502 -0.75064736187E+03 -0.96385630603E+03 -0.64933715773E+03  0.13835205800E+04  0.10100000352E+00 0. -1.
</event>
<event>
 5   0  0.9182865E-05  0.2546480E+04  0.7818609E-02  0.8386611E-01
       -2   -1    0    0    0  501  0.00000000000E+00  0.00000000000E+00  0.51793925638E+03  0.51793925638E+03  0.25500000920E-02 0.  1.
        2   -1    0    0  501    0  0.00000000000E+00  0.00000000000E+00 -0.31299815504E+04  0.31299815504E+04  0.25500000920E-02 0. -1.
    10030    2    1    2    0    0  0.00000000000E+00  0.00000000000E+00 -0.26120422940E+04  0.36479208068E+04  0.25464801721E+04 0.  0.
        3    1    3    3  502    0  0.73814279964E+03  0.36794282137E+03 -0.26955823065E+04  0.28189360926E+04  0.10100000352E+00 0. -1.
       -3    1    3    3    0  502 -0.73814279964E+03 -0.36794282137E+03  0.83540012545E+02  0.82898471419E+03  0.10100000352E+00 0.  1.
</event>
<event>
 5   0  0.3234750E-05  0.2300794E+04  0.7818609E-02  0.8477608E-01
        3   -1    0    0  501    0  0.00000000000E+00  0.00000000000E+00  0.77432857836E+03  0.77432858495E+03  0.10100000352E+00 0. -1.
       -3   -1    0    0    0  501  0.00000000000E+00  0.00000000000E+00 -0.17091113330E+04  0.17091113360E+04  0.10100000352E+00 0.  1.
    10030    2    1    2    0    0  0.00000000000E+00  0.00000000000E+00 -0.93478275465E+03  0.24834399209E+04  0.23007944373E+04 0.  0.
        5    1    3    3  502    0 -0.80541966772E+03  0.54734924909E+03  0.19368122220E+03  0.99288798334E+03  0.46999998093E+01 0. -1.
       -5    1    3    3    0  502  0.80541966772E+03 -0.54734924909E+03 -0.11284639769E+04  0.14905519376E+04  0.46999998093E+01 0.  1.
</event>
<event>
 5   0  0.4018942E-05  0.2378871E+04  0.7818609E-02  0.8447457E-01
       -1   -1    0    0    0  501  0.00000000000E+00  0.00000000000E+00  0.73252883519E+03  0.73252883521E+03  0.50400001928E-02 0.  1.
        1   -1    0    0  501    0  0.00000000000E+00  0.00000000000E+00 -0.19313322856E+04  0.19313322856E+04  0.50400001928E-02 0. -1.
    10030    2    1    2    0    0  0.00000000000E+00  0.00000000000E+00 -0.11988034504E+04  0.26638611208E+04  0.23788708158E+04 0.  0.
        5    1    3    3  502    0 -0.65635637815E+03 -0.27689925558E+03  0.46720920543E+03  0.85192923680E+03  0.46999998093E+01 0.  1.
       -5    1    3    3    0  502  0.65635637815E+03  0.27689925558E+03 -0.16660126558E+04  0.18119318840E+04  0.46999998093E+01 0. -1.
</event>
<event>
 5   0  0.9182865E-05  0.2176672E+04  0.7818609E-02  0.8528201E-01
       -2   -1    0    0    0  501  0.00000000000E+00  0.00000000000E+00  0.10472351963E+04  0.10472351963E+04  0.25500000920E-02 0.  1.
        2   -1    0    0  501    0  0.00000000000E+00  0.00000000000E+00 -0.11310497260E+04  0.11310497260E+04  0.25500000920E-02 0. -1.
    10030    2    1    2    0    0  0.00000000000E+00  0.00000000000E+00 -0.83814529657E+02  0.21782849223E+04  0.21766718465E+04 0.  0.
        3    1    3    3  502    0 -0.30880445089E+03 -0.58926594222E+03  0.82005591122E+03  0.10559764426E+04  0.10100000352E+00 0.  1.
       -3    1    3    3    0  502  0.30880445089E+03  0.58926594222E+03 -0.90387044088E+03  0.11223084797E+04  0.10100000352E+00 0. -1.
</event>
<event>
 5   0  0.9750757E-05  0.2235910E+04  0.7818609E-02  0.8503628E-01
        2   -1    0    0  501    0  0.00000000000E+00  0.00000000000E+00  0.10159974686E+04  0.10159974686E+04  0.25500000920E-02 0. -1.
       -2   -1    0    0    0  501  0.00000000000E+00  0.00000000000E+00 -0.12301442985E+04  0.12301442985E+04  0.25500000920E-02 0.  1.
    10030    2    1    2    0    0  0.00000000000E+00  0.00000000000E+00 -0.21414682991E+03  0.22461417672E+04  0.22359100996E+04 0.  0.
        2    1    3    3  502    0  0.84563293017E+03  0.11809950882E+03  0.61788044977E+03  0.10539538874E+04  0.25500000920E-02 0. -1.
       -2    1    3    3    0  502 -0.84563293017E+03 -0.11809950882E+03 -0.83202727968E+03  0.11921878798E+04  0.25500000920E-02 0.  1.
</event>
<event>
 5   0  0.9144244E-05  0.2533332E+04  0.7818609E-02  0.8391206E-01
       -2   -1    0    0    0  501  0.00000000000E+00  0.00000000000E+00  0.63256395888E+03  0.63256395889E+03  0.25500000920E-02 0. -1.
        2   -1    0    0  501    0  0.00000000000E+00  0.00000000000E+00 -0.25364126656E+04  0.25364126656E+04  0.25500000920E-02 0.  1.
    10030    2    1    2    0    0  0.00000000000E+00  0.00000000000E+00 -0.19038487067E+04  0.31689766245E+04  0.25333323802E+04 0.  0.
        1    1    3    3  502    0 -0.54950570666E+03  0.79184338930E+02 -0.23761068490E+04  0.24401045959E+04  0.50400001928E-02 0.  1.
       -1    1    3    3    0  502  0.54950570666E+03 -0.79184338930E+02  0.47225814222E+03  0.72887202862E+03  0.50400001928E-02 0. -1.
</event>
<event>
 5   0  0.4208577E-05  0.2436097E+04  0.7818609E-02  0.8426112E-01
       -1   -1    0    0    0  501  0.00000000000E+00  0.00000000000E+00  0.88300142967E+03  0.88300142968E+03  0.50400001928E-02 0.  1.
        1   -1    0    0  501    0  0.00000000000E+00  0.00000000000E+00 -0.16802265526E+04  0.16802265526E+04  0.50400001928E-02 0. -1.
    10030    2    1    2    0    0  0.00000000000E+00  0.00000000000E+00 -0.79722512290E+03  0.25632279823E+04  0.24360972461E+04 0.  0.
        1    1    3    3  502    0  0.57428138203E+03  0.10427705045E+04 -0.66989102108E+03  0.13659880713E+04  0.50400001928E-02 0.  1.
       -1    1    3    3    0  502 -0.57428138203E+03 -0.10427705045E+04 -0.12733410181E+03  0.11972399109E+04  0.50400001928E-02 0. -1.
</event>
<event>
 5   0  0.9519092E-05  0.2409845E+04  0.7818609E-02  0.8435827E-01
        2   -1    0    0  501    0  0.00000000000E+00  0.00000000000E+00  0.17586068623E+04  0.17586068623E+04  0.25500000920E-02 0.  1.
       -2   -1    0    0    0  501  0.00000000000E+00  0.00000000000E+00 -0.82556126387E+03  0.82556126387E+03  0.25500000920E-02 0. -1.
    10030    2    1    2    0    0  0.00000000000E+00  0.00000000000E+00  0.93304559841E+03  0.25841681261E+04  0.24098445625E+04 0.  0.
        4    1    3    3  502    0  0.91377868778E+03  0.62834384922E+03 -0.38761964047E+02  0.11096448017E+04  0.12699999809E+01 0. -1.
       -4    1    3    3    0  502 -0.91377868778E+03 -0.62834384922E+03  0.97180756246E+03  0.14745233245E+04  0.12699999809E+01 0.  1.
</event>
<event>
 5   0  0.9519092E-05  0.2406939E+04  0.7818609E-02  0.8436910E-01
       -2   -1    0    0    0  501  0.00000000000E+00  0.00000000000E+00  0.72365335678E+03  0.72365335679E+03  0.25500000920E-02 0. -1.
        2   -1    0    0  501    0  0.00000000000E+00  0.00000000000E+00 -0.20014263529E+04  0.20014263529E+04  0.25500000920E-02 0.  1.
    10030    2    1    2    0    0  0.00000000000E+00  0.00000000000E+00 -0.12777729961E+04  0.27250797097E+04  0.24069390509E+04 0.  0.
        4    1    3    3  502    0  0.94618926944E+02 -0.53117471761E+03  0.57905226595E+03  0.79145591259E+03  0.12699999809E+01 0. -1.
       -4    1    3    3    0  502 -0.94618926944E+02  0.53117471761E+03 -0.18568252621E+04  0.19336237971E+04  0.12699999809E+01 0.  1.
</event>
<event>
 5   0  0.9491680E-05  0.2425902E+04  0.7818609E-02  0.8429869E-01
       -2   -1    0    0    0  501  0.00000000000E+00  0.00000000000E+00  0.75400540554E+03  0.75400540554E+03  0.25500000920E-02 0.  1.
        2   -1    0    0  501    0  0.00000000000E+00  0.00000000000E+00 -0.19512460612E+04  0.19512460612E+04  0.25500000920E-02 0. -1.
    10030    2    1    2    0    0  0.00000000000E+00  0.00000000000E+00 -0.11972406557E+04  0.27052514668E+04  0.24259019582E+04 0.  0.
        5    1    3    3  502    0 -0.84998295002E+03  0.51008575165E+03  0.18084638121E+03  0.10076636309E+04  0.46999998093E+01 0.  1.
       -5    1    3    3    0  502  0.84998295002E+03 -0.51008575165E+03 -0.13780870369E+04  0.16975878359E+04  0.46999998093E+01 0. -1.
</event>
<event>
 5   0  0.4260395E-05  0.1899194E+04  0.7818609E-02  0.8655258E-01
       -1   -1    0    0    0  501  0.00000000000E+00  0.00000000000E+00  0.47691962141E+03  0.47691962144E+03  0.50400001928E-02 0.  1.
        1   -1    0    0  501    0  0.00000000000E+00  0.00000000000E+00 -0.18907463117E+04  0.18907463117E+04  0.50400001928E-02 0. -1.
    10030    2    1    2    0    0  0.00000000000E+00  0.00000000000E+00 -0.14138266903E+04  0.23676659332E+04  0.18991935291E+04 0.  0.
        4    1    3    3  502    0  0.45794402067E+03  0.80384509699E+03 -0.97386574677E+03  0.13432407720E+04  0.12699999809E+01 0.  1.
       -4    1    3    3    0  502 -0.45794402067E+03 -0.80384509699E+03 -0.43996094356E+03  0.10244251611E+04  0.12699999809E+01 0. -1.
</event>
<event>
 5   0  0.3934906E-05  0.2328700E+04  0.7818609E-02  0.8466690E-01
       -1   -1    0    0    0  501  0.00000000000E+00  0.00000000000E+00  0.16968728627E+04  0.16968728627E+04  0.50400001928E-02 0. -1.
        1   -1    0    0  501    0  0.00000000000E+00  0.00000000000E+00 -0.79894678365E+03  0.79894678366E+03  0.50400001928E-02 0.  1.
    10030    2    1    2    0    0  0.00000000000E+00  0.00000000000E+00  0.89792607904E+03  0.24958196464E+04  0.23287001661E+04 0.  0.
        2    1    3    3  502    0  0.35264863575E+02  0.69214987204E+03 -0.55380831359E+03  0.88714074654E+03  0.25500000920E-02 0.  1.
       -2    1    3    3    0  502 -0.35264863575E+02 -0.69214987204E+03  0.14517343926E+04  0.16086788998E+04  0.25500000920E-02 0. -1.
</event>
<event>
 5   0  0.9182865E-05  0.2406696E+04  0.7818609E-02  0.8437001E-01
        2   -1    0    0  501    0  0.00000000000E+00  0.00000000000E+00  0.10511218643E+04  0.10511218643E+04  0.25500000920E-02 0.  1.
       -2   -1    0    0    0  501  0.00000000000E+00  0.00000000000E+00 -0.13776202147E+04  0.13776202147E+04  0.25500000920E-02 0. -1.
    10030    2    1    2    0    0  0.00000000000E+00  0.00000000000E+00 -0.32649835041E+03  0.24287420790E+04  0.24066962653E+04 0.  0.
        3    1    3    3  502    0 -0.87553092867E+03  0.78625922202E+03  0.90627827006E+02  0.11802420872E+04  0.10100000352E+00 0.  1.
       -3    1    3    3    0  502  0.87553092867E+03 -0.78625922202E+03 -0.41712617742E+03  0.12484999917E+04  0.10100000352E+00 0. -1.
</event>
<event>
 5   0  0.9144244E-05  0.1438582E+04  0.7818609E-02  0.8926355E-01
       -2   -1    0    0    0  501  0.00000000000E+00  0.00000000000E+00  0.41666658580E+03  0.41666658581E+03  0.25500000920E-02 0.  1.
        2   -1    0    0  501    0  0.00000000000E+00  0.00000000000E+00 -0.12417114215E+04  0.12417114215E+04  0.25500000920E-02 0. -1.
    10030    2    1    2    0    0  0.00000000000E+00  0.00000000000E+00 -0.82504483566E+03  0.16583780073E+04  0.14385821611E+04 0.  0.
        1    1    3    3  502    0  0.24236038520E+03  0.21848624122E+03  0.32643514879E+03  0.46155682240E+03  0.50400001928E-02 0.  1.
       -1    1    3    3    0  502 -0.24236038520E+03 -0.21848624122E+03 -0.11514799845E+04  0.11968211849E+04  0.50400001928E-02 0. -1.
</event>
<event>
 5   0  0.9519092E-05  0.2116923E+04  0.7818609E-02  0.8553825E-01
        2   -1    0    0  501    0  0.00000000000E+00  0.00000000000E+00  0.15842758685E+04  0.15842758685E+04  0.25500000920E-02 0. -1.
       -2   -1    0    0    0  501  0.00000000000E+00  0.00000000000E+00 -0.70716253762E+03  0.70716253762E+03  0.25500000920E-02 0.  1.
    10030    2    1    2    0    0  0.00000000000E+00  0.00000000000E+00  0.87711333088E+03  0.22914384061E+04  0.21169228077E+04 0.  0.
        4    1    3    3  502    0  0.43557331445E+03 -0.96461893436E+03  0.42644835662E+03  0.11410844029E+04  0.12699999809E+01 0.  1.
       -4    1    3    3    0  502 -0.43557331445E+03  0.96461893436E+03  0.45066497426E+03  0.11503540032E+04  0.12699999809E+01 0. -1.
</event>
<event>
 5   0  0.4061631E-05  0.2403504E+04  0.7818609E-02  0.8438193E-01
        1   -1    0    0  501    0  0.00000000000E+00  0.00000000000E+00  0.21553580486E+04  0.21553580487E+04  0.50400001928E-02 0. -1.
       -1   -1    0    0    0  501  0.00000000000E+00  0.00000000000E+00 -0.67005469147E+03  0.67005469149E+03  0.50400001928E-02 0.  1.
    10030    2    1    2    0    0  0.00000000000E+00  0.00000000000E+00  0.14853033572E+04  0.28254127401E+04  0.24035039191E+04 0.  0.
        3    1    3    3  502    0  0.54290567177E+03 -0.57063569089E+03  0.18096346155E+04  0.19736132124E+04  0.10100000352E+00 0. -1.
       -3    1    3    3    0  502 -0.54290567177E+03  0.57063569089E+03 -0.32433125834E+03  0.85179952776E+03  0.10100000352E+00 0.  1.
</event>
<event>
 5   0  0.4208577E-05  0.1200258E+04  0.7818609E-02  0.9112631E-01
        1   -1    0    0  501    0  0.00000000000E+00  0.00000000000E+00  0.17579370548E+04  0.17579370549E+04  0.50400001928E-02 0. -1.
       -1   -1    0    0    0  501  0.00000000000E+00  0.00000000000E+00 -0.20487343523E+03  0.20487343529E+03  0.50400001928E-02 0.  1.
    10030    2    1    2    0    0  0.00000000000E+00  0.00000000000E+00  0.15530636196E+04  0.19628104901E+04  0.12002576447E+04 0.  0.
        1    1    3    3  502    0 -0.51725458137E+03  0.15404805084E+03  0.34736743980E+03  0.64183116329E+03  0.50400001928E-02 0.  1.
       -1    1    3    3    0  502  0.51725458137E+03 -0.15404805084E+03  0.12056961798E+04  0.13209793268E+04  0.50400001928E-02 0. -1.
</event>
<event>
 5   0  0.4260395E-05  0.2424688E+04  0.7818609E-02  0.8430318E-01
       -1   -1    0    0    0  501  0.00000000000E+00  0.00000000000E+00  0.73887556716E+03  0.73887556718E+03  0.50400001928E-02 0. -1.
        1   -1    0    0  501    0  0.00000000000E+00  0.00000000000E+00 -0.19892098313E+04  0.19892098313E+04  0.50400001928E-02 0.  1.
    10030    2    1    2    0    0  0.00000000000E+00  0.00000000000E+00 -0.12503342642E+04  0.27280853985E+04  0.24246884685E+04 0.  0.
        4    1    3    3  502    0 -0.11735463745E+03  0.10720238211E+04 -0.12483396277E+04  0.16496546981E+04  0.12699999809E+01 0.  1.
       -4    1    3    3    0  502  0.11735463745E+03 -0.10720238211E+04 -0.19946364329E+01  0.10784307004E+04  0.12699999809E+01 0. -1.
</event>
<event>
 5   0  0.9144244E-05  0.2391151E+04  0.7818609E-02  0.8442824E-01
       -2   -1    0    0    0  501  0.00000000000E+00  0.00000000000E+00  0.61327010436E+03  0.61327010436E+03  0.25500000920E-02 0.  1.
        2   -1    0    0  501    0  0.00000000000E+00  0.00000000000E+00 -0.23307850500E+04  0.23307850500E+04  0.25500000920E-02 0. -1.
    10030    2    1    2    0    0  0.00000000000E+00  0.00000000000E+00 -0.17175149457E+04  0.29440551544E+04  0.23911510123E+04 0.  0.
        1    1    3    3  502    0 -0.23356029324E+03  0.95803439012E+03 -0.16911089831E+04  0.19576082079E+04  0.50400001928E-02 0. -1.
       -1    1    3    3    0  502  0.23356029324E+03 -0.95803439012E+03 -0.26405962598E+02  0.98644694643E+03  0.50400001928E-02 0.  1.
</event>
<event>
 5   0  0.9519092E-05  0.2427506E+04  0.7818609E-02  0.8429277E-01
        2   -1    0    0  501    0  0.00000000000E+00  0.00000000000E+00  0.24008590248E+04  0.24008590248E+04  0.25500000920E-02 0.  1.
       -2   -1    0    0    0  501  0.00000000000E+00  0.00000000000E+00 -0.61361193963E+03  0.61361193963E+03  0.25500000920E-02 0. -1.
    10030    2    1    2    0    0  0.00000000000E+00  0.00000000000E+00  0.17872470851E+04  0.30144709644E+04  0.24275055205E+04 0.  0.
        4    1    3    3  502    0 -0.12843299619E+03  0.80220101143E+03  0.20134281788E+04  0.21711554853E+04  0.12699999809E+01 0.  1.
       -4    1    3    3    0  502  0.12843299619E+03 -0.80220101143E+03 -0.22618109366E+03  0.84331547910E+03  0.12699999809E+01 0. -1.
</event>
<event>
 5   0  0.4018942E-05  0.2389948E+04  0.7818609E-02  0.8443277E-01
        1   -1    0    0  501    0  0.00000000000E+00  0.00000000000E+00  0.16241049333E+04  0.16241049333E+04  0.50400001928E-02 0.  1.
       -1   -1    0    0    0  501  0.00000000000E+00  0.00000000000E+00 -0.87923033193E+03  0.87923033194E+03  0.50400001928E-02 0. -1.
    10030    2    1    2    0    0  0.00000000000E+00  0.00000000000E+00  0.74487460135E+03  0.25033352652E+04  0.23899475472E+04 0.  0.
        5    1    3    3  502    0 -0.95248017938E+03  0.24465138280E+03  0.10835176228E+04  0.14632516257E+04  0.46999998093E+01 0.  1.
       -5    1    3    3    0  502  0.95248017938E+03 -0.24465138280E+03 -0.33864302144E+03  0.10400836395E+04  0.46999998093E+01 0. -1.
</event>
<event>
 5   0  0.9144244E-05  0.2858398E+04  0.7818609E-02  0.8285364E-01
       -2   -1    0    0    0  501  0.00000000000E+00  0.00000000000E+00  0.20966391793E+04  0.20966391793E+04  0.25500000920E-02 0. -1.
        2   -1    0    0  501    0  0.00000000000E+00  0.00000000000E+00 -0.97423078769E+03  0.97423078770E+03  0.25500000920E-02 0.  1.
    10030    2    1    2    0    0  0.00000000000E+00  0.00000000000E+00  0.11224083916E+04  0.30708699670E+04  0.28583984601E+04 0.  0.
        1    1    3    3  502    0 -0.12589326997E+04  0.71031290683E+02 -0.16160151700E+03  0.12712482200E+04  0.50400001928E-02 0.  1.
       -1    1    3    3    0  502  0.12589326997E+04 -0.71031290683E+02  0.12840099086E+04  0.17996217469E+04  0.50400001928E-02 0. -1.
</event>
<event>
 5   0  0.4061631E-05  0.2401393E+04  0.7818609E-02  0.8438982E-01
        1   -1    0    0  501    0  0.00000000000E+00  0.00000000000E+00  0.12057728927E+04  0.12057728927E+04  0.50400001928E-02 0. -1.
       -1   -1    0    0    0  501  0.00000000000E+00  0.00000000000E+00 -0.11956410015E+04  0.11956410015E+04  0.50400001928E-02 0.  1.
    10030    2    1    2    0    0  0.00000000000E+00  0.00000000000E+00  0.10131891255E+02  0.24014138942E+04  0.24013925202E+04 0.  0.
        3    1    3    3  502    0 -0.29261561781E+03 -0.12394451162E+01 -0.11594383276E+04  0.11957937455E+04  0.10100000352E+00 0.  1.
       -3    1    3    3    0  502  0.29261561781E+03  0.12394451162E+01  0.11695702189E+04  0.12056201487E+04  0.10100000352E+00 0. -1.
</event>
<event>
 5   0  0.3234750E-05  0.1238631E+04  0.7818609E-02  0.9079699E-01
       -3   -1    0    0    0  501  0.00000000000E+00  0.00000000000E+00  0.31940446175E+03  0.31940447772E+03  0.10100000352E+00 0.  1.
        3   -1    0    0  501    0  0.00000000000E+00  0.00000000000E+00 -0.12008337147E+04  0.12008337190E+04  0.10100000352E+00 0. -1.
    10030    2    1    2    0    0  0.00000000000E+00  0.00000000000E+00 -0.88142925298E+03  0.15202381967E+04  0.12386309566E+04 0.  0.
        4    1    3    3  502    0  0.50361228000E+03  0.11723610497E+03 -0.22368094022E+02  0.51756311442E+03  0.12699999809E+01 0.  1.
       -4    1    3    3    0  502 -0.50361228000E+03 -0.11723610497E+03 -0.85906115895E+03  0.10026750823E+04  0.12699999809E+01 0. -1.
</event>
<event>
 5   0  0.4018942E-05  0.2504847E+04  0.7818609E-02  0.8401261E-01
       -1   -1    0    0    0  501  0.00000000000E+00  0.00000000000E+00  0.95142834449E+03  0.95142834451E+03  0.50400001928E-02 0.  1.
        1   -1    0    0  501    0  0.00000000000E+00  0.00000000000E+00 -0.16486425400E+04  0.16486425400E+04  0.50400001928E-02 0. -1.
    10030    2    1    2    0    0  0.00000000000E+00  0.00000000000E+00 -0.69721419555E+03  0.26000708846E+04  0.25048474944E+04 0.  0.
        5    1    3    3  502    0 -0.75716788953E+03 -0.56527324293E+03  0.50465571547E+03  0.10712313164E+04  0.46999998093E+01 0.  1.
       -5    1    3    3    0  502  0.75716788953E+03  0.56527324293E+03 -0.12018699110E+04  0.15288395681E+04  0.46999998093E+01 0. -1.
</event>
<event>
 5   0  0.3234750E-05  0.2401180E+04  0.7818609E-02  0.8439062E-01
        4   -1    0    0  501    0  0.00000000000E+00  0.00000000000E+00  0.10768558102E+04  0.10768565591E+04  0.12699999809E+01 0.  1.
       -4   -1    0    0    0  501  0.00000000000E+00  0.00000000000E+00 -0.13385396129E+04  0.13385402153E+04  0.12699999809E+01 0. -1.
    10030    2    1    2    0    0  0.00000000000E+00  0.00000000000E+00 -0.26168380262E+03  0.24153967745E+04  0.24011795363E+04 0.  0.
        3    1    3    3  502    0 -0.57391316729E+03  0.39043335199E+03 -0.11162344008E+04  0.13144556948E+04  0.10100000352E+00 0. -1.
       -3    1    3    3    0  502  0.57391316729E+03 -0.39043335199E+03  0.85455059813E+03  0.11009410797E+04  0.10100000352E+00 0.  1.
</event>
<event>
 5   0  0.9491680E-05  0.2379028E+04  0.7818609E-02  0.8447397E-01
        2   -1    0    0  501    0  0.00000000000E+00  0.00000000000E+00  0.17463788771E+04  0.17463788771E+04  0.25500000920E-02 0. -1.
       -2   -1    0    0    0  501  0.00000000000E+00  0.00000000000E+00 -0.81021589557E+03  0.81021589557E+03  0.25500000920E-02 0.  1.
    10030    2    1    2    0    0  0.00000000000E+00  0.00000000000E+00  0.93616298154E+03  0.25565947727E+04  0.23790283108E+04 0.  0.
        5    1    3    3  502    0 -0.92617017084E+03  0.45951036512E+03 -0.16402220951E+03  0.10468363464E+04  0.46999998093E+01 0.  1.
       -5    1    3    3    0  502  0.92617017084E+03 -0.45951036512E+03  0.11001851911E+04  0.15097584262E+04  0.46999998093E+01 0. -1.
</event>
<event>
 5   0  0.9519092E-05  0.2436380E+04  0.7818609E-02  0.8426008E-01
       -2   -1    0    0    0  501  0.00000000000E+00  0.00000000000E+00  0.11542791305E+04  0.11542791305E+04  0.25500000920E-02 0. -1.
        2   -1    0    0  501    0  0.00000000000E+00  0.00000000000E+00 -0.12856390357E+04  0.12856390357E+04  0.25500000920E-02 0.  1.
    10030    2    1    2    0    0  0.00000000000E+00  0.00000000000E+00 -0.13135990513E+03  0.24399181662E+04  0.24363795339E+04 0.  0.
        4    1    3    3  502    0 -0.22762613380E+03 -0.82453920971E+03  0.80293563415E+03  0.11731947028E+04  0.12699999809E+01 0. -1.
       -4    1    3    3    0  502  0.22762613380E+03  0.82453920971E+03 -0.93429553927E+03  0.12667234634E+04  0.12699999809E+01 0.  1.
</event>
<event>
 5   0  0.4208577E-05  0.1806223E+04  0.7818609E-02  0.8702997E-01
        1   -1    0    0  501    0  0.00000000000E+00  0.00000000000E+00  0.58693859841E+03  0.58693859844E+03  0.50400001928E-02 0.  1.
       -1   -1    0    0    0  501  0.00000000000E+00  0.00000000000E+00 -0.13896008984E+04  0.13896008984E+04  0.50400001928E-02 0. -1.
    10030    2    1    2    0    0  0.00000000000E+00  0.00000000000E+00 -0.80266230003E+03  0.19765394969E+04  0.18062230247E+04 0.  0.
        1    1    3    3  502    0  0.47334081298E+03 -0.74582548456E+03 -0.60693976788E+03  0.10717663274E+04  0.50400001928E-02 0.  1.
       -1    1    3    3    0  502 -0.47334081298E+03  0.74582548456E+03 -0.19572253215E+03  0.90477316951E+03  0.50400001928E-02 0. -1.
</event>
<event>
 5   0  0.9491680E-05  0.2483351E+04  0.7818609E-02  0.8408941E-01
       -2   -1    0    0    0  501  0.00000000000E+00  0.00000000000E+00  0.79909511605E+03  0.79909511606E+03  0.25500000920E-02 0.  1.
        2   -1    0    0  501    0  0.00000000000E+00  0.00000000000E+00 -0.19293804100E+04  0.19293804100E+04  0.25500000920E-02 0. -1.
    10030    2    1    2    0    0  0.00000000000E+00  0.00000000000E+00 -0.11302852939E+04  0.27284755260E+04  0.24833513345E+04 0.  0.
        5    1    3    3  502    0  0.18256570623E+03 -0.27117353554E+03 -0.18812409617E+04  0.19094383911E+04  0.46999998093E+01 0. -1.
       -5    1    3    3    0  502 -0.18256570623E+03  0.27117353554E+03  0.75095566776E+03  0.81903713494E+03  0.46999998093E+01 0.  1.
</event>
<event>
 5   0  0.4018942E-05  0.1794660E+04  0.7818609E-02  0.8709144E-01
        1   -1    0    0  501    0  0.00000000000E+00  0.00000000000E+00  0.15189576395E+04  0.15189576395E+04  0.50400001928E-02 0.  1.
       -1   -1    0    0    0  501  0.00000000000E+00  0.00000000000E+00 -0.53010118916E+03  0.53010118919E+03  0.50400001928E-02 0. -1.
    10030    2    1    2    0    0  0.00000000000E+00  0.00000000000E+00  0.98885645031E+03  0.20490588287E+04  0.17946601361E+04 0.  0.
        5    1    3    3  502    0 -0.23753950436E+03 -0.84792156270E+03  0.29738674578E+03  0.92943905620E+03  0.46999998093E+01 0. -1.
       -5    1    3    3    0  502  0.23753950436E+03  0.84792156270E+03  0.69146970454E+03  0.11196197725E+04  0.46999998093E+01 0.  1.
</event>
<event>
 5   0  0.9182865E-05  0.2372878E+04  0.7818609E-02  0.8449728E-01
        2   -1    0    0  501    0  0.00000000000E+00  0.00000000000E+00  0.12155616584E+04  0.12155616584E+04  0.25500000920E-02 0.  1.
       -2   -1    0    0    0  501  0.00000000000E+00  0.00000000000E+00 -0.11580137015E+04  0.11580137015E+04  0.25500000920E-02 0. -1.
    10030    2    1    2    0    0  0.00000000000E+00  0.00000000000E+00  0.57547956899E+02  0.23735753599E+04  0.23728776247E+04 0.  0.
        3    1    3    3  502    0 -0.28575685484E+03 -0.19331868820E+03 -0.11067285013E+04  0.11592571246E+04  0.10100000352E+00 0. -1.
       -3    1    3    3    0  502  0.28575685484E+03  0.19331868820E+03  0.11642764582E+04  0.12143182353E+04  0.10100000352E+00 0.  1.
</event>
<event>
 5   0  0.9491680E-05  0.2382351E+04  0.7818609E-02  0.8446141E-01
        2   -1    0    0  501    0  0.00000000000E+00  0.00000000000E+00  0.17665934491E+04  0.17665934491E+04  0.25500000920E-02 0. -1.
       -2   -1    0    0    0  501  0.00000000000E+00  0.00000000000E+00 -0.80318343766E+03  0.80318343766E+03  0.25500000920E-02 0.  1.
    10030    2    1    2    0    0  0.00000000000E+00  0.00000000000E+00  0.96341001141E+03  0.25697768867E+04  0.23823506034E+04 0.  0.
        5    1    3    3  502    0 -0.89171340272E+03 -0.78413034915E+03  0.38015317204E+03  0.12468166350E+04  0.46999998093E+01 0.  1.
       -5    1    3    3    0  502  0.89171340272E+03  0.78413034915E+03  0.58325683937E+03  0.13229602518E+04  0.46999998093E+01 0. -1.
</event>
<event>
 5   0  0.4260395E-05  0.2352556E+04  0.7818609E-02  0.8457483E-01
       -1   -1    0    0    0  501  0.00000000000E+00  0.00000000000E+00  0.56160263128E+03  0.56160263130E+03  0.50400001928E-02 0.  1.
        1   -1    0    0  501    0  0.00000000000E+00  0.00000000000E+00 -0.24637163655E+04  0.24637163655E+04  0.50400001928E-02 0. -1.
    10030    2    1    2    0    0  0.00000000000E+00  0.00000000000E+00 -0.19021137342E+04  0.30253189968E+04  0.23525557112E+04 0.  0.
        4    1    3    3  502    0  0.16070006735E+03  0.30695742888E+03  0.49449185256E+03  0.60379730037E+03  0.12699999809E+01 0.  1.
       -4    1    3    3    0  502 -0.16070006735E+03 -0.30695742888E+03 -0.23966055868E+04  0.24215216964E+04  0.12699999809E+01 0. -1.
</event>
<event>
 5   0  0.9182865E-05  0.2394113E+04  0.7818609E-02  0.8441711E-01
       -2   -1    0    0    0  501  0.00000000000E+00  0.00000000000E+00  0.14472605658E+04  0.14472605658E+04  0.25500000920E-02 0. -1.
        2   -1    0    0  501    0  0.00000000000E+00  0.00000000000E+00 -0.99010789583E+03  0.99010789584E+03  0.25500000920E-02 0.  1.
    10030    2    1    2    0    0  0.00000000000E+00  0.00000000000E+00  0.45715266993E+03  0.24373684616E+04  0.23941128741E+04 0.  0.
        3    1    3    3  502    0 -0.52792341854E+03  0.15259306857E+03  0.13112547580E+04  0.14217513253E+04  0.10100000352E+00 0. -1.
       -3    1    3    3    0  502  0.52792341854E+03 -0.15259306857E+03 -0.85410208809E+03  0.10156171363E+04  0.10100000352E+00 0.  1.
</event>
<event>
 5   0  0.9750757E-05  0.2440976E+04  0.7818609E-02  0.8424320E-01
        2   -1    0    0  501    0  0.00000000000E+00  0.00000000000E+00  0.12290337993E+04  0.12290337993E+04  0.25500000920E-02 0. -1.
       -2   -1    0    0    0  501  0.00000000000E+00  0.00000000000E+00 -0.12120018820E+04  0.12120018820E+04  0.25500000920E-02 0.  1.
    10030    2    1    2    0    0  0.00000000000E+00  0.00000000000E+00  0.17031917379E+02  0.24410356813E+04  0.24409762619E+04 0.  0.
        2    1    3    3  502    0  0.46656985485E+02  0.12194738573E+04 -0.87446744389E+01  0.12203974075E+04  0.25500000920E-02 0. -1.
       -2    1    3    3    0  502 -0.46656985485E+02 -0.12194738573E+04  0.25776591818E+02  0.12206382738E+04  0.25500000920E-02 0.  1.
</event>
<event>
 5   0  0.9519092E-05  0.2421338E+04  0.7818609E-02  0.8431558E-01
        2   -1    0    0  501    0  0.00000000000E+00  0.00000000000E+00  0.13844481631E+04  0.13844481631E+04  0.25500000920E-02 0.  1.
       -2   -1    0    0    0  501  0.00000000000E+00  0.00000000000E+00 -0.10587030723E+04  0.10587030723E+04  0.25500000920E-02 0. -1.
    10030    2    1    2    0    0  0.00000000000E+00  0.00000000000E+00  0.32574509080E+03  0.24431512355E+04  0.24213380795E+04 0.  0.
        4    1    3    3  502    0  0.29105867370E+03 -0.69202815656E+03 -0.79547318026E+03  0.10937994855E+04  0.12699999809E+01 0. -1.
       -4    1    3    3    0  502 -0.29105867370E+03  0.69202815656E+03  0.11212182711E+04  0.13493517500E+04  0.12699999809E+01 0.  1.
</event>
<event>
 5   0  0.9491680E-05  0.2488446E+04  0.7818609E-02  0.8407113E-01
        2   -1    0    0  501    0  0.00000000000E+00  0.00000000000E+00  0.19997276649E+04  0.19997276649E+04  0.25500000920E-02 0. -1.
       -2   -1    0    0    0  501  0.00000000000E+00  0.00000000000E+00 -0.77415074303E+03  0.77415074303E+03  0.25500000920E-02 0.  1.
    10030    2    1    2    0    0  0.00000000000E+00  0.00000000000E+00  0.12255769219E+04  0.27738784080E+04  0.24884458263E+04 0.  0.
        5    1    3    3  502    0 -0.85162109204E+02 -0.29263667727E+03 -0.73188722419E+03  0.79282394557E+03  0.46999998093E+01 0.  1.
       -5    1    3    3    0  502  0.85162109204E+02  0.29263667727E+03  0.19574641461E+04  0.19810544624E+04  0.46999998093E+01 0. -1.
</event>
<event>
 5   0  0.9144244E-05  0.2436629E+04  0.7818609E-02  0.8425916E-01
       -2   -1    0    0    0  501  0.00000000000E+00  0.00000000000E+00  0.71093933380E+03  0.71093933380E+03  0.25500000920E-02 0.  1.
        2   -1    0    0  501    0  0.00000000000E+00  0.00000000000E+00 -0.20877879189E+04  0.20877879189E+04  0.25500000920E-02 0. -1.
    10030    2    1    2    0    0  0.00000000000E+00  0.00000000000E+00 -0.13768485851E+04  0.27987272527E+04  0.24366292719E+04 0.  0.
        1    1    3    3  502    0  0.11926072589E+04  0.24819872384E+03 -0.66615579787E+03  0.13884085233E+04  0.50400001928E-02 0.  1.
       -1    1    3    3    0  502 -0.11926072589E+04 -0.24819872384E+03 -0.71069278723E+03  0.14103187294E+04  0.50400001928E-02 0. -1.
</event>
<event>
 5   0  0.9144244E-05  0.1817543E+04  0.7818609E-02  0.8697025E-01
        2   -1    0    0  501    0  0.00000000000E+00  0.00000000000E+00  0.11026922420E+04  0.11026922420E+04  0.25500000920E-02 0.  1.
       -2   -1    0    0    0  501  0.00000000000E+00  0.00000000000E+00 -0.74895399093E+03  0.74895399093E+03  0.25500000920E-02 0. -1.
    10030    2    1    2    0    0  0.00000000000E+00  0.00000000000E+00  0.35373825112E+03  0.18516462330E+04  0.18175431279E+04 0.  0.
        1    1    3    3  502    0 -0.23587361307E+03 -0.21188894951E+03 -0.69077543793E+03  0.76006841399E+03  0.50400001928E-02 0. -1.
       -1    1    3    3    0  502  0.23587361307E+03  0.21188894951E+03  0.10445136891E+04  0.10915778190E+04  0.50400001928E-02 0.  1.
</event>
<event>
 5   0  0.4208577E-05  0.1615575E+04  0.7818609E-02  0.8811036E-01
       -1   -1    0    0    0  501  0.00000000000E+00  0.00000000000E+00  0.96774537783E+03  0.96774537784E+03  0.50400001928E-02 0.  1.
        1   -1    0    0  501    0  0.00000000000E+00  0.00000000000E+00 -0.67426929530E+03  0.67426929532E+03  0.50400001928E-02 0. -1.
    10030    2    1    2    0    0  0.00000000000E+00  0.00000000000E+00  0.29347608253E+03  0.16420146732E+04  0.16155754318E+04 0.  0.
        1    1    3    3  502    0  0.40441744285E+03 -0.22327361707E+03  0.82024119075E+03  0.94138206228E+03  0.50400001928E-02 0.  1.
       -1    1    3    3    0  502 -0.40441744285E+03  0.22327361707E+03 -0.52676510822E+03  0.70063261088E+03  0.50400001928E-02 0. -1.
</event>
<event>
 5   0  0.3934906E-05  0.2385467E+04  0.7818609E-02  0.8444965E-01
        1   -1    0    0  501    0  0.00000000000E+00  0.00000000000E+00  0.10509817277E+04  0.10509817278E+04  0.50400001928E-02 0.  1.
       -1   -1    0    0    0  501  0.00000000000E+00  0.00000000000E+00 -0.13536035594E+04  0.13536035594E+04  0.50400001928E-02 0. -1.
    10030    2    1    2    0    0  0.00000000000E+00  0.00000000000E+00 -0.30262183161E+03  0.24045852871E+04  0.23854665016E+04 0.  0.
        2    1    3    3  502    0 -0.10757823486E+04  0.51507135261E+03 -0.14875135489E+03  0.12019705177E+04  0.25500000920E-02 0. -1.
       -2    1    3    3    0  502  0.10757823486E+04 -0.51507135261E+03 -0.15387047672E+03  0.12026147694E+04  0.25500000920E-02 0.  1.
</event>
<event>
 5   0  0.9144244E-05  0.2377449E+04  0.7818609E-02  0.8447995E-01
        2   -1    0    0  501    0  0.00000000000E+00  0.00000000000E+00  0.10132569566E+04  0.10132569566E+04  0.25500000920E-02 0. -1.
       -2   -1    0    0    0  501  0.00000000000E+00  0.00000000000E+00 -0.13945781703E+04  0.13945781703E+04  0.25500000920E-02 0.  1.
    10030    2    1    2    0    0  0.00000000000E+00  0.00000000000E+00 -0.38132121373E+03  0.24078351269E+04  0.23774490805E+04 0.  0.
        1    1    3    3  502    0  0.51471163538E+03 -0.28208807623E+03 -0.12375862766E+04  0.13697158619E+04  0.50400001928E-02 0.  1.
       -1    1    3    3    0  502 -0.51471163538E+03  0.28208807623E+03  0.85626506287E+03  0.10381192649E+04  0.50400001928E-02 0. -1.
</event>
<event>
 5   0  0.4018942E-05  0.2404638E+04  0.7818609E-02  0.8437769E-01
       -1   -1    0    0    0  501  0.00000000000E+00  0.00000000000E+00  0.11301610196E+04  0.11301610196E+04  0.50400001928E-02 0. -1.
        1   -1    0    0  501    0  0.00000000000E+00  0.00000000000E+00 -0.12790840991E+04  0.12790840991E+04  0.50400001928E-02 0.  1.
    10030    2    1    2    0    0  0.00000000000E+00  0.00000000000E+00 -0.14892307954E+03  0.24092451187E+04  0.24046380098E+04 0.  0.
        5    1    3    3  502    0  0.53007305361E+03 -0.69444578643E+03  0.75314558191E+03  0.11534655392E+04  0.46999998093E+01 0. -1.
       -5    1    3    3    0  502 -0.53007305361E+03  0.69444578643E+03 -0.90206866145E+03  0.12557795796E+04  0.46999998093E+01 0.  1.
</event>
<event>
 5   0  0.9491680E-05  0.2384530E+04  0.7818609E-02  0.8445318E-01
        2   -1    0    0  501    0  0.00000000000E+00  0.00000000000E+00  0.13185849596E+04  0.13185849596E+04  0.25500000920E-02 0.  1.
       -2   -1    0    0    0  501  0.00000000000E+00  0.00000000000E+00 -0.10780466531E+04  0.10780466531E+04  0.25500000920E-02 0. -1.
    10030    2    1    2    0    0  0.00000000000E+00  0.00000000000E+00  0.24053830648E+03  0.23966316127E+04  0.23845302284E+04 0.  0.
        5    1    3    3  502    0 -0.10205728477E+02  0.39562418322E+03 -0.10100945343E+04  0.10848666782E+04  0.46999998093E+01 0. -1.
       -5    1    3    3    0  502  0.10205728477E+02 -0.39562418322E+03  0.12506328407E+04  0.13117649346E+04  0.46999998093E+01 0.  1.
</event>
<event>
 5   0  0.4061631E-05  0.2302134E+04  0.7818609E-02  0.8477080E-01
        1   -1    0    0  501    0  0.00000000000E+00  0.00000000000E+00  0.12637905534E+04  0.12637905534E+04  0.50400001928E-02 0. -1.
       -1   -1    0    0    0  501  0.00000000000E+00  0.00000000000E+00 -0.10483974628E+04  0.10483974628E+04  0.50400001928E-02 0.  1.
    10030    2    1    2    0    0  0.00000000000E+00  0.00000000000E+00  0.21539309054E+03  0.23121880162E+04  0.23021336275E+04 0.  0.
        3    1    3    3  502    0 -0.11488821017E+04  0.65923686561E+02  0.81529286664E+02  0.11536563834E+04  0.10100000352E+00 0. -1.
       -3    1    3    3    0  502  0.11488821017E+04 -0.65923686561E+02  0.13386380388E+03  0.11585316328E+04  0.10100000352E+00 0.  1.
</event>
<event>
 5   0  0.9750757E-05  0.2323059E+04  0.7818609E-02  0.8468884E-01
        2   -1    0    0  501    0  0.00000000000E+00  0.00000000000E+00  0.20694669588E+04  0.20694669588E+04  0.25500000920E-02 0. -1.
       -2   -1    0    0    0  501  0.00000000000E+00  0.00000000000E+00 -0.65193178233E+03  0.65193178234E+03  0.25500000920E-02 0.  1.
    10030    2    1    2    0    0  0.00000000000E+00  0.00000000000E+00  0.14175351764E+04  0.27213987411E+04  0.23230594335E+04 0.  0.
        2    1    3    3  502    0 -0.10689676279E+04  0.15370912005E+03  0.20785822361E+03  0.10997833079E+04  0.25500000920E-02 0.  1.
       -2    1    3    3    0  502  0.10689676279E+04 -0.15370912005E+03  0.12096769528E+04  0.16216154332E+04  0.25500000920E-02 0. -1.
</event>
<event>
 5   0  0.4260395E-05  0.1180603E+04  0.7818609E-02  0.9130006E-01
        1   -1    0    0  501    0  0.00000000000E+00  0.00000000000E+00  0.19736114436E+03  0.19736114443E+03  0.50400001928E-02 0. -1.
       -1   -1    0    0    0  501  0.00000000000E+00  0.00000000000E+00 -0.17655762674E+04  0.17655762674E+04  0.50400001928E-02 0.  1.
    10030    2    1    2    0    0  0.00000000000E+00  0.00000000000E+00 -0.15682151231E+04  0.19629374119E+04  0.11806034943E+04 0.  0.
        4    1    3    3  502    0  0.52795310708E+03  0.15400115785E+03 -0.42749324947E+03  0.69656509469E+03  0.12699999809E+01 0.  1.
       -4    1    3    3    0  502 -0.52795310708E+03 -0.15400115785E+03 -0.11407218736E+04  0.12663723172E+04  0.12699999809E+01 0. -1.
</event>
<event>
 5   0  0.4018942E-05  0.2393100E+04  0.7818609E-02  0.8442091E-01
       -1   -1    0    0    0  501  0.00000000000E+00  0.00000000000E+00  0.13188494995E+04  0.13188494995E+04  0.50400001928E-02 0.  1.
        1   -1    0    0  501    0  0.00000000000E+00  0.00000000000E+00 -0.10855911924E+04  0.10855911925E+04  0.50400001928E-02 0. -1.
    10030    2    1    2    0    0  0.00000000000E+00  0.00000000000E+00  0.23325830702E+03  0.24044406919E+04  0.23930995807E+04 0.  0.
        5    1    3    3  502    0 -0.28393244433E+03  0.54312660632E+03  0.11491691472E+04  0.13023885604E+04  0.46999998093E+01 0.  1.
       -5    1    3    3    0  502  0.28393244433E+03 -0.54312660632E+03 -0.91591084018E+03  0.11020521315E+04  0.46999998093E+01 0. -1.
</event>
<event>
 5   0  0.4208577E-05  0.2499098E+04  0.7818609E-02  0.8403307E-01
        1   -1    0    0  501    0  0.00000000000E+00  0.00000000000E+00  0.61527295639E+03  0.61527295642E+03  0.50400001928E-02 0.  1.
       -1   -1    0    0    0  501  0.00000000000E+00  0.00000000000E+00 -0.25376911965E+04  0.25376911965E+04  0.50400001928E-02 0. -1.
    10030    2    1    2    0    0  0.00000000000E+00  0.00000000000E+00 -0.19224182401E+04  0.31529641529E+04  0.24990980492E+04 0.  0.
        1    1    3    3  502    0 -0.69384065711E+03  0.99699157367E+03 -0.13311210718E+04  0.18020239630E+04  0.50400001928E-02 0. -1.
       -1    1    3    3    0  502  0.69384065711E+03 -0.99699157367E+03 -0.59129716826E+03  0.13509401899E+04  0.50400001928E-02 0.  1.
</event>
<event>
 5   0  0.3934906E-05  0.2380568E+04  0.7818609E-02  0.8446815E-01
       -1   -1    0    0    0  501  0.00000000000E+00  0.00000000000E+00  0.78032930059E+03  0.78032930060E+03  0.50400001928E-02 0.  1.
        1   -1    0    0  501    0  0.00000000000E+00  0.00000000000E+00 -0.18156127965E+04  0.18156127965E+04  0.50400001928E-02 0. -1.
    10030    2    1    2    0    0  0.00000000000E+00  0.00000000000E+00 -0.10352834959E+04  0.25959420971E+04  0.23805678849E+04 0.  0.
        2    1    3    3  502    0  0.88822914114E+03 -0.48458824345E+02  0.34478052430E+03  0.95402980812E+03  0.25500000920E-02 0.  1.
       -2    1    3    3    0  502 -0.88822914114E+03  0.48458824345E+02 -0.13800640202E+04  0.16419122890E+04  0.25500000920E-02 0. -1.
</event>
<event>
 5   0  0.9182865E-05  0.2686445E+04  0.7818609E-02  0.8339416E-01
        2   -1    0    0  501    0  0.00000000000E+00  0.00000000000E+00  0.14810511256E+04  0.14810511256E+04  0.25500000920E-02 0. -1.
       -2   -1    0    0    0  501  0.00000000000E+00  0.00000000000E+00 -0.12182205751E+04  0.12182205751E+04  0.25500000920E-02 0.  1.
    10030    2    1    2    0    0  0.00000000000E+00  0.00000000000E+00  0.26283055051E+03  0.26992717007E+04  0.26864452007E+04 0.  0.
        3    1    3    3  502    0  0.96416440939E+03 -0.87590980696E+03 -0.19789326471E+03  0.13175707771E+04  0.10100000352E+00 0.  1.
       -3    1    3    3    0  502 -0.96416440939E+03  0.87590980696E+03  0.46072381522E+03  0.13817009236E+04  0.10100000352E+00 0. -1.
</event>
<event>
 5   0  0.9144244E-05  0.1625484E+04  0.7818609E-02  0.8805043E-01
       -2   -1    0    0    0  501  0.00000000000E+00  0.00000000000E+00  0.31342480905E+03  0.31342480906E+03  0.25500000920E-02 0.  1.
        2   -1    0    0  501    0  0.00000000000E+00  0.00000000000E+00 -0.21075223199E+04  0.21075223199E+04  0.25500000920E-02 0. -1.
    10030    2    1    2    0    0  0.00000000000E+00  0.00000000000E+00 -0.17940975108E+04  0.24209471289E+04  0.16254842733E+04 0.  0.
        1    1    3    3  502    0 -0.44710312198E+03 -0.55880523578E+03 -0.14707660663E+04  0.16356397265E+04  0.50400001928E-02 0. -1.
       -1    1    3    3    0  502  0.44710312198E+03  0.55880523578E+03 -0.32333144454E+03  0.78530740240E+03  0.50400001928E-02 0.  1.
</event>
<event>
 5   0  0.3934906E-05  0.2207936E+04  0.7818609E-02  0.8515132E-01
       -1   -1    0    0    0  501  0.00000000000E+00  0.00000000000E+00  0.77215612669E+03  0.77215612671E+03  0.50400001928E-02 0.  1.
        1   -1    0    0  501    0  0.00000000000E+00  0.00000000000E+00 -0.15783659239E+04  0.15783659239E+04  0.50400001928E-02 0. -1.
    10030    2    1    2    0    0  0.00000000000E+00  0.00000000000E+00 -0.80620979725E+03  0.23505220507E+04  0.22079356135E+04 0.  0.
        2    1    3    3  502    0 -0.93059817286E+03  0.28128008751E+03 -0.95996571942E+03  0.13662597225E+04  0.25500000920E-02 0. -1.
       -2    1    3    3    0  502  0.93059817286E+03 -0.28128008751E+03  0.15375592217E+03  0.98426232812E+03  0.25500000920E-02 0.  1.
</event>
<event>
 5   0  0.4260395E-05  0.2430100E+04  0.7818609E-02  0.8428320E-01
       -1   -1    0    0    0  501  0.00000000000E+00  0.00000000000E+00  0.18029487262E+04  0.18029487262E+04  0.50400001928E-02 0.  1.
        1   -1    0    0  501    0  0.00000000000E+00  0.00000000000E+00 -0.81885120071E+03  0.81885120072E+03  0.50400001928E-02 0. -1.
    10030    2    1    2    0    0  0.00000000000E+00  0.00000000000E+00  0.98409752550E+03  0.26217999269E+04  0.24301001867E+04 0.  0.
        4    1    3    3  502    0  0.50600943693E+03 -0.88959780134E+03 -0.21453092184E+03  0.10456839521E+04  0.12699999809E+01 0. -1.
       -4    1    3    3    0  502 -0.50600943693E+03  0.88959780134E+03  0.11986284473E+04  0.15761159748E+04  0.12699999809E+01 0.  1.
</event>
<event>
 5   0  0.4061631E-05  0.2412718E+04  0.7818609E-02  0.8434757E-01
       -1   -1    0    0    0  501  0.00000000000E+00  0.00000000000E+00  0.11783011512E+04  0.11783011512E+04  0.50400001928E-02 0.  1.
        1   -1    0    0  501    0  0.00000000000E+00  0.00000000000E+00 -0.12350850082E+04  0.12350850082E+04  0.50400001928E-02 0. -1.
    10030    2    1    2    0    0  0.00000000000E+00  0.00000000000E+00 -0.56783857032E+02  0.24133861594E+04  0.24127180415E+04 0.  0.
        3    1    3    3  502    0  0.10735102541E+03 -0.75076048076E+03  0.91002378330E+03  0.11846133709E+04  0.10100000352E+00 0.  1.
       -3    1    3    3    0  502 -0.10735102541E+03  0.75076048076E+03 -0.96680764034E+03  0.12287727885E+04  0.10100000352E+00 0. -1.
</event>
<event>
 5   0  0.4260395E-05  0.2295466E+04  0.7818609E-02  0.8479711E-01
        1   -1    0    0  501    0  0.00000000000E+00  0.00000000000E+00  0.10062759953E+04  0.10062759953E+04  0.50400001928E-02 0. -1.
       -1   -1    0    0    0  501  0.00000000000E+00  0.00000000000E+00 -0.13090748421E+04  0.13090748421E+04  0.50400001928E-02 0.  1.
    10030    2    1    2    0    0  0.00000000000E+00  0.00000000000E+00 -0.30279884687E+03  0.23153508374E+04  0.22954656082E+04 0.  0.
        4    1    3    3  502    0  0.65710880638E+03 -0.60236423369E+03 -0.88061055690E+03  0.12530407892E+04  0.12699999809E+01 0. -1.
       -4    1    3    3    0  502 -0.65710880638E+03  0.60236423369E+03  0.57781171003E+03  0.10623100482E+04  0.12699999809E+01 0.  1.
</event>
<event>
 5   0  0.9750757E-05  0.2351157E+04  0.7818609E-02  0.8458019E-01
        2   -1    0    0  501    0  0.00000000000E+00  0.00000000000E+00  0.30879844382E+04  0.30879844382E+04  0.25500000920E-02 0. -1.
       -2   -1    0    0    0  501  0.00000000000E+00  0.00000000000E+00 -0.44753631515E+03  0.44753631516E+03  0.25500000920E-02 0.  1.
    10030    2    1    2    0    0  0.00000000000E+00  0.00000000000E+00  0.26404481230E+04  0.35355207533E+04  0.23511573122E+04 0.  0.
        2    1    3    3  502    0  0.89437393832E+03 -0.34891719495E+03  0.29996666701E+03  0.10057971723E+04  0.25500000920E-02 0.  1.
       -2    1    3    3    0  502 -0.89437393832E+03  0.34891719495E+03  0.23404814560E+04  0.25297235810E+04  0.25500000920E-02 0. -1.
</event>
<event>
 5   0  0.9144244E-05  0.2275054E+04  0.7818609E-02  0.8487822E-01
       -2   -1    0    0    0  501  0.00000000000E+00  0.00000000000E+00  0.83719519817E+03  0.83719519817E+03  0.25500000920E-02 0.  1.
        2   -1    0    0  501    0  0.00000000000E+00  0.00000000000E+00 -0.15455983962E+04  0.15455983962E+04  0.25500000920E-02 0. -1.
    10030    2    1    2    0    0  0.00000000000E+00  0.00000000000E+00 -0.70840319807E+03  0.23827935944E+04  0.22750538944E+04 0.  0.
        1    1    3    3  502    0  0.47483603816E+03 -0.60480460202E+01  0.72841384195E+03  0.86953583432E+03  0.50400001928E-02 0.  1.
       -1    1    3    3    0  502 -0.47483603816E+03  0.60480460202E+01 -0.14368170400E+04  0.15132577601E+04  0.50400001928E-02 0. -1.
</event>
<event>
 5   0  0.4208577E-05  0.2376965E+04  0.7818609E-02  0.8448178E-01
        1   -1    0    0  501    0  0.00000000000E+00  0.00000000000E+00  0.14259048221E+04  0.14259048221E+04  0.50400001928E-02 0. -1.
       -1   -1    0    0    0  501  0.00000000000E+00  0.00000000000E+00 -0.99059258232E+03  0.99059258233E+03  0.50400001928E-02 0.  1.
    10030    2    1    2    0    0  0.00000000000E+00  0.00000000000E+00  0.43531223975E+03  0.24164974044E+04  0.23769650732E+04 0.  0.
        1    1    3    3  502    0 -0.60905766680E+02  0.94106711870E+03  0.95299337545E+03  0.13407136935E+04  0.50400001928E-02 0. -1.
       -1    1    3    3    0  502  0.60905766680E+02 -0.94106711870E+03 -0.51768113570E+03  0.10757837109E+04  0.50400001928E-02 0.  1.
</event>
<event>
 5   0  0.9750757E-05  0.2407707E+04  0.7818609E-02  0.8436624E-01
        2   -1    0    0  501    0  0.00000000000E+00  0.00000000000E+00  0.24935191623E+04  0.24935191623E+04  0.25500000920E-02 0.  1.
       -2   -1    0    0    0  501  0.00000000000E+00  0.00000000000E+00 -0.58121217237E+03  0.58121217237E+03  0.25500000920E-02 0. -1.
    10030    2    1    2    0    0  0.00000000000E+00  0.00000000000E+00  0.19123069899E+04  0.30747313346E+04  0.24077073652E+04 0.  0.
        2    1    3    3  502    0  0.60097639524E+03  0.11434034247E+03 -0.36791730712E+03  0.71386937631E+03  0.25500000920E-02 0. -1.
       -2    1    3    3    0  502 -0.60097639524E+03 -0.11434034247E+03  0.22802242970E+04  0.23608619583E+04  0.25500000920E-02 0.  1.
</event>
<event>
 5   0  0.4061631E-05  0.2226788E+04  0.7818609E-02  0.8507360E-01
       -1   -1    0    0    0  501  0.00000000000E+00  0.00000000000E+00  0.16176785394E+04  0.16176785394E+04  0.50400001928E-02 0.  1.
        1   -1    0    0  501    0  0.00000000000E+00  0.00000000000E+00 -0.76631209827E+03  0.76631209829E+03  0.50400001928E-02 0. -1.
    10030    2    1    2    0    0  0.00000000000E+00  0.00000000000E+00  0.85136644117E+03  0.23839906377E+04  0.22267883922E+04 0.  0.
        3    1    3    3  502    0 -0.31994369629E+03  0.13416516299E+03 -0.70696599247E+03  0.78750567266E+03  0.10100000352E+00 0. -1.
       -3    1    3    3    0  502  0.31994369629E+03 -0.13416516299E+03  0.15583324336E+04  0.15964849651E+04  0.10100000352E+00 0.  1.
</event>
<event>
 5   0  0.9144244E-05  0.1648934E+04  0.7818609E-02  0.8791037E-01
        2   -1    0    0  501    0  0.00000000000E+00  0.00000000000E+00  0.54484565012E+03  0.54484565013E+03  0.25500000920E-02 0.  1.
       -2   -1    0    0    0  501  0.00000000000E+00  0.00000000000E+00 -0.12475932783E+04  0.12475932783E+04  0.25500000920E-02 0. -1.
    10030    2    1    2    0    0  0.00000000000E+00  0.00000000000E+00 -0.70274762814E+03  0.17924389284E+04  0.16489339232E+04 0.  0.
        1    1    3    3  502    0 -0.19154310254E+03  0.18495091621E+03 -0.11995700292E+04  0.12287651755E+04  0.50400001928E-02 0. -1.
       -1    1    3    3    0  502  0.19154310254E+03 -0.18495091621E+03  0.49682240103E+03  0.56367375292E+03  0.50400001928E-02 0.  1.
</event>
<event>
 5   0  0.4061631E-05  0.2392893E+04  0.7818609E-02  0.8442169E-01
        1   -1    0    0  501    0  0.00000000000E+00  0.00000000000E+00  0.23641232098E+04  0.23641232098E+04  0.50400001928E-02 0. -1.
       -1   -1    0    0    0  501  0.00000000000E+00  0.00000000000E+00 -0.60550341909E+03  0.60550341911E+03  0.50400001928E-02 0.  1.
    10030    2    1    2    0    0  0.00000000000E+00  0.00000000000E+00  0.17586197907E+04  0.29696266289E+04  0.23928933839E+04 0.  0.
        3    1    3    3  502    0 -0.79504141711E+03  0.42380415120E+03 -0.97699257399E+02  0.90622622374E+03  0.10100000352E+00 0.  1.
       -3    1    3    3    0  502  0.79504141711E+03 -0.42380415120E+03  0.18563190481E+04  0.20634004051E+04  0.10100000352E+00 0. -1.
</event>
<event>
 5   0  0.9491680E-05  0.2379444E+04  0.7818609E-02  0.8447240E-01
       -2   -1    0    0    0  501  0.00000000000E+00  0.00000000000E+00  0.11128522136E+04  0.11128522136E+04  0.25500000920E-02 0. -1.
        2   -1    0    0  501    0  0.00000000000E+00  0.00000000000E+00 -0.12719015994E+04  0.12719015994E+04  0.25500000920E-02 0.  1.
    10030    2    1    2    0    0  0.00000000000E+00  0.00000000000E+00 -0.15904938577E+03  0.23847538130E+04  0.23794440614E+04 0.  0.
        5    1    3    3  502    0 -0.12767391083E+03  0.73380480906E+03 -0.10093051300E+04  0.12543879227E+04  0.46999998093E+01 0.  1.
       -5    1    3    3    0  502  0.12767391083E+03 -0.73380480906E+03  0.85025574422E+03  0.11303658903E+04  0.46999998093E+01 0. -1.
</event>
<event>
 5   0  0.9144244E-05  0.2439373E+04  0.7818609E-02  0.8424908E-01
        2   -1    0    0  501    0  0.00000000000E+00  0.00000000000E+00  0.13330538161E+04  0.13330538161E+04  0.25500000920E-02 0.  1.
       -2   -1    0    0    0  501  0.00000000000E+00  0.00000000000E+00 -0.11159600952E+04  0.11159600952E+04  0.25500000920E-02 0. -1.
    10030    2    1    2    0    0  0.00000000000E+00  0.00000000000E+00  0.21709372088E+03  0.24490139113E+04  0.24393727583E+04 0.  0.
        1    1    3    3  502    0 -0.55691740153E+03 -0.91197567848E+03 -0.48180632095E+03  0.11721748851E+04  0.50400001928E-02 0. -1.
       -1    1    3    3    0  502  0.55691740153E+03  0.91197567848E+03  0.69890004182E+03  0.12768390262E+04  0.50400001928E-02 0.  1.
</event>
<event>
 5   0  0.3934906E-05  0.2415732E+04  0.7818609E-02  0.8433637E-01
        1   -1    0    0  501    0  0.00000000000E+00  0.00000000000E+00  0.14336085196E+04  0.14336085196E+04  0.50400001928E-02 0.  1.
       -1   -1    0    0    0  501  0.00000000000E+00  0.00000000000E+00 -0.10176696551E+04  0.10176696552E+04  0.50400001928E-02 0. -1.
    10030    2    1    2    0    0  0.00000000000E+00  0.00000000000E+00  0.41593886448E+03  0.24512781748E+04  0.24157316803E+04 0.  0.
        2    1    3    3  502    0  0.60076429512E+02 -0.77895030875E+03 -0.72676234098E+03  0.10670315184E+04  0.25500000920E-02 0. -1.
       -2    1    3    3    0  502 -0.60076429512E+02  0.77895030875E+03  0.11427012055E+04  0.13842466564E+04  0.25500000920E-02 0.  1.
</event>
<event>
 5   0  0.9750757E-05  0.1543754E+04  0.7818609E-02  0.8855867E-01
        2   -1    0    0  501    0  0.00000000000E+00  0.00000000000E+00  0.13257104999E+04  0.13257104999E+04  0.25500000920E-02 0.  1.
       -2   -1    0    0    0  501  0.00000000000E+00  0.00000000000E+00 -0.44941498835E+03  0.44941498836E+03  0.25500000920E-02 0. -1.
    10030    2    1    2    0    0  0.00000000000E+00  0.00000000000E+00  0.87629551157E+03  0.17751254883E+04  0.15437540852E+04 0.  0.
        2    1    3    3  502    0  0.14284892108E+03  0.62157293895E+03 -0.61797615572E+02  0.64076335568E+03  0.25500000920E-02 0. -1.
       -2    1    3    3    0  502 -0.14284892108E+03 -0.62157293895E+03  0.93809312715E+03  0.11343621326E+04  0.25500000920E-02 0.  1.
</event>
<event>
 5   0  0.9144244E-05  0.2418958E+04  0.7818609E-02  0.8432440E-01
        2   -1    0    0  501    0  0.00000000000E+00  0.00000000000E+00  0.17171492106E+04  0.17171492106E+04  0.25500000920E-02 0.  1.
       -2   -1    0    0    0  501  0.00000000000E+00  0.00000000000E+00 -0.85189975905E+03  0.85189975906E+03  0.25500000920E-02 0. -1.
    10030    2    1    2    0    0  0.00000000000E+00  0.00000000000E+00  0.86524945151E+03  0.25690489696E+04  0.24189576257E+04 0.  0.
        1    1    3    3  502    0  0.11914589453E+04  0.47294412643E+02  0.21750346380E+03  0.12120721664E+04  0.50400001928E-02 0.  1.
       -1    1    3    3    0  502 -0.11914589453E+04 -0.47294412643E+02  0.64774598771E+03  0.13569768032E+04  0.50400001928E-02 0. -1.
</event>
<event>
 5   0  0.3934906E-05  0.2413342E+04  0.7818609E-02  0.8434525E-01
        1   -1    0    0  501    0  0.00000000000E+00  0.00000000000E+00  0.12855568853E+04  0.12855568853E+04  0.50400001928E-02 0.  1.
       -1   -1    0    0    0  501  0.00000000000E+00  0.00000000000E+00 -0.11326258304E+04  0.11326258304E+04  0.50400001928E-02 0. -1.
    10030    2    1    2    0    0  0.00000000000E+00  0.00000000000E+00  0.15293105496E+03  0.24181827157E+04  0.24133420269E+04 0.  0.
        2    1    3    3  502    0  0.93304750562E+03  0.74847942656E+03 -0.82774081475E+02  0.11990207039E+04  0.25500000920E-02 0. -1.
       -2    1    3    3    0  502 -0.93304750562E+03 -0.74847942656E+03  0.23570513643E+03  0.12191620118E+04  0.25500000920E-02 0.  1.
</event>
<event>
 5   0  0.4260395E-05  0.2385862E+04  0.7818609E-02  0.8444816E-01
       -1   -1    0    0    0  501  0.00000000000E+00  0.00000000000E+00  0.15201098786E+04  0.15201098786E+04  0.50400001928E-02 0. -1.
        1   -1    0    0  501    0  0.00000000000E+00  0.00000000000E+00 -0.93617199937E+03  0.93617199938E+03  0.50400001928E-02 0.  1.
    10030    2    1    2    0    0  0.00000000000E+00  0.00000000000E+00  0.58393787926E+03  0.24562818780E+04  0.23858619443E+04 0.  0.
        4    1    3    3  502    0 -0.34528429993E+00 -0.11911462017E+04  0.35911117976E+03  0.12441028274E+04  0.12699999809E+01 0.  1.
       -4    1    3    3    0  502  0.34528429993E+00  0.11911462017E+04  0.22482669950E+03  0.12121790506E+04  0.12699999809E+01 0. -1.
</event>
<event>
 5   0  0.9491680E-05  0.2265652E+04  0.7818609E-02  0.8491589E-01
       -2   -1    0    0    0  501  0.00000000000E+00  0.00000000000E+00  0.10497756410E+04  0.10497756410E+04  0.25500000920E-02 0.  1.
        2   -1    0    0  501    0  0.00000000000E+00  0.00000000000E+00 -0.12224465373E+04  0.12224465373E+04  0.25500000920E-02 0. -1.
    10030    2    1    2    0    0  0.00000000000E+00  0.00000000000E+00 -0.17267089622E+03  0.22722221783E+04  0.22656518685E+04 0.  0.
        5    1    3    3  502    0  0.10597927503E+04  0.20655646863E+03 -0.43003361015E+03  0.11622294284E+04  0.46999998093E+01 0. -1.
       -5    1    3    3    0  502 -0.10597927503E+04 -0.20655646863E+03  0.25736271394E+03  0.11099927499E+04  0.46999998093E+01 0.  1.
</event>
<event>
 5   0  0.4018942E-05  0.2418991E+04  0.7818609E-02  0.8432428E-01
        1   -1    0    0  501    0  0.00000000000E+00  0.00000000000E+00  0.21565949794E+04  0.21565949794E+04  0.50400001928E-02 0.  1.
       -1   -1    0    0    0  501  0.00000000000E+00  0.00000000000E+00 -0.67832831307E+03  0.67832831309E+03  0.50400001928E-02 0. -1.
    10030    2    1    2    0    0  0.00000000000E+00  0.00000000000E+00  0.14782666663E+04  0.28349232924E+04  0.24189910577E+04 0.  0.
        5    1    3    3  502    0  0.33771177923E+03 -0.10562740019E+04  0.13049450984E+04  0.17125033760E+04  0.46999998093E+01 0.  1.
       -5    1    3    3    0  502 -0.33771177923E+03  0.10562740019E+04  0.17332156792E+03  0.11224199165E+04  0.46999998093E+01 0. -1.
</event>
<event>
 5   0  0.4061631E-05  0.2259009E+04  0.7818609E-02  0.8494261E-01
        1   -1    0    0  501    0  0.00000000000E+00  0.00000000000E+00  0.84892913334E+03  0.84892913335E+03  0.50400001928E-02 0. -1.
       -1   -1    0    0    0  501  0.00000000000E+00  0.00000000000E+00 -0.15028119542E+04  0.15028119542E+04  0.50400001928E-02 0.  1.
    10030    2    1    2    0    0  0.00000000000E+00  0.00000000000E+00 -0.65388282086E+03  0.23517410876E+04  0.22590093846E+04 0.  0.
        3    1    3    3  502    0  0.10963602574E+04 -0.20665061887E+03 -0.51044557469E+03  0.12268924106E+04  0.10100000352E+00 0.  1.
       -3    1    3    3    0  502 -0.10963602574E+04  0.20665061887E+03 -0.14343724617E+03  0.11248486770E+04  0.10100000352E+00 0. -1.
</event>
<event>
 5   0  0.9182865E-05  0.2164089E+04  0.7818609E-02  0.8533525E-01
       -2   -1    0    0    0  501  0.00000000000E+00  0.00000000000E+00  0.68278814822E+03  0.68278814823E+03  0.25500000920E-02 0. -1.
        2   -1    0    0  501    0  0.00000000000E+00  0.00000000000E+00 -0.17147639597E+04  0.17147639597E+04  0.25500000920E-02 0.  1.
    10030    2    1    2    0    0  0.00000000000E+00  0.00000000000E+00 -0.10319758115E+04  0.23975521079E+04  0.21640891929E+04 0.  0.
        3    1    3    3  502    0  0.64870006291E+02 -0.86118658919E+03 -0.12382121367E+04  0.15096422639E+04  0.10100000352E+00 0.  1.
       -3    1    3    3    0  502 -0.64870006291E+02  0.86118658919E+03  0.20623632525E+03  0.88790984405E+03  0.10100000352E+00 0. -1.
</event>
<event>
 5   0  0.9491680E-05  0.2439161E+04  0.7818609E-02  0.8424986E-01
       -2   -1    0    0    0  501  0.00000000000E+00  0.00000000000E+00  0.11234227484E+04  0.11234227484E+04  0.25500000920E-02 0. -1.
        2   -1    0    0  501    0  0.00000000000E+00  0.00000000000E+00 -0.13239688942E+04  0.13239688942E+04  0.25500000920E-02 0.  1.
    10030    2    1    2    0    0  0.00000000000E+00  0.00000000000E+00 -0.20054614584E+03  0.24473916427E+04  0.24391611460E+04 0.  0.
        5    1    3    3  502    0 -0.10558091260E+04  0.22263368559E+03 -0.67057113441E+03  0.12704276464E+04  0.46999998093E+01 0.  1.
       -5    1    3    3    0  502  0.10558091260E+04 -0.22263368559E+03  0.47002498857E+03  0.11769639962E+04  0.46999998093E+01 0. -1.
</event>
<event>
 5   0  0.4018942E-05  0.1880907E+04  0.7818609E-02  0.8664419E-01
        1   -1    0    0  501    0  0.00000000000E+00  0.00000000000E+00  0.88631043864E+03  0.88631043866E+03  0.50400001928E-02 0. -1.
       -1   -1    0    0    0  501  0.00000000000E+00  0.00000000000E+00 -0.99790391065E+03  0.99790391066E+03  0.50400001928E-02 0.  1.
    10030    2    1    2    0    0  0.00000000000E+00  0.00000000000E+00 -0.11159347200E+03  0.18842143493E+04  0.18809068587E+04 0.  0.
        5    1    3    3  502    0  0.64957871428E+02 -0.35719209202E+03  0.81326832983E+03  0.89063639156E+03  0.46999998093E+01 0. -1.
       -5    1    3    3    0  502 -0.64957871428E+02  0.35719209202E+03 -0.92486180183E+03  0.99357795776E+03  0.46999998093E+01 0.  1.
</event>
<event>
 5   0  0.3934906E-05  0.2520766E+04  0.7818609E-02  0.8395625E-01
       -1   -1    0    0    0  501  0.00000000000E+00  0.00000000000E+00  0.13504817822E+04  0.13504817822E+04  0.50400001928E-02 0. -1.
        1   -1    0    0  501    0  0.00000000000E+00  0.00000000000E+00 -0.11762951835E+04  0.11762951836E+04  0.50400001928E-02 0.  1.
    10030    2    1    2    0    0  0.00000000000E+00  0.00000000000E+00  0.17418659869E+03  0.25267769658E+04  0.25207659280E+04 0.  0.
        2    1    3    3  502    0 -0.27349295566E+03 -0.11798504106E+04 -0.26262233943E+03  0.12392803885E+04  0.25500000920E-02 0. -1.
       -2    1    3    3    0  502  0.27349295566E+03  0.11798504106E+04  0.43680893812E+03  0.12874965773E+04  0.25500000920E-02 0.  1.
</event>
<event>
 5   0  0.9144244E-05  0.2326993E+04  0.7818609E-02  0.8467353E-01
        2   -1    0    0  501    0  0.00000000000E+00  0.00000000000E+00  0.18030692809E+04  0.18030692809E+04  0.25500000920E-02 0. -1.
       -2   -1    0    0    0  501  0.00000000000E+00  0.00000000000E+00 -0.75078904408E+03  0.75078904408E+03  0.25500000920E-02 0.  1.
    10030    2    1    2    0    0  0.00000000000E+00  0.00000000000E+00  0.10522802368E+04  0.25538583249E+04  0.23269934781E+04 0.  0.
        1    1    3    3  502    0  0.11628657092E+04  0.37840400294E+02  0.51954526261E+03  0.12742118479E+04  0.50400001928E-02 0. -1.
       -1    1    3    3    0  502 -0.11628657092E+04 -0.37840400294E+02  0.53273497416E+03  0.12796464770E+04  0.50400001928E-02 0.  1.
</event>
<event>
 5   0  0.9491680E-05  0.2381527E+04  0.7818609E-02  0.8446452E-01
        2   -1    0    0  501    0  0.00000000000E+00  0.00000000000E+00  0.74595631996E+03  0.74595631996E+03  0.25500000920E-02 0. -1.
       -2   -1    0    0    0  501  0.00000000000E+00  0.00000000000E+00 -0.19008052160E+04  0.19008052161E+04  0.25500000920E-02 0.  1.
    10030    2    1    2    0    0  0.00000000000E+00  0.00000000000E+00 -0.11548488961E+04  0.26467615360E+04  0.23815269588E+04 0.  0.
        5    1    3    3  502    0  0.52695941790E+03 -0.44165968581E+03 -0.16578846597E+04  0.17948128429E+04  0.46999998093E+01 0.  1.
       -5    1    3    3    0  502 -0.52695941790E+03  0.44165968581E+03  0.50303576362E+03  0.85194869309E+03  0.46999998093E+01 0. -1.
</event>
<event>
 5   0  0.4208577E-05  0.2488516E+04  0.7818609E-02  0.8407088E-01
        1   -1    0    0  501    0  0.00000000000E+00  0.00000000000E+00  0.21143810143E+04  0.21143810143E+04  0.50400001928E-02 0. -1.
       -1   -1    0    0    0  501  0.00000000000E+00  0.00000000000E+00 -0.73221335881E+03  0.73221335882E+03  0.50400001928E-02 0.  1.
    10030    2    1    2    0    0  0.00000000000E+00  0.00000000000E+00  0.13821676555E+04  0.28465943731E+04  0.24885160432E+04 0.  0.
        1    1    3    3  502    0 -0.34909754438E+03  0.11669996727E+04  0.40074986853E+03  0.12823251494E+04  0.50400001928E-02 0.  1.
       -1    1    3    3    0  502  0.34909754438E+03 -0.11669996727E+04  0.98141778698E+03  0.15642692237E+04  0.50400001928E-02 0. -1.
</event>
<event>
 5   0  0.9750757E-05  0.2339890E+04  0.7818609E-02  0.8462357E-01
        2   -1    0    0  501    0  0.00000000000E+00  0.00000000000E+00  0.80711692673E+03  0.80711692673E+03  0.25500000920E-02 0.  1.
       -2   -1    0    0    0  501  0.00000000000E+00  0.00000000000E+00 -0.16958769655E+04  0.16958769655E+04  0.25500000920E-02 0. -1.
    10030    2    1    2    0    0  0.00000000000E+00  0.00000000000E+00 -0.88876003878E+03  0.25029938922E+04  0.23398897449E+04 0.  0.
        2    1    3    3  502    0 -0.11443647292E+04 -0.24315999258E+03 -0.43520364140E+03  0.12482386089E+04  0.25500000920E-02 0.  1.
       -2    1    3    3    0  502  0.11443647292E+04  0.24315999258E+03 -0.45355639738E+03  0.12547552833E+04  0.25500000920E-02 0. -1.
</event>
<event>
 5   0  0.3934906E-05  0.2437751E+04  0.7818609E-02  0.8425504E-01
        1   -1    0    0  501    0  0.00000000000E+00  0.00000000000E+00  0.16590642549E+04  0.16590642549E+04  0.50400001928E-02 0. -1.
       -1   -1    0    0    0  501  0.00000000000E+00  0.00000000000E+00 -0.89547892801E+03  0.89547892802E+03  0.50400001928E-02 0.  1.
    10030    2    1    2    0    0  0.00000000000E+00  0.00000000000E+00  0.76358532692E+03  0.25545431830E+04  0.24377506686E+04 0.  0.
        2    1    3    3  502    0  0.67353960785E+03  0.11687690870E+03  0.14392689461E+04  0.15933646520E+04  0.25500000920E-02 0. -1.
       -2    1    3    3    0  502 -0.67353960785E+03 -0.11687690870E+03 -0.67568361917E+03  0.96117853094E+03  0.25500000920E-02 0.  1.
</event>
<event>
 5   0  0.9144244E-05  0.1535798E+04  0.7818609E-02  0.8860991E-01
       -2   -1    0    0    0  501  0.00000000000E+00  0.00000000000E+00  0.38778016307E+03  0.38778016308E+03  0.25500000920E-02 0. -1.
        2   -1    0    0  501    0  0.00000000000E+00  0.00000000000E+00 -0.15206259457E+04  0.15206259457E+04  0.25500000920E-02 0.  1.
    10030    2    1    2    0    0  0.00000000000E+00  0.00000000000E+00 -0.11328457826E+04  0.19084061088E+04  0.15357976132E+04 0.  0.
        1    1    3    3  502    0 -0.42716856439E+03  0.56201317345E+03 -0.94196589567E+03  0.11771285139E+04  0.50400001928E-02 0.  1.
       -1    1    3    3    0  502  0.42716856439E+03 -0.56201317345E+03 -0.19087988695E+03  0.73127759490E+03  0.50400001928E-02 0. -1.
</event>
<event>
 5   0  0.4061631E-05  0.2369045E+04  0.7818609E-02  0.8451184E-01
        1   -1    0    0  501    0  0.00000000000E+00  0.00000000000E+00  0.14740713386E+04  0.14740713387E+04  0.50400001928E-02 0. -1.
       -1   -1    0    0    0  501  0.00000000000E+00  0.00000000000E+00 -0.95184892472E+03  0.95184892474E+03  0.50400001928E-02 0.  1.
    10030    2    1    2    0    0  0.00000000000E+00  0.00000000000E+00  0.52222241393E+03  0.24259202634E+04  0.23690447178E+04 0.  0.
        3    1    3    3  502    0 -0.20586331881E+03 -0.41593851568E+03 -0.85487345059E+03  0.97272461754E+03  0.10100000352E+00 0.  1.
       -3    1    3    3    0  502  0.20586331881E+03  0.41593851568E+03  0.13770958645E+04  0.14531956458E+04  0.10100000352E+00 0. -1.
</event>
<event>
 5   0  0.4061631E-05  0.2379890E+04  0.7818609E-02  0.8447071E-01
       -1   -1    0    0    0  501  0.00000000000E+00  0.00000000000E+00  0.12505440344E+04  0.12505440344E+04  0.50400001928E-02 0. -1.
        1   -1    0    0  501    0  0.00000000000E+00  0.00000000000E+00 -0.11322823340E+04  0.11322823340E+04  0.50400001928E-02 0.  1.
    10030    2    1    2    0    0  0.00000000000E+00  0.00000000000E+00  0.11826170038E+03  0.23828263684E+04  0.23798898446E+04 0.  0.
        3    1    3    3  502    0  0.10402918459E+04  0.43082986297E+03 -0.32624329694E+03  0.11722867373E+04  0.10100000352E+00 0.  1.
       -3    1    3    3    0  502 -0.10402918459E+04 -0.43082986297E+03  0.44450499732E+03  0.12105396311E+04  0.10100000352E+00 0. -1.
</event>
<event>
 5   0  0.9519092E-05  0.2238100E+04  0.7818609E-02  0.8502735E-01
        2   -1    0    0  501    0  0.00000000000E+00  0.00000000000E+00  0.10697929070E+04  0.10697929070E+04  0.25500000920E-02 0.  1.
       -2   -1    0    0    0  501  0.00000000000E+00  0.00000000000E+00 -0.11705753251E+04  0.11705753251E+04  0.25500000920E-02 0. -1.
    10030    2    1    2    0    0  0.00000000000E+00  0.00000000000E+00 -0.10078241811E+03  0.22403682321E+04  0.22381002479E+04 0.  0.
        4    1    3    3  502    0 -0.51659522528E+03 -0.44119541219E+03 -0.94053219354E+03  0.11602268910E+04  0.12699999809E+01 0. -1.
       -4    1    3    3    0  502  0.51659522528E+03  0.44119541219E+03  0.83974977544E+03  0.10801413411E+04  0.12699999809E+01 0.  1.
</event>
<event>
 5   0  0.9144244E-05  0.2359652E+04  0.7818609E-02  0.8454766E-01
       -2   -1    0    0    0  501  0.00000000000E+00  0.00000000000E+00  0.13853874271E+04  0.13853874271E+04  0.25500000920E-02 0.  1.
        2   -1    0    0  501    0  0.00000000000E+00  0.00000000000E+00 -0.10047650057E+04  0.10047650057E+04  0.25500000920E-02 0. -1.
    10030    2    1    2    0    0  0.00000000000E+00  0.00000000000E+00  0.38062242145E+03  0.23901524328E+04  0.23596515048E+04 0.  0.
        1    1    3    3  502    0 -0.12303458987E+03  0.43085481562E+03 -0.91522478100E+03  0.10190239360E+04  0.50400001928E-02 0. -1.
       -1    1    3    3    0  502  0.12303458987E+03 -0.43085481562E+03  0.12958472024E+04  0.13711284967E+04  0.50400001928E-02 0.  1.
</event>
<event>
 5   0  0.3934906E-05  0.2396963E+04  0.7818609E-02  0.8440642E-01
        1   -1    0    0  501    0  0.00000000000E+00  0.00000000000E+00  0.95686046995E+03  0.95686046996E+03  0.50400001928E-02 0. -1.
       -1   -1    0    0    0  501  0.00000000000E+00  0.00000000000E+00 -0.15011151011E+04  0.15011151011E+04  0.50400001928E-02 0.  1.
    10030    2    1    2    0    0  0.00000000000E+00  0.00000000000E+00 -0.54425463114E+03  0.24579755711E+04  0.23969628292E+04 0.  0.
        2    1    3    3  502    0 -0.14786656749E+03  0.67990484750E+02 -0.14897307674E+04  0.14985943371E+04  0.25500000920E-02 0.  1.
       -2    1    3    3    0  502  0.14786656749E+03 -0.67990484750E+02  0.94547613628E+03  0.95938123396E+03  0.25500000920E-02 0. -1.
</event>
<event>
 5   0  0.4260395E-05  0.2433180E+04  0.7818609E-02  0.8427185E-01
       -1   -1    0    0    0  501  0.00000000000E+00  0.00000000000E+00  0.13025835244E+04  0.13025835244E+04  0.50400001928E-02 0.  1.
        1   -1    0    0  501    0  0.00000000000E+00  0.00000000000E+00 -0.11362731638E+04  0.11362731638E+04  0.50400001928E-02 0. -1.
    10030    2    1    2    0    0  0.00000000000E+00  0.00000000000E+00  0.16631036064E+03  0.24388566882E+04  0.24331795679E+04 0.  0.
        4    1    3    3  502    0  0.11002208310E+04 -0.45195823541E+03 -0.17305217990E+03  0.12019570681E+04  0.12699999809E+01 0. -1.
       -4    1    3    3    0  502 -0.11002208310E+04  0.45195823541E+03  0.33936254054E+03  0.12368996202E+04  0.12699999809E+01 0.  1.
</event>
<event>
 5   0  0.4018942E-05  0.2236727E+04  0.7818609E-02  0.8503295E-01
       -1   -1    0    0    0  501  0.00000000000E+00  0.00000000000E+00  0.12730517589E+04  0.12730517589E+04  0.50400001928E-02 0.  1.
        1   -1    0    0  501    0  0.00000000000E+00  0.00000000000E+00 -0.98247172735E+03  0.98247172736E+03  0.50400001928E-02 0. -1.
    10030    2    1    2    0    0  0.00000000000E+00  0.00000000000E+00  0.29058003157E+03  0.22555234863E+04  0.22367273957E+04 0.  0.
        5    1    3    3  502    0  0.90168176307E+03  0.33475970848E+03  0.72071754739E+03  0.12018943121E+04  0.46999998093E+01 0.  1.
       -5    1    3    3    0  502 -0.90168176307E+03 -0.33475970848E+03 -0.43013751582E+03  0.10536291742E+04  0.46999998093E+01 0. -1.
</event>
<event>
 5   0  0.9750757E-05  0.2411846E+04  0.7818609E-02  0.8435082E-01
       -2   -1    0    0    0  501  0.00000000000E+00  0.00000000000E+00  0.60162238824E+03  0.60162238825E+03  0.25500000920E-02 0.  1.
        2   -1    0    0  501    0  0.00000000000E+00  0.00000000000E+00 -0.24172136196E+04  0.24172136196E+04  0.25500000920E-02 0. -1.
    10030    2    1    2    0    0  0.00000000000E+00  0.00000000000E+00 -0.18155912314E+04  0.30188360079E+04  0.24118456259E+04 0.  0.
        2    1    3    3  502    0  0.17358379753E+03 -0.35349062149E+03  0.51886875687E+03  0.65139215616E+03  0.25500000920E-02 0.  1.
       -2    1    3    3    0  502 -0.17358379753E+03  0.35349062149E+03 -0.23344599883E+04  0.23674438517E+04  0.25500000920E-02 0. -1.
</event>
<event>
 5   0  0.4260395E-05  0.2321295E+04  0.7818609E-02  0.8469572E-01
        1   -1    0    0  501    0  0.00000000000E+00  0.00000000000E+00  0.96506264284E+03  0.96506264285E+03  0.50400001928E-02 0. -1.
       -1   -1    0    0    0  501  0.00000000000E+00  0.00000000000E+00 -0.13958710219E+04  0.13958710219E+04  0.50400001928E-02 0.  1.
    10030    2    1    2    0    0  0.00000000000E+00  0.00000000000E+00 -0.43080837907E+03  0.23609336648E+04  0.23212953087E+04 0.  0.
        4    1    3    3  502    0  0.95710582592E+03  0.50076878354E+03 -0.64724897655E+03  0.12592671627E+04  0.12699999809E+01 0.  1.
       -4    1    3    3    0  502 -0.95710582592E+03 -0.50076878354E+03  0.21644059749E+03  0.11016665020E+04  0.12699999809E+01 0. -1.
</event>
<event>
 5   0  0.9491680E-05  0.2380503E+04  0.7818609E-02  0.8446839E-01
        2   -1    0    0  501    0  0.00000000000E+00  0.00000000000E+00  0.16170355773E+04  0.16170355773E+04  0.25500000920E-02 0. -1.
       -2   -1    0    0    0  501  0.00000000000E+00  0.00000000000E+00 -0.87610818959E+03  0.87610818959E+03  0.25500000920E-02 0.  1.
    10030    2    1    2    0    0  0.00000000000E+00  0.00000000000E+00  0.74092738773E+03  0.24931437669E+04  0.23805025622E+04 0.  0.
        5    1    3    3  502    0  0.10042146531E+04 -0.48948459494E+03 -0.59618004605E+02  0.11187576300E+04  0.46999998093E+01 0.  1.
       -5    1    3    3    0  502 -0.10042146531E+04  0.48948459494E+03  0.80054539233E+03  0.13743861369E+04  0.46999998093E+01 0. -1.
</event>
<event>
 5   0  0.4018942E-05  0.2026932E+04  0.7818609E-02  0.8594132E-01
        1   -1    0    0  501    0  0.00000000000E+00  0.00000000000E+00  0.64655226541E+03  0.64655226543E+03  0.50400001928E-02 0. -1.
       -1   -1    0    0    0  501  0.00000000000E+00  0.00000000000E+00 -0.15886002500E+04  0.15886002500E+04  0.50400001928E-02 0.  1.
    10030    2    1    2    0    0  0.00000000000E+00  0.00000000000E+00 -0.94204798459E+03  0.22351525154E+04  0.20269317606E+04 0.  0.
        5    1    3    3  502    0  0.46084220075E+03  0.97062746615E+02 -0.14605913123E+04  0.15346484230E+04  0.46999998093E+01 0.  1.
       -5    1    3    3    0  502 -0.46084220075E+03 -0.97062746615E+02  0.51854332770E+03  0.70050409240E+03  0.46999998093E+01 0. -1.
</event>
<event>
 5   0  0.4208577E-05  0.2376303E+04  0.7818609E-02  0.8448429E-01
        1   -1    0    0  501    0  0.00000000000E+00  0.00000000000E+00  0.22165560329E+04  0.22165560329E+04  0.50400001928E-02 0. -1.
       -1   -1    0    0    0  501  0.00000000000E+00  0.00000000000E+00 -0.63689058102E+03  0.63689058104E+03  0.50400001928E-02 0.  1.
    10030    2    1    2    0    0  0.00000000000E+00  0.00000000000E+00  0.15796654519E+04  0.28534466139E+04  0.23763027246E+04 0.  0.
        1    1    3    3  502    0 -0.10643313656E+04 -0.45013241610E+03  0.45818084035E+03  0.12431211246E+04  0.50400001928E-02 0. -1.
       -1    1    3    3    0  502  0.10643313656E+04  0.45013241610E+03  0.11214846115E+04  0.16103254894E+04  0.50400001928E-02 0.  1.
</event>
<event>
 5   0  0.9750757E-05  0.2281445E+04  0.7818609E-02  0.8485273E-01
       -2   -1    0    0    0  501  0.00000000000E+00  0.00000000000E+00  0.10275547576E+04  0.10275547576E+04  0.25500000920E-02 0. -1.
        2   -1    0    0  501    0  0.00000000000E+00  0.00000000000E+00 -0.12663536664E+04  0.12663536664E+04  0.25500000920E-02 0.  1.
    10030    2    1    2    0    0  0.00000000000E+00  0.00000000000E+00 -0.23879890880E+03  0.22939084240E+04  0.22814449235E+04 0.  0.
        2    1    3    3  502    0 -0.54383050472E+03  0.97264775516E+03  0.12576133250E+03  0.11214326490E+04  0.25500000920E-02 0. -1.
       -2    1    3    3    0  502  0.54383050472E+03 -0.97264775516E+03 -0.36456024130E+03  0.11724757750E+04  0.25500000920E-02 0.  1.
</event>
<event>
 5   0  0.4018942E-05  0.2190291E+04  0.7818609E-02  0.8522480E-01
        1   -1    0    0  501    0  0.00000000000E+00  0.00000000000E+00  0.12640387629E+04  0.12640387629E+04  0.50400001928E-02 0. -1.
       -1   -1    0    0    0  501  0.00000000000E+00  0.00000000000E+00 -0.94881897380E+03  0.94881897382E+03  0.50400001928E-02 0.  1.
    10030    2    1    2    0    0  0.00000000000E+00  0.00000000000E+00  0.31521978912E+03  0.22128577368E+04  0.21902912701E+04 0.  0.
        5    1    3    3  502    0  0.17356562987E+03 -0.46218587993E+03  0.11452196882E+04  0.12471130821E+04  0.46999998093E+01 0. -1.
       -5    1    3    3    0  502 -0.17356562987E+03  0.46218587993E+03 -0.82999989905E+03  0.96574465461E+03  0.46999998093E+01 0.  1.
</event>
<event>
 5   0  0.9144244E-05  0.2417557E+04  0.7818609E-02  0.8432960E-01
        2   -1    0    0  501    0  0.00000000000E+00  0.00000000000E+00  0.14950576152E+04  0.14950576152E+04  0.25500000920E-02 0.  1.
       -2   -1    0    0    0  501  0.00000000000E+00  0.00000000000E+00 -0.97731717079E+03  0.97731717079E+03  0.25500000920E-02 0. -1.
    10030    2    1    2    0    0  0.00000000000E+00  0.00000000000E+00  0.51774044443E+03  0.24723747860E+04  0.24175570137E+04 0.  0.
        1    1    3    3  502    0  0.37124022374E+03 -0.29649885470E+03 -0.87782476928E+03  0.99815189232E+03  0.50400001928E-02 0. -1.
       -1    1    3    3    0  502 -0.37124022374E+03  0.29649885470E+03  0.13955652137E+04  0.14742228937E+04  0.50400001928E-02 0.  1.
</event>
<event>
 5   0  0.4208577E-05  0.1295407E+04  0.7818609E-02  0.9033215E-01
       -1   -1    0    0    0  501  0.00000000000E+00  0.00000000000E+00  0.43610413875E+03  0.43610413878E+03  0.50400001928E-02 0. -1.
        1   -1    0    0  501    0  0.00000000000E+00  0.00000000000E+00 -0.96197164791E+03  0.96197164792E+03  0.50400001928E-02 0.  1.
    10030    2    1    2    0    0  0.00000000000E+00  0.00000000000E+00 -0.52586750916E+03  0.13980757867E+04  0.12954069894E+04 0.  0.
        1    1    3    3  502    0  0.15244159982E+03 -0.29932099132E+03  0.33475226358E+03  0.47422629113E+03  0.50400001928E-02 0. -1.
       -1    1    3    3    0  502 -0.15244159982E+03  0.29932099132E+03 -0.86061977274E+03  0.92384949557E+03  0.50400001928E-02 0.  1.
</event>
<event>
 5   0  0.3934906E-05  0.2412899E+04  0.7818609E-02  0.8434690E-01
        1   -1    0    0  501    0  0.00000000000E+00  0.00000000000E+00  0.11591306231E+04  0.11591306231E+04  0.50400001928E-02 0. -1.
       -1   -1    0    0    0  501  0.00000000000E+00  0.00000000000E+00 -0.12556999055E+04  0.12556999055E+04  0.50400001928E-02 0.  1.
    10030    2    1    2    0    0  0.00000000000E+00  0.00000000000E+00 -0.96569282466E+02  0.24148305286E+04  0.24128988490E+04 0.  0.
        2    1    3    3  502    0  0.47553276735E+03 -0.16207808758E+03  0.10494615105E+04  0.11635163004E+04  0.25500000920E-02 0. -1.
       -2    1    3    3    0  502 -0.47553276735E+03  0.16207808758E+03 -0.11460307930E+04  0.12513142282E+04  0.25500000920E-02 0.  1.
</event>
<event>
 5   0  0.9519092E-05  0.2425199E+04  0.7818609E-02  0.8430129E-01
        2   -1    0    0  501    0  0.00000000000E+00  0.00000000000E+00  0.13524596040E+04  0.13524596040E+04  0.25500000920E-02 0.  1.
       -2   -1    0    0    0  501  0.00000000000E+00  0.00000000000E+00 -0.10872029793E+04  0.10872029793E+04  0.25500000920E-02 0. -1.
    10030    2    1    2    0    0  0.00000000000E+00  0.00000000000E+00  0.26525662468E+03  0.24396625833E+04  0.24251994646E+04 0.  0.
        4    1    3    3  502    0 -0.40704894446E+02  0.48789573681E+03 -0.98335560578E+03  0.10984939685E+04  0.12699999809E+01 0. -1.
       -4    1    3    3    0  502  0.40704894446E+02 -0.48789573681E+03  0.12486122305E+04  0.13411686148E+04  0.12699999809E+01 0.  1.
</event>
<event>
 5   0  0.9750757E-05  0.2340313E+04  0.7818609E-02  0.8462194E-01
        2   -1    0    0  501    0  0.00000000000E+00  0.00000000000E+00  0.98925941056E+03  0.98925941057E+03  0.25500000920E-02 0. -1.
       -2   -1    0    0    0  501  0.00000000000E+00  0.00000000000E+00 -0.13841320531E+04  0.13841320531E+04  0.25500000920E-02 0.  1.
    10030    2    1    2    0    0  0.00000000000E+00  0.00000000000E+00 -0.39487264249E+03  0.23733914636E+04  0.23403125082E+04 0.  0.
        2    1    3    3  502    0 -0.93151618095E+03 -0.43411672295E+03 -0.76488592983E+03  0.12811050738E+04  0.25500000920E-02 0.  1.
       -2    1    3    3    0  502  0.93151618095E+03  0.43411672295E+03  0.37001328734E+03  0.10922863898E+04  0.25500000920E-02 0. -1.
</event>
<event>
 5   0  0.9519092E-05  0.2384325E+04  0.7818609E-02  0.8445395E-01
        2   -1    0    0  501    0  0.00000000000E+00  0.00000000000E+00  0.14574555785E+04  0.14574555785E+04  0.25500000920E-02 0. -1.
       -2   -1    0    0    0  501  0.00000000000E+00  0.00000000000E+00 -0.97515971467E+03  0.97515971467E+03  0.25500000920E-02 0.  1.
    10030    2    1    2    0    0  0.00000000000E+00  0.00000000000E+00  0.48229586382E+03  0.24326152932E+04  0.23843254527E+04 0.  0.
        4    1    3    3  502    0 -0.67043718570E+03 -0.58269878526E+03 -0.57008249498E+03  0.10554712494E+04  0.12699999809E+01 0.  1.
       -4    1    3    3    0  502  0.67043718570E+03  0.58269878526E+03  0.10523783588E+04  0.13771440438E+04  0.12699999809E+01 0. -1.
</event>
<event>
 5   0  0.3934906E-05  0.2240752E+04  0.7818609E-02  0.8501655E-01
       -1   -1    0    0    0  501  0.00000000000E+00  0.00000000000E+00  0.16775816813E+04  0.16775816813E+04  0.50400001928E-02 0.  1.
        1   -1    0    0  501    0  0.00000000000E+00  0.00000000000E+00 -0.74824527193E+03  0.74824527195E+03  0.50400001928E-02 0. -1.
    10030    2    1    2    0    0  0.00000000000E+00  0.00000000000E+00  0.92933640934E+03  0.24258269532E+04  0.22407521606E+04 0.  0.
        2    1    3    3  502    0  0.38717903256E+03 -0.89197058362E+03 -0.13782621334E+03  0.98209734263E+03  0.25500000920E-02 0. -1.
       -2    1    3    3    0  502 -0.38717903256E+03  0.89197058362E+03  0.10671626227E+04  0.14437296106E+04  0.25500000920E-02 0.  1.
</event>
<event>
 5   0  0.9144244E-05  0.2319802E+04  0.7818609E-02  0.8470154E-01
        2   -1    0    0  501    0  0.00000000000E+00  0.00000000000E+00  0.11572096242E+04  0.11572096242E+04  0.25500000920E-02 0.  1.
       -2   -1    0    0    0  501  0.00000000000E+00  0.00000000000E+00 -0.11625984800E+04  0.11625984800E+04  0.25500000920E-02 0. -1.
    10030    2    1    2    0    0  0.00000000000E+00  0.00000000000E+00 -0.53888557875E+01  0.23198081042E+04  0.23198018451E+04 0.  0.
        1    1    3    3  502    0 -0.84133748694E+03 -0.78826814611E+03  0.12440710690E+03  0.11596087984E+04  0.50400001928E-02 0. -1.
       -1    1    3    3    0  502  0.84133748694E+03  0.78826814611E+03 -0.12979596269E+03  0.11601993057E+04  0.50400001928E-02 0.  1.
</event>
<event>
 5   0  0.4260395E-05  0.2301475E+04  0.7818609E-02  0.8477340E-01
       -1   -1    0    0    0  501  0.00000000000E+00  0.00000000000E+00  0.10883761492E+04  0.10883761493E+04  0.50400001928E-02 0. -1.
        1   -1    0    0  501    0  0.00000000000E+00  0.00000000000E+00 -0.12166722193E+04  0.12166722193E+04  0.50400001928E-02 0.  1.
    10030    2    1    2    0    0  0.00000000000E+00  0.00000000000E+00 -0.12829607006E+03  0.23050483686E+04  0.23014752008E+04 0.  0.
        4    1    3    3  502    0 -0.78098413624E+02 -0.97612222960E+03  0.54117548391E+03  0.11188326446E+04  0.12699999809E+01 0. -1.
       -4    1    3    3    0  502  0.78098413624E+02  0.97612222960E+03 -0.66947155397E+03  0.11862157240E+04  0.12699999809E+01 0.  1.
</event>
<event>
 5   0  0.3934906E-05  0.2401862E+04  0.7818609E-02  0.8438807E-01
       -1   -1    0    0    0  501  0.00000000000E+00  0.00000000000E+00  0.13015392331E+04  0.13015392331E+04  0.50400001928E-02 0. -1.
        1   -1    0    0  501    0  0.00000000000E+00  0.00000000000E+00 -0.11081001063E+04  0.11081001063E+04  0.50400001928E-02 0.  1.
    10030    2    1    2    0    0  0.00000000000E+00  0.00000000000E+00  0.19343912673E+03  0.24096393394E+04  0.24018624128E+04 0.  0.
        2    1    3    3  502    0  0.48377344607E+03  0.84748720580E+03  0.79896060027E+03  0.12611936219E+04  0.25500000920E-02 0. -1.
       -2    1    3    3    0  502 -0.48377344607E+03 -0.84748720580E+03 -0.60552147354E+03  0.11484457175E+04  0.25500000920E-02 0.  1.
</event>
<event>
 5   0  0.4208577E-05  0.2503834E+04  0.7818609E-02  0.8401621E-01
        1   -1    0    0  501    0  0.00000000000E+00  0.00000000000E+00  0.98764265522E+03  0.98764265523E+03  0.50400001928E-02 0. -1.
       -1   -1    0    0    0  501  0.00000000000E+00  0.00000000000E+00 -0.15869066984E+04  0.15869066984E+04  0.50400001928E-02 0.  1.
    10030    2    1    2    0    0  0.00000000000E+00  0.00000000000E+00 -0.59926404319E+03  0.25745493537E+04  0.25038344556E+04 0.  0.
        1    1    3    3  502    0 -0.81878015133E+03 -0.16605973656E+02  0.67401117458E+03  0.10606449727E+04  0.50400001928E-02 0. -1.
       -1    1    3    3    0  502  0.81878015133E+03  0.16605973656E+02 -0.12732752178E+04  0.15139043810E+04  0.50400001928E-02 0.  1.
</event>
<event>
 5   0  0.9144244E-05  0.2443369E+04  0.7818609E-02  0.8423443E-01
        2   -1    0    0  501    0  0.00000000000E+00  0.00000000000E+00  0.12213002097E+04  0.12213002097E+04  0.25500000920E-02 0. -1.
       -2   -1    0    0    0  501  0.00000000000E+00  0.00000000000E+00 -0.12220689741E+04  0.12220689741E+04  0.25500000920E-02 0.  1.
    10030    2    1    2    0    0  0.00000000000E+00  0.00000000000E+00 -0.76876439658E+00  0.24433691837E+04  0.24433690628E+04 0.  0.
        1    1    3    3  502    0  0.42585615153E+02  0.45670782692E+03  0.11319219577E+04  0.12213283310E+04  0.50400001928E-02 0. -1.
       -1    1    3    3    0  502 -0.42585615153E+02 -0.45670782692E+03 -0.11326907221E+04  0.12220408527E+04  0.50400001928E-02 0.  1.
</event>
<event>
 5   0  0.4061631E-05  0.2472410E+04  0.7818609E-02  0.8412881E-01
        1   -1    0    0  501    0  0.00000000000E+00  0.00000000000E+00  0.13307893583E+04  0.13307893583E+04  0.50400001928E-02 0. -1.
       -1   -1    0    0    0  501  0.00000000000E+00  0.00000000000E+00 -0.11483432194E+04  0.11483432194E+04  0.50400001928E-02 0.  1.
    10030    2    1    2    0    0  0.00000000000E+00  0.00000000000E+00  0.18244613885E+03  0.24791325777E+04  0.24724101084E+04 0.  0.
        3    1    3    3  502    0 -0.39481285411E+03 -0.11312960465E+04  0.39617988885E+03  0.12620088943E+04  0.10100000352E+00 0. -1.
       -3    1    3    3    0  502  0.39481285411E+03  0.11312960465E+04 -0.21373375000E+03  0.12171236834E+04  0.10100000352E+00 0.  1.
</event>
<event>
 5   0  0.4018942E-05  0.2391339E+04  0.7818609E-02  0.8442753E-01
       -1   -1    0    0    0  501  0.00000000000E+00  0.00000000000E+00  0.87907137827E+03  0.87907137828E+03  0.50400001928E-02 0.  1.
        1   -1    0    0  501    0  0.00000000000E+00  0.00000000000E+00 -0.16262901588E+04  0.16262901588E+04  0.50400001928E-02 0. -1.
    10030    2    1    2    0    0  0.00000000000E+00  0.00000000000E+00 -0.74721878056E+03  0.25053615371E+04  0.23913386472E+04 0.  0.
        5    1    3    3  502    0  0.27787682876E+03 -0.37934891705E+03 -0.15253359966E+04  0.15961807934E+04  0.46999998093E+01 0. -1.
       -5    1    3    3    0  502 -0.27787682876E+03  0.37934891705E+03  0.77811721602E+03  0.90918074369E+03  0.46999998093E+01 0.  1.
</event>
<event>
 5   0  0.4061631E-05  0.2412166E+04  0.7818609E-02  0.8434963E-01
        1   -1    0    0  501    0  0.00000000000E+00  0.00000000000E+00  0.11394528625E+04  0.11394528625E+04  0.50400001928E-02 0. -1.
       -1   -1    0    0    0  501  0.00000000000E+00  0.00000000000E+00 -0.12766093335E+04  0.12766093335E+04  0.50400001928E-02 0.  1.
    10030    2    1    2    0    0  0.00000000000E+00  0.00000000000E+00 -0.13715647105E+03  0.24160621960E+04  0.24121659639E+04 0.  0.
        3    1    3    3  502    0 -0.76684036923E+03 -0.81391129576E+03  0.38397055176E+03  0.11823405364E+04  0.10100000352E+00 0. -1.
       -3    1    3    3    0  502  0.76684036923E+03  0.81391129576E+03 -0.52112702281E+03  0.12337216596E+04  0.10100000352E+00 0.  1.
</event>
<event>
 5   0  0.9750757E-05  0.2406960E+04  0.7818609E-02  0.8436902E-01
        2   -1    0    0  501    0  0.00000000000E+00  0.00000000000E+00  0.93423388288E+03  0.93423388289E+03  0.25500000920E-02 0.  1.
       -2   -1    0    0    0  501  0.00000000000E+00  0.00000000000E+00 -0.15503233162E+04  0.15503233162E+04  0.25500000920E-02 0. -1.
    10030    2    1    2    0    0  0.00000000000E+00  0.00000000000E+00 -0.61608943327E+03  0.24845571990E+04  0.24069603830E+04 0.  0.
        2    1    3    3  502    0  0.92023612692E+03  0.75270539316E+03 -0.50106126523E+03  0.12901404302E+04  0.25500000920E-02 0.  1.
       -2    1    3    3    0  502 -0.92023612692E+03 -0.75270539316E+03 -0.11502816804E+03  0.11944167688E+04  0.25500000920E-02 0. -1.
</event>
<event>
 5   0  0.9519092E-05  0.2427856E+04  0.7818609E-02  0.8429148E-01
       -2   -1    0    0    0  501  0.00000000000E+00  0.00000000000E+00  0.13621354469E+04  0.13621354469E+04  0.25500000920E-02 0.  1.
        2   -1    0    0  501    0  0.00000000000E+00  0.00000000000E+00 -0.10818458678E+04  0.10818458678E+04  0.25500000920E-02 0. -1.
    10030    2    1    2    0    0  0.00000000000E+00  0.00000000000E+00  0.28028957915E+03  0.24439813147E+04  0.24278555185E+04 0.  0.
        4    1    3    3  502    0  0.11371162369E+04 -0.67802612641E+02  0.56244095699E+03  0.12704219667E+04  0.12699999809E+01 0.  1.
       -4    1    3    3    0  502 -0.11371162369E+04  0.67802612641E+02 -0.28215137784E+03  0.11735593480E+04  0.12699999809E+01 0. -1.
</event>
<event>
 5   0  0.9519092E-05  0.2335400E+04  0.7818609E-02  0.8464093E-01
        2   -1    0    0  501    0  0.00000000000E+00  0.00000000000E+00  0.17715091530E+04  0.17715091530E+04  0.25500000920E-02 0. -1.
       -2   -1    0    0    0  501  0.00000000000E+00  0.00000000000E+00 -0.76969595714E+03  0.76969595714E+03  0.25500000920E-02 0.  1.
    10030    2    1    2    0    0  0.00000000000E+00  0.00000000000E+00  0.10018131959E+04  0.25412051101E+04  0.23354001226E+04 0.  0.
        4    1    3    3  502    0 -0.86845602556E+03  0.53250116470E+03  0.11219466476E+04  0.15154336844E+04  0.12699999809E+01 0.  1.
       -4    1    3    3    0  502  0.86845602556E+03 -0.53250116470E+03 -0.12013345178E+03  0.10257714257E+04  0.12699999809E+01 0. -1.
</event>
<event>
 5   0  0.3234750E-05  0.2487141E+04  0.7818609E-02  0.8407581E-01
        3   -1    0    0  501    0  0.00000000000E+00  0.00000000000E+00  0.13011124395E+04  0.13011124434E+04  0.10100000352E+00 0.  1.
       -3   -1    0    0    0  501  0.00000000000E+00  0.00000000000E+00 -0.11885733869E+04  0.11885733912E+04  0.10100000352E+00 0. -1.
    10030    2    1    2    0    0  0.00000000000E+00  0.00000000000E+00  0.11253905262E+03  0.24896858346E+04  0.24871410327E+04 0.  0.
        5    1    3    3  502    0 -0.61451494354E+03  0.99616590233E+03  0.47678317218E+03  0.12638510213E+04  0.46999998093E+01 0. -1.
       -5    1    3    3    0  502  0.61451494354E+03 -0.99616590233E+03 -0.36424411956E+03  0.12258348133E+04  0.46999998093E+01 0.  1.
</event>
<event>
 5   0  0.4061631E-05  0.2357482E+04  0.7818609E-02  0.8455595E-01
       -1   -1    0    0    0  501  0.00000000000E+00  0.00000000000E+00  0.89886366340E+03  0.89886366342E+03  0.50400001928E-02 0.  1.
        1   -1    0    0  501    0  0.00000000000E+00  0.00000000000E+00 -0.15457628996E+04  0.15457628996E+04  0.50400001928E-02 0. -1.
    10030    2    1    2    0    0  0.00000000000E+00  0.00000000000E+00 -0.64689923621E+03  0.24446265630E+04  0.23574817944E+04 0.  0.
        3    1    3    3  502    0  0.11769061907E+04 -0.49946473822E+02 -0.36777621801E+03  0.12340430255E+04  0.10100000352E+00 0.  1.
       -3    1    3    3    0  502 -0.11769061907E+04  0.49946473822E+02 -0.27912301821E+03  0.12105835376E+04  0.10100000352E+00 0. -1.
</event>
<event>
 5   0  0.4260395E-05  0.2306600E+04  0.7818609E-02  0.8475324E-01
        1   -1    0    0  501    0  0.00000000000E+00  0.00000000000E+00  0.82324176918E+03  0.82324176920E+03  0.50400001928E-02 0. -1.
       -1   -1    0    0    0  501  0.00000000000E+00  0.00000000000E+00 -0.16156861379E+04  0.16156861380E+04  0.50400001928E-02 0.  1.
    10030    2    1    2    0    0  0.00000000000E+00  0.00000000000E+00 -0.79244436876E+03  0.24389279071E+04  0.23065995011E+04 0.  0.
        4    1    3    3  502    0 -0.55644048147E+03  0.11773158743E+02 -0.14642878806E+04  0.15664945665E+04  0.12699999809E+01 0.  1.
       -4    1    3    3    0  502  0.55644048147E+03 -0.11773158743E+02  0.67184351180E+03  0.87243334068E+03  0.12699999809E+01 0. -1.
</event>
<event>
 5   0  0.9491680E-05  0.1637965E+04  0.7818609E-02  0.8797558E-01
       -2   -1    0    0    0  501  0.00000000000E+00  0.00000000000E+00  0.41459252336E+03  0.41459252337E+03  0.25500000920E-02 0. -1.
        2   -1    0    0  501    0  0.00000000000E+00  0.00000000000E+00 -0.16178105697E+04  0.16178105697E+04  0.25500000920E-02 0.  1.
    10030    2    1    2    0    0  0.00000000000E+00  0.00000000000E+00 -0.12032180463E+04  0.20324030931E+04  0.16379647938E+04 0.  0.
        5    1    3    3  502    0  0.44575570117E+03  0.57890352547E+03 -0.14253843428E+03  0.74442375847E+03  0.46999998093E+01 0. -1.
       -5    1    3    3    0  502 -0.44575570117E+03 -0.57890352547E+03 -0.10606796121E+04  0.12879793346E+04  0.46999998093E+01 0.  1.
</event>
<event>
 5   0  0.4018942E-05  0.2371882E+04  0.7818609E-02  0.8450106E-01
        1   -1    0    0  501    0  0.00000000000E+00  0.00000000000E+00  0.15945137116E+04  0.15945137116E+04  0.50400001928E-02 0. -1.
       -1   -1    0    0    0  501  0.00000000000E+00  0.00000000000E+00 -0.88205963290E+03  0.88205963292E+03  0.50400001928E-02 0.  1.
    10030    2    1    2    0    0  0.00000000000E+00  0.00000000000E+00  0.71245407870E+03  0.24765733445E+04  0.23718821043E+04 0.  0.
        5    1    3    3  502    0  0.11013899947E+04  0.23557874663E+03 -0.31480038578E+02  0.11267521241E+04  0.46999998093E+01 0.  1.
       -5    1    3    3    0  502 -0.11013899947E+04 -0.23557874663E+03  0.74393411728E+03  0.13498212204E+04  0.46999998093E+01 0. -1.
</event>
<event>
 5   0  0.3934906E-05  0.2306837E+04  0.7818609E-02  0.8475230E-01
        1   -1    0    0  501    0  0.00000000000E+00  0.00000000000E+00  0.11087069448E+04  0.11087069448E+04  0.50400001928E-02 0. -1.
       -1   -1    0    0    0  501  0.00000000000E+00  0.00000000000E+00 -0.11999333160E+04  0.11999333160E+04  0.50400001928E-02 0.  1.
    10030    2    1    2    0    0  0.00000000000E+00  0.00000000000E+00 -0.91226371258E+02  0.23086402608E+04  0.23068371427E+04 0.  0.
        2    1    3    3  502    0  0.67025081966E+03  0.93759983823E+03 -0.35856496831E+00  0.11525318852E+04  0.25500000920E-02 0. -1.
       -2    1    3    3    0  502 -0.67025081966E+03 -0.93759983823E+03 -0.90867806290E+02  0.11561083756E+04  0.25500000920E-02 0.  1.
</event>
<event>
 5   0  0.9182865E-05  0.1902761E+04  0.7818609E-02  0.8653483E-01
        2   -1    0    0  501    0  0.00000000000E+00  0.00000000000E+00  0.11734863490E+04  0.11734863490E+04  0.25500000920E-02 0.  1.
       -2   -1    0    0    0  501  0.00000000000E+00  0.00000000000E+00 -0.77131246229E+03  0.77131246229E+03  0.25500000920E-02 0. -1.
    10030    2    1    2    0    0  0.00000000000E+00  0.00000000000E+00  0.40217388671E+03  0.19447988113E+04  0.19027607788E+04 0.  0.
        3    1    3    3  502    0  0.96207479520E+02  0.35800019924E+03  0.10966322553E+04  0.11575933377E+04  0.10100000352E+00 0.  1.
       -3    1    3    3    0  502 -0.96207479520E+02 -0.35800019924E+03 -0.69445836862E+03  0.78720547363E+03  0.10100000352E+00 0. -1.
</event>
<event>
 5   0  0.4061631E-05  0.2422746E+04  0.7818609E-02  0.8431037E-01
        1   -1    0    0  501    0  0.00000000000E+00  0.00000000000E+00  0.12105031983E+04  0.12105031983E+04  0.50400001928E-02 0.  1.
       -1   -1    0    0    0  501  0.00000000000E+00  0.00000000000E+00 -0.12122430216E+04  0.12122430216E+04  0.50400001928E-02 0. -1.
    10030    2    1    2    0    0  0.00000000000E+00  0.00000000000E+00 -0.17398232898E+01  0.24227462199E+04  0.24227455952E+04 0.  0.
        3    1    3    3  502    0 -0.46372630430E+03  0.23112913810E+03 -0.10958410980E+04  0.12121594310E+04  0.10100000352E+00 0. -1.
       -3    1    3    3    0  502  0.46372630430E+03 -0.23112913810E+03  0.10941012748E+04  0.12105867889E+04  0.10100000352E+00 0.  1.
</event>
<event>
 5   0  0.4061631E-05  0.2301854E+04  0.7818609E-02  0.8477190E-01
       -1   -1    0    0    0  501  0.00000000000E+00  0.00000000000E+00  0.88214807661E+03  0.88214807662E+03  0.50400001928E-02 0. -1.
        1   -1    0    0  501    0  0.00000000000E+00  0.00000000000E+00 -0.15015998005E+04  0.15015998005E+04  0.50400001928E-02 0.  1.
    10030    2    1    2    0    0  0.00000000000E+00  0.00000000000E+00 -0.61945172388E+03  0.23837478771E+04  0.23018543619E+04 0.  0.
        3    1    3    3  502    0 -0.16619844267E+03 -0.30168560796E+03  0.82752332065E+03  0.89634311779E+03  0.10100000352E+00 0. -1.
       -3    1    3    3    0  502  0.16619844267E+03  0.30168560796E+03 -0.14469750445E+04  0.14874047593E+04  0.10100000352E+00 0.  1.
</event>
<event>
 5   0  0.4061631E-05  0.2471297E+04  0.7818609E-02  0.8413283E-01
       -1   -1    0    0    0  501  0.00000000000E+00  0.00000000000E+00  0.12440543454E+04  0.12440543454E+04  0.50400001928E-02 0.  1.
        1   -1    0    0  501    0  0.00000000000E+00  0.00000000000E+00 -0.12272993977E+04  0.12272993977E+04  0.50400001928E-02 0. -1.
    10030    2    1    2    0    0  0.00000000000E+00  0.00000000000E+00  0.16754947641E+02  0.24713537431E+04  0.24712969460E+04 0.  0.
        3    1    3    3  502    0  0.11015290801E+04  0.25376709210E+03 -0.49069620375E+03  0.12322933198E+04  0.10100000352E+00 0. -1.
       -3    1    3    3    0  502 -0.11015290801E+04 -0.25376709210E+03  0.50745115139E+03  0.12390604233E+04  0.10100000352E+00 0.  1.
</event>
<event>
 5   0  0.3934906E-05  0.2238958E+04  0.7818609E-02  0.8502386E-01
       -1   -1    0    0    0  501  0.00000000000E+00  0.00000000000E+00  0.86980496243E+03  0.86980496244E+03  0.50400001928E-02 0.  1.
        1   -1    0    0  501    0  0.00000000000E+00  0.00000000000E+00 -0.14408214558E+04  0.14408214558E+04  0.50400001928E-02 0. -1.
    10030    2    1    2    0    0  0.00000000000E+00  0.00000000000E+00 -0.57101649338E+03  0.23106264183E+04  0.22389583759E+04 0.  0.
        2    1    3    3  502    0  0.10464524192E+04 -0.98927598530E+02 -0.68304539268E+03  0.12535550821E+04  0.25500000920E-02 0. -1.
       -2    1    3    3    0  502 -0.10464524192E+04  0.98927598530E+02  0.11202889930E+03  0.10570713361E+04  0.25500000920E-02 0.  1.
</event>
<event>
 5   0  0.4260395E-05  0.2388422E+04  0.7818609E-02  0.8443851E-01
        1   -1    0    0  501    0  0.00000000000E+00  0.00000000000E+00  0.29065304148E+04  0.29065304148E+04  0.50400001928E-02 0. -1.
       -1   -1    0    0    0  501  0.00000000000E+00  0.00000000000E+00 -0.49066751584E+03  0.49066751586E+03  0.50400001928E-02 0.  1.
    10030    2    1    2    0    0  0.00000000000E+00  0.00000000000E+00  0.24158628990E+04  0.33971979307E+04  0.23884221222E+04 0.  0.
        4    1    3    3  502    0 -0.37826972557E+02  0.17347680651E+03 -0.47178771386E+03  0.50409358466E+03  0.12699999809E+01 0.  1.
       -4    1    3    3    0  502  0.37826972557E+02 -0.17347680651E+03  0.28876506129E+04  0.28931043460E+04  0.12699999809E+01 0. -1.
</event>
<event>
 5   0  0.4260395E-05  0.2400870E+04  0.7818609E-02  0.8439178E-01
       -1   -1    0    0    0  501  0.00000000000E+00  0.00000000000E+00  0.14280269718E+04  0.14280269718E+04  0.50400001928E-02 0. -1.
        1   -1    0    0  501    0  0.00000000000E+00  0.00000000000E+00 -0.10091158014E+04  0.10091158014E+04  0.50400001928E-02 0.  1.
    10030    2    1    2    0    0  0.00000000000E+00  0.00000000000E+00  0.41891117035E+03  0.24371427732E+04  0.24008703273E+04 0.  0.
        4    1    3    3  502    0 -0.57061191044E+03  0.48415308850E+03  0.11622743004E+04  0.13823477593E+04  0.12699999809E+01 0. -1.
       -4    1    3    3    0  502  0.57061191044E+03 -0.48415308850E+03 -0.74336313002E+03  0.10547950139E+04  0.12699999809E+01 0.  1.
</event>
<event>
 5   0  0.9182865E-05  0.2308840E+04  0.7818609E-02  0.8474444E-01
        2   -1    0    0  501    0  0.00000000000E+00  0.00000000000E+00  0.10491948046E+04  0.10491948046E+04  0.25500000920E-02 0.  1.
       -2   -1    0    0    0  501  0.00000000000E+00  0.00000000000E+00 -0.12701982836E+04  0.12701982836E+04  0.25500000920E-02 0. -1.
    10030    2    1    2    0    0  0.00000000000E+00  0.00000000000E+00 -0.22100347900E+03  0.23193930883E+04  0.23088399165E+04 0.  0.
        3    1    3    3  502    0 -0.92522039476E+03  0.40232473195E+02  0.58187566039E+03  0.10937233312E+04  0.10100000352E+00 0.  1.
       -3    1    3    3    0  502  0.92522039476E+03 -0.40232473195E+02 -0.80287913939E+03  0.12256697571E+04  0.10100000352E+00 0. -1.
</event>
<event>
 5   0  0.9519092E-05  0.2418720E+04  0.7818609E-02  0.8432528E-01
       -2   -1    0    0    0  501  0.00000000000E+00  0.00000000000E+00  0.90739175132E+03  0.90739175132E+03  0.25500000920E-02 0.  1.
        2   -1    0    0  501    0  0.00000000000E+00  0.00000000000E+00 -0.16118195705E+04  0.16118195705E+04  0.25500000920E-02 0. -1.
    10030    2    1    2    0    0  0.00000000000E+00  0.00000000000E+00 -0.70442781921E+03  0.25192113218E+04  0.24187201433E+04 0.  0.
        4    1    3    3  502    0 -0.55043003123E+03 -0.67721501560E+03  0.51980237705E+03  0.10157704075E+04  0.12699999809E+01 0.  1.
       -4    1    3    3    0  502  0.55043003123E+03  0.67721501560E+03 -0.12242301963E+04  0.15034409144E+04  0.12699999809E+01 0. -1.
</event>
<event>
 5   0  0.9519092E-05  0.2180548E+04  0.7818609E-02  0.8526568E-01
        2   -1    0    0  501    0  0.00000000000E+00  0.00000000000E+00  0.17432009412E+04  0.17432009412E+04  0.25500000920E-02 0. -1.
       -2   -1    0    0    0  501  0.00000000000E+00  0.00000000000E+00 -0.68190526110E+03  0.68190526111E+03  0.25500000920E-02 0.  1.
    10030    2    1    2    0    0  0.00000000000E+00  0.00000000000E+00  0.10612956801E+04  0.24251062024E+04  0.21805484567E+04 0.  0.
        4    1    3    3  502    0 -0.50264966067E+03 -0.79343177925E+03  0.11463692206E+04  0.14820103483E+04  0.12699999809E+01 0. -1.
       -4    1    3    3    0  502  0.50264966067E+03  0.79343177925E+03 -0.85073540458E+02  0.94309585403E+03  0.12699999809E+01 0.  1.
</event>
<event>
 5   0  0.4018942E-05  0.2373008E+04  0.7818609E-02  0.8449679E-01
       -1   -1    0    0    0  501  0.00000000000E+00  0.00000000000E+00  0.13683878797E+04  0.13683878797E+04  0.50400001928E-02 0.  1.
        1   -1    0    0  501    0  0.00000000000E+00  0.00000000000E+00 -0.10287956380E+04  0.10287956380E+04  0.50400001928E-02 0. -1.
    10030    2    1    2    0    0  0.00000000000E+00  0.00000000000E+00  0.33959224169E+03  0.23971835177E+04  0.23730077807E+04 0.  0.
        5    1    3    3  502    0 -0.24563664249E+03 -0.63976640159E+03  0.11482353582E+04  0.13372004100E+04  0.46999998093E+01 0.  1.
       -5    1    3    3    0  502  0.24563664249E+03  0.63976640159E+03 -0.80864311651E+03  0.10599831077E+04  0.46999998093E+01 0. -1.
</event>
<event>
 5   0  0.4061631E-05  0.2406223E+04  0.7818609E-02  0.8437177E-01
       -1   -1    0    0    0  501  0.00000000000E+00  0.00000000000E+00  0.73385219014E+03  0.73385219016E+03  0.50400001928E-02 0.  1.
        1   -1    0    0  501    0  0.00000000000E+00  0.00000000000E+00 -0.19724369598E+04  0.19724369598E+04  0.50400001928E-02 0. -1.
    10030    2    1    2    0    0  0.00000000000E+00  0.00000000000E+00 -0.12385847696E+04  0.27062891499E+04  0.24062229181E+04 0.  0.
        3    1    3    3  502    0  0.82003178193E+03 -0.39792928510E+03 -0.15025092031E+04  0.17573655723E+04  0.10100000352E+00 0. -1.
       -3    1    3    3    0  502 -0.82003178193E+03  0.39792928510E+03  0.26392443346E+03  0.94892357758E+03  0.10100000352E+00 0.  1.
</event>
<event>
 5   0  0.9519092E-05  0.2141594E+04  0.7818609E-02  0.8543139E-01
       -2   -1    0    0    0  501  0.00000000000E+00  0.00000000000E+00  0.88636282476E+03  0.88636282476E+03  0.25500000920E-02 0. -1.
        2   -1    0    0  501    0  0.00000000000E+00  0.00000000000E+00 -0.12936078994E+04  0.12936078994E+04  0.25500000920E-02 0.  1.
    10030    2    1    2    0    0  0.00000000000E+00  0.00000000000E+00 -0.40724507461E+03  0.21799707241E+04  0.21415937540E+04 0.  0.
        4    1    3    3  502    0 -0.35399064141E+03  0.43086783844E+03 -0.11341414941E+04  0.12638176332E+04  0.12699999809E+01 0.  1.
       -4    1    3    3    0  502  0.35399064141E+03 -0.43086783844E+03  0.72689641952E+03  0.91615309093E+03  0.12699999809E+01 0. -1.
</event>
<event>
 5   0  0.9491680E-05  0.2553974E+04  0.7818609E-02  0.8384005E-01
       -2   -1    0    0    0  501  0.00000000000E+00  0.00000000000E+00  0.88557350374E+03  0.88557350374E+03  0.25500000920E-02 0.  1.
        2   -1    0    0  501    0  0.00000000000E+00  0.00000000000E+00 -0.18414014743E+04  0.18414014743E+04  0.25500000920E-02 0. -1.
    10030    2    1    2    0    0  0.00000000000E+00  0.00000000000E+00 -0.95582797054E+03  0.27269749780E+04  0.25539744363E+04 0.  0.
        5    1    3    3  502    0 -0.10018599970E+04  0.54259905199E+03 -0.10936359506E+04  0.15793032854E+04  0.46999998093E+01 0. -1.
       -5    1    3    3    0  502  0.10018599970E+04 -0.54259905199E+03  0.13780798004E+03  0.11476716927E+04  0.46999998093E+01 0.  1.
</event>
<event>
 5   0  0.4018942E-05  0.2406013E+04  0.7818609E-02  0.8437256E-01
       -1   -1    0    0    0  501  0.00000000000E+00  0.00000000000E+00  0.93040606099E+03  0.93040606100E+03  0.50400001928E-02 0.  1.
        1   -1    0    0  501    0  0.00000000000E+00  0.00000000000E+00 -0.15554768027E+04  0.15554768027E+04  0.50400001928E-02 0. -1.
    10030    2    1    2    0    0  0.00000000000E+00  0.00000000000E+00 -0.62507074171E+03  0.24858828637E+04  0.24060133374E+04 0.  0.
        5    1    3    3  502    0 -0.64813264348E+03  0.31740574013E+03  0.68190182983E+03  0.99289199964E+03  0.46999998093E+01 0.  1.
       -5    1    3    3    0  502  0.64813264348E+03 -0.31740574013E+03 -0.13069725715E+04  0.14929908641E+04  0.46999998093E+01 0. -1.
</event>
<event>
 5   0  0.4061631E-05  0.2338018E+04  0.7818609E-02  0.8463080E-01
       -1   -1    0    0    0  501  0.00000000000E+00  0.00000000000E+00  0.72274346051E+03  0.72274346053E+03  0.50400001928E-02 0.  1.
        1   -1    0    0  501    0  0.00000000000E+00  0.00000000000E+00 -0.18908258224E+04  0.18908258224E+04  0.50400001928E-02 0. -1.
    10030    2    1    2    0    0  0.00000000000E+00  0.00000000000E+00 -0.11680823619E+04  0.26135692829E+04  0.23380179624E+04 0.  0.
        3    1    3    3  502    0  0.38562422866E+03  0.10909615050E+04 -0.77001888241E+03  0.13899036443E+04  0.10100000352E+00 0. -1.
       -3    1    3    3    0  502 -0.38562422866E+03 -0.10909615050E+04 -0.39806347946E+03  0.12236656386E+04  0.10100000352E+00 0.  1.
</event>
<event>
 5   0  0.9750757E-05  0.2231441E+04  0.7818609E-02  0.8505455E-01
       -2   -1    0    0    0  501  0.00000000000E+00  0.00000000000E+00  0.10838685461E+04  0.10838685461E+04  0.25500000920E-02 0.  1.
        2   -1    0    0  501    0  0.00000000000E+00  0.00000000000E+00 -0.11485081046E+04  0.11485081046E+04  0.25500000920E-02 0. -1.
    10030    2    1    2    0    0  0.00000000000E+00  0.00000000000E+00 -0.64639558518E+02  0.22323766508E+04  0.22314406195E+04 0.  0.
        2    1    3    3  502    0 -0.35314186785E+01 -0.10475395221E+04  0.35187293616E+03  0.11050638373E+04  0.25500000920E-02 0.  1.
       -2    1    3    3    0  502  0.35314186785E+01  0.10475395221E+04 -0.41651249468E+03  0.11273128135E+04  0.25500000920E-02 0. -1.
</event>
<event>
 5   0  0.9491680E-05  0.2325852E+04  0.7818609E-02  0.8467797E-01
       -2   -1    0    0    0  501  0.00000000000E+00  0.00000000000E+00  0.16940296794E+04  0.16940296794E+04  0.25500000920E-02 0. -1.
        2   -1    0    0  501    0  0.00000000000E+00  0.00000000000E+00 -0.79833123076E+03  0.79833123077E+03  0.25500000920E-02 0.  1.
    10030    2    1    2    0    0  0.00000000000E+00  0.00000000000E+00  0.89569844866E+03  0.24923609102E+04  0.23258519290E+04 0.  0.
        5    1    3    3  502    0 -0.42340318930E+02  0.10722095843E+03  0.16878816741E+04  0.16918202246E+04  0.46999998093E+01 0. -1.
       -5    1    3    3    0  502  0.42340318930E+02 -0.10722095843E+03 -0.79218322548E+03  0.80054068557E+03  0.46999998093E+01 0.  1.
</event>
<event>
 5   0  0.9144244E-05  0.2378131E+04  0.7818609E-02  0.8447737E-01
       -2   -1    0    0    0  501  0.00000000000E+00  0.00000000000E+00  0.19228761843E+04  0.19228761843E+04  0.25500000920E-02 0.  1.
        2   -1    0    0  501    0  0.00000000000E+00  0.00000000000E+00 -0.73529275519E+03  0.73529275520E+03  0.25500000920E-02 0. -1.
    10030    2    1    2    0    0  0.00000000000E+00  0.00000000000E+00  0.11875834291E+04  0.26581689395E+04  0.23781311380E+04 0.  0.
        1    1    3    3  502    0 -0.98832872220E+03 -0.42849018081E+03  0.11565451305E+04  0.15805043933E+04  0.50400001928E-02 0.  1.
       -1    1    3    3    0  502  0.98832872220E+03  0.42849018081E+03  0.31038298587E+02  0.10776645462E+04  0.50400001928E-02 0. -1.
</event>
<event>
 5   0  0.9519092E-05  0.1304958E+04  0.7818609E-02  0.9025643E-01
        2   -1    0    0  501    0  0.00000000000E+00  0.00000000000E+00  0.11476770544E+04  0.11476770544E+04  0.25500000920E-02 0.  1.
       -2   -1    0    0    0  501  0.00000000000E+00  0.00000000000E+00 -0.37094823409E+03  0.37094823410E+03  0.25500000920E-02 0. -1.
    10030    2    1    2    0    0  0.00000000000E+00  0.00000000000E+00  0.77672882033E+03  0.15186252885E+04  0.13049578946E+04 0.  0.
        4    1    3    3  502    0 -0.59270446409E+03  0.25037355310E+03  0.51446554292E+03  0.82380938669E+03  0.12699999809E+01 0.  1.
       -4    1    3    3    0  502  0.59270446409E+03 -0.25037355310E+03  0.26226327741E+03  0.69481590182E+03  0.12699999809E+01 0. -1.
</event>
<event>
 5   0  0.9491680E-05  0.2410662E+04  0.7818609E-02  0.8435523E-01
        2   -1    0    0  501    0  0.00000000000E+00  0.00000000000E+00  0.12366878167E+04  0.12366878167E+04  0.25500000920E-02 0. -1.
       -2   -1    0    0    0  501  0.00000000000E+00  0.00000000000E+00 -0.11747693213E+04  0.11747693213E+04  0.25500000920E-02 0.  1.
    10030    2    1    2    0    0  0.00000000000E+00  0.00000000000E+00  0.61918495386E+02  0.24114571381E+04  0.24106620727E+04 0.  0.
        5    1    3    3  502    0  0.55520956978E+03 -0.14123116800E+03 -0.10298606435E+04  0.11784901120E+04  0.46999998093E+01 0.  1.
       -5    1    3    3    0  502 -0.55520956978E+03  0.14123116800E+03  0.10917791389E+04  0.12329670260E+04  0.46999998093E+01 0. -1.
</event>
<event>
 5   0  0.9182865E-05  0.2087064E+04  0.7818609E-02  0.8566963E-01
       -2   -1    0    0    0  501  0.00000000000E+00  0.00000000000E+00  0.14930908319E+04  0.14930908319E+04  0.25500000920E-02 0. -1.
        2   -1    0    0  501    0  0.00000000000E+00  0.00000000000E+00 -0.72933222197E+03  0.72933222197E+03  0.25500000920E-02 0.  1.
    10030    2    1    2    0    0  0.00000000000E+00  0.00000000000E+00  0.76375860989E+03  0.22224230538E+04  0.20870642099E+04 0.  0.
        3    1    3    3  502    0  0.42273054054E+03 -0.16695173588E+03 -0.61839714296E+03  0.76745620633E+03  0.10100000352E+00 0.  1.
       -3    1    3    3    0  502 -0.42273054054E+03  0.16695173588E+03  0.13821557528E+04  0.14549668475E+04  0.10100000352E+00 0. -1.
</event>
<event>
 5   0  0.4260395E-05  0.2307466E+04  0.7818609E-02  0.8474983E-01
        1   -1    0    0  501    0  0.00000000000E+00  0.00000000000E+00  0.11174782149E+04  0.11174782149E+04  0.50400001928E-02 0.  1.
       -1   -1    0    0    0  501  0.00000000000E+00  0.00000000000E+00 -0.11911642504E+04  0.11911642504E+04  0.50400001928E-02 0. -1.
    10030    2    1    2    0    0  0.00000000000E+00  0.00000000000E+00 -0.73686035492E+02  0.23086424654E+04  0.23074662297E+04 0.  0.
        4    1    3    3  502    0 -0.70438514521E+03  0.91294634799E+03  0.15043201903E+01  0.11530972825E+04  0.12699999809E+01 0. -1.
       -4    1    3    3    0  502  0.70438514521E+03 -0.91294634799E+03 -0.75190355682E+02  0.11555451828E+04  0.12699999809E+01 0.  1.
</event>
<event>
 5   0  0.9491680E-05  0.2315552E+04  0.7818609E-02  0.8471814E-01
       -2   -1    0    0    0  501  0.00000000000E+00  0.00000000000E+00  0.10252506901E+04  0.10252506901E+04  0.25500000920E-02 0. -1.
        2   -1    0    0  501    0  0.00000000000E+00  0.00000000000E+00 -0.13074318718E+04  0.13074318718E+04  0.25500000920E-02 0.  1.
    10030    2    1    2    0    0  0.00000000000E+00  0.00000000000E+00 -0.28218118174E+03  0.23326825619E+04  0.23155521405E+04 0.  0.
        5    1    3    3  502    0 -0.64329962346E+03 -0.95914476083E+03 -0.22311939720E+03  0.11762641851E+04  0.46999998093E+01 0.  1.
       -5    1    3    3    0  502  0.64329962346E+03  0.95914476083E+03 -0.59061784535E+02  0.11564183768E+04  0.46999998093E+01 0. -1.
</event>
<event>
 5   0  0.4018942E-05  0.1266198E+04  0.7818609E-02  0.9056809E-01
       -1   -1    0    0    0  501  0.00000000000E+00  0.00000000000E+00  0.15349831403E+04  0.15349831403E+04  0.50400001928E-02 0.  1.
        1   -1    0    0  501    0  0.00000000000E+00  0.00000000000E+00 -0.26111953927E+03  0.26111953932E+03  0.50400001928E-02 0. -1.
    10030    2    1    2    0    0  0.00000000000E+00  0.00000000000E+00  0.12738636010E+04  0.17961026796E+04  0.12661975998E+04 0.  0.
        5    1    3    3  502    0  0.27682665643E+03  0.40625838287E+03  0.71106082606E+02  0.49674645076E+03  0.46999998093E+01 0. -1.
       -5    1    3    3    0  502 -0.27682665643E+03 -0.40625838287E+03  0.12027575184E+04  0.12993562288E+04  0.46999998093E+01 0.  1.
</event>
<event>
 5   0  0.4018942E-05  0.1491284E+04  0.7818609E-02  0.8890270E-01
       -1   -1    0    0    0  501  0.00000000000E+00  0.00000000000E+00  0.30995147488E+03  0.30995147492E+03  0.50400001928E-02 0.  1.
        1   -1    0    0  501    0  0.00000000000E+00  0.00000000000E+00 -0.17937709595E+04  0.17937709595E+04  0.50400001928E-02 0. -1.
    10030    2    1    2    0    0  0.00000000000E+00  0.00000000000E+00 -0.14838194847E+04  0.21037224345E+04  0.14912839496E+04 0.  0.
        5    1    3    3  502    0 -0.10178512465E+03  0.38875517109E+03 -0.16279114782E+04  0.16767852175E+04  0.46999998093E+01 0. -1.
       -5    1    3    3    0  502  0.10178512465E+03 -0.38875517109E+03  0.14409199355E+03  0.42693721699E+03  0.46999998093E+01 0.  1.
</event>
<event>
 5   0  0.4018942E-05  0.2459322E+04  0.7818609E-02  0.8417622E-01
       -1   -1    0    0    0  501  0.00000000000E+00  0.00000000000E+00  0.89057480345E+03  0.89057480346E+03  0.50400001928E-02 0.  1.
        1   -1    0    0  501    0  0.00000000000E+00  0.00000000000E+00 -0.16978545678E+04  0.16978545678E+04  0.50400001928E-02 0. -1.
    10030    2    1    2    0    0  0.00000000000E+00  0.00000000000E+00 -0.80727976436E+03  0.25884293713E+04  0.24593222628E+04 0.  0.
        5    1    3    3  502    0  0.11954022568E+04 -0.21275543208E+03 -0.60824968581E+03  0.13580284238E+04  0.46999998093E+01 0.  1.
       -5    1    3    3    0  502 -0.11954022568E+04  0.21275543208E+03 -0.19903007855E+03  0.12304009475E+04  0.46999998093E+01 0. -1.
</event>
<event>
 5   0  0.4208577E-05  0.2372041E+04  0.7818609E-02  0.8450046E-01
       -1   -1    0    0    0  501  0.00000000000E+00  0.00000000000E+00  0.14512439935E+04  0.14512439935E+04  0.50400001928E-02 0.  1.
        1   -1    0    0  501    0  0.00000000000E+00  0.00000000000E+00 -0.96926819177E+03  0.96926819179E+03  0.50400001928E-02 0. -1.
    10030    2    1    2    0    0  0.00000000000E+00  0.00000000000E+00  0.48197580174E+03  0.24205121853E+04  0.23720410127E+04 0.  0.
        1    1    3    3  502    0 -0.82905635901E+02 -0.41777482715E+03 -0.88853454002E+03  0.98534399044E+03  0.50400001928E-02 0. -1.
       -1    1    3    3    0  502  0.82905635901E+02  0.41777482715E+03  0.13705103418E+04  0.14351681949E+04  0.50400001928E-02 0.  1.
</event>
<event>
 5   0  0.9182865E-05  0.2419338E+04  0.7818609E-02  0.8432299E-01
       -2   -1    0    0    0  501  0.00000000000E+00  0.00000000000E+00  0.76107871546E+03  0.76107871546E+03  0.25500000920E-02 0. -1.
        2   -1    0    0  501    0  0.00000000000E+00  0.00000000000E+00 -0.19226652390E+04  0.19226652390E+04  0.25500000920E-02 0.  1.
    10030    2    1    2    0    0  0.00000000000E+00  0.00000000000E+00 -0.11615865236E+04  0.26837439545E+04  0.24193384140E+04 0.  0.
        3    1    3    3  502    0 -0.12457342609E+03  0.12576248804E+03  0.74663370153E+03  0.76733085195E+03  0.10100000352E+00 0. -1.
       -3    1    3    3    0  502  0.12457342609E+03 -0.12576248804E+03 -0.19082202251E+04  0.19164131026E+04  0.10100000352E+00 0.  1.
</event>
<event>
 5   0  0.3234750E-05  0.2446778E+04  0.7818609E-02  0.8422195E-01
       -4   -1    0    0    0  501  0.00000000000E+00  0.00000000000E+00  0.11854871990E+04  0.11854878793E+04  0.12699999809E+01 0. -1.
        4   -1    0    0  501    0  0.00000000000E+00  0.00000000000E+00 -0.12625013693E+04  0.12625020081E+04  0.12699999809E+01 0.  1.
    10030    2    1    2    0    0  0.00000000000E+00  0.00000000000E+00 -0.77014170291E+02  0.24479898874E+04  0.24467781482E+04 0.  0.
        5    1    3    3  502    0 -0.53468692065E+03 -0.75975184644E+03 -0.83485715481E+03  0.12490482498E+04  0.46999998093E+01 0.  1.
       -5    1    3    3    0  502  0.53468692065E+03  0.75975184644E+03  0.75784298452E+03  0.11989416376E+04  0.46999998093E+01 0. -1.
</event>
<event>
 5   0  0.4260395E-05  0.2397635E+04  0.7818609E-02  0.8440389E-01
        1   -1    0    0  501    0  0.00000000000E+00  0.00000000000E+00  0.87193355694E+03  0.87193355695E+03  0.50400001928E-02 0.  1.
       -1   -1    0    0    0  501  0.00000000000E+00  0.00000000000E+00 -0.16482489937E+04  0.16482489937E+04  0.50400001928E-02 0. -1.
    10030    2    1    2    0    0  0.00000000000E+00  0.00000000000E+00 -0.77631543674E+03  0.25201825506E+04  0.23976351748E+04 0.  0.
        4    1    3    3  502    0  0.50403596945E+03 -0.10808470040E+04 -0.25994151068E+03  0.12205956359E+04  0.12699999809E+01 0.  1.
       -4    1    3    3    0  502 -0.50403596945E+03  0.10808470040E+04 -0.51637392605E+03  0.12995869147E+04  0.12699999809E+01 0. -1.
</event>
<event>
 5   0  0.9519092E-05  0.2435111E+04  0.7818609E-02  0.8426474E-01
        2   -1    0    0  501    0  0.00000000000E+00  0.00000000000E+00  0.11230952558E+04  0.11230952558E+04  0.25500000920E-02 0. -1.
       -2   -1    0    0    0  501  0.00000000000E+00  0.00000000000E+00 -0.13199610282E+04  0.13199610282E+04  0.25500000920E-02 0.  1.
    10030    2    1    2    0    0  0.00000000000E+00  0.00000000000E+00 -0.19686577244E+03  0.24430562840E+04  0.24351114706E+04 0.  0.
        4    1    3    3  502    0 -0.55330051236E+03 -0.10398168483E+04  0.21092329853E+03  0.11965996765E+04  0.12699999809E+01 0. -1.
       -4    1    3    3    0  502  0.55330051236E+03  0.10398168483E+04 -0.40778907097E+03  0.12464566075E+04  0.12699999809E+01 0.  1.
</event>
<event>
 5   0  0.9750757E-05  0.1425386E+04  0.7818609E-02  0.8935645E-01
        2   -1    0    0  501    0  0.00000000000E+00  0.00000000000E+00  0.54903718038E+03  0.54903718038E+03  0.25500000920E-02 0.  1.
       -2   -1    0    0    0  501  0.00000000000E+00  0.00000000000E+00 -0.92513131305E+03  0.92513131305E+03  0.25500000920E-02 0. -1.
    10030    2    1    2    0    0  0.00000000000E+00  0.00000000000E+00 -0.37609413267E+03  0.14741684934E+04  0.14253862460E+04 0.  0.
        2    1    3    3  502    0  0.37268172220E+01 -0.63990130560E+03  0.13644867770E+03  0.65429795333E+03  0.25500000920E-02 0.  1.
       -2    1    3    3    0  502 -0.37268172220E+01  0.63990130560E+03 -0.51254281037E+03  0.81987054011E+03  0.25500000920E-02 0. -1.
</event>
<event>
 5   0  0.4208577E-05  0.2397645E+04  0.7818609E-02  0.8440386E-01
       -1   -1    0    0    0  501  0.00000000000E+00  0.00000000000E+00  0.94590905140E+03  0.94590905142E+03  0.50400001928E-02 0.  1.
        1   -1    0    0  501    0  0.00000000000E+00  0.00000000000E+00 -0.15193586279E+04  0.15193586279E+04  0.50400001928E-02 0. -1.
    10030    2    1    2    0    0  0.00000000000E+00  0.00000000000E+00 -0.57344957653E+03  0.24652676794E+04  0.23976447431E+04 0.  0.
        1    1    3    3  502    0  0.15670210703E+03 -0.10523987683E+04  0.28119045542E+03  0.11005302313E+04  0.50400001928E-02 0.  1.
       -1    1    3    3    0  502 -0.15670210703E+03  0.10523987683E+04 -0.85464003195E+03  0.13647374480E+04  0.50400001928E-02 0. -1.
</event>
<event>
 5   0  0.9491680E-05  0.2425656E+04  0.7818609E-02  0.8429960E-01
       -2   -1    0    0    0  501  0.00000000000E+00  0.00000000000E+00  0.69876067404E+03  0.69876067405E+03  0.25500000920E-02 0.  1.
        2   -1    0    0  501    0  0.00000000000E+00  0.00000000000E+00 -0.21050868496E+04  0.21050868496E+04  0.25500000920E-02 0. -1.
    10030    2    1    2    0    0  0.00000000000E+00  0.00000000000E+00 -0.14063261755E+04  0.28038475236E+04  0.24256561223E+04 0.  0.
        5    1    3    3  502    0  0.64813833457E+03  0.19844778157E+03  0.45935732761E+03  0.81883824237E+03  0.46999998093E+01 0.  1.
       -5    1    3    3    0  502 -0.64813833457E+03 -0.19844778157E+03 -0.18656835032E+04  0.19850092813E+04  0.46999998093E+01 0. -1.
</event>
<event>
 5   0  0.4061631E-05  0.2318044E+04  0.7818609E-02  0.8470841E-01
       -1   -1    0    0    0  501  0.00000000000E+00  0.00000000000E+00  0.12150683387E+04  0.12150683387E+04  0.50400001928E-02 0.  1.
        1   -1    0    0  501    0  0.00000000000E+00  0.00000000000E+00 -0.11055606201E+04  0.11055606201E+04  0.50400001928E-02 0. -1.
    10030    2    1    2    0    0  0.00000000000E+00  0.00000000000E+00  0.10950771862E+03  0.23206289587E+04  0.23180437493E+04 0.  0.
        3    1    3    3  502    0  0.12223869480E+02  0.38607861747E+02 -0.11048521215E+04  0.11055940533E+04  0.10100000352E+00 0. -1.
       -3    1    3    3    0  502 -0.12223869480E+02 -0.38607861747E+02  0.12143598401E+04  0.12150349055E+04  0.10100000352E+00 0.  1.
</event>
<event>
 5   0  0.9519092E-05  0.2319808E+04  0.7818609E-02  0.8470152E-01
        2   -1    0    0  501    0  0.00000000000E+00  0.00000000000E+00  0.12637955574E+04  0.12637955574E+04  0.25500000920E-02 0.  1.
       -2   -1    0    0    0  501  0.00000000000E+00  0.00000000000E+00 -0.10645533955E+04  0.10645533956E+04  0.25500000920E-02 0. -1.
    10030    2    1    2    0    0  0.00000000000E+00  0.00000000000E+00  0.19924216184E+03  0.23283489529E+04  0.23198084851E+04 0.  0.
        4    1    3    3  502    0  0.94071598058E+02  0.87094160599E+03  0.86267487619E+03  0.12294707404E+04  0.12699999809E+01 0.  1.
       -4    1    3    3    0  502 -0.94071598058E+02 -0.87094160599E+03 -0.66343271435E+03  0.10988782125E+04  0.12699999809E+01 0. -1.
</event>
<event>
 5   0  0.3934906E-05  0.2136804E+04  0.7818609E-02  0.8545202E-01
       -1   -1    0    0    0  501  0.00000000000E+00  0.00000000000E+00  0.57154964447E+03  0.57154964450E+03  0.50400001928E-02 0.  1.
        1   -1    0    0  501    0  0.00000000000E+00  0.00000000000E+00 -0.19971721402E+04  0.19971721402E+04  0.50400001928E-02 0. -1.
    10030    2    1    2    0    0  0.00000000000E+00  0.00000000000E+00 -0.14256224957E+04  0.25687217847E+04  0.21368041807E+04 0.  0.
        2    1    3    3  502    0  0.44051790482E+03 -0.81524363996E+03 -0.13520980517E+04  0.16391605652E+04  0.25500000920E-02 0.  1.
       -2    1    3    3    0  502 -0.44051790482E+03  0.81524363996E+03 -0.73524444007E+02  0.92956121952E+03  0.25500000920E-02 0. -1.
</event>
<event>
 5   0  0.4061631E-05  0.2406789E+04  0.7818609E-02  0.8436966E-01
        1   -1    0    0  501    0  0.00000000000E+00  0.00000000000E+00  0.13259161496E+04  0.13259161496E+04  0.50400001928E-02 0. -1.
       -1   -1    0    0    0  501  0.00000000000E+00  0.00000000000E+00 -0.10921941085E+04  0.10921941085E+04  0.50400001928E-02 0.  1.
    10030    2    1    2    0    0  0.00000000000E+00  0.00000000000E+00  0.23372204113E+03  0.24181102581E+04  0.24067885714E+04 0.  0.
        3    1    3    3  502    0 -0.10145755695E+04  0.14632358509E+03  0.75021009340E+03  0.12702713774E+04  0.10100000352E+00 0.  1.
       -3    1    3    3    0  502  0.10145755695E+04 -0.14632358509E+03 -0.51648805228E+03  0.11478388807E+04  0.10100000352E+00 0. -1.
</event>
<event>
 5   0  0.4208577E-05  0.2716868E+04  0.7818609E-02  0.8329552E-01
       -1   -1    0    0    0  501  0.00000000000E+00  0.00000000000E+00  0.10311088542E+04  0.10311088542E+04  0.50400001928E-02 0. -1.
        1   -1    0    0  501    0  0.00000000000E+00  0.00000000000E+00 -0.17896689682E+04  0.17896689682E+04  0.50400001928E-02 0.  1.
    10030    2    1    2    0    0  0.00000000000E+00  0.00000000000E+00 -0.75856011396E+03  0.28207778224E+04  0.27168684320E+04 0.  0.
        1    1    3    3  502    0 -0.79739644550E+03  0.10994689214E+04 -0.40616479009E+03  0.14176187207E+04  0.50400001928E-02 0.  1.
       -1    1    3    3    0  502  0.79739644550E+03 -0.10994689214E+04 -0.35239532387E+03  0.14031591017E+04  0.50400001928E-02 0. -1.
</event>
<event>
 5   0  0.4061631E-05  0.2389610E+04  0.7818609E-02  0.8443404E-01
        1   -1    0    0  501    0  0.00000000000E+00  0.00000000000E+00  0.25651252392E+04  0.25651252392E+04  0.50400001928E-02 0. -1.
       -1   -1    0    0    0  501  0.00000000000E+00  0.00000000000E+00 -0.55652623277E+03  0.55652623279E+03  0.50400001928E-02 0.  1.
    10030    2    1    2    0    0  0.00000000000E+00  0.00000000000E+00  0.20085990064E+04  0.31216514720E+04  0.23896104168E+04 0.  0.
        3    1    3    3  502    0  0.11412974410E+04  0.30286584807E+03  0.12425841960E+04  0.17141479123E+04  0.10100000352E+00 0.  1.
       -3    1    3    3    0  502 -0.11412974410E+04 -0.30286584807E+03  0.76601481041E+03  0.14075035597E+04  0.10100000352E+00 0. -1.
</event>
<event>
 5   0  0.9519092E-05  0.2384940E+04  0.7818609E-02  0.8445163E-01
        2   -1    0    0  501    0  0.00000000000E+00  0.00000000000E+00  0.28079108591E+04  0.28079108591E+04  0.25500000920E-02 0.  1.
       -2   -1    0    0    0  501  0.00000000000E+00  0.00000000000E+00 -0.50642093939E+03  0.50642093940E+03  0.25500000920E-02 0. -1.
    10030    2    1    2    0    0  0.00000000000E+00  0.00000000000E+00  0.23014899197E+04  0.33143317985E+04  0.23849401292E+04 0.  0.
        4    1    3    3  502    0 -0.62255034125E+03 -0.73583340940E+03  0.17502342935E+03  0.97961959326E+03  0.12699999809E+01 0. -1.
       -4    1    3    3    0  502  0.62255034125E+03  0.73583340940E+03  0.21264664903E+04  0.23347122052E+04  0.12699999809E+01 0.  1.
</event>
<event>
 5   0  0.9144244E-05  0.2368142E+04  0.7818609E-02  0.8451528E-01
       -2   -1    0    0    0  501  0.00000000000E+00  0.00000000000E+00  0.97569143233E+03  0.97569143234E+03  0.25500000920E-02 0.  1.
        2   -1    0    0  501    0  0.00000000000E+00  0.00000000000E+00 -0.14369547936E+04  0.14369547936E+04  0.25500000920E-02 0. -1.
    10030    2    1    2    0    0  0.00000000000E+00  0.00000000000E+00 -0.46126336126E+03  0.24126462259E+04  0.23681422937E+04 0.  0.
        1    1    3    3  502    0  0.97325996594E+03 -0.27753263484E+02 -0.91710394689E+03  0.13375667663E+04  0.50400001928E-02 0. -1.
       -1    1    3    3    0  502 -0.97325996594E+03  0.27753263484E+02  0.45584058563E+03  0.10750794596E+04  0.50400001928E-02 0.  1.
</event>
<event>
 5   0  0.3934906E-05  0.2438469E+04  0.7818609E-02  0.8425240E-01
       -1   -1    0    0    0  501  0.00000000000E+00  0.00000000000E+00  0.10499908712E+04  0.10499908712E+04  0.50400001928E-02 0. -1.
        1   -1    0    0  501    0  0.00000000000E+00  0.00000000000E+00 -0.14157577881E+04  0.14157577882E+04  0.50400001928E-02 0.  1.
    10030    2    1    2    0    0  0.00000000000E+00  0.00000000000E+00 -0.36576691698E+03  0.24657486593E+04  0.24384689896E+04 0.  0.
        2    1    3    3  502    0 -0.59598179782E+03  0.96126361277E+03  0.27752410050E+03  0.11645778905E+04  0.25500000920E-02 0.  1.
       -2    1    3    3    0  502  0.59598179782E+03 -0.96126361277E+03 -0.64329101749E+03  0.13011707689E+04  0.25500000920E-02 0. -1.
</event>
<event>
 5   0  0.3934906E-05  0.2788994E+04  0.7818609E-02  0.8306693E-01
        1   -1    0    0  501    0  0.00000000000E+00  0.00000000000E+00  0.14576428183E+04  0.14576428183E+04  0.50400001928E-02 0. -1.
       -1   -1    0    0    0  501  0.00000000000E+00  0.00000000000E+00 -0.13340869796E+04  0.13340869796E+04  0.50400001928E-02 0.  1.
    10030    2    1    2    0    0  0.00000000000E+00  0.00000000000E+00  0.12355583870E+03  0.27917297979E+04  0.27889943025E+04 0.  0.
        2    1    3    3  502    0 -0.16428539677E+03  0.51735919497E+03 -0.12239943420E+04  0.13389594383E+04  0.25500000920E-02 0.  1.
       -2    1    3    3    0  502  0.16428539677E+03 -0.51735919497E+03  0.13475501807E+04  0.14527703596E+04  0.25500000920E-02 0. -1.
</event>
<event>
 5   0  0.3234750E-05  0.2329909E+04  0.7818609E-02  0.8466221E-01
       -3   -1    0    0    0  501  0.00000000000E+00  0.00000000000E+00  0.73981407589E+03  0.73981408278E+03  0.10100000352E+00 0. -1.
        3   -1    0    0  501    0  0.00000000000E+00  0.00000000000E+00 -0.18344049273E+04  0.18344049301E+04  0.10100000352E+00 0.  1.
    10030    2    1    2    0    0  0.00000000000E+00  0.00000000000E+00 -0.10945908515E+04  0.25742190129E+04  0.23299086665E+04 0.  0.
        4    1    3    3  502    0  0.10116830533E+04  0.53358037697E+03 -0.79163245902E+03  0.13910047384E+04  0.12699999809E+01 0.  1.
       -4    1    3    3    0  502 -0.10116830533E+04 -0.53358037697E+03 -0.30295839243E+03  0.11832142745E+04  0.12699999809E+01 0. -1.
</event>
<event>
 5   0  0.9519092E-05  0.2500616E+04  0.7818609E-02  0.8402766E-01
       -2   -1    0    0    0  501  0.00000000000E+00  0.00000000000E+00  0.77489599151E+03  0.77489599151E+03  0.25500000920E-02 0. -1.
        2   -1    0    0  501    0  0.00000000000E+00  0.00000000000E+00 -0.20173930396E+04  0.20173930396E+04  0.25500000920E-02 0.  1.
    10030    2    1    2    0    0  0.00000000000E+00  0.00000000000E+00 -0.12424970481E+04  0.27922890312E+04  0.25006157479E+04 0.  0.
        4    1    3    3  502    0 -0.24543824732E+03  0.23619370656E+03  0.72208484244E+03  0.79839559921E+03  0.12699999809E+01 0. -1.
       -4    1    3    3    0  502  0.24543824732E+03 -0.23619370656E+03 -0.19645818906E+04  0.19938934319E+04  0.12699999809E+01 0.  1.
</event>
<event>
 5   0  0.4061631E-05  0.1999560E+04  0.7818609E-02  0.8606827E-01
        1   -1    0    0  501    0  0.00000000000E+00  0.00000000000E+00  0.11226866464E+04  0.11226866464E+04  0.50400001928E-02 0.  1.
       -1   -1    0    0    0  501  0.00000000000E+00  0.00000000000E+00 -0.89032822377E+03  0.89032822379E+03  0.50400001928E-02 0. -1.
    10030    2    1    2    0    0  0.00000000000E+00  0.00000000000E+00  0.23235842266E+03  0.20130148702E+04  0.19995595593E+04 0.  0.
        3    1    3    3  502    0  0.62128999157E+03  0.20129600295E+03 -0.64590760620E+03  0.91854122410E+03  0.10100000352E+00 0. -1.
       -3    1    3    3    0  502 -0.62128999157E+03 -0.20129600295E+03  0.87826602886E+03  0.10944736461E+04  0.10100000352E+00 0.  1.
</event>
<event>
 5   0  0.9519092E-05  0.2381858E+04  0.7818609E-02  0.8446327E-01
       -2   -1    0    0    0  501  0.00000000000E+00  0.00000000000E+00  0.55412793988E+03  0.55412793988E+03  0.25500000920E-02 0.  1.
        2   -1    0    0  501    0  0.00000000000E+00  0.00000000000E+00 -0.25595392972E+04  0.25595392972E+04  0.25500000920E-02 0. -1.
    10030    2    1    2    0    0  0.00000000000E+00  0.00000000000E+00 -0.20054113573E+04  0.31136672371E+04  0.23818582979E+04 0.  0.
        4    1    3    3  502    0 -0.91726479912E+03  0.10347813102E+03 -0.19863815520E+04  0.21903871161E+04  0.12699999809E+01 0.  1.
       -4    1    3    3    0  502  0.91726479912E+03 -0.10347813102E+03 -0.19029805242E+02  0.92328012092E+03  0.12699999809E+01 0. -1.
</event>
<event>
 5   0  0.4061631E-05  0.2332619E+04  0.7818609E-02  0.8465170E-01
        1   -1    0    0  501    0  0.00000000000E+00  0.00000000000E+00  0.18208413273E+04  0.18208413273E+04  0.50400001928E-02 0.  1.
       -1   -1    0    0    0  501  0.00000000000E+00  0.00000000000E+00 -0.74705981666E+03  0.74705981668E+03  0.50400001928E-02 0. -1.
    10030    2    1    2    0    0  0.00000000000E+00  0.00000000000E+00  0.10737815106E+04  0.25679011440E+04  0.23326186042E+04 0.  0.
        3    1    3    3  502    0 -0.21231544815E+03  0.75713423856E+03  0.14851369034E+04  0.16804647383E+04  0.10100000352E+00 0. -1.
       -3    1    3    3    0  502  0.21231544815E+03 -0.75713423856E+03 -0.41135539276E+03  0.88743640566E+03  0.10100000352E+00 0.  1.
</event>
<event>
 5   0  0.4061631E-05  0.2384870E+04  0.7818609E-02  0.8445190E-01
        1   -1    0    0  501    0  0.00000000000E+00  0.00000000000E+00  0.15197626240E+04  0.15197626240E+04  0.50400001928E-02 0.  1.
       -1   -1    0    0    0  501  0.00000000000E+00  0.00000000000E+00 -0.93560710341E+03  0.93560710342E+03  0.50400001928E-02 0. -1.
    10030    2    1    2    0    0  0.00000000000E+00  0.00000000000E+00  0.58415552059E+03  0.24553697274E+04  0.23848695617E+04 0.  0.
        3    1    3    3  502    0  0.94849748680E+03 -0.66702154917E+03  0.57839112588E+03  0.12958015026E+04  0.10100000352E+00 0.  1.
       -3    1    3    3    0  502 -0.94849748680E+03  0.66702154917E+03  0.57643947127E+01  0.11595682248E+04  0.10100000352E+00 0. -1.
</event>
<event>
 5   0  0.9144244E-05  0.1853958E+04  0.7818609E-02  0.8678120E-01
        2   -1    0    0  501    0  0.00000000000E+00  0.00000000000E+00  0.76633757892E+03  0.76633757893E+03  0.25500000920E-02 0.  1.
       -2   -1    0    0    0  501  0.00000000000E+00  0.00000000000E+00 -0.11212946055E+04  0.11212946055E+04  0.25500000920E-02 0. -1.
    10030    2    1    2    0    0  0.00000000000E+00  0.00000000000E+00 -0.35495702658E+03  0.18876321844E+04  0.18539581368E+04 0.  0.
        1    1    3    3  502    0  0.90679367155E+03 -0.19189091956E+03 -0.16332254769E+03  0.94115415442E+03  0.50400001928E-02 0.  1.
       -1    1    3    3    0  502 -0.90679367155E+03  0.19189091956E+03 -0.19163447889E+03  0.94647803001E+03  0.50400001928E-02 0. -1.
</event>
<event>
 5   0  0.9144244E-05  0.2412284E+04  0.7818609E-02  0.8434919E-01
       -2   -1    0    0    0  501  0.00000000000E+00  0.00000000000E+00  0.50475545072E+03  0.50475545073E+03  0.25500000920E-02 0. -1.
        2   -1    0    0  501    0  0.00000000000E+00  0.00000000000E+00 -0.28821444637E+04  0.28821444637E+04  0.25500000920E-02 0.  1.
    10030    2    1    2    0    0  0.00000000000E+00  0.00000000000E+00 -0.23773890130E+04  0.33868999144E+04  0.24122836714E+04 0.  0.
        1    1    3    3  502    0 -0.94428659585E+03  0.44907607130E+03 -0.20327812255E+04  0.22859453195E+04  0.50400001928E-02 0.  1.
       -1    1    3    3    0  502  0.94428659585E+03 -0.44907607130E+03 -0.34460778747E+03  0.11009545949E+04  0.50400001928E-02 0. -1.
</event>
<event>
 5   0  0.9519092E-05  0.2258621E+04  0.7818609E-02  0.8494417E-01
        2   -1    0    0  501    0  0.00000000000E+00  0.00000000000E+00  0.13774190234E+04  0.13774190234E+04  0.25500000920E-02 0. -1.
       -2   -1    0    0    0  501  0.00000000000E+00  0.00000000000E+00 -0.92589233996E+03  0.92589233996E+03  0.25500000920E-02 0.  1.
    10030    2    1    2    0    0  0.00000000000E+00  0.00000000000E+00  0.45152668347E+03  0.23033113634E+04  0.22586205726E+04 0.  0.
        4    1    3    3  502    0 -0.31612819081E+03 -0.95436366163E+03  0.75032749589E+03  0.12544879416E+04  0.12699999809E+01 0.  1.
       -4    1    3    3    0  502  0.31612819081E+03  0.95436366163E+03 -0.29880081242E+03  0.10488234218E+04  0.12699999809E+01 0. -1.
</event>
<event>
 5   0  0.9519092E-05  0.2378218E+04  0.7818609E-02  0.8447704E-01
       -2   -1    0    0    0  501  0.00000000000E+00  0.00000000000E+00  0.77924801121E+03  0.77924801121E+03  0.25500000920E-02 0.  1.
        2   -1    0    0  501    0  0.00000000000E+00  0.00000000000E+00 -0.18145447976E+04  0.18145447976E+04  0.25500000920E-02 0. -1.
    10030    2    1    2    0    0  0.00000000000E+00  0.00000000000E+00 -0.10352967864E+04  0.25937928089E+04  0.23782181774E+04 0.  0.
        4    1    3    3  502    0 -0.76119896707E+02 -0.11155083829E+04 -0.76205530968E+02  0.11206971432E+04  0.12699999809E+01 0.  1.
       -4    1    3    3    0  502  0.76119896707E+02  0.11155083829E+04 -0.95909125546E+03  0.14730956656E+04  0.12699999809E+01 0. -1.
</event>
<event>
 5   0  0.4208577E-05  0.2305612E+04  0.7818609E-02  0.8475712E-01
       -1   -1    0    0    0  501  0.00000000000E+00  0.00000000000E+00  0.23103495499E+04  0.23103495499E+04  0.50400001928E-02 0.  1.
        1   -1    0    0  501    0  0.00000000000E+00  0.00000000000E+00 -0.57522093778E+03  0.57522093780E+03  0.50400001928E-02 0. -1.
    10030    2    1    2    0    0  0.00000000000E+00  0.00000000000E+00  0.17351286121E+04  0.28855704877E+04  0.23056117927E+04 0.  0.
        1    1    3    3  502    0 -0.32266285895E+03  0.50225160581E+03 -0.36670852808E+03  0.70060198449E+03  0.50400001928E-02 0. -1.
       -1    1    3    3    0  502  0.32266285895E+03 -0.50225160581E+03  0.21018371402E+04  0.21849685032E+04  0.50400001928E-02 0.  1.
</event>
<event>
 5   0  0.4061631E-05  0.2394313E+04  0.7818609E-02  0.8441636E-01
        1   -1    0    0  501    0  0.00000000000E+00  0.00000000000E+00  0.19747616734E+04  0.19747616734E+04  0.50400001928E-02 0. -1.
       -1   -1    0    0    0  501  0.00000000000E+00  0.00000000000E+00 -0.72574998278E+03  0.72574998280E+03  0.50400001928E-02 0.  1.
    10030    2    1    2    0    0  0.00000000000E+00  0.00000000000E+00  0.12490116906E+04  0.27005116562E+04  0.23943126366E+04 0.  0.
        3    1    3    3  502    0 -0.70822833416E+03 -0.72696197998E+03  0.13406220932E+04  0.16814662353E+04  0.10100000352E+00 0. -1.
       -3    1    3    3    0  502  0.70822833416E+03  0.72696197998E+03 -0.91610402600E+02  0.10190454208E+04  0.10100000352E+00 0.  1.
</event>
<event>
 5   0  0.9750757E-05  0.1516340E+04  0.7818609E-02  0.8873659E-01
        2   -1    0    0  501    0  0.00000000000E+00  0.00000000000E+00  0.17837007600E+04  0.17837007600E+04  0.25500000920E-02 0.  1.
       -2   -1    0    0    0  501  0.00000000000E+00  0.00000000000E+00 -0.32226340027E+03  0.32226340028E+03  0.25500000920E-02 0. -1.
    10030    2    1    2    0    0  0.00000000000E+00  0.00000000000E+00  0.14614373597E+04  0.21059641602E+04  0.15163396348E+04 0.  0.
        2    1    3    3  502    0  0.69247056913E+03  0.11408224958E+02  0.30225122718E+03  0.75564637301E+03  0.25500000920E-02 0. -1.
       -2    1    3    3    0  502 -0.69247056913E+03 -0.11408224958E+02  0.11591861325E+04  0.13503177872E+04  0.25500000920E-02 0.  1.
</event>
<event>
 5   0  0.3934906E-05  0.2408225E+04  0.7818609E-02  0.8436431E-01
       -1   -1    0    0    0  501  0.00000000000E+00  0.00000000000E+00  0.11549340705E+04  0.11549340705E+04  0.50400001928E-02 0.  1.
        1   -1    0    0  501    0  0.00000000000E+00  0.00000000000E+00 -0.12553854511E+04  0.12553854511E+04  0.50400001928E-02 0. -1.
    10030    2    1    2    0    0  0.00000000000E+00  0.00000000000E+00 -0.10045138060E+03  0.24103195217E+04  0.24082254290E+04 0.  0.
        2    1    3    3  502    0  0.10369852320E+04 -0.24803488019E+03 -0.61020103300E+03  0.12284970386E+04  0.25500000920E-02 0. -1.
       -2    1    3    3    0  502 -0.10369852320E+04  0.24803488019E+03  0.50974965240E+03  0.11818224830E+04  0.25500000920E-02 0.  1.
</event>
<event>
 5   0  0.4260395E-05  0.2342180E+04  0.7818609E-02  0.8461473E-01
       -1   -1    0    0    0  501  0.00000000000E+00  0.00000000000E+00  0.11522356355E+04  0.11522356355E+04  0.50400001928E-02 0. -1.
        1   -1    0    0  501    0  0.00000000000E+00  0.00000000000E+00 -0.11902533687E+04  0.11902533687E+04  0.50400001928E-02 0.  1.
    10030    2    1    2    0    0  0.00000000000E+00  0.00000000000E+00 -0.38017733239E+02  0.23424890042E+04  0.23421804770E+04 0.  0.
        4    1    3    3  502    0 -0.55974848393E+03  0.40969665805E+03  0.92466246364E+03  0.11559290642E+04  0.12699999809E+01 0. -1.
       -4    1    3    3    0  502  0.55974848393E+03 -0.40969665805E+03 -0.96268019688E+03  0.11865599400E+04  0.12699999809E+01 0.  1.
</event>
<event>
 5   0  0.4260395E-05  0.2382620E+04  0.7818609E-02  0.8446039E-01
        1   -1    0    0  501    0  0.00000000000E+00  0.00000000000E+00  0.11413932813E+04  0.11413932813E+04  0.50400001928E-02 0. -1.
       -1   -1    0    0    0  501  0.00000000000E+00  0.00000000000E+00 -0.12434097525E+04  0.12434097525E+04  0.50400001928E-02 0.  1.
    10030    2    1    2    0    0  0.00000000000E+00  0.00000000000E+00 -0.10201647124E+03  0.23848030338E+04  0.23826200179E+04 0.  0.
        4    1    3    3  502    0  0.77786309568E+02 -0.26454380834E+03 -0.12110281633E+04  0.12420245415E+04  0.12699999809E+01 0.  1.
       -4    1    3    3    0  502 -0.77786309568E+02  0.26454380834E+03  0.11090116921E+04  0.11427784923E+04  0.12699999809E+01 0. -1.
</event>
<event>
 5   0  0.9750757E-05  0.2357886E+04  0.7818609E-02  0.8455441E-01
        2   -1    0    0  501    0  0.00000000000E+00  0.00000000000E+00  0.17294537889E+04  0.17294537889E+04  0.25500000920E-02 0. -1.
       -2   -1    0    0    0  501  0.00000000000E+00  0.00000000000E+00 -0.80366812684E+03  0.80366812684E+03  0.25500000920E-02 0.  1.
    10030    2    1    2    0    0  0.00000000000E+00  0.00000000000E+00  0.92578566204E+03  0.25331219157E+04  0.23578862457E+04 0.  0.
        2    1    3    3  502    0  0.54239769013E+03 -0.56182854320E+03  0.14117423392E+04  0.16133390836E+04  0.25500000920E-02 0. -1.
       -2    1    3    3    0  502 -0.54239769013E+03  0.56182854320E+03 -0.48595667719E+03  0.91978283215E+03  0.25500000920E-02 0.  1.
</event>
<event>
 5   0  0.4208577E-05  0.1180298E+04  0.7818609E-02  0.9130279E-01
       -1   -1    0    0    0  501  0.00000000000E+00  0.00000000000E+00  0.14427271904E+04  0.14427271904E+04  0.50400001928E-02 0.  1.
        1   -1    0    0  501    0  0.00000000000E+00  0.00000000000E+00 -0.24140094429E+03  0.24140094434E+03  0.50400001928E-02 0. -1.
    10030    2    1    2    0    0  0.00000000000E+00  0.00000000000E+00  0.12013262461E+04  0.16841281348E+04  0.11802977695E+04 0.  0.
        1    1    3    3  502    0 -0.11826878261E+03  0.22165137497E+03  0.13626140236E+04  0.13855806777E+04  0.50400001928E-02 0.  1.
       -1    1    3    3    0  502  0.11826878261E+03 -0.22165137497E+03 -0.16128777747E+03  0.29854745712E+03  0.50400001928E-02 0. -1.
</event>
<event>
 5   0  0.9750757E-05  0.2555806E+04  0.7818609E-02  0.8383370E-01
       -2   -1    0    0    0  501  0.00000000000E+00  0.00000000000E+00  0.95199363755E+03  0.95199363756E+03  0.25500000920E-02 0. -1.
        2   -1    0    0  501    0  0.00000000000E+00  0.00000000000E+00 -0.17153860657E+04  0.17153860657E+04  0.25500000920E-02 0.  1.
    10030    2    1    2    0    0  0.00000000000E+00  0.00000000000E+00 -0.76339242815E+03  0.26673797033E+04  0.25558064250E+04 0.  0.
        2    1    3    3  502    0 -0.35254063063E+03  0.87623113711E+03 -0.12800706965E+04  0.15908007072E+04  0.25500000920E-02 0.  1.
       -2    1    3    3    0  502  0.35254063063E+03 -0.87623113711E+03  0.51667826833E+03  0.10765789961E+04  0.25500000920E-02 0. -1.
</event>
<event>
 5   0  0.9750757E-05  0.2395276E+04  0.7818609E-02  0.8441274E-01
        2   -1    0    0  501    0  0.00000000000E+00  0.00000000000E+00  0.11670352170E+04  0.11670352170E+04  0.25500000920E-02 0. -1.
       -2   -1    0    0    0  501  0.00000000000E+00  0.00000000000E+00 -0.12290435629E+04  0.12290435629E+04  0.25500000920E-02 0.  1.
    10030    2    1    2    0    0  0.00000000000E+00  0.00000000000E+00 -0.62008345928E+02  0.23960787798E+04  0.23952762856E+04 0.  0.
        2    1    3    3  502    0  0.73099068855E+01 -0.11125066524E+04 -0.47456296260E+03  0.12095182892E+04  0.25500000920E-02 0. -1.
       -2    1    3    3    0  502 -0.73099068855E+01  0.11125066524E+04  0.41255461667E+03  0.11865604907E+04  0.25500000920E-02 0.  1.
</event>
<event>
 5   0  0.9750757E-05  0.2433655E+04  0.7818609E-02  0.8427010E-01
       -2   -1    0    0    0  501  0.00000000000E+00  0.00000000000E+00  0.97028018895E+03  0.97028018896E+03  0.25500000920E-02 0. -1.
        2   -1    0    0  501    0  0.00000000000E+00  0.00000000000E+00 -0.15260220997E+04  0.15260220997E+04  0.25500000920E-02 0.  1.
    10030    2    1    2    0    0  0.00000000000E+00  0.00000000000E+00 -0.55574191071E+03  0.24963022886E+04  0.24336548738E+04 0.  0.
        2    1    3    3  502    0 -0.14292342283E+03  0.11752418927E+04  0.10522053235E+02  0.11839473488E+04  0.25500000920E-02 0.  1.
       -2    1    3    3    0  502  0.14292342283E+03 -0.11752418927E+04 -0.56626396394E+03  0.13123549398E+04  0.25500000920E-02 0. -1.
</event>
<event>
 5   0  0.9144244E-05  0.2375478E+04  0.7818609E-02  0.8448742E-01
        2   -1    0    0  501    0  0.00000000000E+00  0.00000000000E+00  0.15573004833E+04  0.15573004833E+04  0.25500000920E-02 0. -1.
       -2   -1    0    0    0  501  0.00000000000E+00  0.00000000000E+00 -0.90587754856E+03  0.90587754856E+03  0.25500000920E-02 0.  1.
    10030    2    1    2    0    0  0.00000000000E+00  0.00000000000E+00  0.65142293477E+03  0.24631780319E+04  0.23754776734E+04 0.  0.
        1    1    3    3  502    0  0.97219337595E+03 -0.48146480685E+03  0.82704356619E+03  0.13641735157E+04  0.50400001928E-02 0. -1.
       -1    1    3    3    0  502 -0.97219337595E+03  0.48146480685E+03 -0.17562063142E+03  0.10990045162E+04  0.50400001928E-02 0.  1.
</event>
<event>
 5   0  0.3934906E-05  0.1789827E+04  0.7818609E-02  0.8711728E-01
        1   -1    0    0  501    0  0.00000000000E+00  0.00000000000E+00  0.15584904352E+04  0.15584904352E+04  0.50400001928E-02 0.  1.
       -1   -1    0    0    0  501  0.00000000000E+00  0.00000000000E+00 -0.51387567961E+03  0.51387567963E+03  0.50400001928E-02 0. -1.
    10030    2    1    2    0    0  0.00000000000E+00  0.00000000000E+00  0.10446147555E+04  0.20723661148E+04  0.17898271778E+04 0.  0.
        2    1    3    3  502    0  0.73411743354E+03 -0.18808307732E+03  0.10734365579E+04  0.13139899901E+04  0.25500000920E-02 0.  1.
       -2    1    3    3    0  502 -0.73411743354E+03  0.18808307732E+03 -0.28821802382E+02  0.75837612469E+03  0.25500000920E-02 0. -1.
</event>
<event>
 5   0  0.9519092E-05  0.2186497E+04  0.7818609E-02  0.8524070E-01
       -2   -1    0    0    0  501  0.00000000000E+00  0.00000000000E+00  0.81352390225E+03  0.81352390225E+03  0.25500000920E-02 0. -1.
        2   -1    0    0  501    0  0.00000000000E+00  0.00000000000E+00 -0.14691541861E+04  0.14691541861E+04  0.25500000920E-02 0.  1.
    10030    2    1    2    0    0  0.00000000000E+00  0.00000000000E+00 -0.65563028387E+03  0.22826780884E+04  0.21864967839E+04 0.  0.
        4    1    3    3  502    0 -0.95553018817E+03 -0.37655769217E+03 -0.71893741880E+03  0.12536770960E+04  0.12699999809E+01 0. -1.
       -4    1    3    3    0  502  0.95553018817E+03  0.37655769217E+03  0.63307134930E+02  0.10290009924E+04  0.12699999809E+01 0.  1.
</event>
<event>
 5   0  0.9491680E-05  0.2414202E+04  0.7818609E-02  0.8434205E-01
        2   -1    0    0  501    0  0.00000000000E+00  0.00000000000E+00  0.21173094261E+04  0.21173094261E+04  0.25500000920E-02 0.  1.
       -2   -1    0    0    0  501  0.00000000000E+00  0.00000000000E+00 -0.68818156028E+03  0.68818156029E+03  0.25500000920E-02 0. -1.
    10030    2    1    2    0    0  0.00000000000E+00  0.00000000000E+00  0.14291278658E+04  0.28054909864E+04  0.24142023979E+04 0.  0.
        5    1    3    3  502    0 -0.52733704383E+02 -0.56445226427E+03  0.19529725258E+04  0.20335955790E+04  0.46999998093E+01 0.  1.
       -5    1    3    3    0  502  0.52733704383E+02  0.56445226427E+03 -0.52384465999E+03  0.77189540743E+03  0.46999998093E+01 0. -1.
</event>
<event>
 5   0  0.4018942E-05  0.2381123E+04  0.7818609E-02  0.8446605E-01
        1   -1    0    0  501    0  0.00000000000E+00  0.00000000000E+00  0.10658470688E+04  0.10658470688E+04  0.50400001928E-02 0.  1.
       -1   -1    0    0    0  501  0.00000000000E+00  0.00000000000E+00 -0.13298691516E+04  0.13298691516E+04  0.50400001928E-02 0. -1.
    10030    2    1    2    0    0  0.00000000000E+00  0.00000000000E+00 -0.26402208273E+03  0.23957162204E+04  0.23811233795E+04 0.  0.
        5    1    3    3  502    0 -0.97044094950E+03  0.24155972362E+03 -0.78196409857E+03  0.12694867774E+04  0.46999998093E+01 0. -1.
       -5    1    3    3    0  502  0.97044094950E+03 -0.24155972362E+03  0.51794201585E+03  0.11262294430E+04  0.46999998093E+01 0.  1.
</event>
<event>
 5   0  0.9491680E-05  0.2548195E+04  0.7818609E-02  0.8386014E-01
        2   -1    0    0  501    0  0.00000000000E+00  0.00000000000E+00  0.21369952031E+04  0.21369952031E+04  0.25500000920E-02 0. -1.
       -2   -1    0    0    0  501  0.00000000000E+00  0.00000000000E+00 -0.75962955510E+03  0.75962955511E+03  0.25500000920E-02 0.  1.
    10030    2    1    2    0    0  0.00000000000E+00  0.00000000000E+00  0.13773656480E+04  0.28966247582E+04  0.25481952165E+04 0.  0.
        5    1    3    3  502    0  0.52518373510E+02 -0.40367004786E+03  0.20610741611E+04  0.21008942083E+04  0.46999998093E+01 0. -1.
       -5    1    3    3    0  502 -0.52518373510E+02  0.40367004786E+03 -0.68370851310E+03  0.79573054986E+03  0.46999998093E+01 0.  1.
</event>
<event>
 5   0  0.4018942E-05  0.2363347E+04  0.7818609E-02  0.8453355E-01
        1   -1    0    0  501    0  0.00000000000E+00  0.00000000000E+00  0.12874491442E+04  0.12874491442E+04  0.50400001928E-02 0. -1.
       -1   -1    0    0    0  501  0.00000000000E+00  0.00000000000E+00 -0.10845885491E+04  0.10845885491E+04  0.50400001928E-02 0.  1.
    10030    2    1    2    0    0  0.00000000000E+00  0.00000000000E+00  0.20286059512E+03  0.23720376933E+04  0.23633472867E+04 0.  0.
        5    1    3    3  502    0 -0.63385643683E+03  0.57769343085E+03 -0.71447147006E+03  0.11162415752E+04  0.46999998093E+01 0.  1.
       -5    1    3    3    0  502  0.63385643683E+03 -0.57769343085E+03  0.91733206519E+03  0.12557961182E+04  0.46999998093E+01 0. -1.
</event>
<event>
 5   0  0.9491680E-05  0.2422542E+04  0.7818609E-02  0.8431112E-01
        2   -1    0    0  501    0  0.00000000000E+00  0.00000000000E+00  0.14011018560E+04  0.14011018560E+04  0.25500000920E-02 0.  1.
       -2   -1    0    0    0  501  0.00000000000E+00  0.00000000000E+00 -0.10471593935E+04  0.10471593935E+04  0.25500000920E-02 0. -1.
    10030    2    1    2    0    0  0.00000000000E+00  0.00000000000E+00  0.35394246254E+03  0.24482612495E+04  0.24225416155E+04 0.  0.
        5    1    3    3  502    0  0.44316082980E+03  0.74900116749E+03 -0.67444604650E+03  0.11010421561E+04  0.46999998093E+01 0. -1.
       -5    1    3    3    0  502 -0.44316082980E+03 -0.74900116749E+03  0.10283885090E+04  0.13472190934E+04  0.46999998093E+01 0.  1.
</event>
<event>
 5   0  0.9750757E-05  0.2406412E+04  0.7818609E-02  0.8437107E-01
       -2   -1    0    0    0  501  0.00000000000E+00  0.00000000000E+00  0.11565421051E+04  0.11565421051E+04  0.25500000920E-02 0.  1.
        2   -1    0    0  501    0  0.00000000000E+00  0.00000000000E+00 -0.12517526368E+04  0.12517526368E+04  0.25500000920E-02 0. -1.
    10030    2    1    2    0    0  0.00000000000E+00  0.00000000000E+00 -0.95210531684E+02  0.24082947419E+04  0.24064119595E+04 0.  0.
        2    1    3    3  502    0 -0.10392756145E+04 -0.15082490270E+03  0.54010429619E+03  0.11809126153E+04  0.25500000920E-02 0.  1.
       -2    1    3    3    0  502  0.10392756145E+04  0.15082490270E+03 -0.63531482788E+03  0.12273821266E+04  0.25500000920E-02 0. -1.
</event>
<event>
 5   0  0.4208577E-05  0.2362154E+04  0.7818609E-02  0.8453810E-01
        1   -1    0    0  501    0  0.00000000000E+00  0.00000000000E+00  0.97131712287E+03  0.97131712288E+03  0.50400001928E-02 0. -1.
       -1   -1    0    0    0  501  0.00000000000E+00  0.00000000000E+00 -0.14361349835E+04  0.14361349835E+04  0.50400001928E-02 0.  1.
    10030    2    1    2    0    0  0.00000000000E+00  0.00000000000E+00 -0.46481786066E+03  0.24074521064E+04  0.23621536786E+04 0.  0.
        1    1    3    3  502    0 -0.60703583330E+03  0.48259205726E+02  0.79898638126E+03  0.10045898125E+04  0.50400001928E-02 0. -1.
       -1    1    3    3    0  502  0.60703583330E+03 -0.48259205726E+02 -0.12638042419E+04  0.14028622939E+04  0.50400001928E-02 0.  1.
</event>
<event>
 5   0  0.4061631E-05  0.2392066E+04  0.7818609E-02  0.8442480E-01
        1   -1    0    0  501    0  0.00000000000E+00  0.00000000000E+00  0.82707603395E+03  0.82707603397E+03  0.50400001928E-02 0.  1.
       -1   -1    0    0    0  501  0.00000000000E+00  0.00000000000E+00 -0.17295809424E+04  0.17295809424E+04  0.50400001928E-02 0. -1.
    10030    2    1    2    0    0  0.00000000000E+00  0.00000000000E+00 -0.90250490848E+03  0.25566569764E+04  0.23920660077E+04 0.  0.
        3    1    3    3  502    0  0.74342865802E+03  0.39251580149E+03 -0.13605177703E+04  0.15993009215E+04  0.10100000352E+00 0. -1.
       -3    1    3    3    0  502 -0.74342865802E+03 -0.39251580149E+03  0.45801286186E+03  0.95735605488E+03  0.10100000352E+00 0.  1.
</event>
<event>
 5   0  0.9519092E-05  0.2411051E+04  0.7818609E-02  0.8435378E-01
        2   -1    0    0  501    0  0.00000000000E+00  0.00000000000E+00  0.18900160668E+04  0.18900160668E+04  0.25500000920E-02 0.  1.
       -2   -1    0    0    0  501  0.00000000000E+00  0.00000000000E+00 -0.76893069919E+03  0.76893069920E+03  0.25500000920E-02 0. -1.
    10030    2    1    2    0    0  0.00000000000E+00  0.00000000000E+00  0.11210853676E+04  0.26589467660E+04  0.24110507052E+04 0.  0.
        4    1    3    3  502    0  0.11013022168E+03 -0.96444152725E+02 -0.75909138741E+03  0.77307922470E+03  0.12699999809E+01 0. -1.
       -4    1    3    3    0  502 -0.11013022168E+03  0.96444152725E+02  0.18801767550E+04  0.18858675413E+04  0.12699999809E+01 0.  1.
</event>
<event>
 5   0  0.9519092E-05  0.2421640E+04  0.7818609E-02  0.8431446E-01
        2   -1    0    0  501    0  0.00000000000E+00  0.00000000000E+00  0.11840666421E+04  0.11840666421E+04  0.25500000920E-02 0.  1.
       -2   -1    0    0    0  501  0.00000000000E+00  0.00000000000E+00 -0.12381782056E+04  0.12381782056E+04  0.25500000920E-02 0. -1.
    10030    2    1    2    0    0  0.00000000000E+00  0.00000000000E+00 -0.54111563452E+02  0.24222448477E+04  0.24216403616E+04 0.  0.
        4    1    3    3  502    0 -0.39082366543E+03 -0.98677277550E+03 -0.60997071679E+03  0.12241444099E+04  0.12699999809E+01 0. -1.
       -4    1    3    3    0  502  0.39082366543E+03  0.98677277550E+03  0.55585915334E+03  0.11981004379E+04  0.12699999809E+01 0.  1.
</event>
<event>
 5   0  0.9144244E-05  0.2492112E+04  0.7818609E-02  0.8405801E-01
        2   -1    0    0  501    0  0.00000000000E+00  0.00000000000E+00  0.84911281182E+03  0.84911281182E+03  0.25500000920E-02 0. -1.
       -2   -1    0    0    0  501  0.00000000000E+00  0.00000000000E+00 -0.18285618652E+04  0.18285618652E+04  0.25500000920E-02 0.  1.
    10030    2    1    2    0    0  0.00000000000E+00  0.00000000000E+00 -0.97944905333E+03  0.26776746770E+04  0.24921118008E+04 0.  0.
        1    1    3    3  502    0 -0.24601500436E+03  0.42925056026E+03 -0.17185028889E+04  0.17883041143E+04  0.50400001928E-02 0.  1.
       -1    1    3    3    0  502  0.24601500436E+03 -0.42925056026E+03  0.73905383560E+03  0.88937056270E+03  0.50400001928E-02 0. -1.
</event>
<event>
 5   0  0.3234750E-05  0.1996163E+04  0.7818609E-02  0.8608417E-01
        4   -1    0    0  501    0  0.00000000000E+00  0.00000000000E+00  0.14443151948E+04  0.14443157532E+04  0.12699999809E+01 0. -1.
       -4   -1    0    0    0  501  0.00000000000E+00  0.00000000000E+00 -0.68971424894E+03  0.68971541819E+03  0.12699999809E+01 0.  1.
    10030    2    1    2    0    0  0.00000000000E+00  0.00000000000E+00  0.75460094588E+03  0.21340311714E+04  0.19961629324E+04 0.  0.
        4    1    3    3  502    0  0.89414259241E+03  0.42282956394E+03  0.23431232367E+03  0.10164544720E+04  0.12699999809E+01 0. -1.
       -4    1    3    3    0  502 -0.89414259241E+03 -0.42282956394E+03  0.52028862221E+03  0.11175766994E+04  0.12699999809E+01 0.  1.
</event>
<event>
 5   0  0.4061631E-05  0.2395520E+04  0.7818609E-02  0.8441183E-01
       -1   -1    0    0    0  501  0.00000000000E+00  0.00000000000E+00  0.81978965729E+03  0.81978965730E+03  0.50400001928E-02 0.  1.
        1   -1    0    0  501    0  0.00000000000E+00  0.00000000000E+00 -0.17499962268E+04  0.17499962268E+04  0.50400001928E-02 0. -1.
    10030    2    1    2    0    0  0.00000000000E+00  0.00000000000E+00 -0.93020656954E+03  0.25697858841E+04  0.23955198242E+04 0.  0.
        3    1    3    3  502    0  0.62486911487E+03 -0.36704457730E+03  0.55792007003E+03  0.91458074941E+03  0.10100000352E+00 0.  1.
       -3    1    3    3    0  502 -0.62486911487E+03  0.36704457730E+03 -0.14881266396E+04  0.16552051347E+04  0.10100000352E+00 0. -1.
</event>
<event>
 5   0  0.4208577E-05  0.1419418E+04  0.7818609E-02  0.8939882E-01
        1   -1    0    0  501    0  0.00000000000E+00  0.00000000000E+00  0.79734727870E+03  0.79734727872E+03  0.50400001928E-02 0.  1.
       -1   -1    0    0    0  501  0.00000000000E+00  0.00000000000E+00 -0.63170292454E+03  0.63170292456E+03  0.50400001928E-02 0. -1.
    10030    2    1    2    0    0  0.00000000000E+00  0.00000000000E+00  0.16564435416E+03  0.14290502033E+04  0.14194176381E+04 0.  0.
        1    1    3    3  502    0 -0.57500189876E+03 -0.32670701785E+03  0.34210033215E+03  0.74457860322E+03  0.50400001928E-02 0. -1.
       -1    1    3    3    0  502  0.57500189876E+03  0.32670701785E+03 -0.17645597799E+03  0.68447160006E+03  0.50400001928E-02 0.  1.
</event>
<event>
 5   0  0.9750757E-05  0.2352552E+04  0.7818609E-02  0.8457484E-01
        2   -1    0    0  501    0  0.00000000000E+00  0.00000000000E+00  0.14565237689E+04  0.14565237689E+04  0.25500000920E-02 0.  1.
       -2   -1    0    0    0  501  0.00000000000E+00  0.00000000000E+00 -0.94995034245E+03  0.94995034246E+03  0.25500000920E-02 0. -1.
    10030    2    1    2    0    0  0.00000000000E+00  0.00000000000E+00  0.50657342647E+03  0.24064741114E+04  0.23525520212E+04 0.  0.
        2    1    3    3  502    0 -0.63229344989E+02  0.11085290480E+04  0.65050494067E+03  0.12868532465E+04  0.25500000920E-02 0.  1.
       -2    1    3    3    0  502  0.63229344989E+02 -0.11085290480E+04 -0.14393151420E+03  0.11196208649E+04  0.25500000920E-02 0. -1.
</event>
<event>
 5   0  0.4018942E-05  0.2339021E+04  0.7818609E-02  0.8462693E-01
        1   -1    0    0  501    0  0.00000000000E+00  0.00000000000E+00  0.13530731373E+04  0.13530731374E+04  0.50400001928E-02 0.  1.
       -1   -1    0    0    0  501  0.00000000000E+00  0.00000000000E+00 -0.10108508140E+04  0.10108508140E+04  0.50400001928E-02 0. -1.
    10030    2    1    2    0    0  0.00000000000E+00  0.00000000000E+00  0.34222232335E+03  0.23639239514E+04  0.23390212332E+04 0.  0.
        5    1    3    3  502    0 -0.10677197049E+04 -0.29640910506E+03  0.54905688290E+03  0.12366767066E+04  0.46999998093E+01 0.  1.
       -5    1    3    3    0  502  0.10677197049E+04  0.29640910506E+03 -0.20683455955E+03  0.11272472448E+04  0.46999998093E+01 0. -1.
</event>
<event>
 5   0  0.4061631E-05  0.1757343E+04  0.7818609E-02  0.8729319E-01
        1   -1    0    0  501    0  0.00000000000E+00  0.00000000000E+00  0.29616826066E+03  0.29616826070E+03  0.50400001928E-02 0.  1.
       -1   -1    0    0    0  501  0.00000000000E+00  0.00000000000E+00 -0.26068411319E+04  0.26068411319E+04  0.50400001928E-02 0. -1.
    10030    2    1    2    0    0  0.00000000000E+00  0.00000000000E+00 -0.23106728712E+04  0.29030093926E+04  0.17573429988E+04 0.  0.
        3    1    3    3  502    0  0.74202706652E+03 -0.21407183017E+03 -0.46303606060E+03  0.90046283629E+03  0.10100000352E+00 0.  1.
       -3    1    3    3    0  502 -0.74202706652E+03  0.21407183017E+03 -0.18476368106E+04  0.20025465563E+04  0.10100000352E+00 0. -1.
</event>
<event>
 5   0  0.3934906E-05  0.2381524E+04  0.7818609E-02  0.8446453E-01
        1   -1    0    0  501    0  0.00000000000E+00  0.00000000000E+00  0.14123768515E+04  0.14123768515E+04  0.50400001928E-02 0. -1.
       -1   -1    0    0    0  501  0.00000000000E+00  0.00000000000E+00 -0.10039209246E+04  0.10039209246E+04  0.50400001928E-02 0.  1.
    10030    2    1    2    0    0  0.00000000000E+00  0.00000000000E+00  0.40845592689E+03  0.24162977761E+04  0.23815244485E+04 0.  0.
        2    1    3    3  502    0 -0.87988804213E+03 -0.41035688582E+03  0.90372836354E+03  0.13263938689E+04  0.25500000920E-02 0. -1.
       -2    1    3    3    0  502  0.87988804213E+03  0.41035688582E+03 -0.49527243665E+03  0.10899039072E+04  0.25500000920E-02 0.  1.
</event>
<event>
 5   0  0.9750757E-05  0.1435755E+04  0.7818609E-02  0.8928336E-01
        2   -1    0    0  501    0  0.00000000000E+00  0.00000000000E+00  0.91388422441E+03  0.91388422441E+03  0.25500000920E-02 0.  1.
       -2   -1    0    0    0  501  0.00000000000E+00  0.00000000000E+00 -0.56390955959E+03  0.56390955960E+03  0.25500000920E-02 0. -1.
    10030    2    1    2    0    0  0.00000000000E+00  0.00000000000E+00  0.34997466481E+03  0.14777937840E+04  0.14357549241E+04 0.  0.
        2    1    3    3  502    0 -0.56083054512E+03  0.44683574131E+03  0.14000740070E+03  0.73061286076E+03  0.25500000920E-02 0.  1.
       -2    1    3    3    0  502  0.56083054512E+03 -0.44683574131E+03  0.20996726411E+03  0.74718092324E+03  0.25500000920E-02 0. -1.
</event>
<event>
 5   0  0.9182865E-05  0.2395961E+04  0.7818609E-02  0.8441017E-01
        2   -1    0    0  501    0  0.00000000000E+00  0.00000000000E+00  0.28573379493E+04  0.28573379493E+04  0.25500000920E-02 0.  1.
       -2   -1    0    0    0  501  0.00000000000E+00  0.00000000000E+00 -0.50227086100E+03  0.50227086101E+03  0.25500000920E-02 0. -1.
    10030    2    1    2    0    0  0.00000000000E+00  0.00000000000E+00  0.23550670883E+04  0.33596088103E+04  0.23959612618E+04 0.  0.
        3    1    3    3  502    0  0.13101996113E+03 -0.11701138278E+04  0.14873681786E+04  0.18969967604E+04  0.10100000352E+00 0.  1.
       -3    1    3    3    0  502 -0.13101996113E+03  0.11701138278E+04  0.86769890970E+03  0.14626120499E+04  0.10100000352E+00 0. -1.
</event>
<event>
 5   0  0.4018942E-05  0.2316505E+04  0.7818609E-02  0.8471442E-01
        1   -1    0    0  501    0  0.00000000000E+00  0.00000000000E+00  0.17949731509E+04  0.17949731509E+04  0.50400001928E-02 0.  1.
       -1   -1    0    0    0  501  0.00000000000E+00  0.00000000000E+00 -0.74739202403E+03  0.74739202405E+03  0.50400001928E-02 0. -1.
    10030    2    1    2    0    0  0.00000000000E+00  0.00000000000E+00  0.10475811269E+04  0.25423651750E+04  0.23165047951E+04 0.  0.
        5    1    3    3  502    0  0.21937845413E+03  0.11352512122E+04  0.44931963130E+03  0.12404968529E+04  0.46999998093E+01 0.  1.
       -5    1    3    3    0  502 -0.21937845413E+03 -0.11352512122E+04  0.59826149561E+03  0.13018683221E+04  0.46999998093E+01 0. -1.
</event>
<event>
 5   0  0.4208577E-05  0.2389562E+04  0.7818609E-02  0.8443422E-01
       -1   -1    0    0    0  501  0.00000000000E+00  0.00000000000E+00  0.95919489167E+03  0.95919489168E+03  0.50400001928E-02 0. -1.
        1   -1    0    0  501    0  0.00000000000E+00  0.00000000000E+00 -0.14882288846E+04  0.14882288846E+04  0.50400001928E-02 0.  1.
    10030    2    1    2    0    0  0.00000000000E+00  0.00000000000E+00 -0.52903399294E+03  0.24474237763E+04  0.23895619212E+04 0.  0.
        1    1    3    3  502    0  0.97524284771E+03  0.49425988954E+03  0.22892703354E+03  0.11170492546E+04  0.50400001928E-02 0. -1.
       -1    1    3    3    0  502 -0.97524284771E+03 -0.49425988954E+03 -0.75796102649E+03  0.13303745217E+04  0.50400001928E-02 0.  1.
</event>
<event>
 5   0  0.4018942E-05  0.2239703E+04  0.7818609E-02  0.8502082E-01
        1   -1    0    0  501    0  0.00000000000E+00  0.00000000000E+00  0.12670856379E+04  0.12670856379E+04  0.50400001928E-02 0. -1.
       -1   -1    0    0    0  501  0.00000000000E+00  0.00000000000E+00 -0.98972571643E+03  0.98972571644E+03  0.50400001928E-02 0.  1.
    10030    2    1    2    0    0  0.00000000000E+00  0.00000000000E+00  0.27735992148E+03  0.22568113544E+04  0.22397028738E+04 0.  0.
        5    1    3    3  502    0  0.21777863944E+03  0.19568862051E+03  0.12278267654E+04  0.12622607607E+04  0.46999998093E+01 0. -1.
       -5    1    3    3    0  502 -0.21777863944E+03 -0.19568862051E+03 -0.95046684394E+03  0.99455059370E+03  0.46999998093E+01 0.  1.
</event>
<event>
 5   0  0.9491680E-05  0.2341389E+04  0.7818609E-02  0.8461778E-01
       -2   -1    0    0    0  501  0.00000000000E+00  0.00000000000E+00  0.18751061443E+04  0.18751061443E+04  0.25500000920E-02 0. -1.
        2   -1    0    0  501    0  0.00000000000E+00  0.00000000000E+00 -0.73090582037E+03  0.73090582038E+03  0.25500000920E-02 0.  1.
    10030    2    1    2    0    0  0.00000000000E+00  0.00000000000E+00  0.11442003239E+04  0.26060119647E+04  0.23413893266E+04 0.  0.
        5    1    3    3  502    0 -0.22972741089E+02  0.36878898281E+03 -0.66428908772E+03  0.76015468343E+03  0.46999998093E+01 0.  1.
       -5    1    3    3    0  502  0.22972741089E+02 -0.36878898281E+03  0.18084894116E+04  0.18458572812E+04  0.46999998093E+01 0. -1.
</event>
<event>
 5   0  0.3234750E-05  0.2266189E+04  0.7818609E-02  0.8491373E-01
        3   -1    0    0  501    0  0.00000000000E+00  0.00000000000E+00  0.21611806122E+04  0.21611806146E+04  0.10100000352E+00 0. -1.
       -3   -1    0    0    0  501  0.00000000000E+00  0.00000000000E+00 -0.59407479618E+03  0.59407480477E+03  0.10100000352E+00 0.  1.
    10030    2    1    2    0    0  0.00000000000E+00  0.00000000000E+00  0.15671058160E+04  0.27552554193E+04  0.22661888243E+04 0.  0.
        5    1    3    3  502    0 -0.25977823159E+03 -0.10948812723E+04  0.62211489380E+03  0.12858066577E+04  0.46999998093E+01 0. -1.
       -5    1    3    3    0  502  0.25977823159E+03  0.10948812723E+04  0.94499092223E+03  0.14694487616E+04  0.46999998093E+01 0.  1.
</event>
<event>
 5   0  0.9750757E-05  0.2325053E+04  0.7818609E-02  0.8468108E-01
        2   -1    0    0  501    0  0.00000000000E+00  0.00000000000E+00  0.61238582957E+03  0.61238582958E+03  0.25500000920E-02 0.  1.
       -2   -1    0    0    0  501  0.00000000000E+00  0.00000000000E+00 -0.22068896269E+04  0.22068896269E+04  0.25500000920E-02 0. -1.
    10030    2    1    2    0    0  0.00000000000E+00  0.00000000000E+00 -0.15945037974E+04  0.28192754565E+04  0.23250530617E+04 0.  0.
        2    1    3    3  502    0  0.28944772527E+03 -0.43872987946E+03 -0.20545842382E+04  0.21207499345E+04  0.25500000920E-02 0. -1.
       -2    1    3    3    0  502 -0.28944772527E+03  0.43872987946E+03  0.46008044087E+03  0.69852552199E+03  0.25500000920E-02 0.  1.
</event>
<event>
 5   0  0.9750757E-05  0.2357673E+04  0.7818609E-02  0.8455522E-01
        2   -1    0    0  501    0  0.00000000000E+00  0.00000000000E+00  0.19254336333E+04  0.19254336333E+04  0.25500000920E-02 0.  1.
       -2   -1    0    0    0  501  0.00000000000E+00  0.00000000000E+00 -0.72173639995E+03  0.72173639995E+03  0.25500000920E-02 0. -1.
    10030    2    1    2    0    0  0.00000000000E+00  0.00000000000E+00  0.12036972333E+04  0.26471700332E+04  0.23576730382E+04 0.  0.
        2    1    3    3  502    0 -0.36616420922E+03  0.71760391253E+03 -0.36441834944E+03  0.88421283456E+03  0.25500000920E-02 0. -1.
       -2    1    3    3    0  502  0.36616420922E+03 -0.71760391253E+03  0.15681155828E+04  0.17629571987E+04  0.25500000920E-02 0.  1.
</event>
<event>
 5   0  0.9491680E-05  0.2425127E+04  0.7818609E-02  0.8430156E-01
        2   -1    0    0  501    0  0.00000000000E+00  0.00000000000E+00  0.19834234532E+04  0.19834234532E+04  0.25500000920E-02 0. -1.
       -2   -1    0    0    0  501  0.00000000000E+00  0.00000000000E+00 -0.74129916574E+03  0.74129916574E+03  0.25500000920E-02 0.  1.
    10030    2    1    2    0    0  0.00000000000E+00  0.00000000000E+00  0.12421242874E+04  0.27247226189E+04  0.24251269255E+04 0.  0.
        5    1    3    3  502    0  0.45260752536E+02  0.57600256761E+03  0.18188089160E+04  0.19083803228E+04  0.46999998093E+01 0. -1.
       -5    1    3    3    0  502 -0.45260752536E+02 -0.57600256761E+03 -0.57668462855E+03  0.81634229611E+03  0.46999998093E+01 0.  1.
</event>
<event>
 5   0  0.9144244E-05  0.2348054E+04  0.7818609E-02  0.8459212E-01
        2   -1    0    0  501    0  0.00000000000E+00  0.00000000000E+00  0.13284482013E+04  0.13284482013E+04  0.25500000920E-02 0. -1.
       -2   -1    0    0    0  501  0.00000000000E+00  0.00000000000E+00 -0.10375557642E+04  0.10375557642E+04  0.25500000920E-02 0.  1.
    10030    2    1    2    0    0  0.00000000000E+00  0.00000000000E+00  0.29089243711E+03  0.23660039655E+04  0.23480537377E+04 0.  0.
        1    1    3    3  502    0 -0.40323227422E+03 -0.39976925419E+03 -0.88999263846E+03  0.10556981671E+04  0.50400001928E-02 0.  1.
       -1    1    3    3    0  502  0.40323227422E+03  0.39976925419E+03  0.11808850756E+04  0.13103057984E+04  0.50400001928E-02 0. -1.
</event>
<event>
 5   0  0.9750757E-05  0.2286268E+04  0.7818609E-02  0.8483355E-01
       -2   -1    0    0    0  501  0.00000000000E+00  0.00000000000E+00  0.15353874518E+04  0.15353874518E+04  0.25500000920E-02 0. -1.
        2   -1    0    0  501    0  0.00000000000E+00  0.00000000000E+00 -0.85109189975E+03  0.85109189976E+03  0.25500000920E-02 0.  1.
    10030    2    1    2    0    0  0.00000000000E+00  0.00000000000E+00  0.68429555202E+03  0.23864793515E+04  0.22862684210E+04 0.  0.
        2    1    3    3  502    0 -0.60200432007E+03  0.79197405239E+03 -0.24567286022E+03  0.10246888578E+04  0.25500000920E-02 0. -1.
       -2    1    3    3    0  502  0.60200432007E+03 -0.79197405239E+03  0.92996841224E+03  0.13617904937E+04  0.25500000920E-02 0.  1.
</event>
<event>
 5   0  0.9144244E-05  0.2417581E+04  0.7818609E-02  0.8432951E-01
        2   -1    0    0  501    0  0.00000000000E+00  0.00000000000E+00  0.13802399058E+04  0.13802399058E+04  0.25500000920E-02 0. -1.
       -2   -1    0    0    0  501  0.00000000000E+00  0.00000000000E+00 -0.10586382980E+04  0.10586382981E+04  0.25500000920E-02 0.  1.
    10030    2    1    2    0    0  0.00000000000E+00  0.00000000000E+00  0.32160160771E+03  0.24388782038E+04  0.24175812911E+04 0.  0.
        1    1    3    3  502    0 -0.83060024306E+03  0.86494574824E+03  0.73194678006E+01  0.11992003527E+04  0.50400001928E-02 0.  1.
       -1    1    3    3    0  502  0.83060024306E+03 -0.86494574824E+03  0.31428213991E+03  0.12396778512E+04  0.50400001928E-02 0. -1.
</event>
<event>
 5   0  0.4260395E-05  0.2362128E+04  0.7818609E-02  0.8453820E-01
       -1   -1    0    0    0  501  0.00000000000E+00  0.00000000000E+00  0.12288318443E+04  0.12288318444E+04  0.50400001928E-02 0.  1.
        1   -1    0    0  501    0  0.00000000000E+00  0.00000000000E+00 -0.11351531601E+04  0.11351531602E+04  0.50400001928E-02 0. -1.
    10030    2    1    2    0    0  0.00000000000E+00  0.00000000000E+00  0.93678684198E+02  0.23639850045E+04  0.23621281518E+04 0.  0.
        4    1    3    3  502    0 -0.19597545727E+03 -0.11074346219E+04  0.40780683024E+03  0.11962967213E+04  0.12699999809E+01 0. -1.
       -4    1    3    3    0  502  0.19597545727E+03  0.11074346219E+04 -0.31412814604E+03  0.11676882832E+04  0.12699999809E+01 0.  1.
</event>
<event>
 5   0  0.4260395E-05  0.2268111E+04  0.7818609E-02  0.8490602E-01
       -1   -1    0    0    0  501  0.00000000000E+00  0.00000000000E+00  0.82025597112E+03  0.82025597114E+03  0.50400001928E-02 0.  1.
        1   -1    0    0  501    0  0.00000000000E+00  0.00000000000E+00 -0.15679030372E+04  0.15679030372E+04  0.50400001928E-02 0. -1.
    10030    2    1    2    0    0  0.00000000000E+00  0.00000000000E+00 -0.74764706607E+03  0.23881590083E+04  0.22681109571E+04 0.  0.
        4    1    3    3  502    0 -0.16365721225E+03  0.10835367124E+04 -0.66403120911E+02  0.10978371818E+04  0.12699999809E+01 0. -1.
       -4    1    3    3    0  502  0.16365721225E+03 -0.10835367124E+04 -0.68124394516E+03  0.12903218265E+04  0.12699999809E+01 0.  1.
</event>
<event>
 5   0  0.4260395E-05  0.2454716E+04  0.7818609E-02  0.8419298E-01
        1   -1    0    0  501    0  0.00000000000E+00  0.00000000000E+00  0.16667474814E+04  0.16667474814E+04  0.50400001928E-02 0. -1.
       -1   -1    0    0    0  501  0.00000000000E+00  0.00000000000E+00 -0.90380092334E+03  0.90380092335E+03  0.50400001928E-02 0.  1.
    10030    2    1    2    0    0  0.00000000000E+00  0.00000000000E+00  0.76294655806E+03  0.25705484048E+04  0.24547162057E+04 0.  0.
        4    1    3    3  502    0 -0.20798565335E+03 -0.11213824015E+04  0.85635846103E+03  0.14262215638E+04  0.12699999809E+01 0. -1.
       -4    1    3    3    0  502  0.20798565335E+03  0.11213824015E+04 -0.93411902973E+02  0.11443268409E+04  0.12699999809E+01 0.  1.
</event>
<event>
 5   0  0.9519092E-05  0.2449031E+04  0.7818609E-02  0.8421372E-01
       -2   -1    0    0    0  501  0.00000000000E+00  0.00000000000E+00  0.15111834229E+04  0.15111834229E+04  0.25500000920E-02 0.  1.
        2   -1    0    0  501    0  0.00000000000E+00  0.00000000000E+00 -0.99222759778E+03  0.99222759779E+03  0.25500000920E-02 0. -1.
    10030    2    1    2    0    0  0.00000000000E+00  0.00000000000E+00  0.51895582513E+03  0.25034110207E+04  0.24490307450E+04 0.  0.
        4    1    3    3  502    0  0.83947540074E+03 -0.56474674826E+03 -0.44560518614E+03  0.11055421443E+04  0.12699999809E+01 0. -1.
       -4    1    3    3    0  502 -0.83947540074E+03  0.56474674826E+03  0.96456101127E+03  0.13978688764E+04  0.12699999809E+01 0.  1.
</event>
<event>
 5   0  0.4018942E-05  0.2448057E+04  0.7818609E-02  0.8421728E-01
       -1   -1    0    0    0  501  0.00000000000E+00  0.00000000000E+00  0.17312223204E+04  0.17312223204E+04  0.50400001928E-02 0. -1.
        1   -1    0    0  501    0  0.00000000000E+00  0.00000000000E+00 -0.86542626302E+03  0.86542626303E+03  0.50400001928E-02 0.  1.
    10030    2    1    2    0    0  0.00000000000E+00  0.00000000000E+00  0.86579605736E+03  0.25966485834E+04  0.24480565869E+04 0.  0.
        5    1    3    3  502    0  0.35365735316E+03  0.58696533669E+03 -0.64287212726E+03  0.93963210456E+03  0.46999998093E+01 0.  1.
       -5    1    3    3    0  502 -0.35365735316E+03 -0.58696533669E+03  0.15086681846E+04  0.16570164789E+04  0.46999998093E+01 0. -1.
</event>
<event>
 5   0  0.3934906E-05  0.2344134E+04  0.7818609E-02  0.8460720E-01
       -1   -1    0    0    0  501  0.00000000000E+00  0.00000000000E+00  0.76135566001E+03  0.76135566003E+03  0.50400001928E-02 0.  1.
        1   -1    0    0  501    0  0.00000000000E+00  0.00000000000E+00 -0.18043349987E+04  0.18043349987E+04  0.50400001928E-02 0. -1.
    10030    2    1    2    0    0  0.00000000000E+00  0.00000000000E+00 -0.10429793386E+04  0.25656906587E+04  0.23441336684E+04 0.  0.
        2    1    3    3  502    0 -0.49326251629E+03  0.67453508357E+03 -0.14210157449E+04  0.16485118247E+04  0.25500000920E-02 0. -1.
       -2    1    3    3    0  502  0.49326251629E+03 -0.67453508357E+03  0.37803640630E+03  0.91717883395E+03  0.25500000920E-02 0.  1.
</event>
<event>
 5   0  0.4260395E-05  0.2380435E+04  0.7818609E-02  0.8446865E-01
        1   -1    0    0  501    0  0.00000000000E+00  0.00000000000E+00  0.87611651356E+03  0.87611651358E+03  0.50400001928E-02 0.  1.
       -1   -1    0    0    0  501  0.00000000000E+00  0.00000000000E+00 -0.16169287629E+04  0.16169287629E+04  0.50400001928E-02 0. -1.
    10030    2    1    2    0    0  0.00000000000E+00  0.00000000000E+00 -0.74081224930E+03  0.24930452764E+04  0.23804352463E+04 0.  0.
        4    1    3    3  502    0 -0.80451653195E+03 -0.62827437327E+03  0.27062830009E+03  0.10560382701E+04  0.12699999809E+01 0.  1.
       -4    1    3    3    0  502  0.80451653195E+03  0.62827437327E+03 -0.10114405494E+04  0.14370070063E+04  0.12699999809E+01 0. -1.
</event>
<event>
 5   0  0.4260395E-05  0.2156943E+04  0.7818609E-02  0.8536566E-01
        1   -1    0    0  501    0  0.00000000000E+00  0.00000000000E+00  0.25842443426E+04  0.25842443426E+04  0.50400001928E-02 0. -1.
       -1   -1    0    0    0  501  0.00000000000E+00  0.00000000000E+00 -0.45007384407E+03  0.45007384410E+03  0.50400001928E-02 0.  1.
    10030    2    1    2    0    0  0.00000000000E+00  0.00000000000E+00  0.21341704985E+04  0.30343181867E+04  0.21569430084E+04 0.  0.
        4    1    3    3  502    0  0.84560266156E+03  0.45658081197E+03  0.37850250506E+03  0.10328483230E+04  0.12699999809E+01 0.  1.
       -4    1    3    3    0  502 -0.84560266156E+03 -0.45658081197E+03  0.17556679935E+04  0.20014698637E+04  0.12699999809E+01 0. -1.
</event>
<event>
 5   0  0.9182865E-05  0.2411386E+04  0.7818609E-02  0.8435253E-01
       -2   -1    0    0    0  501  0.00000000000E+00  0.00000000000E+00  0.87265533428E+03  0.87265533428E+03  0.25500000920E-02 0. -1.
        2   -1    0    0  501    0  0.00000000000E+00  0.00000000000E+00 -0.16658304919E+04  0.16658304919E+04  0.25500000920E-02 0.  1.
    10030    2    1    2    0    0  0.00000000000E+00  0.00000000000E+00 -0.79317515766E+03  0.25384858262E+04  0.24113862111E+04 0.  0.
        3    1    3    3  502    0  0.43570588641E+03 -0.42607703728E+02  0.78603092665E+03  0.89972199247E+03  0.10100000352E+00 0. -1.
       -3    1    3    3    0  502 -0.43570588641E+03  0.42607703728E+02 -0.15792060843E+04  0.16387638337E+04  0.10100000352E+00 0.  1.
</event>
<event>
 5   0  0.3934906E-05  0.2344137E+04  0.7818609E-02  0.8460719E-01
       -1   -1    0    0    0  501  0.00000000000E+00  0.00000000000E+00  0.63993591042E+03  0.63993591044E+03  0.50400001928E-02 0.  1.
        1   -1    0    0  501    0  0.00000000000E+00  0.00000000000E+00 -0.21466904956E+04  0.21466904956E+04  0.50400001928E-02 0. -1.
    10030    2    1    2    0    0  0.00000000000E+00  0.00000000000E+00 -0.15067545851E+04  0.27866264060E+04  0.23441368021E+04 0.  0.
        2    1    3    3  502    0  0.71283200055E+02 -0.45707817624E+03  0.52681909332E+03  0.70109921616E+03  0.25500000920E-02 0.  1.
       -2    1    3    3    0  502 -0.71283200055E+02  0.45707817624E+03 -0.20335736785E+04  0.20855271898E+04  0.25500000920E-02 0. -1.
</event>
<event>
 5   0  0.9182865E-05  0.1279090E+04  0.7818609E-02  0.9046313E-01
       -2   -1    0    0    0  501  0.00000000000E+00  0.00000000000E+00  0.20608963323E+03  0.20608963325E+03  0.25500000920E-02 0.  1.
        2   -1    0    0  501    0  0.00000000000E+00  0.00000000000E+00 -0.19846606028E+04  0.19846606028E+04  0.25500000920E-02 0. -1.
    10030    2    1    2    0    0  0.00000000000E+00  0.00000000000E+00 -0.17785709696E+04  0.21907502361E+04  0.12790902638E+04 0.  0.
        3    1    3    3  502    0 -0.40365725603E+03 -0.47784197446E+03 -0.11174456720E+04  0.12806080482E+04  0.10100000352E+00 0.  1.
       -3    1    3    3    0  502  0.40365725603E+03  0.47784197446E+03 -0.66112529753E+03  0.91014218787E+03  0.10100000352E+00 0. -1.
</event>
<event>
 5   0  0.4018942E-05  0.2383306E+04  0.7818609E-02  0.8445780E-01
        1   -1    0    0  501    0  0.00000000000E+00  0.00000000000E+00  0.18453768497E+04  0.18453768497E+04  0.50400001928E-02 0.  1.
       -1   -1    0    0    0  501  0.00000000000E+00  0.00000000000E+00 -0.76951027976E+03  0.76951027978E+03  0.50400001928E-02 0. -1.
    10030    2    1    2    0    0  0.00000000000E+00  0.00000000000E+00  0.10758665700E+04  0.26148871295E+04  0.23833056505E+04 0.  0.
        5    1    3    3  502    0 -0.57529764684E+03  0.10033705529E+04  0.85267815125E+03  0.14369418807E+04  0.46999998093E+01 0. -1.
       -5    1    3    3    0  502  0.57529764684E+03 -0.10033705529E+04  0.22318841872E+03  0.11779452488E+04  0.46999998093E+01 0.  1.
</event>
<event>
 5   0  0.9182865E-05  0.2527606E+04  0.7818609E-02  0.8393216E-01
        2   -1    0    0  501    0  0.00000000000E+00  0.00000000000E+00  0.30579953685E+04  0.30579953685E+04  0.25500000920E-02 0. -1.
       -2   -1    0    0    0  501  0.00000000000E+00  0.00000000000E+00 -0.52230219783E+03  0.52230219783E+03  0.25500000920E-02 0.  1.
    10030    2    1    2    0    0  0.00000000000E+00  0.00000000000E+00  0.25356931707E+04  0.35802975664E+04  0.25276057461E+04 0.  0.
        3    1    3    3  502    0 -0.40066258541E+03 -0.78529370628E+03 -0.14813790051E+02  0.88172340961E+03  0.10100000352E+00 0.  1.
       -3    1    3    3    0  502  0.40066258541E+03  0.78529370628E+03  0.25505069608E+04  0.26985741568E+04  0.10100000352E+00 0. -1.
</event>
<event>
 5   0  0.4061631E-05  0.2363501E+04  0.7818609E-02  0.8453296E-01
       -1   -1    0    0    0  501  0.00000000000E+00  0.00000000000E+00  0.90029817623E+03  0.90029817625E+03  0.50400001928E-02 0. -1.
        1   -1    0    0  501    0  0.00000000000E+00  0.00000000000E+00 -0.15511907744E+04  0.15511907744E+04  0.50400001928E-02 0.  1.
    10030    2    1    2    0    0  0.00000000000E+00  0.00000000000E+00 -0.65089259819E+03  0.24514889507E+04  0.23635009839E+04 0.  0.
        3    1    3    3  502    0  0.10792909253E+02 -0.11690354437E+04 -0.14647156738E+03  0.11782250574E+04  0.10100000352E+00 0. -1.
       -3    1    3    3    0  502 -0.10792909253E+02  0.11690354437E+04 -0.50442103081E+03  0.12732638933E+04  0.10100000352E+00 0.  1.
</event>
<event>
 5   0  0.4018942E-05  0.2451900E+04  0.7818609E-02  0.8420324E-01
        1   -1    0    0  501    0  0.00000000000E+00  0.00000000000E+00  0.17004194325E+04  0.17004194325E+04  0.50400001928E-02 0.  1.
       -1   -1    0    0    0  501  0.00000000000E+00  0.00000000000E+00 -0.88387250511E+03  0.88387250512E+03  0.50400001928E-02 0. -1.
    10030    2    1    2    0    0  0.00000000000E+00  0.00000000000E+00  0.81654692736E+03  0.25842919376E+04  0.24519004739E+04 0.  0.
        5    1    3    3  502    0 -0.32978396205E+03  0.10761878321E+04  0.92029636148E+03  0.14539275067E+04  0.46999998093E+01 0.  1.
       -5    1    3    3    0  502  0.32978396205E+03 -0.10761878321E+04 -0.10374943413E+03  0.11303644309E+04  0.46999998093E+01 0. -1.
</event>
<event>
 5   0  0.9491680E-05  0.2360494E+04  0.7818609E-02  0.8454444E-01
       -2   -1    0    0    0  501  0.00000000000E+00  0.00000000000E+00  0.80146343274E+03  0.80146343275E+03  0.25500000920E-02 0. -1.
        2   -1    0    0  501    0  0.00000000000E+00  0.00000000000E+00 -0.17380497359E+04  0.17380497359E+04  0.25500000920E-02 0.  1.
    10030    2    1    2    0    0  0.00000000000E+00  0.00000000000E+00 -0.93658630314E+03  0.25395131686E+04  0.23604942767E+04 0.  0.
        5    1    3    3  502    0  0.24773519368E+03  0.90568605185E+03 -0.12375908721E+04  0.15534777782E+04  0.46999998093E+01 0.  1.
       -5    1    3    3    0  502 -0.24773519368E+03 -0.90568605185E+03  0.30100456892E+03  0.98603539045E+03  0.46999998093E+01 0. -1.
</event>
<event>
 5   0  0.4061631E-05  0.2402837E+04  0.7818609E-02  0.8438442E-01
       -1   -1    0    0    0  501  0.00000000000E+00  0.00000000000E+00  0.77249894254E+03  0.77249894255E+03  0.50400001928E-02 0. -1.
        1   -1    0    0  501    0  0.00000000000E+00  0.00000000000E+00 -0.18684893590E+04  0.18684893590E+04  0.50400001928E-02 0.  1.
    10030    2    1    2    0    0  0.00000000000E+00  0.00000000000E+00 -0.10959904165E+04  0.26409883016E+04  0.24028367019E+04 0.  0.
        3    1    3    3  502    0  0.49657946054E+03  0.83908260119E+03  0.22354374967E+03  0.10003112468E+04  0.10100000352E+00 0. -1.
       -3    1    3    3    0  502 -0.49657946054E+03 -0.83908260119E+03 -0.13195341661E+04  0.16406770548E+04  0.10100000352E+00 0.  1.
</event>
<event>
 5   0  0.3934906E-05  0.2238550E+04  0.7818609E-02  0.8502552E-01
        1   -1    0    0  501    0  0.00000000000E+00  0.00000000000E+00  0.91694248319E+03  0.91694248320E+03  0.50400001928E-02 0. -1.
       -1   -1    0    0    0  501  0.00000000000E+00  0.00000000000E+00 -0.13662540887E+04  0.13662540887E+04  0.50400001928E-02 0.  1.
    10030    2    1    2    0    0  0.00000000000E+00  0.00000000000E+00 -0.44931160554E+03  0.22831965719E+04  0.22385499028E+04 0.  0.
        2    1    3    3  502    0 -0.55925724373E+03  0.96932506272E+03 -0.24547553813E+03  0.11456954140E+04  0.25500000920E-02 0.  1.
       -2    1    3    3    0  502  0.55925724373E+03 -0.96932506272E+03 -0.20383606741E+03  0.11375011579E+04  0.25500000920E-02 0. -1.
</event>
<event>
 5   0  0.9750757E-05  0.2264622E+04  0.7818609E-02  0.8492002E-01
       -2   -1    0    0    0  501  0.00000000000E+00  0.00000000000E+00  0.11192923840E+04  0.11192923841E+04  0.25500000920E-02 0.  1.
        2   -1    0    0  501    0  0.00000000000E+00  0.00000000000E+00 -0.11454806495E+04  0.11454806495E+04  0.25500000920E-02 0. -1.
    10030    2    1    2    0    0  0.00000000000E+00  0.00000000000E+00 -0.26188265485E+02  0.22647730336E+04  0.22646216171E+04 0.  0.
        2    1    3    3  502    0 -0.82298210099E+03 -0.56832378709E+03  0.51782393153E+03  0.11262473483E+04  0.25500000920E-02 0.  1.
       -2    1    3    3    0  502  0.82298210099E+03  0.56832378709E+03 -0.54401219701E+03  0.11385256853E+04  0.25500000920E-02 0. -1.
</event>
<event>
 5   0  0.9750757E-05  0.2421735E+04  0.7818609E-02  0.8431411E-01
        2   -1    0    0  501    0  0.00000000000E+00  0.00000000000E+00  0.22173170592E+04  0.22173170592E+04  0.25500000920E-02 0. -1.
       -2   -1    0    0    0  501  0.00000000000E+00  0.00000000000E+00 -0.66124984455E+03  0.66124984456E+03  0.25500000920E-02 0.  1.
    10030    2    1    2    0    0  0.00000000000E+00  0.00000000000E+00  0.15560672146E+04  0.28785669037E+04  0.24217353784E+04 0.  0.
        2    1    3    3  502    0  0.10313098582E+04 -0.51790268833E+03  0.34230841961E+03  0.12037434412E+04  0.25500000920E-02 0. -1.
       -2    1    3    3    0  502 -0.10313098582E+04  0.51790268833E+03  0.12137587950E+04  0.16748234625E+04  0.25500000920E-02 0.  1.
</event>
<event>
 5   0  0.9519092E-05  0.2450807E+04  0.7818609E-02  0.8420723E-01
       -2   -1    0    0    0  501  0.00000000000E+00  0.00000000000E+00  0.12727137064E+04  0.12727137064E+04  0.25500000920E-02 0. -1.
        2   -1    0    0  501    0  0.00000000000E+00  0.00000000000E+00 -0.11798519182E+04  0.11798519182E+04  0.25500000920E-02 0.  1.
    10030    2    1    2    0    0  0.00000000000E+00  0.00000000000E+00  0.92861788179E+02  0.24525656247E+04  0.24508069756E+04 0.  0.
        4    1    3    3  502    0 -0.58335627119E+03  0.58106266917E+03  0.95464686917E+03  0.12606707034E+04  0.12699999809E+01 0. -1.
       -4    1    3    3    0  502  0.58335627119E+03 -0.58106266917E+03 -0.86178508099E+03  0.11918949213E+04  0.12699999809E+01 0.  1.
</event>
<event>
 5   0  0.9144244E-05  0.2397800E+04  0.7818609E-02  0.8440328E-01
        2   -1    0    0  501    0  0.00000000000E+00  0.00000000000E+00  0.10518750552E+04  0.10518750552E+04  0.25500000920E-02 0.  1.
       -2   -1    0    0    0  501  0.00000000000E+00  0.00000000000E+00 -0.13664755078E+04  0.13664755078E+04  0.25500000920E-02 0. -1.
    10030    2    1    2    0    0  0.00000000000E+00  0.00000000000E+00 -0.31460045259E+03  0.24183505630E+04  0.23978002421E+04 0.  0.
        1    1    3    3  502    0  0.10655117883E+04  0.46863375279E+03 -0.44686454601E+03  0.12468443719E+04  0.50400001928E-02 0. -1.
       -1    1    3    3    0  502 -0.10655117883E+04 -0.46863375279E+03  0.13226409342E+03  0.11715061911E+04  0.50400001928E-02 0.  1.
</event>
<event>
 5   0  0.3934906E-05  0.2370980E+04  0.7818609E-02  0.8450449E-01
        1   -1    0    0  501    0  0.00000000000E+00  0.00000000000E+00  0.64397674879E+03  0.64397674881E+03  0.50400001928E-02 0.  1.
       -1   -1    0    0    0  501  0.00000000000E+00  0.00000000000E+00 -0.21823568098E+04  0.21823568098E+04  0.50400001928E-02 0. -1.
    10030    2    1    2    0    0  0.00000000000E+00  0.00000000000E+00 -0.15383800610E+04  0.28263335586E+04  0.23709804243E+04 0.  0.
        2    1    3    3  502    0  0.97715002464E+02 -0.65180257175E+03 -0.19438260766E+04  0.20525239659E+04  0.25500000920E-02 0. -1.
       -2    1    3    3    0  502 -0.97715002464E+02  0.65180257175E+03  0.40544601562E+03  0.77380959275E+03  0.25500000920E-02 0.  1.
</event>
<event>
 5   0  0.9519092E-05  0.2235498E+04  0.7818609E-02  0.8503797E-01
       -2   -1    0    0    0  501  0.00000000000E+00  0.00000000000E+00  0.88418627237E+03  0.88418627238E+03  0.25500000920E-02 0.  1.
        2   -1    0    0  501    0  0.00000000000E+00  0.00000000000E+00 -0.14130086201E+04  0.14130086201E+04  0.25500000920E-02 0. -1.
    10030    2    1    2    0    0  0.00000000000E+00  0.00000000000E+00 -0.52882234770E+03  0.22971948924E+04  0.22354979979E+04 0.  0.
        4    1    3    3  502    0 -0.43896161926E+03 -0.48993830298E+03 -0.11930297847E+04  0.13623687181E+04  0.12699999809E+01 0. -1.
       -4    1    3    3    0  502  0.43896161926E+03  0.48993830298E+03  0.66420743704E+03  0.93482617434E+03  0.12699999809E+01 0.  1.
</event>
<event>
 5   0  0.9182865E-05  0.2293937E+04  0.7818609E-02  0.8480316E-01
        2   -1    0    0  501    0  0.00000000000E+00  0.00000000000E+00  0.11815125037E+04  0.11815125037E+04  0.25500000920E-02 0.  1.
       -2   -1    0    0    0  501  0.00000000000E+00  0.00000000000E+00 -0.11134344507E+04  0.11134344507E+04  0.25500000920E-02 0. -1.
    10030    2    1    2    0    0  0.00000000000E+00  0.00000000000E+00  0.68078052975E+02  0.22949469544E+04  0.22939369874E+04 0.  0.
        3    1    3    3  502    0 -0.56217623205E+03  0.97421445500E+03  0.25863908316E+03  0.11541360863E+04  0.10100000352E+00 0. -1.
       -3    1    3    3    0  502  0.56217623205E+03 -0.97421445500E+03 -0.19056103018E+03  0.11408108680E+04  0.10100000352E+00 0.  1.
</event>
<event>
 5   0  0.4061631E-05  0.2071893E+04  0.7818609E-02  0.8573727E-01
        1   -1    0    0  501    0  0.00000000000E+00  0.00000000000E+00  0.85329608478E+03  0.85329608480E+03  0.50400001928E-02 0.  1.
       -1   -1    0    0    0  501  0.00000000000E+00  0.00000000000E+00 -0.12576938873E+04  0.12576938873E+04  0.50400001928E-02 0. -1.
    10030    2    1    2    0    0  0.00000000000E+00  0.00000000000E+00 -0.40439780253E+03  0.21109899721E+04  0.20718931149E+04 0.  0.
        3    1    3    3  502    0  0.94329052441E+01 -0.30804220685E+03  0.80550756675E+03  0.86245082827E+03  0.10100000352E+00 0.  1.
       -3    1    3    3    0  502 -0.94329052441E+01  0.30804220685E+03 -0.12099053693E+04  0.12485391438E+04  0.10100000352E+00 0. -1.
</event>
<event>
 5   0  0.9491680E-05  0.2433775E+04  0.7818609E-02  0.8426966E-01
       -2   -1    0    0    0  501  0.00000000000E+00  0.00000000000E+00  0.10459663552E+04  0.10459663552E+04  0.25500000920E-02 0. -1.
        2   -1    0    0  501    0  0.00000000000E+00  0.00000000000E+00 -0.14157387429E+04  0.14157387429E+04  0.25500000920E-02 0.  1.
    10030    2    1    2    0    0  0.00000000000E+00  0.00000000000E+00 -0.36977238769E+03  0.24617050981E+04  0.24337749221E+04 0.  0.
        5    1    3    3  502    0 -0.23927582485E+03  0.96810473228E+03  0.52047845683E+03  0.11248998209E+04  0.46999998093E+01 0. -1.
       -5    1    3    3    0  502  0.23927582485E+03 -0.96810473228E+03 -0.89025084452E+03  0.13368052772E+04  0.46999998093E+01 0.  1.
</event>
<event>
 5   0  0.4260395E-05  0.1649752E+04  0.7818609E-02  0.8790553E-01
        1   -1    0    0  501    0  0.00000000000E+00  0.00000000000E+00  0.12960042974E+04  0.12960042974E+04  0.50400001928E-02 0.  1.
       -1   -1    0    0    0  501  0.00000000000E+00  0.00000000000E+00 -0.52501405390E+03  0.52501405392E+03  0.50400001928E-02 0. -1.
    10030    2    1    2    0    0  0.00000000000E+00  0.00000000000E+00  0.77099024351E+03  0.18210183513E+04  0.16497520663E+04 0.  0.
        4    1    3    3  502    0 -0.31732202188E+03 -0.58158061410E+03  0.92792654491E+03  0.11401660238E+04  0.12699999809E+01 0.  1.
       -4    1    3    3    0  502  0.31732202188E+03  0.58158061410E+03 -0.15693630140E+03  0.68085232750E+03  0.12699999809E+01 0. -1.
</event>
<event>
 5   0  0.9144244E-05  0.2407481E+04  0.7818609E-02  0.8436708E-01
        2   -1    0    0  501    0  0.00000000000E+00  0.00000000000E+00  0.20231544135E+04  0.20231544135E+04  0.25500000920E-02 0. -1.
       -2   -1    0    0    0  501  0.00000000000E+00  0.00000000000E+00 -0.71620418844E+03  0.71620418845E+03  0.25500000920E-02 0.  1.
    10030    2    1    2    0    0  0.00000000000E+00  0.00000000000E+00  0.13069502250E+04  0.27393586019E+04  0.24074813933E+04 0.  0.
        1    1    3    3  502    0  0.59577914444E+03 -0.16036751314E+03  0.18295550986E+04  0.19307880223E+04  0.50400001928E-02 0. -1.
       -1    1    3    3    0  502 -0.59577914444E+03  0.16036751314E+03 -0.52260487361E+03  0.80857057959E+03  0.50400001928E-02 0.  1.
</event>
<event>
 5   0  0.9750757E-05  0.2384982E+04  0.7818609E-02  0.8445147E-01
        2   -1    0    0  501    0  0.00000000000E+00  0.00000000000E+00  0.20070828617E+04  0.20070828617E+04  0.25500000920E-02 0. -1.
       -2   -1    0    0    0  501  0.00000000000E+00  0.00000000000E+00 -0.70850846269E+03  0.70850846269E+03  0.25500000920E-02 0.  1.
    10030    2    1    2    0    0  0.00000000000E+00  0.00000000000E+00  0.12985743990E+04  0.27155913244E+04  0.23849823419E+04 0.  0.
        2    1    3    3  502    0  0.91149748186E+03 -0.20943259144E+03 -0.19309664590E+03  0.95497433707E+03  0.25500000920E-02 0.  1.
       -2    1    3    3    0  502 -0.91149748186E+03  0.20943259144E+03  0.14916710449E+04  0.17606169873E+04  0.25500000920E-02 0. -1.
</event>
<event>
 5   0  0.4018942E-05  0.2265570E+04  0.7818609E-02  0.8491622E-01
        1   -1    0    0  501    0  0.00000000000E+00  0.00000000000E+00  0.96460180039E+03  0.96460180041E+03  0.50400001928E-02 0. -1.
       -1   -1    0    0    0  501  0.00000000000E+00  0.00000000000E+00 -0.13302912754E+04  0.13302912754E+04  0.50400001928E-02 0.  1.
    10030    2    1    2    0    0  0.00000000000E+00  0.00000000000E+00 -0.36568947496E+03  0.22948930758E+04  0.22655695613E+04 0.  0.
        5    1    3    3  502    0 -0.79205548395E+03  0.52357822236E+03  0.44296494746E+03  0.10477242382E+04  0.46999998093E+01 0. -1.
       -5    1    3    3    0  502  0.79205548395E+03 -0.52357822236E+03 -0.80865442242E+03  0.12471688376E+04  0.46999998093E+01 0.  1.
</event>
<event>
 5   0  0.9519092E-05  0.1529691E+04  0.7818609E-02  0.8864946E-01
        2   -1    0    0  501    0  0.00000000000E+00  0.00000000000E+00  0.14257797607E+04  0.14257797607E+04  0.25500000920E-02 0. -1.
       -2   -1    0    0    0  501  0.00000000000E+00  0.00000000000E+00 -0.41029367025E+03  0.41029367026E+03  0.25500000920E-02 0.  1.
    10030    2    1    2    0    0  0.00000000000E+00  0.00000000000E+00  0.10154860904E+04  0.18360734309E+04  0.15296907020E+04 0.  0.
        4    1    3    3  502    0 -0.32939695322E+03 -0.24545335639E+03 -0.26664173767E+03  0.48974394547E+03  0.12699999809E+01 0.  1.
       -4    1    3    3    0  502  0.32939695322E+03  0.24545335639E+03  0.12821278281E+04  0.13463294854E+04  0.12699999809E+01 0. -1.
</event>
<event>
 5   0  0.9491680E-05  0.2578637E+04  0.7818609E-02  0.8375494E-01
        2   -1    0    0  501    0  0.00000000000E+00  0.00000000000E+00  0.17721649438E+04  0.17721649438E+04  0.25500000920E-02 0. -1.
       -2   -1    0    0    0  501  0.00000000000E+00  0.00000000000E+00 -0.93802925140E+03  0.93802925140E+03  0.25500000920E-02 0.  1.
    10030    2    1    2    0    0  0.00000000000E+00  0.00000000000E+00  0.83413569243E+03  0.27101941952E+04  0.25786372801E+04 0.  0.
        5    1    3    3  502    0 -0.54387252067E+03 -0.72631638364E+03  0.13797611249E+04  0.16513920369E+04  0.46999998093E+01 0. -1.
       -5    1    3    3    0  502  0.54387252067E+03  0.72631638364E+03 -0.54562543245E+03  0.10588021583E+04  0.46999998093E+01 0.  1.
</event>
<event>
 5   0  0.4260395E-05  0.2317664E+04  0.7818609E-02  0.8470989E-01
       -1   -1    0    0    0  501  0.00000000000E+00  0.00000000000E+00  0.97599903571E+03  0.97599903573E+03  0.50400001928E-02 0.  1.
        1   -1    0    0  501    0  0.00000000000E+00  0.00000000000E+00 -0.13759153793E+04  0.13759153794E+04  0.50400001928E-02 0. -1.
    10030    2    1    2    0    0  0.00000000000E+00  0.00000000000E+00 -0.39991634363E+03  0.23519144151E+04  0.23176644136E+04 0.  0.
        4    1    3    3  502    0  0.11302552785E+04 -0.16694862204E+03 -0.33382384311E+01  0.11425242202E+04  0.12699999809E+01 0. -1.
       -4    1    3    3    0  502 -0.11302552785E+04  0.16694862204E+03 -0.39657810520E+03  0.12093901949E+04  0.12699999809E+01 0.  1.
</event>
<event>
 5   0  0.9182865E-05  0.2322053E+04  0.7818609E-02  0.8469276E-01
       -2   -1    0    0    0  501  0.00000000000E+00  0.00000000000E+00  0.59508894809E+03  0.59508894809E+03  0.25500000920E-02 0. -1.
        2   -1    0    0  501    0  0.00000000000E+00  0.00000000000E+00 -0.22651787425E+04  0.22651787425E+04  0.25500000920E-02 0.  1.
    10030    2    1    2    0    0  0.00000000000E+00  0.00000000000E+00 -0.16700897944E+04  0.28602676906E+04  0.23220532596E+04 0.  0.
        3    1    3    3  502    0  0.52787369375E+03 -0.10316032017E+04 -0.74684519477E+03  0.13786346715E+04  0.10100000352E+00 0. -1.
       -3    1    3    3    0  502 -0.52787369375E+03  0.10316032017E+04 -0.92324459961E+03  0.14816330191E+04  0.10100000352E+00 0.  1.
</event>
<event>
 5   0  0.3234750E-05  0.2330693E+04  0.7818609E-02  0.8465917E-01
       -3   -1    0    0    0  501  0.00000000000E+00  0.00000000000E+00  0.79692917790E+03  0.79692918430E+03  0.10100000352E+00 0.  1.
        3   -1    0    0  501    0  0.00000000000E+00  0.00000000000E+00 -0.17040811576E+04  0.17040811606E+04  0.10100000352E+00 0. -1.
    10030    2    1    2    0    0  0.00000000000E+00  0.00000000000E+00 -0.90715197971E+03  0.25010103449E+04  0.23306926076E+04 0.  0.
        2    1    3    3  502    0 -0.11418154065E+04 -0.20737964921E+03 -0.33959093654E+03  0.12091611744E+04  0.25500000920E-02 0.  1.
       -2    1    3    3    0  502  0.11418154065E+04  0.20737964921E+03 -0.56756104317E+03  0.12918491705E+04  0.25500000920E-02 0. -1.
</event>
<event>
 5   0  0.4061631E-05  0.2160950E+04  0.7818609E-02  0.8534859E-01
       -1   -1    0    0    0  501  0.00000000000E+00  0.00000000000E+00  0.75961532590E+03  0.75961532591E+03  0.50400001928E-02 0.  1.
        1   -1    0    0  501    0  0.00000000000E+00  0.00000000000E+00 -0.15368655011E+04  0.15368655011E+04  0.50400001928E-02 0. -1.
    10030    2    1    2    0    0  0.00000000000E+00  0.00000000000E+00 -0.77725017519E+03  0.22964808270E+04  0.21609503358E+04 0.  0.
        3    1    3    3  502    0  0.26978290385E+03  0.12846724622E+03 -0.14920825689E+04  0.15217085960E+04  0.10100000352E+00 0. -1.
       -3    1    3    3    0  502 -0.26978290385E+03 -0.12846724622E+03  0.71483239373E+03  0.77477223097E+03  0.10100000352E+00 0.  1.
</event>
<event>
 5   0  0.4061631E-05  0.1294164E+04  0.7818609E-02  0.9034206E-01
       -1   -1    0    0    0  501  0.00000000000E+00  0.00000000000E+00  0.26292172171E+03  0.26292172176E+03  0.50400001928E-02 0. -1.
        1   -1    0    0  501    0  0.00000000000E+00  0.00000000000E+00 -0.15925462328E+04  0.15925462328E+04  0.50400001928E-02 0.  1.
    10030    2    1    2    0    0  0.00000000000E+00  0.00000000000E+00 -0.13296245111E+04  0.18554679546E+04  0.12941638188E+04 0.  0.
        3    1    3    3  502    0  0.34724077785E+03  0.46897164556E+03 -0.10657527006E+04  0.12150470736E+04  0.10100000352E+00 0.  1.
       -3    1    3    3    0  502 -0.34724077785E+03 -0.46897164556E+03 -0.26387181050E+03  0.64042088092E+03  0.10100000352E+00 0. -1.
</event>
<event>
 5   0  0.4208577E-05  0.2308763E+04  0.7818609E-02  0.8474474E-01
        1   -1    0    0  501    0  0.00000000000E+00  0.00000000000E+00  0.19302168491E+04  0.19302168491E+04  0.50400001928E-02 0.  1.
       -1   -1    0    0    0  501  0.00000000000E+00  0.00000000000E+00 -0.69038682810E+03  0.69038682812E+03  0.50400001928E-02 0. -1.
    10030    2    1    2    0    0  0.00000000000E+00  0.00000000000E+00  0.12398300209E+04  0.26206036772E+04  0.23087626885E+04 0.  0.
        1    1    3    3  502    0  0.26501073584E+03  0.73284566507E+03 -0.34676277063E+03  0.85295830968E+03  0.50400001928E-02 0. -1.
       -1    1    3    3    0  502 -0.26501073584E+03 -0.73284566507E+03  0.15865927916E+04  0.17676453675E+04  0.50400001928E-02 0.  1.
</event>
<event>
 5   0  0.9182865E-05  0.2422621E+04  0.7818609E-02  0.8431083E-01
        2   -1    0    0  501    0  0.00000000000E+00  0.00000000000E+00  0.16681487183E+04  0.16681487183E+04  0.25500000920E-02 0. -1.
       -2   -1    0    0    0  501  0.00000000000E+00  0.00000000000E+00 -0.87958190027E+03  0.87958190027E+03  0.25500000920E-02 0.  1.
    10030    2    1    2    0    0  0.00000000000E+00  0.00000000000E+00  0.78856681802E+03  0.25477306186E+04  0.24226212412E+04 0.  0.
        3    1    3    3  502    0  0.11233091853E+04  0.43850308386E+03  0.27361954028E+03  0.12365177489E+04  0.10100000352E+00 0. -1.
       -3    1    3    3    0  502 -0.11233091853E+04 -0.43850308386E+03  0.51494727774E+03  0.13112128696E+04  0.10100000352E+00 0.  1.
</event>
<event>
 5   0  0.3234750E-05  0.2402118E+04  0.7818609E-02  0.8438711E-01
       -3   -1    0    0    0  501  0.00000000000E+00  0.00000000000E+00  0.83259357275E+03  0.83259357888E+03  0.10100000352E+00 0. -1.
        3   -1    0    0  501    0  0.00000000000E+00  0.00000000000E+00 -0.17325889743E+04  0.17325889772E+04  0.10100000352E+00 0.  1.
    10030    2    1    2    0    0  0.00000000000E+00  0.00000000000E+00 -0.89999540152E+03  0.25651825561E+04  0.24021177788E+04 0.  0.
        3    1    3    3  502    0  0.47899523846E+03 -0.57930446847E+03 -0.14503445223E+04  0.16335633900E+04  0.10100000352E+00 0.  1.
       -3    1    3    3    0  502 -0.47899523846E+03  0.57930446847E+03  0.55034912078E+03  0.93161916607E+03  0.10100000352E+00 0. -1.
</event>
<event>
 5   0  0.9182865E-05  0.2331492E+04  0.7818609E-02  0.8465607E-01
        2   -1    0    0  501    0  0.00000000000E+00  0.00000000000E+00  0.15325721254E+04  0.15325721254E+04  0.25500000920E-02 0. -1.
       -2   -1    0    0    0  501  0.00000000000E+00  0.00000000000E+00 -0.88672068699E+03  0.88672068699E+03  0.25500000920E-02 0.  1.
    10030    2    1    2    0    0  0.00000000000E+00  0.00000000000E+00  0.64585143841E+03  0.24192928124E+04  0.23314917181E+04 0.  0.
        3    1    3    3  502    0  0.40931184701E+03 -0.20799010881E+03  0.14348037510E+04  0.15064720002E+04  0.10100000352E+00 0. -1.
       -3    1    3    3    0  502 -0.40931184701E+03  0.20799010881E+03 -0.78895231255E+03  0.91282081218E+03  0.10100000352E+00 0.  1.
</event>
<event>
 5   0  0.9491680E-05  0.2312752E+04  0.7818609E-02  0.8472910E-01
       -2   -1    0    0    0  501  0.00000000000E+00  0.00000000000E+00  0.55321208994E+03  0.55321208995E+03  0.25500000920E-02 0.  1.
        2   -1    0    0  501    0  0.00000000000E+00  0.00000000000E+00 -0.24171650818E+04  0.24171650818E+04  0.25500000920E-02 0. -1.
    10030    2    1    2    0    0  0.00000000000E+00  0.00000000000E+00 -0.18639529918E+04  0.29703771717E+04  0.23127515618E+04 0.  0.
        5    1    3    3  502    0  0.71045125599E+03 -0.83150407812E+03 -0.44963110383E+03  0.11825101431E+04  0.46999998093E+01 0.  1.
       -5    1    3    3    0  502 -0.71045125599E+03  0.83150407812E+03 -0.14143218880E+04  0.17878670286E+04  0.46999998093E+01 0. -1.
</event>
<event>
 5   0  0.3934906E-05  0.2418850E+04  0.7818609E-02  0.8432480E-01
       -1   -1    0    0    0  501  0.00000000000E+00  0.00000000000E+00  0.14981293607E+04  0.14981293607E+04  0.50400001928E-02 0. -1.
        1   -1    0    0  501    0  0.00000000000E+00  0.00000000000E+00 -0.97635719041E+03  0.97635719042E+03  0.50400001928E-02 0.  1.
    10030    2    1    2    0    0  0.00000000000E+00  0.00000000000E+00  0.52177217028E+03  0.24744865511E+04  0.24188504489E+04 0.  0.
        2    1    3    3  502    0  0.82635054353E+03 -0.15798250217E+03 -0.62794564583E+03  0.10498235213E+04  0.25500000920E-02 0.  1.
       -2    1    3    3    0  502 -0.82635054353E+03  0.15798250217E+03  0.11497178161E+04  0.14246630298E+04  0.25500000920E-02 0. -1.
</event>
<event>
 5   0  0.4260395E-05  0.2415200E+04  0.7818609E-02  0.8433835E-01
       -1   -1    0    0    0  501  0.00000000000E+00  0.00000000000E+00  0.13255575412E+04  0.13255575413E+04  0.50400001928E-02 0.  1.
        1   -1    0    0  501    0  0.00000000000E+00  0.00000000000E+00 -0.11001395369E+04  0.11001395369E+04  0.50400001928E-02 0. -1.
    10030    2    1    2    0    0  0.00000000000E+00  0.00000000000E+00  0.22541800436E+03  0.24256970782E+04  0.24152004137E+04 0.  0.
        4    1    3    3  502    0  0.66649448903E+03 -0.23167173171E+03 -0.87155525972E+03  0.11213816829E+04  0.12699999809E+01 0. -1.
       -4    1    3    3    0  502 -0.66649448903E+03  0.23167173171E+03  0.10969732641E+04  0.13043153952E+04  0.12699999809E+01 0.  1.
</event>
<event>
 5   0  0.9750757E-05  0.2349128E+04  0.7818609E-02  0.8458799E-01
        2   -1    0    0  501    0  0.00000000000E+00  0.00000000000E+00  0.14763239717E+04  0.14763239717E+04  0.25500000920E-02 0.  1.
       -2   -1    0    0    0  501  0.00000000000E+00  0.00000000000E+00 -0.93448368193E+03  0.93448368193E+03  0.25500000920E-02 0. -1.
    10030    2    1    2    0    0  0.00000000000E+00  0.00000000000E+00  0.54184028980E+03  0.24108076537E+04  0.23491280602E+04 0.  0.
        2    1    3    3  502    0 -0.10231664234E+04  0.48712825578E+03  0.58796061135E+03  0.12766601537E+04  0.25500000920E-02 0.  1.
       -2    1    3    3    0  502  0.10231664234E+04 -0.48712825578E+03 -0.46120321550E+02  0.11341475000E+04  0.25500000920E-02 0. -1.
</event>
<event>
 5   0  0.9182865E-05  0.2395440E+04  0.7818609E-02  0.8441213E-01
       -2   -1    0    0    0  501  0.00000000000E+00  0.00000000000E+00  0.67661046955E+03  0.67661046956E+03  0.25500000920E-02 0. -1.
        2   -1    0    0  501    0  0.00000000000E+00  0.00000000000E+00 -0.21201764913E+04  0.21201764913E+04  0.25500000920E-02 0.  1.
    10030    2    1    2    0    0  0.00000000000E+00  0.00000000000E+00 -0.14435660218E+04  0.27967869609E+04  0.23954403448E+04 0.  0.
        3    1    3    3  502    0 -0.98650531175E+03 -0.61149104482E+03 -0.37657698577E+03  0.12202148436E+04  0.10100000352E+00 0.  1.
       -3    1    3    3    0  502  0.98650531175E+03  0.61149104482E+03 -0.10669890360E+04  0.15765721173E+04  0.10100000352E+00 0. -1.
</event>
<event>
 5   0  0.4208577E-05  0.2390459E+04  0.7818609E-02  0.8443084E-01
       -1   -1    0    0    0  501  0.00000000000E+00  0.00000000000E+00  0.14854592649E+04  0.14854592649E+04  0.50400001928E-02 0.  1.
        1   -1    0    0  501    0  0.00000000000E+00  0.00000000000E+00 -0.96170534187E+03  0.96170534188E+03  0.50400001928E-02 0. -1.
    10030    2    1    2    0    0  0.00000000000E+00  0.00000000000E+00  0.52375392303E+03  0.24471646068E+04  0.23904594623E+04 0.  0.
        1    1    3    3  502    0  0.38963375144E+03  0.95135113307E+03  0.88600347233E+03  0.13571608570E+04  0.50400001928E-02 0. -1.
       -1    1    3    3    0  502 -0.38963375144E+03 -0.95135113307E+03 -0.36224954930E+03  0.10900037498E+04  0.50400001928E-02 0.  1.
</event>
<event>
 5   0  0.9491680E-05  0.2243402E+04  0.7818609E-02  0.8500577E-01
       -2   -1    0    0    0  501  0.00000000000E+00  0.00000000000E+00  0.10314575263E+04  0.10314575263E+04  0.25500000920E-02 0.  1.
        2   -1    0    0  501    0  0.00000000000E+00  0.00000000000E+00 -0.12198400125E+04  0.12198400125E+04  0.25500000920E-02 0. -1.
    10030    2    1    2    0    0  0.00000000000E+00  0.00000000000E+00 -0.18838248618E+03  0.22512975388E+04  0.22434020253E+04 0.  0.
        5    1    3    3  502    0  0.18131615960E+03  0.75120454257E+03  0.72169367065E+03  0.10573777276E+04  0.46999998093E+01 0.  1.
       -5    1    3    3    0  502 -0.18131615960E+03 -0.75120454257E+03 -0.91007615683E+03  0.11939198113E+04  0.46999998093E+01 0. -1.
</event>
<event>
 5   0  0.4260395E-05  0.2381372E+04  0.7818609E-02  0.8446511E-01
        1   -1    0    0  501    0  0.00000000000E+00  0.00000000000E+00  0.11449983268E+04  0.11449983268E+04  0.50400001928E-02 0.  1.
       -1   -1    0    0    0  501  0.00000000000E+00  0.00000000000E+00 -0.12381971598E+04  0.12381971598E+04  0.50400001928E-02 0. -1.
    10030    2    1    2    0    0  0.00000000000E+00  0.00000000000E+00 -0.93198832978E+02  0.23831954866E+04  0.23813724415E+04 0.  0.
        4    1    3    3  502    0  0.67761806432E+03 -0.49503883537E+03  0.79873792840E+03  0.11585394170E+04  0.12699999809E+01 0.  1.
       -4    1    3    3    0  502 -0.67761806432E+03  0.49503883537E+03 -0.89193676138E+03  0.12246560696E+04  0.12699999809E+01 0. -1.
</event>
<event>
 5   0  0.4018942E-05  0.2401720E+04  0.7818609E-02  0.8438860E-01
        1   -1    0    0  501    0  0.00000000000E+00  0.00000000000E+00  0.13898935101E+04  0.13898935101E+04  0.50400001928E-02 0. -1.
       -1   -1    0    0    0  501  0.00000000000E+00  0.00000000000E+00 -0.10375363184E+04  0.10375363184E+04  0.50400001928E-02 0.  1.
    10030    2    1    2    0    0  0.00000000000E+00  0.00000000000E+00  0.35235719173E+03  0.24274298286E+04  0.24017202131E+04 0.  0.
        5    1    3    3  502    0  0.64354118969E+03  0.56484197475E+03 -0.67476702252E+03  0.10901946358E+04  0.46999998093E+01 0.  1.
       -5    1    3    3    0  502 -0.64354118969E+03 -0.56484197475E+03  0.10271242142E+04  0.13372351928E+04  0.46999998093E+01 0. -1.
</event>
<event>
 5   0  0.9750757E-05  0.2391449E+04  0.7818609E-02  0.8442712E-01
       -2   -1    0    0    0  501  0.00000000000E+00  0.00000000000E+00  0.68085142193E+03  0.68085142194E+03  0.25500000920E-02 0. -1.
        2   -1    0    0  501    0  0.00000000000E+00  0.00000000000E+00 -0.20999553995E+04  0.20999553995E+04  0.25500000920E-02 0.  1.
    10030    2    1    2    0    0  0.00000000000E+00  0.00000000000E+00 -0.14191039776E+04  0.27808068214E+04  0.23914494515E+04 0.  0.
        2    1    3    3  502    0 -0.49772672566E+03 -0.40004601684E+03 -0.18850792531E+04  0.19902996004E+04  0.25500000920E-02 0.  1.
       -2    1    3    3    0  502  0.49772672566E+03  0.40004601684E+03  0.46597527554E+03  0.79050722100E+03  0.25500000920E-02 0. -1.
</event>
<event>
 5   0  0.4208577E-05  0.2336581E+04  0.7818609E-02  0.8463636E-01
       -1   -1    0    0    0  501  0.00000000000E+00  0.00000000000E+00  0.18823916250E+04  0.18823916250E+04  0.50400001928E-02 0.  1.
        1   -1    0    0  501    0  0.00000000000E+00  0.00000000000E+00 -0.72508957671E+03  0.72508957673E+03  0.50400001928E-02 0. -1.
    10030    2    1    2    0    0  0.00000000000E+00  0.00000000000E+00  0.11573020483E+04  0.26074812017E+04  0.23365808752E+04 0.  0.
        1    1    3    3  502    0 -0.91230776731E+02  0.10721570123E+04  0.70857393245E+02  0.10783619447E+04  0.50400001928E-02 0. -1.
       -1    1    3    3    0  502  0.91230776731E+02 -0.10721570123E+04  0.10864446551E+04  0.15291192570E+04  0.50400001928E-02 0.  1.
</event>
<event>
 5   0  0.3934906E-05  0.1234685E+04  0.7818609E-02  0.9083027E-01
        1   -1    0    0  501    0  0.00000000000E+00  0.00000000000E+00  0.75557565217E+03  0.75557565218E+03  0.50400001928E-02 0. -1.
       -1   -1    0    0    0  501  0.00000000000E+00  0.00000000000E+00 -0.50439912399E+03  0.50439912402E+03  0.50400001928E-02 0.  1.
    10030    2    1    2    0    0  0.00000000000E+00  0.00000000000E+00  0.25117652817E+03  0.12599747762E+04  0.12346848944E+04 0.  0.
        2    1    3    3  502    0 -0.26588985442E+03  0.30988600145E+03  0.59808940523E+03  0.72418069929E+03  0.25500000920E-02 0. -1.
       -2    1    3    3    0  502  0.26588985442E+03 -0.30988600145E+03 -0.34691287705E+03  0.53579407691E+03  0.25500000920E-02 0.  1.
</event>
<event>
 5   0  0.9491680E-05  0.2345991E+04  0.7818609E-02  0.8460005E-01
       -2   -1    0    0    0  501  0.00000000000E+00  0.00000000000E+00  0.21144648710E+04  0.21144648710E+04  0.25500000920E-02 0.  1.
        2   -1    0    0  501    0  0.00000000000E+00  0.00000000000E+00 -0.65071682358E+03  0.65071682359E+03  0.25500000920E-02 0. -1.
    10030    2    1    2    0    0  0.00000000000E+00  0.00000000000E+00  0.14637480474E+04  0.27651816946E+04  0.23459905067E+04 0.  0.
        5    1    3    3  502    0  0.77696448992E+03 -0.87680561044E+03  0.80094408026E+03  0.14191530597E+04  0.46999998093E+01 0.  1.
       -5    1    3    3    0  502 -0.77696448992E+03  0.87680561044E+03  0.66280396714E+03  0.13460286349E+04  0.46999998093E+01 0. -1.
</event>
<event>
 5   0  0.9519092E-05  0.2361384E+04  0.7818609E-02  0.8454104E-01
        2   -1    0    0  501    0  0.00000000000E+00  0.00000000000E+00  0.13762839442E+04  0.13762839442E+04  0.25500000920E-02 0.  1.
       -2   -1    0    0    0  501  0.00000000000E+00  0.00000000000E+00 -0.10128969388E+04  0.10128969389E+04  0.25500000920E-02 0. -1.
    10030    2    1    2    0    0  0.00000000000E+00  0.00000000000E+00  0.36338700538E+03  0.23891808831E+04  0.23613841654E+04 0.  0.
        4    1    3    3  502    0  0.11467895228E+03  0.43566551416E+03 -0.92251785174E+03  0.10266433178E+04  0.12699999809E+01 0. -1.
       -4    1    3    3    0  502 -0.11467895228E+03 -0.43566551416E+03  0.12859048571E+04  0.13625375653E+04  0.12699999809E+01 0.  1.
</event>
<event>
 5   0  0.3934906E-05  0.2413625E+04  0.7818609E-02  0.8434420E-01
       -1   -1    0    0    0  501  0.00000000000E+00  0.00000000000E+00  0.63023432293E+03  0.63023432295E+03  0.50400001928E-02 0.  1.
        1   -1    0    0  501    0  0.00000000000E+00  0.00000000000E+00 -0.23108811407E+04  0.23108811407E+04  0.50400001928E-02 0. -1.
    10030    2    1    2    0    0  0.00000000000E+00  0.00000000000E+00 -0.16806468178E+04  0.29411154637E+04  0.24136251665E+04 0.  0.
        2    1    3    3  502    0  0.37386782415E+03  0.11388265753E+04 -0.66932045185E+03  0.13728412093E+04  0.25500000920E-02 0. -1.
       -2    1    3    3    0  502 -0.37386782415E+03 -0.11388265753E+04 -0.10113263660E+04  0.15682742544E+04  0.25500000920E-02 0.  1.
</event>
<event>
 5   0  0.4061631E-05  0.2408202E+04  0.7818609E-02  0.8436439E-01
       -1   -1    0    0    0  501  0.00000000000E+00  0.00000000000E+00  0.15261133851E+04  0.15261133851E+04  0.50400001928E-02 0.  1.
        1   -1    0    0  501    0  0.00000000000E+00  0.00000000000E+00 -0.95003367702E+03  0.95003367703E+03  0.50400001928E-02 0. -1.
    10030    2    1    2    0    0  0.00000000000E+00  0.00000000000E+00  0.57607970811E+03  0.24761470622E+04  0.24082019108E+04 0.  0.
        3    1    3    3  502    0 -0.34528646533E+02  0.20354585913E+03  0.15077791049E+04  0.15218478845E+04  0.10100000352E+00 0.  1.
       -3    1    3    3    0  502  0.34528646533E+02 -0.20354585913E+03 -0.93169939682E+03  0.95429917763E+03  0.10100000352E+00 0. -1.
</event>
<event>
 5   0  0.3934906E-05  0.2427823E+04  0.7818609E-02  0.8429160E-01
       -1   -1    0    0    0  501  0.00000000000E+00  0.00000000000E+00  0.77466576830E+03  0.77466576831E+03  0.50400001928E-02 0.  1.
        1   -1    0    0  501    0  0.00000000000E+00  0.00000000000E+00 -0.19022160823E+04  0.19022160823E+04  0.50400001928E-02 0. -1.
    10030    2    1    2    0    0  0.00000000000E+00  0.00000000000E+00 -0.11275503140E+04  0.26768818506E+04  0.24278234556E+04 0.  0.
        2    1    3    3  502    0 -0.99921981136E+02  0.11266678233E+04 -0.77865416087E+02  0.11337670878E+04  0.25500000920E-02 0.  1.
       -2    1    3    3    0  502  0.99921981136E+02 -0.11266678233E+04 -0.10496848979E+04  0.15431147628E+04  0.25500000920E-02 0. -1.
</event>
<event>
 5   0  0.9182865E-05  0.2397574E+04  0.7818609E-02  0.8440412E-01
        2   -1    0    0  501    0  0.00000000000E+00  0.00000000000E+00  0.98347712131E+03  0.98347712132E+03  0.25500000920E-02 0.  1.
       -2   -1    0    0    0  501  0.00000000000E+00  0.00000000000E+00 -0.14612343938E+04  0.14612343938E+04  0.25500000920E-02 0. -1.
    10030    2    1    2    0    0  0.00000000000E+00  0.00000000000E+00 -0.47775727247E+03  0.24447115151E+04  0.23975742701E+04 0.  0.
        3    1    3    3  502    0 -0.99742793889E+03 -0.18470016622E+03 -0.89027640055E+03  0.13496550390E+04  0.10100000352E+00 0. -1.
       -3    1    3    3    0  502  0.99742793889E+03  0.18470016622E+03  0.41251912807E+03  0.10950564761E+04  0.10100000352E+00 0.  1.
</event>
<event>
 5   0  0.3234750E-05  0.2483982E+04  0.7818609E-02  0.8408714E-01
       -3   -1    0    0    0  501  0.00000000000E+00  0.00000000000E+00  0.66953344602E+03  0.66953345363E+03  0.10100000352E+00 0. -1.
        3   -1    0    0  501    0  0.00000000000E+00  0.00000000000E+00 -0.23039056262E+04  0.23039056285E+04  0.10100000352E+00 0.  1.
    10030    2    1    2    0    0  0.00000000000E+00  0.00000000000E+00 -0.16343721802E+04  0.29734390821E+04  0.24839821963E+04 0.  0.
        4    1    3    3  502    0 -0.75409248931E+02  0.53517381605E+03 -0.21557603379E+04  0.22224765051E+04  0.12699999809E+01 0.  1.
       -4    1    3    3    0  502  0.75409248931E+02 -0.53517381605E+03  0.52138815768E+03  0.75096257702E+03  0.12699999809E+01 0. -1.
</event>
<event>
 5   0  0.4260395E-05  0.2396079E+04  0.7818609E-02  0.8440973E-01
        1   -1    0    0  501    0  0.00000000000E+00  0.00000000000E+00  0.27028217102E+04  0.27028217102E+04  0.50400001928E-02 0.  1.
       -1   -1    0    0    0  501  0.00000000000E+00  0.00000000000E+00 -0.53103699299E+03  0.53103699302E+03  0.50400001928E-02 0. -1.
    10030    2    1    2    0    0  0.00000000000E+00  0.00000000000E+00  0.21717847172E+04  0.32338587032E+04  0.23960787246E+04 0.  0.
        4    1    3    3  502    0 -0.51430933244E+03 -0.93594791031E+03  0.18186696463E+04  0.21090456314E+04  0.12699999809E+01 0.  1.
       -4    1    3    3    0  502  0.51430933244E+03  0.93594791031E+03  0.35311507092E+03  0.11248130718E+04  0.12699999809E+01 0. -1.
</event>
<event>
 5   0  0.4061631E-05  0.1738550E+04  0.7818609E-02  0.8739678E-01
        1   -1    0    0  501    0  0.00000000000E+00  0.00000000000E+00  0.11699977600E+04  0.11699977600E+04  0.50400001928E-02 0.  1.
       -1   -1    0    0    0  501  0.00000000000E+00  0.00000000000E+00 -0.64584668661E+03  0.64584668663E+03  0.50400001928E-02 0. -1.
    10030    2    1    2    0    0  0.00000000000E+00  0.00000000000E+00  0.52415107338E+03  0.18158444466E+04  0.17385501737E+04 0.  0.
        3    1    3    3  502    0  0.59029515807E+03 -0.31485918275E+03 -0.31762697693E+03  0.74058867482E+03  0.10100000352E+00 0. -1.
       -3    1    3    3    0  502 -0.59029515807E+03  0.31485918275E+03  0.84177805031E+03  0.10752557718E+04  0.10100000352E+00 0.  1.
</event>
<event>
 5   0  0.9144244E-05  0.2255094E+04  0.7818609E-02  0.8495840E-01
       -2   -1    0    0    0  501  0.00000000000E+00  0.00000000000E+00  0.63554355378E+03  0.63554355378E+03  0.25500000920E-02 0.  1.
        2   -1    0    0  501    0  0.00000000000E+00  0.00000000000E+00 -0.20004327862E+04  0.20004327862E+04  0.25500000920E-02 0. -1.
    10030    2    1    2    0    0  0.00000000000E+00  0.00000000000E+00 -0.13648892325E+04  0.26359763400E+04  0.22550939334E+04 0.  0.
        1    1    3    3  502    0 -0.92563510606E+03 -0.59386168348E+03 -0.39164923093E+03  0.11674164504E+04  0.50400001928E-02 0. -1.
       -1    1    3    3    0  502  0.92563510606E+03  0.59386168348E+03 -0.97324000153E+03  0.14685598896E+04  0.50400001928E-02 0.  1.
</event>
<event>
 5   0  0.4208577E-05  0.2421737E+04  0.7818609E-02  0.8431410E-01
       -1   -1    0    0    0  501  0.00000000000E+00  0.00000000000E+00  0.11713601188E+04  0.11713601188E+04  0.50400001928E-02 0.  1.
        1   -1    0    0  501    0  0.00000000000E+00  0.00000000000E+00 -0.12517094770E+04  0.12517094770E+04  0.50400001928E-02 0. -1.
    10030    2    1    2    0    0  0.00000000000E+00  0.00000000000E+00 -0.80349358211E+02  0.24230695958E+04  0.24217370309E+04 0.  0.
        1    1    3    3  502    0 -0.20739747293E+03  0.10502389041E+04  0.52598745143E+03  0.11927607751E+04  0.50400001928E-02 0.  1.
       -1    1    3    3    0  502  0.20739747293E+03 -0.10502389041E+04 -0.60633680964E+03  0.12303088207E+04  0.50400001928E-02 0. -1.
</event>
<event>
 5   0  0.9182865E-05  0.2418821E+04  0.7818609E-02  0.8432491E-01
       -2   -1    0    0    0  501  0.00000000000E+00  0.00000000000E+00  0.11877648689E+04  0.11877648689E+04  0.25500000920E-02 0. -1.
        2   -1    0    0  501    0  0.00000000000E+00  0.00000000000E+00 -0.12314502707E+04  0.12314502707E+04  0.25500000920E-02 0.  1.
    10030    2    1    2    0    0  0.00000000000E+00  0.00000000000E+00 -0.43685401841E+02  0.24192151396E+04  0.24188206791E+04 0.  0.
        3    1    3    3  502    0 -0.80904836559E+03  0.72230135384E+03  0.51340329255E+03  0.11999422714E+04  0.10100000352E+00 0. -1.
       -3    1    3    3    0  502  0.80904836559E+03 -0.72230135384E+03 -0.55708869440E+03  0.12192728683E+04  0.10100000352E+00 0.  1.
</event>
<event>
 5   0  0.9182865E-05  0.2401722E+04  0.7818609E-02  0.8438859E-01
        2   -1    0    0  501    0  0.00000000000E+00  0.00000000000E+00  0.60064849614E+03  0.60064849615E+03  0.25500000920E-02 0.  1.
       -2   -1    0    0    0  501  0.00000000000E+00  0.00000000000E+00 -0.24008503305E+04  0.24008503305E+04  0.25500000920E-02 0. -1.
    10030    2    1    2    0    0  0.00000000000E+00  0.00000000000E+00 -0.18002018344E+04  0.30014988266E+04  0.24017219993E+04 0.  0.
        3    1    3    3  502    0 -0.10084405842E+04  0.22798013840E+02 -0.85766362240E+02  0.10123379082E+04  0.10100000352E+00 0.  1.
       -3    1    3    3    0  502  0.10084405842E+04 -0.22798013840E+02 -0.17144354721E+04  0.19891609185E+04  0.10100000352E+00 0. -1.
</event>
<event>
 5   0  0.9519092E-05  0.1687643E+04  0.7818609E-02  0.8768444E-01
        2   -1    0    0  501    0  0.00000000000E+00  0.00000000000E+00  0.15015220823E+04  0.15015220823E+04  0.25500000920E-02 0.  1.
       -2   -1    0    0    0  501  0.00000000000E+00  0.00000000000E+00 -0.47420860062E+03  0.47420860063E+03  0.25500000920E-02 0. -1.
    10030    2    1    2    0    0  0.00000000000E+00  0.00000000000E+00  0.10273134817E+04  0.19757306829E+04  0.16876429545E+04 0.  0.
        4    1    3    3  502    0 -0.17978667178E+03  0.34317789746E+03 -0.36393326064E+03  0.53154806721E+03  0.12699999809E+01 0. -1.
       -4    1    3    3    0  502  0.17978667178E+03 -0.34317789746E+03  0.13912467423E+04  0.14441826157E+04  0.12699999809E+01 0.  1.
</event>
<event>
 5   0  0.4018942E-05  0.2298922E+04  0.7818609E-02  0.8478346E-01
       -1   -1    0    0    0  501  0.00000000000E+00  0.00000000000E+00  0.13500775365E+04  0.13500775366E+04  0.50400001928E-02 0.  1.
        1   -1    0    0  501    0  0.00000000000E+00  0.00000000000E+00 -0.97865539847E+03  0.97865539848E+03  0.50400001928E-02 0. -1.
    10030    2    1    2    0    0  0.00000000000E+00  0.00000000000E+00  0.37142213808E+03  0.23287329350E+04  0.22989220687E+04 0.  0.
        5    1    3    3  502    0 -0.43985779394E+03 -0.10419006163E+04  0.39381806568E+03  0.11975585715E+04  0.46999998093E+01 0.  1.
       -5    1    3    3    0  502  0.43985779394E+03  0.10419006163E+04 -0.22395927604E+02  0.11311743636E+04  0.46999998093E+01 0. -1.
</event>
<event>
 5   0  0.9519092E-05  0.2386551E+04  0.7818609E-02  0.8444556E-01
       -2   -1    0    0    0  501  0.00000000000E+00  0.00000000000E+00  0.77750075619E+03  0.77750075620E+03  0.25500000920E-02 0.  1.
        2   -1    0    0  501    0  0.00000000000E+00  0.00000000000E+00 -0.18313891993E+04  0.18313891993E+04  0.25500000920E-02 0. -1.
    10030    2    1    2    0    0  0.00000000000E+00  0.00000000000E+00 -0.10538884431E+04  0.26088899555E+04  0.23865510574E+04 0.  0.
        4    1    3    3  502    0 -0.10813901470E+04  0.50390513906E+03 -0.55326734140E+03  0.13150784779E+04  0.12699999809E+01 0. -1.
       -4    1    3    3    0  502  0.10813901470E+04 -0.50390513906E+03 -0.50062110171E+03  0.12938114776E+04  0.12699999809E+01 0.  1.
</event>
<event>
 5   0  0.4018942E-05  0.2381715E+04  0.7818609E-02  0.8446381E-01
       -1   -1    0    0    0  501  0.00000000000E+00  0.00000000000E+00  0.12241819940E+04  0.12241819940E+04  0.50400001928E-02 0. -1.
        1   -1    0    0  501    0  0.00000000000E+00  0.00000000000E+00 -0.11584404028E+04  0.11584404028E+04  0.50400001928E-02 0.  1.
    10030    2    1    2    0    0  0.00000000000E+00  0.00000000000E+00  0.65741591252E+02  0.23826223968E+04  0.23817152494E+04 0.  0.
        5    1    3    3  502    0  0.29506587392E+03  0.65949036169E+03 -0.91413033940E+03  0.11651814342E+04  0.46999998093E+01 0.  1.
       -5    1    3    3    0  502 -0.29506587392E+03 -0.65949036169E+03  0.97987193065E+03  0.12174409627E+04  0.46999998093E+01 0. -1.
</event>
<event>
 5   0  0.9144244E-05  0.2488830E+04  0.7818609E-02  0.8406976E-01
        2   -1    0    0  501    0  0.00000000000E+00  0.00000000000E+00  0.18420782975E+04  0.18420782975E+04  0.25500000920E-02 0.  1.
       -2   -1    0    0    0  501  0.00000000000E+00  0.00000000000E+00 -0.84066414843E+03  0.84066414843E+03  0.25500000920E-02 0. -1.
    10030    2    1    2    0    0  0.00000000000E+00  0.00000000000E+00  0.10014141491E+04  0.26827424459E+04  0.24888303946E+04 0.  0.
        1    1    3    3  502    0  0.82578021818E+03 -0.83621821320E+02  0.15001268746E+04  0.17144346641E+04  0.50400001928E-02 0.  1.
       -1    1    3    3    0  502 -0.82578021818E+03  0.83621821320E+02 -0.49871272549E+03  0.96830778182E+03  0.50400001928E-02 0. -1.
</event>
<event>
 5   0  0.3934906E-05  0.2486481E+04  0.7818609E-02  0.8407818E-01
        1   -1    0    0  501    0  0.00000000000E+00  0.00000000000E+00  0.86448559274E+03  0.86448559275E+03  0.50400001928E-02 0. -1.
       -1   -1    0    0    0  501  0.00000000000E+00  0.00000000000E+00 -0.17879386932E+04  0.17879386932E+04  0.50400001928E-02 0.  1.
    10030    2    1    2    0    0  0.00000000000E+00  0.00000000000E+00 -0.92345310042E+03  0.26524242859E+04  0.24864812414E+04 0.  0.
        2    1    3    3  502    0 -0.84859521208E+03 -0.51864621875E+03 -0.12575299825E+04  0.16032745838E+04  0.25500000920E-02 0.  1.
       -2    1    3    3    0  502  0.84859521208E+03  0.51864621875E+03  0.33407688212E+03  0.10491497021E+04  0.25500000920E-02 0. -1.
</event>
<event>
 5   0  0.9491680E-05  0.2389861E+04  0.7818609E-02  0.8443309E-01
       -2   -1    0    0    0  501  0.00000000000E+00  0.00000000000E+00  0.73344561783E+03  0.73344561784E+03  0.25500000920E-02 0. -1.
        2   -1    0    0  501    0  0.00000000000E+00  0.00000000000E+00 -0.19467815494E+04  0.19467815494E+04  0.25500000920E-02 0.  1.
    10030    2    1    2    0    0  0.00000000000E+00  0.00000000000E+00 -0.12133359316E+04  0.26802271673E+04  0.23898605786E+04 0.  0.
        5    1    3    3  502    0 -0.73590235706E+03  0.70179428970E+03 -0.13104200462E+04  0.16587013871E+04  0.46999998093E+01 0.  1.
       -5    1    3    3    0  502  0.73590235706E+03 -0.70179428970E+03  0.97084114607E+02  0.10215257801E+04  0.46999998093E+01 0. -1.
</event>
<event>
 5   0  0.4061631E-05  0.2266014E+04  0.7818609E-02  0.8491443E-01
       -1   -1    0    0    0  501  0.00000000000E+00  0.00000000000E+00  0.10749744254E+04  0.10749744254E+04  0.50400001928E-02 0. -1.
        1   -1    0    0  501    0  0.00000000000E+00  0.00000000000E+00 -0.11941726816E+04  0.11941726816E+04  0.50400001928E-02 0.  1.
    10030    2    1    2    0    0  0.00000000000E+00  0.00000000000E+00 -0.11919825617E+03  0.22691471070E+04  0.22660142032E+04 0.  0.
        3    1    3    3  502    0  0.56020262346E+03  0.35876606638E+03  0.85881937392E+03  0.10863290464E+04  0.10100000352E+00 0. -1.
       -3    1    3    3    0  502 -0.56020262346E+03 -0.35876606638E+03 -0.97801763009E+03  0.11828180607E+04  0.10100000352E+00 0.  1.
</event>
<event>
 5   0  0.4061631E-05  0.1798114E+04  0.7818609E-02  0.8707303E-01
        1   -1    0    0  501    0  0.00000000000E+00  0.00000000000E+00  0.72363643430E+03  0.72363643431E+03  0.50400001928E-02 0. -1.
       -1   -1    0    0    0  501  0.00000000000E+00  0.00000000000E+00 -0.11170023230E+04  0.11170023231E+04  0.50400001928E-02 0.  1.
    10030    2    1    2    0    0  0.00000000000E+00  0.00000000000E+00 -0.39336588874E+03  0.18406387574E+04  0.17981140989E+04 0.  0.
        3    1    3    3  502    0 -0.52500649420E+03 -0.48959936265E+03  0.35737935812E+03  0.80190982702E+03  0.10100000352E+00 0. -1.
       -3    1    3    3    0  502  0.52500649420E+03  0.48959936265E+03 -0.75074524686E+03  0.10387289303E+04  0.10100000352E+00 0.  1.
</event>
<event>
 5   0  0.3234750E-05  0.2386622E+04  0.7818609E-02  0.8444529E-01
        3   -1    0    0  501    0  0.00000000000E+00  0.00000000000E+00  0.22727700590E+04  0.22727700612E+04  0.10100000352E+00 0.  1.
       -3   -1    0    0    0  501  0.00000000000E+00  0.00000000000E+00 -0.62654443127E+03  0.62654443941E+03  0.10100000352E+00 0. -1.
    10030    2    1    2    0    0  0.00000000000E+00  0.00000000000E+00  0.16462256277E+04  0.28993145006E+04  0.23866222483E+04 0.  0.
        5    1    3    3  502    0  0.15654580932E+03  0.99623086615E+03  0.15981130152E+04  0.18897009891E+04  0.46999998093E+01 0.  1.
       -5    1    3    3    0  502 -0.15654580932E+03 -0.99623086615E+03  0.48112612520E+02  0.10096135115E+04  0.46999998093E+01 0. -1.
</event>
<event>
 5   0  0.4061631E-05  0.2400707E+04  0.7818609E-02  0.8439239E-01
        1   -1    0    0  501    0  0.00000000000E+00  0.00000000000E+00  0.14859978842E+04  0.14859978842E+04  0.50400001928E-02 0.  1.
       -1   -1    0    0    0  501  0.00000000000E+00  0.00000000000E+00 -0.96961712070E+03  0.96961712071E+03  0.50400001928E-02 0. -1.
    10030    2    1    2    0    0  0.00000000000E+00  0.00000000000E+00  0.51638076351E+03  0.24556150049E+04  0.24007073873E+04 0.  0.
        3    1    3    3  502    0  0.39068716023E+03  0.38133584551E+03 -0.83527568321E+03  0.99786720630E+03  0.10100000352E+00 0. -1.
       -3    1    3    3    0  502 -0.39068716023E+03 -0.38133584551E+03  0.13516564467E+04  0.14577477986E+04  0.10100000352E+00 0.  1.
</event>
<event>
 5   0  0.3934906E-05  0.2418370E+04  0.7818609E-02  0.8432658E-01
        1   -1    0    0  501    0  0.00000000000E+00  0.00000000000E+00  0.17600481439E+04  0.17600481439E+04  0.50400001928E-02 0. -1.
       -1   -1    0    0    0  501  0.00000000000E+00  0.00000000000E+00 -0.83073234130E+03  0.83073234131E+03  0.50400001928E-02 0.  1.
    10030    2    1    2    0    0  0.00000000000E+00  0.00000000000E+00  0.92931580257E+03  0.25907804852E+04  0.24183704558E+04 0.  0.
        2    1    3    3  502    0 -0.57245021243E+03 -0.10332372939E+04  0.18767071609E+03  0.11960346354E+04  0.25500000920E-02 0. -1.
       -2    1    3    3    0  502  0.57245021243E+03  0.10332372939E+04  0.74164508648E+03  0.13947458498E+04  0.25500000920E-02 0.  1.
</event>
<event>
 5   0  0.4018942E-05  0.2361138E+04  0.7818609E-02  0.8454198E-01
       -1   -1    0    0    0  501  0.00000000000E+00  0.00000000000E+00  0.13072819398E+04  0.13072819398E+04  0.50400001928E-02 0. -1.
        1   -1    0    0  501    0  0.00000000000E+00  0.00000000000E+00 -0.10661383038E+04  0.10661383038E+04  0.50400001928E-02 0.  1.
    10030    2    1    2    0    0  0.00000000000E+00  0.00000000000E+00  0.24114363598E+03  0.23734202436E+04  0.23611381576E+04 0.  0.
        5    1    3    3  502    0  0.73368259094E+03 -0.81374797480E+03  0.56245530014E+03  0.12316062542E+04  0.46999998093E+01 0. -1.
       -5    1    3    3    0  502 -0.73368259094E+03  0.81374797480E+03 -0.32131166416E+03  0.11418139893E+04  0.46999998093E+01 0.  1.
</event>
<event>
 5   0  0.9491680E-05  0.2344991E+04  0.7818609E-02  0.8460390E-01
       -2   -1    0    0    0  501  0.00000000000E+00  0.00000000000E+00  0.15445291085E+04  0.15445291085E+04  0.25500000920E-02 0. -1.
        2   -1    0    0  501    0  0.00000000000E+00  0.00000000000E+00 -0.89007401593E+03  0.89007401593E+03  0.25500000920E-02 0.  1.
    10030    2    1    2    0    0  0.00000000000E+00  0.00000000000E+00  0.65445509259E+03  0.24346031244E+04  0.23449905981E+04 0.  0.
        5    1    3    3  502    0 -0.11628100308E+03 -0.38656776230E+03 -0.81564202800E+03  0.91008236680E+03  0.46999998093E+01 0.  1.
       -5    1    3    3    0  502  0.11628100308E+03  0.38656776230E+03  0.14700971206E+04  0.15245207576E+04  0.46999998093E+01 0. -1.
</event>
<event>
 5   0  0.3234750E-05  0.2385685E+04  0.7818609E-02  0.8444882E-01
       -3   -1    0    0    0  501  0.00000000000E+00  0.00000000000E+00  0.11898672716E+04  0.11898672759E+04  0.10100000352E+00 0. -1.
        3   -1    0    0  501    0  0.00000000000E+00  0.00000000000E+00 -0.11958252328E+04  0.11958252371E+04  0.10100000352E+00 0.  1.
    10030    2    1    2    0    0  0.00000000000E+00  0.00000000000E+00 -0.59579612166E+01  0.23856925130E+04  0.23856850734E+04 0.  0.
        4    1    3    3  502    0 -0.76208831524E+03 -0.71535856930E+00 -0.92063787394E+03  0.11951379919E+04  0.12699999809E+01 0.  1.
       -4    1    3    3    0  502  0.76208831524E+03  0.71535856930E+00  0.91467991272E+03  0.11905545211E+04  0.12699999809E+01 0. -1.
</event>
<event>
 5   0  0.9144244E-05  0.2371648E+04  0.7818609E-02  0.8450195E-01
        2   -1    0    0  501    0  0.00000000000E+00  0.00000000000E+00  0.19903024126E+04  0.19903024126E+04  0.25500000920E-02 0. -1.
       -2   -1    0    0    0  501  0.00000000000E+00  0.00000000000E+00 -0.70651494524E+03  0.70651494524E+03  0.25500000920E-02 0.  1.
    10030    2    1    2    0    0  0.00000000000E+00  0.00000000000E+00  0.12837874673E+04  0.26968173578E+04  0.23716478660E+04 0.  0.
        1    1    3    3  502    0 -0.82326522575E+03  0.35804353856E+03  0.15228527163E+04  0.17677786069E+04  0.50400001928E-02 0. -1.
       -1    1    3    3    0  502  0.82326522575E+03 -0.35804353856E+03 -0.23906524895E+03  0.92903875093E+03  0.50400001928E-02 0.  1.
</event>
<event>
 5   0  0.4208577E-05  0.2384997E+04  0.7818609E-02  0.8445142E-01
        1   -1    0    0  501    0  0.00000000000E+00  0.00000000000E+00  0.11986266589E+04  0.11986266589E+04  0.50400001928E-02 0.  1.
       -1   -1    0    0    0  501  0.00000000000E+00  0.00000000000E+00 -0.11864013593E+04  0.11864013593E+04  0.50400001928E-02 0. -1.
    10030    2    1    2    0    0  0.00000000000E+00  0.00000000000E+00  0.12225299627E+02  0.23850280182E+04  0.23849966855E+04 0.  0.
        1    1    3    3  502    0  0.47829838317E+03  0.10829360455E+04  0.14940610700E+03  0.11932485101E+04  0.50400001928E-02 0. -1.
       -1    1    3    3    0  502 -0.47829838317E+03 -0.10829360455E+04 -0.13718080738E+03  0.11917795081E+04  0.50400001928E-02 0.  1.
</event>
<event>
 5   0  0.9519092E-05  0.1732845E+04  0.7818609E-02  0.8742850E-01
        2   -1    0    0  501    0  0.00000000000E+00  0.00000000000E+00  0.59584479326E+03  0.59584479326E+03  0.25500000920E-02 0. -1.
       -2   -1    0    0    0  501  0.00000000000E+00  0.00000000000E+00 -0.12598710315E+04  0.12598710315E+04  0.25500000920E-02 0.  1.
    10030    2    1    2    0    0  0.00000000000E+00  0.00000000000E+00 -0.66402623827E+03  0.18557158248E+04  0.17328445912E+04 0.  0.
        4    1    3    3  502    0 -0.41290171393E+03  0.67425910446E+03 -0.71150253968E+03  0.10636496802E+04  0.12699999809E+01 0.  1.
       -4    1    3    3    0  502  0.41290171393E+03 -0.67425910446E+03  0.47476301415E+02  0.79206614459E+03  0.12699999809E+01 0. -1.
</event>
<event>
 5   0  0.9182865E-05  0.2378096E+04  0.7818609E-02  0.8447750E-01
        2   -1    0    0  501    0  0.00000000000E+00  0.00000000000E+00  0.20254696602E+04  0.20254696602E+04  0.25500000920E-02 0. -1.
       -2   -1    0    0    0  501  0.00000000000E+00  0.00000000000E+00 -0.69802803805E+03  0.69802803805E+03  0.25500000920E-02 0.  1.
    10030    2    1    2    0    0  0.00000000000E+00  0.00000000000E+00  0.13274416222E+04  0.27234976983E+04  0.23780955515E+04 0.  0.
        3    1    3    3  502    0 -0.44749496796E+03  0.82659333912E+03  0.14977270472E+04  0.17682461969E+04  0.10100000352E+00 0. -1.
       -3    1    3    3    0  502  0.44749496796E+03 -0.82659333912E+03 -0.17028542510E+03  0.95525150134E+03  0.10100000352E+00 0.  1.
</event>
<event>
 5   0  0.4061631E-05  0.2482855E+04  0.7818609E-02  0.8409119E-01
       -1   -1    0    0    0  501  0.00000000000E+00  0.00000000000E+00  0.13496711975E+04  0.13496711975E+04  0.50400001928E-02 0. -1.
        1   -1    0    0  501    0  0.00000000000E+00  0.00000000000E+00 -0.11418647395E+04  0.11418647395E+04  0.50400001928E-02 0.  1.
    10030    2    1    2    0    0  0.00000000000E+00  0.00000000000E+00  0.20780645797E+03  0.24915359370E+04  0.24828547685E+04 0.  0.
        3    1    3    3  502    0 -0.33140437609E+03 -0.48960173596E+03  0.11993257688E+04  0.13371316429E+04  0.10100000352E+00 0. -1.
       -3    1    3    3    0  502  0.33140437609E+03  0.48960173596E+03 -0.99151931087E+03  0.11544042942E+04  0.10100000352E+00 0.  1.
</event>
<event>
 5   0  0.4018942E-05  0.2275426E+04  0.7818609E-02  0.8487674E-01
       -1   -1    0    0    0  501  0.00000000000E+00  0.00000000000E+00  0.14606377852E+04  0.14606377852E+04  0.50400001928E-02 0. -1.
        1   -1    0    0  501    0  0.00000000000E+00  0.00000000000E+00 -0.88618188059E+03  0.88618188060E+03  0.50400001928E-02 0.  1.
    10030    2    1    2    0    0  0.00000000000E+00  0.00000000000E+00  0.57445590458E+03  0.23468196658E+04  0.22754258848E+04 0.  0.
        5    1    3    3  502    0  0.49879166735E+03 -0.97541069291E+03 -0.29237304886E+02  0.10959452802E+04  0.46999998093E+01 0.  1.
       -5    1    3    3    0  502 -0.49879166735E+03  0.97541069291E+03  0.60369320946E+03  0.12508743855E+04  0.46999998093E+01 0. -1.
</event>
<event>
 5   0  0.4260395E-05  0.2424412E+04  0.7818609E-02  0.8430420E-01
       -1   -1    0    0    0  501  0.00000000000E+00  0.00000000000E+00  0.15376152489E+04  0.15376152489E+04  0.50400001928E-02 0.  1.
        1   -1    0    0  501    0  0.00000000000E+00  0.00000000000E+00 -0.95566374203E+03  0.95566374204E+03  0.50400001928E-02 0. -1.
    10030    2    1    2    0    0  0.00000000000E+00  0.00000000000E+00  0.58195150690E+03  0.24932789910E+04  0.24244117989E+04 0.  0.
        4    1    3    3  502    0 -0.11185267409E+03 -0.41076385430E+03 -0.87625504152E+03  0.97419837579E+03  0.12699999809E+01 0. -1.
       -4    1    3    3    0  502  0.11185267409E+03  0.41076385430E+03  0.14582065484E+04  0.15190806152E+04  0.12699999809E+01 0.  1.
</event>
<event>
 5   0  0.9491680E-05  0.2458482E+04  0.7818609E-02  0.8417928E-01
       -2   -1    0    0    0  501  0.00000000000E+00  0.00000000000E+00  0.97764907255E+03  0.97764907256E+03  0.25500000920E-02 0. -1.
        2   -1    0    0  501    0  0.00000000000E+00  0.00000000000E+00 -0.15455782257E+04  0.15455782257E+04  0.25500000920E-02 0.  1.
    10030    2    1    2    0    0  0.00000000000E+00  0.00000000000E+00 -0.56792915313E+03  0.25232272982E+04  0.24584817420E+04 0.  0.
        5    1    3    3  502    0  0.82428408274E+03 -0.78559831788E+03  0.19126544340E+03  0.11546486591E+04  0.46999998093E+01 0. -1.
       -5    1    3    3    0  502 -0.82428408274E+03  0.78559831788E+03 -0.75919459653E+03  0.13685786391E+04  0.46999998093E+01 0.  1.
</event>
<event>
 5   0  0.9750757E-05  0.2267512E+04  0.7818609E-02  0.8490842E-01
       -2   -1    0    0    0  501  0.00000000000E+00  0.00000000000E+00  0.69197894204E+03  0.69197894204E+03  0.25500000920E-02 0. -1.
        2   -1    0    0  501    0  0.00000000000E+00  0.00000000000E+00 -0.18575750677E+04  0.18575750677E+04  0.25500000920E-02 0.  1.
    10030    2    1    2    0    0  0.00000000000E+00  0.00000000000E+00 -0.11655961257E+04  0.25495540098E+04  0.22675121434E+04 0.  0.
        2    1    3    3  502    0  0.36974958856E+03  0.63803053554E+03 -0.15510780395E+04  0.17174518355E+04  0.25500000920E-02 0.  1.
       -2    1    3    3    0  502 -0.36974958856E+03 -0.63803053554E+03  0.38548191384E+03  0.83210217427E+03  0.25500000920E-02 0. -1.
</event>
<event>
 5   0  0.9182865E-05  0.2252715E+04  0.7818609E-02  0.8496802E-01
        2   -1    0    0  501    0  0.00000000000E+00  0.00000000000E+00  0.23047114356E+04  0.23047114356E+04  0.25500000920E-02 0. -1.
       -2   -1    0    0    0  501  0.00000000000E+00  0.00000000000E+00 -0.55047281354E+03  0.55047281354E+03  0.25500000920E-02 0.  1.
    10030    2    1    2    0    0  0.00000000000E+00  0.00000000000E+00  0.17542386221E+04  0.28551842492E+04  0.22527147963E+04 0.  0.
        3    1    3    3  502    0  0.74437286715E+03 -0.51207300683E+03  0.24656533440E+02  0.90383498744E+03  0.10100000352E+00 0.  1.
       -3    1    3    3    0  502 -0.74437286715E+03  0.51207300683E+03  0.17295820886E+04  0.19513492617E+04  0.10100000352E+00 0. -1.
</event>
<event>
 5   0  0.9750757E-05  0.2427484E+04  0.7818609E-02  0.8429285E-01
       -2   -1    0    0    0  501  0.00000000000E+00  0.00000000000E+00  0.98716096788E+03  0.98716096788E+03  0.25500000920E-02 0.  1.
        2   -1    0    0  501    0  0.00000000000E+00  0.00000000000E+00 -0.14923297144E+04  0.14923297144E+04  0.25500000920E-02 0. -1.
    10030    2    1    2    0    0  0.00000000000E+00  0.00000000000E+00 -0.50516874653E+03  0.24794906823E+04  0.24274840022E+04 0.  0.
        2    1    3    3  502    0  0.40444892686E+03  0.47573872180E+03  0.81051322005E+03  0.10231509887E+04  0.25500000920E-02 0.  1.
       -2    1    3    3    0  502 -0.40444892686E+03 -0.47573872180E+03 -0.13156819666E+04  0.14563396936E+04  0.25500000920E-02 0. -1.
</event>
<event>
 5   0  0.9182865E-05  0.2351657E+04  0.7818609E-02  0.8457827E-01
       -2   -1    0    0    0  501  0.00000000000E+00  0.00000000000E+00  0.71438826208E+03  0.71438826208E+03  0.25500000920E-02 0. -1.
        2   -1    0    0  501    0  0.00000000000E+00  0.00000000000E+00 -0.19353241582E+04  0.19353241582E+04  0.25500000920E-02 0.  1.
    10030    2    1    2    0    0  0.00000000000E+00  0.00000000000E+00 -0.12209358961E+04  0.26497124203E+04  0.23516571705E+04 0.  0.
        3    1    3    3  502    0 -0.16918513584E+03  0.10164005016E+04  0.27789008255E+02  0.10307598309E+04  0.10100000352E+00 0. -1.
       -3    1    3    3    0  502  0.16918513584E+03 -0.10164005016E+04 -0.12487249043E+04  0.16189525894E+04  0.10100000352E+00 0.  1.
</event>
<event>
 5   0  0.9491680E-05  0.2351795E+04  0.7818609E-02  0.8457774E-01
        2   -1    0    0  501    0  0.00000000000E+00  0.00000000000E+00  0.21753954735E+04  0.21753954735E+04  0.25500000920E-02 0. -1.
       -2   -1    0    0    0  501  0.00000000000E+00  0.00000000000E+00 -0.63562472335E+03  0.63562472335E+03  0.25500000920E-02 0.  1.
    10030    2    1    2    0    0  0.00000000000E+00  0.00000000000E+00  0.15397707502E+04  0.28110201969E+04  0.23517951833E+04 0.  0.
        5    1    3    3  502    0  0.94348435658E+03 -0.40267335249E+03  0.14569339509E+04  0.17818493727E+04  0.46999998093E+01 0. -1.
       -5    1    3    3    0  502 -0.94348435658E+03  0.40267335249E+03  0.82836799284E+02  0.10291708241E+04  0.46999998093E+01 0.  1.
</event>
<event>
 5   0  0.9519092E-05  0.1839829E+04  0.7818609E-02  0.8685401E-01
        2   -1    0    0  501    0  0.00000000000E+00  0.00000000000E+00  0.98689948318E+03  0.98689948318E+03  0.25500000920E-02 0.  1.
       -2   -1    0    0    0  501  0.00000000000E+00  0.00000000000E+00 -0.85747604252E+03  0.85747604253E+03  0.25500000920E-02 0. -1.
    10030    2    1    2    0    0  0.00000000000E+00  0.00000000000E+00  0.12942344066E+03  0.18443755257E+04  0.18398289738E+04 0.  0.
        4    1    3    3  502    0 -0.26877452910E+03  0.64283771292E+03 -0.53740636832E+03  0.87993595804E+03  0.12699999809E+01 0. -1.
       -4    1    3    3    0  502  0.26877452910E+03 -0.64283771292E+03  0.66682980898E+03  0.96443956767E+03  0.12699999809E+01 0.  1.
</event>
<event>
 5   0  0.9519092E-05  0.2357798E+04  0.7818609E-02  0.8455475E-01
       -2   -1    0    0    0  501  0.00000000000E+00  0.00000000000E+00  0.12679450880E+04  0.12679450880E+04  0.25500000920E-02 0. -1.
        2   -1    0    0  501    0  0.00000000000E+00  0.00000000000E+00 -0.10961063330E+04  0.10961063330E+04  0.25500000920E-02 0.  1.
    10030    2    1    2    0    0  0.00000000000E+00  0.00000000000E+00  0.17183875497E+03  0.23640514209E+04  0.23577978207E+04 0.  0.
        4    1    3    3  502    0 -0.32521854561E+03 -0.65756838830E+03  0.10112092446E+04  0.12492834094E+04  0.12699999809E+01 0. -1.
       -4    1    3    3    0  502  0.32521854561E+03  0.65756838830E+03 -0.83937048967E+03  0.11147680115E+04  0.12699999809E+01 0.  1.
</event>
<event>
 5   0  0.4208577E-05  0.1758352E+04  0.7818609E-02  0.8728766E-01
        1   -1    0    0  501    0  0.00000000000E+00  0.00000000000E+00  0.48940542799E+03  0.48940542802E+03  0.50400001928E-02 0. -1.
       -1   -1    0    0    0  501  0.00000000000E+00  0.00000000000E+00 -0.15793664488E+04  0.15793664488E+04  0.50400001928E-02 0.  1.
    10030    2    1    2    0    0  0.00000000000E+00  0.00000000000E+00 -0.10899610208E+04  0.20687718768E+04  0.17583520840E+04 0.  0.
        1    1    3    3  502    0 -0.60664796317E+03  0.49119280498E+02  0.20146544397E+03  0.64111058335E+03  0.50400001928E-02 0. -1.
       -1    1    3    3    0  502  0.60664796317E+03 -0.49119280498E+02 -0.12914264648E+04  0.14276612935E+04  0.50400001928E-02 0.  1.
</event>
<event>
 5   0  0.9750757E-05  0.2013692E+04  0.7818609E-02  0.8600246E-01
        2   -1    0    0  501    0  0.00000000000E+00  0.00000000000E+00  0.14326327826E+04  0.14326327826E+04  0.25500000920E-02 0. -1.
       -2   -1    0    0    0  501  0.00000000000E+00  0.00000000000E+00 -0.70760566891E+03  0.70760566891E+03  0.25500000920E-02 0.  1.
    10030    2    1    2    0    0  0.00000000000E+00  0.00000000000E+00  0.72502711372E+03  0.21402384515E+04  0.20136922093E+04 0.  0.
        2    1    3    3  502    0  0.56583087281E+03  0.33614944597E+03 -0.44732673311E+03  0.79577775340E+03  0.25500000920E-02 0.  1.
       -2    1    3    3    0  502 -0.56583087281E+03 -0.33614944597E+03  0.11723538468E+04  0.13444606981E+04  0.25500000920E-02 0. -1.
</event>
<event>
 5   0  0.4018942E-05  0.2453674E+04  0.7818609E-02  0.8419678E-01
       -1   -1    0    0    0  501  0.00000000000E+00  0.00000000000E+00  0.13035846863E+04  0.13035846863E+04  0.50400001928E-02 0. -1.
        1   -1    0    0  501    0  0.00000000000E+00  0.00000000000E+00 -0.11546079806E+04  0.11546079806E+04  0.50400001928E-02 0.  1.
    10030    2    1    2    0    0  0.00000000000E+00  0.00000000000E+00  0.14897670571E+03  0.24581926669E+04  0.24536742100E+04 0.  0.
        5    1    3    3  502    0  0.77713116624E+03 -0.17271575661E+03 -0.86068849390E+03  0.11724207247E+04  0.46999998093E+01 0.  1.
       -5    1    3    3    0  502 -0.77713116624E+03  0.17271575661E+03  0.10096651996E+04  0.12857719422E+04  0.46999998093E+01 0. -1.
</event>
<event>
 5   0  0.4208577E-05  0.2440789E+04  0.7818609E-02  0.8424389E-01
       -1   -1    0    0    0  501  0.00000000000E+00  0.00000000000E+00  0.10093939632E+04  0.10093939632E+04  0.50400001928E-02 0. -1.
        1   -1    0    0  501    0  0.00000000000E+00  0.00000000000E+00 -0.14755020727E+04  0.14755020727E+04  0.50400001928E-02 0.  1.
    10030    2    1    2    0    0  0.00000000000E+00  0.00000000000E+00 -0.46610810950E+03  0.24848960360E+04  0.24407891224E+04 0.  0.
        1    1    3    3  502    0  0.19842723253E+02 -0.80501764642E+03 -0.11666397850E+04  0.14175667648E+04  0.50400001928E-02 0.  1.
       -1    1    3    3    0  502 -0.19842723253E+02  0.80501764642E+03  0.70053167549E+03  0.10673292712E+04  0.50400001928E-02 0. -1.
</event>
<event>
 5   0  0.4018942E-05  0.2390613E+04  0.7818609E-02  0.8443026E-01
       -1   -1    0    0    0  501  0.00000000000E+00  0.00000000000E+00  0.10614231885E+04  0.10614231886E+04  0.50400001928E-02 0. -1.
        1   -1    0    0  501    0  0.00000000000E+00  0.00000000000E+00 -0.13460777764E+04  0.13460777764E+04  0.50400001928E-02 0.  1.
    10030    2    1    2    0    0  0.00000000000E+00  0.00000000000E+00 -0.28465458788E+03  0.24075009650E+04  0.23906134489E+04 0.  0.
        5    1    3    3  502    0  0.84195408681E+03 -0.46410645151E+03  0.57293964529E+03  0.11191797933E+04  0.46999998093E+01 0. -1.
       -5    1    3    3    0  502 -0.84195408681E+03  0.46410645151E+03 -0.85759423316E+03  0.12883211717E+04  0.46999998093E+01 0.  1.
</event>
<event>
 5   0  0.9144244E-05  0.2415413E+04  0.7818609E-02  0.8433756E-01
       -2   -1    0    0    0  501  0.00000000000E+00  0.00000000000E+00  0.13013701957E+04  0.13013701957E+04  0.25500000920E-02 0.  1.
        2   -1    0    0  501    0  0.00000000000E+00  0.00000000000E+00 -0.11207838299E+04  0.11207838299E+04  0.25500000920E-02 0. -1.
    10030    2    1    2    0    0  0.00000000000E+00  0.00000000000E+00  0.18058636573E+03  0.24221540256E+04  0.24154127366E+04 0.  0.
        1    1    3    3  502    0 -0.86626629844E+03  0.66825626604E+03  0.60316064512E+03  0.12493144123E+04  0.50400001928E-02 0.  1.
       -1    1    3    3    0  502  0.86626629844E+03 -0.66825626604E+03 -0.42257427939E+03  0.11728396133E+04  0.50400001928E-02 0. -1.
</event>
<event>
 5   0  0.9182865E-05  0.2400942E+04  0.7818609E-02  0.8439151E-01
       -2   -1    0    0    0  501  0.00000000000E+00  0.00000000000E+00  0.87052786851E+03  0.87052786852E+03  0.25500000920E-02 0.  1.
        2   -1    0    0  501    0  0.00000000000E+00  0.00000000000E+00 -0.16554671866E+04  0.16554671866E+04  0.25500000920E-02 0. -1.
    10030    2    1    2    0    0  0.00000000000E+00  0.00000000000E+00 -0.78493931811E+03  0.25259950551E+04  0.24009417497E+04 0.  0.
        3    1    3    3  502    0 -0.37962238750E+03  0.49619689407E+03 -0.14709496756E+04  0.15981293668E+04  0.10100000352E+00 0. -1.
       -3    1    3    3    0  502  0.37962238750E+03 -0.49619689407E+03  0.68601035749E+03  0.92786568832E+03  0.10100000352E+00 0.  1.
</event>
<event>
 5   0  0.9491680E-05  0.2237581E+04  0.7818609E-02  0.8502947E-01
        2   -1    0    0  501    0  0.00000000000E+00  0.00000000000E+00  0.25045380592E+04  0.25045380592E+04  0.25500000920E-02 0. -1.
       -2   -1    0    0    0  501  0.00000000000E+00  0.00000000000E+00 -0.49976951459E+03  0.49976951459E+03  0.25500000920E-02 0.  1.
    10030    2    1    2    0    0  0.00000000000E+00  0.00000000000E+00  0.20047685446E+04  0.30043075738E+04  0.22375806310E+04 0.  0.
        5    1    3    3  502    0  0.43697262308E+03 -0.78117248421E+03  0.10120689748E+03  0.90079989426E+03  0.46999998093E+01 0.  1.
       -5    1    3    3    0  502 -0.43697262308E+03  0.78117248421E+03  0.19035616471E+04  0.21035076795E+04  0.46999998093E+01 0. -1.
</event>
<event>
 5   0  0.4018942E-05  0.2364181E+04  0.7818609E-02  0.8453037E-01
       -1   -1    0    0    0  501  0.00000000000E+00  0.00000000000E+00  0.68159219062E+03  0.68159219064E+03  0.50400001928E-02 0.  1.
        1   -1    0    0  501    0  0.00000000000E+00  0.00000000000E+00 -0.20501081970E+04  0.20501081970E+04  0.50400001928E-02 0. -1.
    10030    2    1    2    0    0  0.00000000000E+00  0.00000000000E+00 -0.13685160064E+04  0.27317003877E+04  0.23641808197E+04 0.  0.
        5    1    3    3  502    0  0.49089643354E+03 -0.16790007960E+03  0.54299756073E+03  0.75102475735E+03  0.46999998093E+01 0.  1.
       -5    1    3    3    0  502 -0.49089643354E+03  0.16790007960E+03 -0.19115135671E+04  0.19806756303E+04  0.46999998093E+01 0. -1.
</event>
<event>
 5   0  0.9182865E-05  0.2395778E+04  0.7818609E-02  0.8441086E-01
       -2   -1    0    0    0  501  0.00000000000E+00  0.00000000000E+00  0.72886723132E+03  0.72886723133E+03  0.25500000920E-02 0. -1.
        2   -1    0    0  501    0  0.00000000000E+00  0.00000000000E+00 -0.19687234883E+04  0.19687234883E+04  0.25500000920E-02 0.  1.
    10030    2    1    2    0    0  0.00000000000E+00  0.00000000000E+00 -0.12398562569E+04  0.26975907196E+04  0.23957779848E+04 0.  0.
        3    1    3    3  502    0 -0.79310477065E+03 -0.27296028638E+03 -0.15828955145E+04  0.17913907209E+04  0.10100000352E+00 0.  1.
       -3    1    3    3    0  502  0.79310477065E+03  0.27296028638E+03  0.34303925752E+03  0.90619999866E+03  0.10100000352E+00 0. -1.
</event>
<event>
 5   0  0.9144244E-05  0.2374643E+04  0.7818609E-02  0.8449058E-01
       -2   -1    0    0    0  501  0.00000000000E+00  0.00000000000E+00  0.11334677617E+04  0.11334677617E+04  0.25500000920E-02 0.  1.
        2   -1    0    0  501    0  0.00000000000E+00  0.00000000000E+00 -0.12437336066E+04  0.12437336066E+04  0.25500000920E-02 0. -1.
    10030    2    1    2    0    0  0.00000000000E+00  0.00000000000E+00 -0.11026584488E+03  0.23772013683E+04  0.23746426655E+04 0.  0.
        1    1    3    3  502    0  0.79495577939E+03 -0.50428084219E+02  0.82628968380E+03  0.11477161341E+04  0.50400001928E-02 0.  1.
       -1    1    3    3    0  502 -0.79495577939E+03  0.50428084219E+02 -0.93655552869E+03  0.12294852342E+04  0.50400001928E-02 0. -1.
</event>
<event>
 5   0  0.9491680E-05  0.2457818E+04  0.7818609E-02  0.8418169E-01
       -2   -1    0    0    0  501  0.00000000000E+00  0.00000000000E+00  0.13792871949E+04  0.13792871949E+04  0.25500000920E-02 0.  1.
        2   -1    0    0  501    0  0.00000000000E+00  0.00000000000E+00 -0.10949263130E+04  0.10949263130E+04  0.25500000920E-02 0. -1.
    10030    2    1    2    0    0  0.00000000000E+00  0.00000000000E+00  0.28436088192E+03  0.24742135080E+04  0.24578184172E+04 0.  0.
        5    1    3    3  502    0 -0.97122923935E+03 -0.61548833330E+03  0.57875947685E+03  0.12872826985E+04  0.46999998093E+01 0.  1.
       -5    1    3    3    0  502  0.97122923935E+03  0.61548833330E+03 -0.29439859493E+03  0.11869308095E+04  0.46999998093E+01 0. -1.
</event>
<event>
 5   0  0.4018942E-05  0.1985037E+04  0.7818609E-02  0.8613649E-01
        1   -1    0    0  501    0  0.00000000000E+00  0.00000000000E+00  0.78667630537E+03  0.78667630539E+03  0.50400001928E-02 0.  1.
       -1   -1    0    0    0  501  0.00000000000E+00  0.00000000000E+00 -0.12522211532E+04  0.12522211532E+04  0.50400001928E-02 0. -1.
    10030    2    1    2    0    0  0.00000000000E+00  0.00000000000E+00 -0.46554484784E+03  0.20388974586E+04  0.19850367355E+04 0.  0.
        5    1    3    3  502    0 -0.45641847459E+03 -0.81833739460E+03  0.10333208250E+03  0.94270542834E+03  0.46999998093E+01 0. -1.
       -5    1    3    3    0  502  0.45641847459E+03  0.81833739460E+03 -0.56887693033E+03  0.10961920303E+04  0.46999998093E+01 0.  1.
</event>
<event>
 5   0  0.9182865E-05  0.2444151E+04  0.7818609E-02  0.8423157E-01
        2   -1    0    0  501    0  0.00000000000E+00  0.00000000000E+00  0.12536274811E+04  0.12536274811E+04  0.25500000920E-02 0. -1.
       -2   -1    0    0    0  501  0.00000000000E+00  0.00000000000E+00 -0.11913179587E+04  0.11913179587E+04  0.25500000920E-02 0.  1.
    10030    2    1    2    0    0  0.00000000000E+00  0.00000000000E+00  0.62309522398E+02  0.24449454399E+04  0.24441513307E+04 0.  0.
        3    1    3    3  502    0 -0.90630024931E+02 -0.11140252523E+04 -0.46317465033E+03  0.12098747171E+04  0.10100000352E+00 0.  1.
       -3    1    3    3    0  502  0.90630024931E+02  0.11140252523E+04  0.52548417273E+03  0.12350707228E+04  0.10100000352E+00 0. -1.
</event>
<event>
 5   0  0.9144244E-05  0.2291150E+04  0.7818609E-02  0.8481419E-01
       -2   -1    0    0    0  501  0.00000000000E+00  0.00000000000E+00  0.70745485900E+03  0.70745485901E+03  0.25500000920E-02 0. -1.
        2   -1    0    0  501    0  0.00000000000E+00  0.00000000000E+00 -0.18550188873E+04  0.18550188873E+04  0.25500000920E-02 0.  1.
    10030    2    1    2    0    0  0.00000000000E+00  0.00000000000E+00 -0.11475640283E+04  0.25624737463E+04  0.22911500390E+04 0.  0.
        1    1    3    3  502    0  0.10800574311E+04 -0.10427243232E+03 -0.16293056312E+03  0.10972434383E+04  0.50400001928E-02 0. -1.
       -1    1    3    3    0  502 -0.10800574311E+04  0.10427243232E+03 -0.98463346515E+03  0.14652303079E+04  0.50400001928E-02 0.  1.
</event>
<event>
 5   0  0.9519092E-05  0.2236821E+04  0.7818609E-02  0.8503257E-01
       -2   -1    0    0    0  501  0.00000000000E+00  0.00000000000E+00  0.63722222911E+03  0.63722222912E+03  0.25500000920E-02 0.  1.
        2   -1    0    0  501    0  0.00000000000E+00  0.00000000000E+00 -0.19629602420E+04  0.19629602420E+04  0.25500000920E-02 0. -1.
    10030    2    1    2    0    0  0.00000000000E+00  0.00000000000E+00 -0.13257380128E+04  0.26001824711E+04  0.22368208699E+04 0.  0.
        4    1    3    3  502    0  0.15187719990E+03 -0.74975862025E+03  0.28552957511E+03  0.81653746004E+03  0.12699999809E+01 0.  1.
       -4    1    3    3    0  502 -0.15187719990E+03  0.74975862025E+03 -0.16112675880E+04  0.17836450110E+04  0.12699999809E+01 0. -1.
</event>
<event>
 5   0  0.9144244E-05  0.2409377E+04  0.7818609E-02  0.8436001E-01
       -2   -1    0    0    0  501  0.00000000000E+00  0.00000000000E+00  0.17662053499E+04  0.17662053499E+04  0.25500000920E-02 0.  1.
        2   -1    0    0  501    0  0.00000000000E+00  0.00000000000E+00 -0.82169067798E+03  0.82169067798E+03  0.25500000920E-02 0. -1.
    10030    2    1    2    0    0  0.00000000000E+00  0.00000000000E+00  0.94451467195E+03  0.25878960279E+04  0.24093770742E+04 0.  0.
        1    1    3    3  502    0  0.51106305355E+02  0.87703154082E+03 -0.41312294259E+03  0.97080726396E+03  0.50400001928E-02 0. -1.
       -1    1    3    3    0  502 -0.51106305355E+02 -0.87703154082E+03  0.13576376145E+04  0.16170887640E+04  0.50400001928E-02 0.  1.
</event>
<event>
 5   0  0.9182865E-05  0.2300273E+04  0.7818609E-02  0.8477813E-01
       -2   -1    0    0    0  501  0.00000000000E+00  0.00000000000E+00  0.97272979754E+03  0.97272979754E+03  0.25500000920E-02 0.  1.
        2   -1    0    0  501    0  0.00000000000E+00  0.00000000000E+00 -0.13598992208E+04  0.13598992208E+04  0.25500000920E-02 0. -1.
    10030    2    1    2    0    0  0.00000000000E+00  0.00000000000E+00 -0.38716942330E+03  0.23326290184E+04  0.23002734566E+04 0.  0.
        3    1    3    3  502    0  0.26262054706E+03 -0.11006149276E+04 -0.40261938281E+03  0.12010100533E+04  0.10100000352E+00 0.  1.
       -3    1    3    3    0  502 -0.26262054706E+03  0.11006149276E+04  0.15449959514E+02  0.11316189650E+04  0.10100000352E+00 0. -1.
</event>
<event>
 5   0  0.9750757E-05  0.2422521E+04  0.7818609E-02  0.8431120E-01
       -2   -1    0    0    0  501  0.00000000000E+00  0.00000000000E+00  0.12144705319E+04  0.12144705319E+04  0.25500000920E-02 0. -1.
        2   -1    0    0  501    0  0.00000000000E+00  0.00000000000E+00 -0.12080592350E+04  0.12080592350E+04  0.25500000920E-02 0.  1.
    10030    2    1    2    0    0  0.00000000000E+00  0.00000000000E+00  0.64112969227E+01  0.24225297670E+04  0.24225212831E+04 0.  0.
        2    1    3    3  502    0  0.11093183244E+04  0.36352193226E+03 -0.31993168018E+03  0.12104096910E+04  0.25500000920E-02 0.  1.
       -2    1    3    3    0  502 -0.11093183244E+04 -0.36352193226E+03  0.32634297710E+03  0.12121200760E+04  0.25500000920E-02 0. -1.
</event>
<event>
 5   0  0.9144244E-05  0.2367319E+04  0.7818609E-02  0.8451841E-01
        2   -1    0    0  501    0  0.00000000000E+00  0.00000000000E+00  0.14209445159E+04  0.14209445159E+04  0.25500000920E-02 0. -1.
       -2   -1    0    0    0  501  0.00000000000E+00  0.00000000000E+00 -0.98599906950E+03  0.98599906950E+03  0.25500000920E-02 0.  1.
    10030    2    1    2    0    0  0.00000000000E+00  0.00000000000E+00  0.43494544636E+03  0.24069435854E+04  0.23673191339E+04 0.  0.
        1    1    3    3  502    0  0.74917403728E+03 -0.91049555761E+03  0.11187835456E+03  0.11843904191E+04  0.50400001928E-02 0.  1.
       -1    1    3    3    0  502 -0.74917403728E+03  0.91049555761E+03  0.32306709181E+03  0.12225531663E+04  0.50400001928E-02 0. -1.
</event>
<event>
 5   0  0.9750757E-05  0.2036006E+04  0.7818609E-02  0.8589969E-01
       -2   -1    0    0    0  501  0.00000000000E+00  0.00000000000E+00  0.10798465501E+04  0.10798465501E+04  0.25500000920E-02 0.  1.
        2   -1    0    0  501    0  0.00000000000E+00  0.00000000000E+00 -0.95970168036E+03  0.95970168037E+03  0.25500000920E-02 0. -1.
    10030    2    1    2    0    0  0.00000000000E+00  0.00000000000E+00  0.12014486976E+03  0.20395482305E+04  0.20360064329E+04 0.  0.
        2    1    3    3  502    0 -0.43107893314E+03  0.18000665193E+03 -0.84598930802E+03  0.96640020211E+03  0.25500000920E-02 0. -1.
       -2    1    3    3    0  502  0.43107893314E+03 -0.18000665193E+03  0.96613417778E+03  0.10731480284E+04  0.25500000920E-02 0.  1.
</event>
<event>
 5   0  0.4208577E-05  0.2427979E+04  0.7818609E-02  0.8429102E-01
        1   -1    0    0  501    0  0.00000000000E+00  0.00000000000E+00  0.18835829614E+04  0.18835829614E+04  0.50400001928E-02 0. -1.
       -1   -1    0    0    0  501  0.00000000000E+00  0.00000000000E+00 -0.78242921773E+03  0.78242921775E+03  0.50400001928E-02 0.  1.
    10030    2    1    2    0    0  0.00000000000E+00  0.00000000000E+00  0.11011537436E+04  0.26660121791E+04  0.24279788657E+04 0.  0.
        1    1    3    3  502    0 -0.10858050241E+04  0.40646932134E+03  0.94584065661E+03  0.14962634819E+04  0.50400001928E-02 0.  1.
       -1    1    3    3    0  502  0.10858050241E+04 -0.40646932134E+03  0.15531308702E+03  0.11697486972E+04  0.50400001928E-02 0. -1.
</event>
<event>
 5   0  0.3934906E-05  0.2355556E+04  0.7818609E-02  0.8456333E-01
        1   -1    0    0  501    0  0.00000000000E+00  0.00000000000E+00  0.92079846218E+03  0.92079846220E+03  0.50400001928E-02 0. -1.
       -1   -1    0    0    0  501  0.00000000000E+00  0.00000000000E+00 -0.15064759321E+04  0.15064759321E+04  0.50400001928E-02 0.  1.
    10030    2    1    2    0    0  0.00000000000E+00  0.00000000000E+00 -0.58567746987E+03  0.24272743943E+04  0.23555557489E+04 0.  0.
        2    1    3    3  502    0  0.38624556813E+03 -0.11118689641E+04 -0.25007222968E+03  0.12033180595E+04  0.25500000920E-02 0. -1.
       -2    1    3    3    0  502 -0.38624556813E+03  0.11118689641E+04 -0.33560524019E+03  0.12239563348E+04  0.25500000920E-02 0.  1.
</event>
<event>
 5   0  0.4260395E-05  0.2399770E+04  0.7818609E-02  0.8439590E-01
       -1   -1    0    0    0  501  0.00000000000E+00  0.00000000000E+00  0.17684899997E+04  0.17684899997E+04  0.50400001928E-02 0.  1.
        1   -1    0    0  501    0  0.00000000000E+00  0.00000000000E+00 -0.81409772995E+03  0.81409772997E+03  0.50400001928E-02 0. -1.
    10030    2    1    2    0    0  0.00000000000E+00  0.00000000000E+00  0.95439226971E+03  0.25825877296E+04  0.23997697341E+04 0.  0.
        4    1    3    3  502    0 -0.52216467276E+01 -0.44857731104E+03 -0.72045083540E+03  0.84870483014E+03  0.12699999809E+01 0. -1.
       -4    1    3    3    0  502  0.52216467276E+01  0.44857731104E+03  0.16748431051E+04  0.17338828995E+04  0.12699999809E+01 0.  1.
</event>
<event>
 5   0  0.4018942E-05  0.1833857E+04  0.7818609E-02  0.8688499E-01
        1   -1    0    0  501    0  0.00000000000E+00  0.00000000000E+00  0.13933337820E+04  0.13933337820E+04  0.50400001928E-02 0.  1.
       -1   -1    0    0    0  501  0.00000000000E+00  0.00000000000E+00 -0.60341423957E+03  0.60341423960E+03  0.50400001928E-02 0. -1.
    10030    2    1    2    0    0  0.00000000000E+00  0.00000000000E+00  0.78991954241E+03  0.19967480216E+04  0.18338565315E+04 0.  0.
        5    1    3    3  502    0  0.24146317950E+03 -0.41174527314E+03  0.12473756950E+04  0.13355923224E+04  0.46999998093E+01 0.  1.
       -5    1    3    3    0  502 -0.24146317950E+03  0.41174527314E+03 -0.45745615264E+03  0.66115569921E+03  0.46999998093E+01 0. -1.
</event>
<event>
 5   0  0.9182865E-05  0.2373056E+04  0.7818609E-02  0.8449660E-01
       -2   -1    0    0    0  501  0.00000000000E+00  0.00000000000E+00  0.91798221781E+03  0.91798221782E+03  0.25500000920E-02 0.  1.
        2   -1    0    0  501    0  0.00000000000E+00  0.00000000000E+00 -0.15336341128E+04  0.15336341128E+04  0.25500000920E-02 0. -1.
    10030    2    1    2    0    0  0.00000000000E+00  0.00000000000E+00 -0.61565189501E+03  0.24516163306E+04  0.23730561259E+04 0.  0.
        3    1    3    3  502    0 -0.27051507577E+03  0.25980229538E+03  0.85512791223E+03  0.93376624236E+03  0.10100000352E+00 0.  1.
       -3    1    3    3    0  502  0.27051507577E+03 -0.25980229538E+03 -0.14707798072E+04  0.15178500883E+04  0.10100000352E+00 0. -1.
</event>
<event>
 5   0  0.9182865E-05  0.2383035E+04  0.7818609E-02  0.8445882E-01
        2   -1    0    0  501    0  0.00000000000E+00  0.00000000000E+00  0.11154507010E+04  0.11154507010E+04  0.25500000920E-02 0. -1.
       -2   -1    0    0    0  501  0.00000000000E+00  0.00000000000E+00 -0.12727721025E+04  0.12727721025E+04  0.25500000920E-02 0.  1.
    10030    2    1    2    0    0  0.00000000000E+00  0.00000000000E+00 -0.15732140152E+03  0.23882228035E+04  0.23830354877E+04 0.  0.
        3    1    3    3  502    0 -0.93980400290E+03 -0.62061178067E+03 -0.46851129908E+03  0.12197923568E+04  0.10100000352E+00 0.  1.
       -3    1    3    3    0  502  0.93980400290E+03  0.62061178067E+03  0.31118989757E+03  0.11684304467E+04  0.10100000352E+00 0. -1.
</event>
<event>
 5   0  0.4061631E-05  0.2390387E+04  0.7818609E-02  0.8443111E-01
       -1   -1    0    0    0  501  0.00000000000E+00  0.00000000000E+00  0.98670776925E+03  0.98670776926E+03  0.50400001928E-02 0. -1.
        1   -1    0    0  501    0  0.00000000000E+00  0.00000000000E+00 -0.14477313884E+04  0.14477313884E+04  0.50400001928E-02 0.  1.
    10030    2    1    2    0    0  0.00000000000E+00  0.00000000000E+00 -0.46102361914E+03  0.24344391577E+04  0.23903872563E+04 0.  0.
        3    1    3    3  502    0  0.38135090007E+03  0.97774258038E+03 -0.81295934991E+03  0.13275209894E+04  0.10100000352E+00 0.  1.
       -3    1    3    3    0  502 -0.38135090007E+03 -0.97774258038E+03  0.35193573077E+03  0.11069181683E+04  0.10100000352E+00 0. -1.
</event>
<event>
 5   0  0.4260395E-05  0.2109925E+04  0.7818609E-02  0.8556884E-01
        1   -1    0    0  501    0  0.00000000000E+00  0.00000000000E+00  0.17801514837E+04  0.17801514837E+04  0.50400001928E-02 0. -1.
       -1   -1    0    0    0  501  0.00000000000E+00  0.00000000000E+00 -0.62519725922E+03  0.62519725924E+03  0.50400001928E-02 0.  1.
    10030    2    1    2    0    0  0.00000000000E+00  0.00000000000E+00  0.11549542245E+04  0.24053487430E+04  0.21099249547E+04 0.  0.
        4    1    3    3  502    0 -0.63530968833E+02  0.23909404645E+03  0.17466148155E+04  0.17640484896E+04  0.12699999809E+01 0. -1.
       -4    1    3    3    0  502  0.63530968833E+02 -0.23909404645E+03 -0.59166059103E+03  0.64130025334E+03  0.12699999809E+01 0.  1.
</event>
<event>
 5   0  0.4018942E-05  0.2479300E+04  0.7818609E-02  0.8410397E-01
       -1   -1    0    0    0  501  0.00000000000E+00  0.00000000000E+00  0.83226644495E+03  0.83226644496E+03  0.50400001928E-02 0. -1.
        1   -1    0    0  501    0  0.00000000000E+00  0.00000000000E+00 -0.18464424513E+04  0.18464424513E+04  0.50400001928E-02 0.  1.
    10030    2    1    2    0    0  0.00000000000E+00  0.00000000000E+00 -0.10141760063E+04  0.26787088963E+04  0.24792999776E+04 0.  0.
        5    1    3    3  502    0 -0.73196175450E+03 -0.60741939138E+03  0.35182538932E+03  0.10141644451E+04  0.46999998093E+01 0. -1.
       -5    1    3    3    0  502  0.73196175450E+03  0.60741939138E+03 -0.13660013957E+04  0.16645444512E+04  0.46999998093E+01 0.  1.
</event>
<event>
 5   0  0.9519092E-05  0.2467463E+04  0.7818609E-02  0.8414670E-01
        2   -1    0    0  501    0  0.00000000000E+00  0.00000000000E+00  0.14338000835E+04  0.14338000835E+04  0.25500000920E-02 0. -1.
       -2   -1    0    0    0  501  0.00000000000E+00  0.00000000000E+00 -0.10615798902E+04  0.10615798902E+04  0.25500000920E-02 0.  1.
    10030    2    1    2    0    0  0.00000000000E+00  0.00000000000E+00  0.37222019337E+03  0.24953799737E+04  0.24674629361E+04 0.  0.
        4    1    3    3  502    0 -0.42981295104E+03 -0.73319680260E+03 -0.71830949036E+03  0.11127833846E+04  0.12699999809E+01 0. -1.
       -4    1    3    3    0  502  0.42981295104E+03  0.73319680260E+03  0.10905296837E+04  0.13825965891E+04  0.12699999809E+01 0.  1.
</event>
<event>
 5   0  0.9519092E-05  0.2436826E+04  0.7818609E-02  0.8425844E-01
       -2   -1    0    0    0  501  0.00000000000E+00  0.00000000000E+00  0.66219776419E+03  0.66219776420E+03  0.25500000920E-02 0.  1.
        2   -1    0    0  501    0  0.00000000000E+00  0.00000000000E+00 -0.22418239571E+04  0.22418239571E+04  0.25500000920E-02 0. -1.
    10030    2    1    2    0    0  0.00000000000E+00  0.00000000000E+00 -0.15796261929E+04  0.29040217213E+04  0.24368264707E+04 0.  0.
        4    1    3    3  502    0  0.81341549442E+03 -0.87796636204E+03 -0.51790305123E+03  0.13041069292E+04  0.12699999809E+01 0. -1.
       -4    1    3    3    0  502 -0.81341549442E+03  0.87796636204E+03 -0.10617231417E+04  0.15999147921E+04  0.12699999809E+01 0.  1.
</event>
<event>
 5   0  0.9182865E-05  0.2018731E+04  0.7818609E-02  0.8597913E-01
       -2   -1    0    0    0  501  0.00000000000E+00  0.00000000000E+00  0.85086025412E+03  0.85086025412E+03  0.25500000920E-02 0.  1.
        2   -1    0    0  501    0  0.00000000000E+00  0.00000000000E+00 -0.11973980152E+04  0.11973980152E+04  0.25500000920E-02 0. -1.
    10030    2    1    2    0    0  0.00000000000E+00  0.00000000000E+00 -0.34653776108E+03  0.20482582693E+04  0.20187306700E+04 0.  0.
        3    1    3    3  502    0 -0.40036212718E+03  0.71438018230E+03 -0.77197564583E+03  0.11254222700E+04  0.10100000352E+00 0. -1.
       -3    1    3    3    0  502  0.40036212718E+03 -0.71438018230E+03  0.42543788475E+03  0.92283599937E+03  0.10100000352E+00 0.  1.
</event>
<event>
 5   0  0.4208577E-05  0.1543555E+04  0.7818609E-02  0.8855995E-01
        1   -1    0    0  501    0  0.00000000000E+00  0.00000000000E+00  0.14286867224E+04  0.14286867224E+04  0.50400001928E-02 0. -1.
       -1   -1    0    0    0  501  0.00000000000E+00  0.00000000000E+00 -0.41691492753E+03  0.41691492756E+03  0.50400001928E-02 0.  1.
    10030    2    1    2    0    0  0.00000000000E+00  0.00000000000E+00  0.10117717949E+04  0.18456016500E+04  0.15435554041E+04 0.  0.
        1    1    3    3  502    0 -0.14376468805E+03  0.58768734398E+03  0.10788112239E+04  0.12368825153E+04  0.50400001928E-02 0. -1.
       -1    1    3    3    0  502  0.14376468805E+03 -0.58768734398E+03 -0.67039429069E+02  0.60871913464E+03  0.50400001928E-02 0.  1.
</event>
<event>
 5   0  0.9519092E-05  0.2391912E+04  0.7818609E-02  0.8442538E-01
       -2   -1    0    0    0  501  0.00000000000E+00  0.00000000000E+00  0.97090802107E+03  0.97090802107E+03  0.25500000920E-02 0.  1.
        2   -1    0    0  501    0  0.00000000000E+00  0.00000000000E+00 -0.14731684155E+04  0.14731684155E+04  0.25500000920E-02 0. -1.
    10030    2    1    2    0    0  0.00000000000E+00  0.00000000000E+00 -0.50226039447E+03  0.24440764366E+04  0.23919122317E+04 0.  0.
        4    1    3    3  502    0  0.20261386543E+03  0.11241024985E+04 -0.61333303555E+03  0.12964712997E+04  0.12699999809E+01 0. -1.
       -4    1    3    3    0  502 -0.20261386543E+03 -0.11241024985E+04  0.11107264108E+03  0.11476051369E+04  0.12699999809E+01 0.  1.
</event>
<event>
 5   0  0.4260395E-05  0.2553542E+04  0.7818609E-02  0.8384155E-01
        1   -1    0    0  501    0  0.00000000000E+00  0.00000000000E+00  0.16211434768E+04  0.16211434769E+04  0.50400001928E-02 0. -1.
       -1   -1    0    0    0  501  0.00000000000E+00  0.00000000000E+00 -0.10055520551E+04  0.10055520552E+04  0.50400001928E-02 0.  1.
    10030    2    1    2    0    0  0.00000000000E+00  0.00000000000E+00  0.61559142171E+03  0.26266955320E+04  0.25535419753E+04 0.  0.
        4    1    3    3  502    0  0.22549099426E+03 -0.24995361461E+03 -0.95907907339E+03  0.10164434465E+04  0.12699999809E+01 0.  1.
       -4    1    3    3    0  502 -0.22549099426E+03  0.24995361461E+03  0.15746704951E+04  0.16102520855E+04  0.12699999809E+01 0. -1.
</event>
<event>
 5   0  0.9144244E-05  0.2441993E+04  0.7818609E-02  0.8423947E-01
       -2   -1    0    0    0  501  0.00000000000E+00  0.00000000000E+00  0.13753804352E+04  0.13753804352E+04  0.25500000920E-02 0.  1.
        2   -1    0    0  501    0  0.00000000000E+00  0.00000000000E+00 -0.10839420131E+04  0.10839420131E+04  0.25500000920E-02 0. -1.
    10030    2    1    2    0    0  0.00000000000E+00  0.00000000000E+00  0.29143842212E+03  0.24593224483E+04  0.24419931512E+04 0.  0.
        1    1    3    3  502    0  0.33304957160E+03  0.50541861296E+03  0.12136510852E+04  0.13562149343E+04  0.50400001928E-02 0.  1.
       -1    1    3    3    0  502 -0.33304957160E+03 -0.50541861296E+03 -0.92221266303E+03  0.11031075140E+04  0.50400001928E-02 0. -1.
</event>
<event>
 5   0  0.9491680E-05  0.2390334E+04  0.7818609E-02  0.8443131E-01
       -2   -1    0    0    0  501  0.00000000000E+00  0.00000000000E+00  0.11495137482E+04  0.11495137482E+04  0.25500000920E-02 0.  1.
        2   -1    0    0  501    0  0.00000000000E+00  0.00000000000E+00 -0.12426335068E+04  0.12426335068E+04  0.25500000920E-02 0. -1.
    10030    2    1    2    0    0  0.00000000000E+00  0.00000000000E+00 -0.93119758649E+02  0.23921472550E+04  0.23903341189E+04 0.  0.
        5    1    3    3  502    0 -0.83008421085E+03  0.19829381568E+03 -0.88387964000E+03  0.12286681987E+04  0.46999998093E+01 0. -1.
       -5    1    3    3    0  502  0.83008421085E+03 -0.19829381568E+03  0.79075988135E+03  0.11634790563E+04  0.46999998093E+01 0.  1.
</event>
<event>
 5   0  0.4208577E-05  0.2266188E+04  0.7818609E-02  0.8491373E-01
       -1   -1    0    0    0  501  0.00000000000E+00  0.00000000000E+00  0.14364396656E+04  0.14364396656E+04  0.50400001928E-02 0.  1.
        1   -1    0    0  501    0  0.00000000000E+00  0.00000000000E+00 -0.89380820187E+03  0.89380820188E+03  0.50400001928E-02 0. -1.
    10030    2    1    2    0    0  0.00000000000E+00  0.00000000000E+00  0.54263146375E+03  0.23302478675E+04  0.22661875956E+04 0.  0.
        1    1    3    3  502    0  0.26167580080E+03  0.58528105194E+03 -0.68937122786E+03  0.94141426817E+03  0.50400001928E-02 0. -1.
       -1    1    3    3    0  502 -0.26167580080E+03 -0.58528105194E+03  0.12320026916E+04  0.13888335993E+04  0.50400001928E-02 0.  1.
</event>
<event>
 5   0  0.4208577E-05  0.2371733E+04  0.7818609E-02  0.8450163E-01
        1   -1    0    0  501    0  0.00000000000E+00  0.00000000000E+00  0.18593012323E+04  0.18593012323E+04  0.50400001928E-02 0. -1.
       -1   -1    0    0    0  501  0.00000000000E+00  0.00000000000E+00 -0.75634827316E+03  0.75634827317E+03  0.50400001928E-02 0.  1.
    10030    2    1    2    0    0  0.00000000000E+00  0.00000000000E+00  0.11029529592E+04  0.26156495055E+04  0.23717329330E+04 0.  0.
        1    1    3    3  502    0 -0.50541587177E+03  0.10722156761E+04  0.51347050073E+03  0.12917985968E+04  0.50400001928E-02 0.  1.
       -1    1    3    3    0  502  0.50541587177E+03 -0.10722156761E+04  0.58948245843E+03  0.13238509087E+04  0.50400001928E-02 0. -1.
</event>
<event>
 5   0  0.4260395E-05  0.2439852E+04  0.7818609E-02  0.8424732E-01
        1   -1    0    0  501    0  0.00000000000E+00  0.00000000000E+00  0.73174423543E+03  0.73174423545E+03  0.50400001928E-02 0.  1.
       -1   -1    0    0    0  501  0.00000000000E+00  0.00000000000E+00 -0.20337979086E+04  0.20337979086E+04  0.50400001928E-02 0. -1.
    10030    2    1    2    0    0  0.00000000000E+00  0.00000000000E+00 -0.13020536732E+04  0.27655421441E+04  0.24398523691E+04 0.  0.
        4    1    3    3  502    0  0.74595739575E+03 -0.43750925163E+03  0.32426752390E+03  0.92358963912E+03  0.12699999809E+01 0. -1.
       -4    1    3    3    0  502 -0.74595739575E+03  0.43750925163E+03 -0.16263211971E+04  0.18419525050E+04  0.12699999809E+01 0.  1.
</event>
<event>
 5   0  0.9519092E-05  0.2223294E+04  0.7818609E-02  0.8508795E-01
       -2   -1    0    0    0  501  0.00000000000E+00  0.00000000000E+00  0.17984662156E+04  0.17984662156E+04  0.25500000920E-02 0. -1.
        2   -1    0    0  501    0  0.00000000000E+00  0.00000000000E+00 -0.68711833644E+03  0.68711833644E+03  0.25500000920E-02 0.  1.
    10030    2    1    2    0    0  0.00000000000E+00  0.00000000000E+00  0.11113478792E+04  0.24855845521E+04  0.22232940554E+04 0.  0.
        4    1    3    3  502    0  0.24634407702E+03  0.75036680112E+03  0.14302852038E+04  0.16338461119E+04  0.12699999809E+01 0. -1.
       -4    1    3    3    0  502 -0.24634407702E+03 -0.75036680112E+03 -0.31893732457E+03  0.85173844013E+03  0.12699999809E+01 0.  1.
</event>
<event>
 5   0  0.4208577E-05  0.2325653E+04  0.7818609E-02  0.8467875E-01
       -1   -1    0    0    0  501  0.00000000000E+00  0.00000000000E+00  0.11630490850E+04  0.11630490850E+04  0.50400001928E-02 0.  1.
        1   -1    0    0  501    0  0.00000000000E+00  0.00000000000E+00 -0.11626036266E+04  0.11626036266E+04  0.50400001928E-02 0. -1.
    10030    2    1    2    0    0  0.00000000000E+00  0.00000000000E+00  0.44545844871E+00  0.23256527116E+04  0.23256526690E+04 0.  0.
        1    1    3    3  502    0  0.33089333958E+03  0.78210389936E+03  0.79457038342E+03  0.11629785062E+04  0.50400001928E-02 0.  1.
       -1    1    3    3    0  502 -0.33089333958E+03 -0.78210389936E+03 -0.79412492497E+03  0.11626742055E+04  0.50400001928E-02 0. -1.
</event>
<event>
 5   0  0.9144244E-05  0.2473109E+04  0.7818609E-02  0.8412629E-01
        2   -1    0    0  501    0  0.00000000000E+00  0.00000000000E+00  0.13803645409E+04  0.13803645409E+04  0.25500000920E-02 0. -1.
       -2   -1    0    0    0  501  0.00000000000E+00  0.00000000000E+00 -0.11077269712E+04  0.11077269712E+04  0.25500000920E-02 0.  1.
    10030    2    1    2    0    0  0.00000000000E+00  0.00000000000E+00  0.27263756966E+03  0.24880915121E+04  0.24731090005E+04 0.  0.
        1    1    3    3  502    0  0.34475419989E+03  0.10261211080E+04 -0.46503732339E+03  0.11781509660E+04  0.50400001928E-02 0.  1.
       -1    1    3    3    0  502 -0.34475419989E+03 -0.10261211080E+04  0.73767489304E+03  0.13099405461E+04  0.50400001928E-02 0. -1.
</event>
<event>
 5   0  0.3234750E-05  0.2107914E+04  0.7818609E-02  0.8557765E-01
        3   -1    0    0  501    0  0.00000000000E+00  0.00000000000E+00  0.11928045884E+04  0.11928045927E+04  0.10100000352E+00 0. -1.
       -3   -1    0    0    0  501  0.00000000000E+00  0.00000000000E+00 -0.93127151850E+03  0.93127152398E+03  0.10100000352E+00 0.  1.
    10030    2    1    2    0    0  0.00000000000E+00  0.00000000000E+00  0.26153306989E+03  0.21240761167E+04  0.21079136137E+04 0.  0.
        2    1    3    3  502    0  0.36399677846E+03  0.80843045088E+03  0.70502343730E+03  0.11327451151E+04  0.25500000920E-02 0. -1.
       -2    1    3    3    0  502 -0.36399677846E+03 -0.80843045088E+03 -0.44349036741E+03  0.99133100155E+03  0.25500000920E-02 0.  1.
</event>
<event>
 5   0  0.9182865E-05  0.1241052E+04  0.7818609E-02  0.9077663E-01
       -2   -1    0    0    0  501  0.00000000000E+00  0.00000000000E+00  0.62660101069E+03  0.62660101069E+03  0.25500000920E-02 0.  1.
        2   -1    0    0  501    0  0.00000000000E+00  0.00000000000E+00 -0.61451016903E+03  0.61451016904E+03  0.25500000920E-02 0. -1.
    10030    2    1    2    0    0  0.00000000000E+00  0.00000000000E+00  0.12090841654E+02  0.12411111797E+04  0.12410522842E+04 0.  0.
        3    1    3    3  502    0  0.52428393563E+03 -0.19009176718E+02 -0.32535782620E+03  0.61732707638E+03  0.10100000352E+00 0. -1.
       -3    1    3    3    0  502 -0.52428393563E+03  0.19009176718E+02  0.33744866786E+03  0.62378410335E+03  0.10100000352E+00 0.  1.
</event>
<event>
 5   0  0.4208577E-05  0.1427375E+04  0.7818609E-02  0.8934238E-01
       -1   -1    0    0    0  501  0.00000000000E+00  0.00000000000E+00  0.47299703946E+03  0.47299703948E+03  0.50400001928E-02 0.  1.
        1   -1    0    0  501    0  0.00000000000E+00  0.00000000000E+00 -0.10768568683E+04  0.10768568683E+04  0.50400001928E-02 0. -1.
    10030    2    1    2    0    0  0.00000000000E+00  0.00000000000E+00 -0.60385982884E+03  0.15498539078E+04  0.14273753685E+04 0.  0.
        1    1    3    3  502    0 -0.59764693162E+03 -0.15078293624E+03 -0.69256808177E+03  0.92712884576E+03  0.50400001928E-02 0. -1.
       -1    1    3    3    0  502  0.59764693162E+03  0.15078293624E+03  0.88708252920E+02  0.62272506204E+03  0.50400001928E-02 0.  1.
</event>
<event>
 5   0  0.3234750E-05  0.2428433E+04  0.7818609E-02  0.8428935E-01
       -3   -1    0    0    0  501  0.00000000000E+00  0.00000000000E+00  0.24033310083E+04  0.24033310104E+04  0.10100000352E+00 0.  1.
        3   -1    0    0  501    0  0.00000000000E+00  0.00000000000E+00 -0.61344929534E+03  0.61344930365E+03  0.10100000352E+00 0. -1.
    10030    2    1    2    0    0  0.00000000000E+00  0.00000000000E+00  0.17898817130E+04  0.30167803141E+04  0.24284330168E+04 0.  0.
        2    1    3    3  502    0  0.89169207930E+03  0.17832745087E+03 -0.10461256992E+03  0.91534651024E+03  0.25500000920E-02 0. -1.
       -2    1    3    3    0  502 -0.89169207930E+03 -0.17832745087E+03  0.18944942829E+04  0.21014338038E+04  0.25500000920E-02 0.  1.
</event>
<event>
 5   0  0.9491680E-05  0.2432050E+04  0.7818609E-02  0.8427601E-01
        2   -1    0    0  501    0  0.00000000000E+00  0.00000000000E+00  0.23353905886E+04  0.23353905886E+04  0.25500000920E-02 0.  1.
       -2   -1    0    0    0  501  0.00000000000E+00  0.00000000000E+00 -0.63317739150E+03  0.63317739150E+03  0.25500000920E-02 0. -1.
    10030    2    1    2    0    0  0.00000000000E+00  0.00000000000E+00  0.17022131971E+04  0.29685679801E+04  0.24320497701E+04 0.  0.
        5    1    3    3  502    0  0.10684860788E+03  0.84251516721E+03 -0.21120122142E+03  0.87514368986E+03  0.46999998093E+01 0. -1.
       -5    1    3    3    0  502 -0.10684860788E+03 -0.84251516721E+03  0.19134144186E+04  0.20934242903E+04  0.46999998093E+01 0.  1.
</event>
<event>
 5   0  0.4208577E-05  0.1356984E+04  0.7818609E-02  0.8985558E-01
        1   -1    0    0  501    0  0.00000000000E+00  0.00000000000E+00  0.73985204785E+03  0.73985204787E+03  0.50400001928E-02 0.  1.
       -1   -1    0    0    0  501  0.00000000000E+00  0.00000000000E+00 -0.62222099014E+03  0.62222099016E+03  0.50400001928E-02 0. -1.
    10030    2    1    2    0    0  0.00000000000E+00  0.00000000000E+00  0.11763105771E+03  0.13620730380E+04  0.13569841175E+04 0.  0.
        1    1    3    3  502    0 -0.63639751388E+03  0.82022438337E+02 -0.16251536143E+03  0.66192198844E+03  0.50400001928E-02 0.  1.
       -1    1    3    3    0  502  0.63639751388E+03 -0.82022438337E+02  0.28014641914E+03  0.70015104959E+03  0.50400001928E-02 0. -1.
</event>
<event>
 5   0  0.4018942E-05  0.2299741E+04  0.7818609E-02  0.8478023E-01
        1   -1    0    0  501    0  0.00000000000E+00  0.00000000000E+00  0.18940858010E+04  0.18940858010E+04  0.50400001928E-02 0.  1.
       -1   -1    0    0    0  501  0.00000000000E+00  0.00000000000E+00 -0.69806850944E+03  0.69806850945E+03  0.50400001928E-02 0. -1.
    10030    2    1    2    0    0  0.00000000000E+00  0.00000000000E+00  0.11960172916E+04  0.25921543105E+04  0.22997405522E+04 0.  0.
        5    1    3    3  502    0 -0.79901623068E+03 -0.63291342519E+03 -0.17936153472E+01  0.10193290184E+04  0.46999998093E+01 0. -1.
       -5    1    3    3    0  502  0.79901623068E+03  0.63291342519E+03  0.11978109069E+04  0.15728252921E+04  0.46999998093E+01 0.  1.
</event>
<event>
 5   0  0.4061631E-05  0.2295475E+04  0.7818609E-02  0.8479708E-01
        1   -1    0    0  501    0  0.00000000000E+00  0.00000000000E+00  0.14428982330E+04  0.14428982330E+04  0.50400001928E-02 0.  1.
       -1   -1    0    0    0  501  0.00000000000E+00  0.00000000000E+00 -0.91295489900E+03  0.91295489901E+03  0.50400001928E-02 0. -1.
    10030    2    1    2    0    0  0.00000000000E+00  0.00000000000E+00  0.52994333397E+03  0.23558531320E+04  0.22954746878E+04 0.  0.
        3    1    3    3  502    0  0.79228692538E+02 -0.30728935932E+03 -0.86703526469E+03  0.92328440715E+03  0.10100000352E+00 0. -1.
       -3    1    3    3    0  502 -0.79228692538E+02  0.30728935932E+03  0.13969785987E+04  0.14325687248E+04  0.10100000352E+00 0.  1.
</event>
<event>
 5   0  0.9519092E-05  0.2431252E+04  0.7818609E-02  0.8427895E-01
       -2   -1    0    0    0  501  0.00000000000E+00  0.00000000000E+00  0.13486145130E+04  0.13486145130E+04  0.25500000920E-02 0. -1.
        2   -1    0    0  501    0  0.00000000000E+00  0.00000000000E+00 -0.10957518170E+04  0.10957518170E+04  0.25500000920E-02 0.  1.
    10030    2    1    2    0    0  0.00000000000E+00  0.00000000000E+00  0.25286269593E+03  0.24443663300E+04  0.24312521902E+04 0.  0.
        4    1    3    3  502    0 -0.89887375099E+03  0.34763626304E+03 -0.61845649929E+03  0.11451266506E+04  0.12699999809E+01 0.  1.
       -4    1    3    3    0  502  0.89887375099E+03 -0.34763626304E+03  0.87131919522E+03  0.12992396794E+04  0.12699999809E+01 0. -1.
</event>
<event>
 5   0  0.3934906E-05  0.2411801E+04  0.7818609E-02  0.8435099E-01
        1   -1    0    0  501    0  0.00000000000E+00  0.00000000000E+00  0.20058152071E+04  0.20058152071E+04  0.50400001928E-02 0. -1.
       -1   -1    0    0    0  501  0.00000000000E+00  0.00000000000E+00 -0.72498982122E+03  0.72498982124E+03  0.50400001928E-02 0.  1.
    10030    2    1    2    0    0  0.00000000000E+00  0.00000000000E+00  0.12808253859E+04  0.27308050283E+04  0.24118006621E+04 0.  0.
        2    1    3    3  502    0 -0.50074843281E+03 -0.85848956313E+02  0.18787209697E+04  0.19462043876E+04  0.25500000920E-02 0. -1.
       -2    1    3    3    0  502  0.50074843281E+03  0.85848956313E+02 -0.59789558384E+03  0.78460064074E+03  0.25500000920E-02 0.  1.
</event>
<event>
 5   0  0.3234750E-05  0.1551322E+04  0.7818609E-02  0.8851023E-01
        3   -1    0    0  501    0  0.00000000000E+00  0.00000000000E+00  0.69789143885E+03  0.69789144615E+03  0.10100000352E+00 0. -1.
       -3   -1    0    0    0  501  0.00000000000E+00  0.00000000000E+00 -0.86209733220E+03  0.86209733812E+03  0.10100000352E+00 0.  1.
    10030    2    1    2    0    0  0.00000000000E+00  0.00000000000E+00 -0.16420589335E+03  0.15599887843E+04  0.15513224783E+04 0.  0.
        5    1    3    3  502    0 -0.46125850784E+03 -0.60315522326E+03 -0.24133091982E+03  0.79675487903E+03  0.46999998093E+01 0. -1.
       -5    1    3    3    0  502  0.46125850784E+03  0.60315522326E+03  0.77125026468E+02  0.76323390524E+03  0.46999998093E+01 0.  1.
</event>
<event>
 5   0  0.9144244E-05  0.2283422E+04  0.7818609E-02  0.8484487E-01
        2   -1    0    0  501    0  0.00000000000E+00  0.00000000000E+00  0.19947385326E+04  0.19947385326E+04  0.25500000920E-02 0. -1.
       -2   -1    0    0    0  501  0.00000000000E+00  0.00000000000E+00 -0.65347088047E+03  0.65347088048E+03  0.25500000920E-02 0.  1.
    10030    2    1    2    0    0  0.00000000000E+00  0.00000000000E+00  0.13412676521E+04  0.26482094130E+04  0.22834215951E+04 0.  0.
        1    1    3    3  502    0 -0.32842768775E+03  0.96391988686E+03  0.71929236295E+02  0.10208722297E+04  0.50400001928E-02 0.  1.
       -1    1    3    3    0  502  0.32842768775E+03 -0.96391988686E+03  0.12693384158E+04  0.16273371833E+04  0.50400001928E-02 0. -1.
</event>
<event>
 5   0  0.9144244E-05  0.2314266E+04  0.7818609E-02  0.8472317E-01
       -2   -1    0    0    0  501  0.00000000000E+00  0.00000000000E+00  0.90108552290E+03  0.90108552290E+03  0.25500000920E-02 0.  1.
        2   -1    0    0  501    0  0.00000000000E+00  0.00000000000E+00 -0.14859376544E+04  0.14859376544E+04  0.25500000920E-02 0. -1.
    10030    2    1    2    0    0  0.00000000000E+00  0.00000000000E+00 -0.58485213146E+03  0.23870231773E+04  0.23142661111E+04 0.  0.
        1    1    3    3  502    0 -0.90165584678E+03 -0.43376139311E+03 -0.89192585866E+03  0.13403969373E+04  0.50400001928E-02 0.  1.
       -1    1    3    3    0  502  0.90165584678E+03  0.43376139311E+03  0.30707372720E+03  0.10466262400E+04  0.50400001928E-02 0. -1.
</event>
<event>
 5   0  0.9519092E-05  0.2701170E+04  0.7818609E-02  0.8334625E-01
       -2   -1    0    0    0  501  0.00000000000E+00  0.00000000000E+00  0.89860744212E+03  0.89860744212E+03  0.25500000920E-02 0. -1.
        2   -1    0    0  501    0  0.00000000000E+00  0.00000000000E+00 -0.20298962703E+04  0.20298962703E+04  0.25500000920E-02 0.  1.
    10030    2    1    2    0    0  0.00000000000E+00  0.00000000000E+00 -0.11312888282E+04  0.29285037124E+04  0.27011700392E+04 0.  0.
        4    1    3    3  502    0  0.55938862082E+03 -0.59187413822E+03  0.60245947439E+03  0.10130101953E+04  0.12699999809E+01 0. -1.
       -4    1    3    3    0  502 -0.55938862082E+03  0.59187413822E+03 -0.17337483026E+04  0.19154935171E+04  0.12699999809E+01 0.  1.
</event>
<event>
 5   0  0.9519092E-05  0.2358084E+04  0.7818609E-02  0.8455365E-01
       -2   -1    0    0    0  501  0.00000000000E+00  0.00000000000E+00  0.89087518654E+03  0.89087518654E+03  0.25500000920E-02 0.  1.
        2   -1    0    0  501    0  0.00000000000E+00  0.00000000000E+00 -0.15604204618E+04  0.15604204618E+04  0.25500000920E-02 0. -1.
    10030    2    1    2    0    0  0.00000000000E+00  0.00000000000E+00 -0.66954527526E+03  0.24512956483E+04  0.23580838577E+04 0.  0.
        4    1    3    3  502    0  0.10114314147E+04  0.35959344563E+03 -0.84173583820E+03  0.13641194181E+04  0.12699999809E+01 0. -1.
       -4    1    3    3    0  502 -0.10114314147E+04 -0.35959344563E+03  0.17219056294E+03  0.10871762302E+04  0.12699999809E+01 0.  1.
</event>
<event>
 5   0  0.9182865E-05  0.2425298E+04  0.7818609E-02  0.8430093E-01
       -2   -1    0    0    0  501  0.00000000000E+00  0.00000000000E+00  0.68665178062E+03  0.68665178062E+03  0.25500000920E-02 0. -1.
        2   -1    0    0  501    0  0.00000000000E+00  0.00000000000E+00 -0.21415761118E+04  0.21415761118E+04  0.25500000920E-02 0.  1.
    10030    2    1    2    0    0  0.00000000000E+00  0.00000000000E+00 -0.14549243312E+04  0.28282278924E+04  0.24252975492E+04 0.  0.
        3    1    3    3  502    0  0.23233527408E+03 -0.17554932057E+03 -0.21001983573E+04  0.21202901674E+04  0.10100000352E+00 0.  1.
       -3    1    3    3    0  502 -0.23233527408E+03  0.17554932057E+03  0.64527402614E+03  0.70793772505E+03  0.10100000352E+00 0. -1.
</event>
<event>
 5   0  0.4061631E-05  0.2323007E+04  0.7818609E-02  0.8468905E-01
        1   -1    0    0  501    0  0.00000000000E+00  0.00000000000E+00  0.17248154362E+04  0.17248154362E+04  0.50400001928E-02 0. -1.
       -1   -1    0    0    0  501  0.00000000000E+00  0.00000000000E+00 -0.78216512604E+03  0.78216512606E+03  0.50400001928E-02 0.  1.
    10030    2    1    2    0    0  0.00000000000E+00  0.00000000000E+00  0.94265031017E+03  0.25069805623E+04  0.23230070883E+04 0.  0.
        3    1    3    3  502    0  0.25159417057E+03 -0.45895373818E+03 -0.64768860876E+03  0.83272967077E+03  0.10100000352E+00 0.  1.
       -3    1    3    3    0  502 -0.25159417057E+03  0.45895373818E+03  0.15903389189E+04  0.16742508915E+04  0.10100000352E+00 0. -1.
</event>
<event>
 5   0  0.4260395E-05  0.1290356E+04  0.7818609E-02  0.9037248E-01
       -1   -1    0    0    0  501  0.00000000000E+00  0.00000000000E+00  0.10583037113E+04  0.10583037113E+04  0.50400001928E-02 0.  1.
        1   -1    0    0  501    0  0.00000000000E+00  0.00000000000E+00 -0.39332235805E+03  0.39332235808E+03  0.50400001928E-02 0. -1.
    10030    2    1    2    0    0  0.00000000000E+00  0.00000000000E+00  0.66498135328E+03  0.14516260694E+04  0.12903557824E+04 0.  0.
        4    1    3    3  502    0 -0.18234046029E+03  0.61789364871E+03  0.29332106795E+03  0.70786966765E+03  0.12699999809E+01 0.  1.
       -4    1    3    3    0  502  0.18234046029E+03 -0.61789364871E+03  0.37166028533E+03  0.74375640177E+03  0.12699999809E+01 0. -1.
</event>
<event>
 5   0  0.9182865E-05  0.2390048E+04  0.7818609E-02  0.8443239E-01
       -2   -1    0    0    0  501  0.00000000000E+00  0.00000000000E+00  0.66296027966E+03  0.66296027966E+03  0.25500000920E-02 0. -1.
        2   -1    0    0  501    0  0.00000000000E+00  0.00000000000E+00 -0.21540991711E+04  0.21540991711E+04  0.25500000920E-02 0.  1.
    10030    2    1    2    0    0  0.00000000000E+00  0.00000000000E+00 -0.14911388915E+04  0.28170594508E+04  0.23900478563E+04 0.  0.
        3    1    3    3  502    0  0.17685250037E+03 -0.11422377531E+04 -0.11032663586E+04  0.15978675038E+04  0.10100000352E+00 0.  1.
       -3    1    3    3    0  502 -0.17685250037E+03  0.11422377531E+04 -0.38787253287E+03  0.12191919470E+04  0.10100000352E+00 0. -1.
</event>
<event>
 5   0  0.9750757E-05  0.2407052E+04  0.7818609E-02  0.8436868E-01
       -2   -1    0    0    0  501  0.00000000000E+00  0.00000000000E+00  0.15093565947E+04  0.15093565947E+04  0.25500000920E-02 0.  1.
        2   -1    0    0  501    0  0.00000000000E+00  0.00000000000E+00 -0.95966380581E+03  0.95966380581E+03  0.25500000920E-02 0. -1.
    10030    2    1    2    0    0  0.00000000000E+00  0.00000000000E+00  0.54969278889E+03  0.24690204005E+04  0.24070520509E+04 0.  0.
        2    1    3    3  502    0  0.19235250378E+03  0.10495738176E+04 -0.29614440397E+03  0.11073871014E+04  0.25500000920E-02 0. -1.
       -2    1    3    3    0  502 -0.19235250378E+03 -0.10495738176E+04  0.84583719286E+03  0.13616332991E+04  0.25500000920E-02 0.  1.
</event>
<event>
 5   0  0.4208577E-05  0.1649845E+04  0.7818609E-02  0.8790498E-01
       -1   -1    0    0    0  501  0.00000000000E+00  0.00000000000E+00  0.50303592525E+03  0.50303592527E+03  0.50400001928E-02 0. -1.
        1   -1    0    0  501    0  0.00000000000E+00  0.00000000000E+00 -0.13527804959E+04  0.13527804959E+04  0.50400001928E-02 0.  1.
    10030    2    1    2    0    0  0.00000000000E+00  0.00000000000E+00 -0.84974457069E+03  0.18558164212E+04  0.16498450697E+04 0.  0.
        1    1    3    3  502    0 -0.73643879641E+03 -0.27143455559E+03 -0.13924553836E+03  0.79712492045E+03  0.50400001928E-02 0.  1.
       -1    1    3    3    0  502  0.73643879641E+03  0.27143455559E+03 -0.71049903234E+03  0.10586915008E+04  0.50400001928E-02 0. -1.
</event>
<event>
 5   0  0.9144244E-05  0.2413831E+04  0.7818609E-02  0.8434344E-01
       -2   -1    0    0    0  501  0.00000000000E+00  0.00000000000E+00  0.14205428610E+04  0.14205428610E+04  0.25500000920E-02 0. -1.
        2   -1    0    0  501    0  0.00000000000E+00  0.00000000000E+00 -0.10254142418E+04  0.10254142418E+04  0.25500000920E-02 0.  1.
    10030    2    1    2    0    0  0.00000000000E+00  0.00000000000E+00  0.39512861916E+03  0.24459571028E+04  0.24138308812E+04 0.  0.
        1    1    3    3  502    0  0.33994412308E+02 -0.12040138625E+04  0.12012812608E+03  0.12104692346E+04  0.50400001928E-02 0. -1.
       -1    1    3    3    0  502 -0.33994412308E+02  0.12040138625E+04  0.27500049308E+03  0.12354878682E+04  0.50400001928E-02 0.  1.
</event>
<event>
 5   0  0.3934906E-05  0.2322785E+04  0.7818609E-02  0.8468991E-01
       -1   -1    0    0    0  501  0.00000000000E+00  0.00000000000E+00  0.77795653344E+03  0.77795653346E+03  0.50400001928E-02 0. -1.
        1   -1    0    0  501    0  0.00000000000E+00  0.00000000000E+00 -0.17338153327E+04  0.17338153327E+04  0.50400001928E-02 0.  1.
    10030    2    1    2    0    0  0.00000000000E+00  0.00000000000E+00 -0.95585879926E+03  0.25117718662E+04  0.23227853675E+04 0.  0.
        2    1    3    3  502    0 -0.37619051758E+02  0.69095905935E+03  0.53069408725E+03  0.87205265266E+03  0.25500000920E-02 0. -1.
       -2    1    3    3    0  502  0.37619051758E+02 -0.69095905935E+03 -0.14865528865E+04  0.16397192135E+04  0.25500000920E-02 0.  1.
</event>
<event>
 5   0  0.9491680E-05  0.2319815E+04  0.7818609E-02  0.8470149E-01
       -2   -1    0    0    0  501  0.00000000000E+00  0.00000000000E+00  0.14964994194E+04  0.14964994194E+04  0.25500000920E-02 0.  1.
        2   -1    0    0  501    0  0.00000000000E+00  0.00000000000E+00 -0.89902138796E+03  0.89902138796E+03  0.25500000920E-02 0. -1.
    10030    2    1    2    0    0  0.00000000000E+00  0.00000000000E+00  0.59747803143E+03  0.23955208074E+04  0.23198146349E+04 0.  0.
        5    1    3    3  502    0  0.70766243802E+03  0.32346364092E+02  0.12471510454E+04  0.14343082770E+04  0.46999998093E+01 0.  1.
       -5    1    3    3    0  502 -0.70766243802E+03 -0.32346364092E+02 -0.64967301395E+03  0.96121253035E+03  0.46999998093E+01 0. -1.
</event>
<event>
 5   0  0.3934906E-05  0.2366382E+04  0.7818609E-02  0.8452198E-01
       -1   -1    0    0    0  501  0.00000000000E+00  0.00000000000E+00  0.78847046184E+03  0.78847046186E+03  0.50400001928E-02 0.  1.
        1   -1    0    0  501    0  0.00000000000E+00  0.00000000000E+00 -0.17755146566E+04  0.17755146567E+04  0.50400001928E-02 0. -1.
    10030    2    1    2    0    0  0.00000000000E+00  0.00000000000E+00 -0.98704419480E+03  0.25639851185E+04  0.23663819314E+04 0.  0.
        2    1    3    3  502    0 -0.10692573278E+04 -0.20531434501E+02  0.54915320799E+02  0.10708634205E+04  0.25500000920E-02 0.  1.
       -2    1    3    3    0  502  0.10692573278E+04  0.20531434501E+02 -0.10419595156E+04  0.14931216980E+04  0.25500000920E-02 0. -1.
</event>
<event>
 5   0  0.4061631E-05  0.2399032E+04  0.7818609E-02  0.8439866E-01
        1   -1    0    0  501    0  0.00000000000E+00  0.00000000000E+00  0.19616566937E+04  0.19616566937E+04  0.50400001928E-02 0. -1.
       -1   -1    0    0    0  501  0.00000000000E+00  0.00000000000E+00 -0.73348106277E+03  0.73348106279E+03  0.50400001928E-02 0.  1.
    10030    2    1    2    0    0  0.00000000000E+00  0.00000000000E+00  0.12281756309E+04  0.26951377565E+04  0.23990315017E+04 0.  0.
        3    1    3    3  502    0  0.33250560261E+03 -0.36279695290E+03  0.18430251986E+04  0.19075962617E+04  0.10100000352E+00 0. -1.
       -3    1    3    3    0  502 -0.33250560261E+03  0.36279695290E+03 -0.61484956773E+03  0.78754149474E+03  0.10100000352E+00 0.  1.
</event>
<event>
 5   0  0.4018942E-05  0.2342199E+04  0.7818609E-02  0.8461466E-01
        1   -1    0    0  501    0  0.00000000000E+00  0.00000000000E+00  0.19910576412E+04  0.19910576412E+04  0.50400001928E-02 0. -1.
       -1   -1    0    0    0  501  0.00000000000E+00  0.00000000000E+00 -0.68881708349E+03  0.68881708351E+03  0.50400001928E-02 0.  1.
    10030    2    1    2    0    0  0.00000000000E+00  0.00000000000E+00  0.13022405577E+04  0.26798747247E+04  0.23421994087E+04 0.  0.
        5    1    3    3  502    0 -0.69130631542E+03 -0.12152568087E+03  0.17237024852E+04  0.18611408491E+04  0.46999998093E+01 0. -1.
       -5    1    3    3    0  502  0.69130631542E+03  0.12152568087E+03 -0.42146192743E+03  0.81873387564E+03  0.46999998093E+01 0.  1.
</event>
<event>
 5   0  0.9144244E-05  0.2495195E+04  0.7818609E-02  0.8404699E-01
        2   -1    0    0  501    0  0.00000000000E+00  0.00000000000E+00  0.11594715429E+04  0.11594715429E+04  0.25500000920E-02 0. -1.
       -2   -1    0    0    0  501  0.00000000000E+00  0.00000000000E+00 -0.13424213120E+04  0.13424213120E+04  0.25500000920E-02 0.  1.
    10030    2    1    2    0    0  0.00000000000E+00  0.00000000000E+00 -0.18294976915E+03  0.25018928549E+04  0.24951948299E+04 0.  0.
        1    1    3    3  502    0  0.81972886255E+01 -0.51330495066E+03  0.10486571124E+04  0.11675747973E+04  0.50400001928E-02 0. -1.
       -1    1    3    3    0  502 -0.81972886255E+01  0.51330495066E+03 -0.12316068816E+04  0.13343180575E+04  0.50400001928E-02 0.  1.
</event>
<event>
 5   0  0.4061631E-05  0.2291824E+04  0.7818609E-02  0.8481152E-01
       -1   -1    0    0    0  501  0.00000000000E+00  0.00000000000E+00  0.12226660674E+04  0.12226660674E+04  0.50400001928E-02 0. -1.
        1   -1    0    0  501    0  0.00000000000E+00  0.00000000000E+00 -0.10739763778E+04  0.10739763778E+04  0.50400001928E-02 0.  1.
    10030    2    1    2    0    0  0.00000000000E+00  0.00000000000E+00  0.14868968965E+03  0.22966424452E+04  0.22918241419E+04 0.  0.
        3    1    3    3  502    0 -0.25305619321E+03  0.83437061652E+03 -0.67079271112E+03  0.11000793763E+04  0.10100000352E+00 0.  1.
       -3    1    3    3    0  502  0.25305619321E+03 -0.83437061652E+03  0.81948240077E+03  0.11965630690E+04  0.10100000352E+00 0. -1.
</event>
<event>
 5   0  0.9750757E-05  0.2443648E+04  0.7818609E-02  0.8423341E-01
       -2   -1    0    0    0  501  0.00000000000E+00  0.00000000000E+00  0.13287926814E+04  0.13287926814E+04  0.25500000920E-02 0. -1.
        2   -1    0    0  501    0  0.00000000000E+00  0.00000000000E+00 -0.11234659820E+04  0.11234659820E+04  0.25500000920E-02 0.  1.
    10030    2    1    2    0    0  0.00000000000E+00  0.00000000000E+00  0.20532669942E+03  0.24522586634E+04  0.24436475807E+04 0.  0.
        2    1    3    3  502    0 -0.64162833620E+03  0.93777327548E+03  0.55340951470E+03  0.12638701393E+04  0.25500000920E-02 0. -1.
       -2    1    3    3    0  502  0.64162833620E+03 -0.93777327548E+03 -0.34808281528E+03  0.11883885241E+04  0.25500000920E-02 0.  1.
</event>
<event>
 5   0  0.4260395E-05  0.2512222E+04  0.7818609E-02  0.8398644E-01
        1   -1    0    0  501    0  0.00000000000E+00  0.00000000000E+00  0.10358645258E+04  0.10358645258E+04  0.50400001928E-02 0. -1.
       -1   -1    0    0    0  501  0.00000000000E+00  0.00000000000E+00 -0.15231861122E+04  0.15231861122E+04  0.50400001928E-02 0.  1.
    10030    2    1    2    0    0  0.00000000000E+00  0.00000000000E+00 -0.48732158644E+03  0.25590506380E+04  0.25122216939E+04 0.  0.
        4    1    3    3  502    0  0.17616578172E+03 -0.94736237060E+03  0.57714031694E+03  0.11232196589E+04  0.12699999809E+01 0. -1.
       -4    1    3    3    0  502 -0.17616578172E+03  0.94736237060E+03 -0.10644619034E+04  0.14358309791E+04  0.12699999809E+01 0.  1.
</event>
<event>
 5   0  0.4018942E-05  0.2385188E+04  0.7818609E-02  0.8445070E-01
       -1   -1    0    0    0  501  0.00000000000E+00  0.00000000000E+00  0.49830925119E+03  0.49830925121E+03  0.50400001928E-02 0. -1.
        1   -1    0    0  501    0  0.00000000000E+00  0.00000000000E+00 -0.28542135299E+04  0.28542135299E+04  0.50400001928E-02 0.  1.
    10030    2    1    2    0    0  0.00000000000E+00  0.00000000000E+00 -0.23559042787E+04  0.33525227811E+04  0.23851884679E+04 0.  0.
        5    1    3    3  502    0 -0.11260116676E+04  0.68466477220E+02 -0.63418251926E+03  0.12941404452E+04  0.46999998093E+01 0. -1.
       -5    1    3    3    0  502  0.11260116676E+04 -0.68466477220E+02 -0.17217217595E+04  0.20583823360E+04  0.46999998093E+01 0.  1.
</event>
<event>
 5   0  0.9491680E-05  0.2382039E+04  0.7818609E-02  0.8446258E-01
        2   -1    0    0  501    0  0.00000000000E+00  0.00000000000E+00  0.73624063016E+03  0.73624063016E+03  0.25500000920E-02 0. -1.
       -2   -1    0    0    0  501  0.00000000000E+00  0.00000000000E+00 -0.19267177776E+04  0.19267177776E+04  0.25500000920E-02 0.  1.
    10030    2    1    2    0    0  0.00000000000E+00  0.00000000000E+00 -0.11904771475E+04  0.26629584078E+04  0.23820393874E+04 0.  0.
        5    1    3    3  502    0 -0.45710120217E+03 -0.25530221292E+03  0.60067980674E+03  0.79684317728E+03  0.46999998093E+01 0. -1.
       -5    1    3    3    0  502  0.45710120217E+03  0.25530221292E+03 -0.17911569542E+04  0.18661152305E+04  0.46999998093E+01 0.  1.
</event>
<event>
 5   0  0.4018942E-05  0.2383821E+04  0.7818609E-02  0.8445586E-01
        1   -1    0    0  501    0  0.00000000000E+00  0.00000000000E+00  0.14519501972E+04  0.14519501972E+04  0.50400001928E-02 0. -1.
       -1   -1    0    0    0  501  0.00000000000E+00  0.00000000000E+00 -0.97844275649E+03  0.97844275651E+03  0.50400001928E-02 0.  1.
    10030    2    1    2    0    0  0.00000000000E+00  0.00000000000E+00  0.47350744067E+03  0.24303929537E+04  0.23838205916E+04 0.  0.
        5    1    3    3  502    0  0.62115239898E+03 -0.11957325590E+03  0.12666878131E+04  0.14158559857E+04  0.46999998093E+01 0. -1.
       -5    1    3    3    0  502 -0.62115239898E+03  0.11957325590E+03 -0.79318037242E+03  0.10145369680E+04  0.46999998093E+01 0.  1.
</event>
<event>
 5   0  0.3934906E-05  0.2322604E+04  0.7818609E-02  0.8469062E-01
        1   -1    0    0  501    0  0.00000000000E+00  0.00000000000E+00  0.94102632306E+03  0.94102632308E+03  0.50400001928E-02 0.  1.
       -1   -1    0    0    0  501  0.00000000000E+00  0.00000000000E+00 -0.14331394373E+04  0.14331394373E+04  0.50400001928E-02 0. -1.
    10030    2    1    2    0    0  0.00000000000E+00  0.00000000000E+00 -0.49211311427E+03  0.23741657604E+04  0.23226036555E+04 0.  0.
        2    1    3    3  502    0  0.89029631521E+03  0.33197065491E+03 -0.92855401793E+03  0.13285498142E+04  0.25500000920E-02 0. -1.
       -2    1    3    3    0  502 -0.89029631521E+03 -0.33197065491E+03  0.43644090366E+03  0.10456159462E+04  0.25500000920E-02 0.  1.
</event>
<event>
 5   0  0.9144244E-05  0.2280480E+04  0.7818609E-02  0.8485658E-01
       -2   -1    0    0    0  501  0.00000000000E+00  0.00000000000E+00  0.16128780186E+04  0.16128780186E+04  0.25500000920E-02 0. -1.
        2   -1    0    0  501    0  0.00000000000E+00  0.00000000000E+00 -0.80610376795E+03  0.80610376796E+03  0.25500000920E-02 0.  1.
    10030    2    1    2    0    0  0.00000000000E+00  0.00000000000E+00  0.80677425062E+03  0.24189817865E+04  0.22804798162E+04 0.  0.
        1    1    3    3  502    0 -0.10397313170E+04  0.46396680406E+03  0.33765037543E+03  0.11875664962E+04  0.50400001928E-02 0.  1.
       -1    1    3    3    0  502  0.10397313170E+04 -0.46396680406E+03  0.46912387519E+03  0.12314152903E+04  0.50400001928E-02 0. -1.
</event>
<event>
 5   0  0.4260395E-05  0.2322517E+04  0.7818609E-02  0.8469096E-01
        1   -1    0    0  501    0  0.00000000000E+00  0.00000000000E+00  0.99223622881E+03  0.99223622883E+03  0.50400001928E-02 0. -1.
       -1   -1    0    0    0  501  0.00000000000E+00  0.00000000000E+00 -0.13590727773E+04  0.13590727773E+04  0.50400001928E-02 0.  1.
    10030    2    1    2    0    0  0.00000000000E+00  0.00000000000E+00 -0.36683654845E+03  0.23513090061E+04  0.23225169513E+04 0.  0.
        4    1    3    3  502    0 -0.25498161816E+03 -0.11212717898E+04 -0.34745651329E+03  0.12012467248E+04  0.12699999809E+01 0.  1.
       -4    1    3    3    0  502  0.25498161816E+03  0.11212717898E+04 -0.19380035168E+02  0.11500622813E+04  0.12699999809E+01 0. -1.
</event>
<event>
 5   0  0.9144244E-05  0.2424280E+04  0.7818609E-02  0.8430469E-01
       -2   -1    0    0    0  501  0.00000000000E+00  0.00000000000E+00  0.12558082362E+04  0.12558082362E+04  0.25500000920E-02 0.  1.
        2   -1    0    0  501    0  0.00000000000E+00  0.00000000000E+00 -0.11699902103E+04  0.11699902103E+04  0.25500000920E-02 0. -1.
    10030    2    1    2    0    0  0.00000000000E+00  0.00000000000E+00  0.85818025873E+02  0.24257984466E+04  0.24242799693E+04 0.  0.
        1    1    3    3  502    0 -0.75825678669E+03  0.37239393167E+03  0.91273639153E+03  0.12436713052E+04  0.50400001928E-02 0.  1.
       -1    1    3    3    0  502  0.75825678669E+03 -0.37239393167E+03 -0.82691836565E+03  0.11821271414E+04  0.50400001928E-02 0. -1.
</event>
<event>
 5   0  0.9144244E-05  0.2425889E+04  0.7818609E-02  0.8429874E-01
        2   -1    0    0  501    0  0.00000000000E+00  0.00000000000E+00  0.13955899167E+04  0.13955899167E+04  0.25500000920E-02 0. -1.
       -2   -1    0    0    0  501  0.00000000000E+00  0.00000000000E+00 -0.10542021594E+04  0.10542021594E+04  0.25500000920E-02 0.  1.
    10030    2    1    2    0    0  0.00000000000E+00  0.00000000000E+00  0.34138775733E+03  0.24497920761E+04  0.24258886238E+04 0.  0.
        1    1    3    3  502    0  0.39186644897E+03 -0.11172977040E+04 -0.95188155859E+02  0.11878443746E+04  0.50400001928E-02 0.  1.
       -1    1    3    3    0  502 -0.39186644897E+03  0.11172977040E+04  0.43657591319E+03  0.12619477015E+04  0.50400001928E-02 0. -1.
</event>
<event>
 5   0  0.4260395E-05  0.2347516E+04  0.7818609E-02  0.8459418E-01
        1   -1    0    0  501    0  0.00000000000E+00  0.00000000000E+00  0.11135752690E+04  0.11135752690E+04  0.50400001928E-02 0. -1.
       -1   -1    0    0    0  501  0.00000000000E+00  0.00000000000E+00 -0.12371932467E+04  0.12371932467E+04  0.50400001928E-02 0.  1.
    10030    2    1    2    0    0  0.00000000000E+00  0.00000000000E+00 -0.12361797776E+03  0.23507685157E+04  0.23475159659E+04 0.  0.
        4    1    3    3  502    0 -0.23862798183E+03 -0.54547218071E+03  0.95113738138E+03  0.11221172598E+04  0.12699999809E+01 0. -1.
       -4    1    3    3    0  502  0.23862798183E+03  0.54547218071E+03 -0.10747553591E+04  0.12286512559E+04  0.12699999809E+01 0.  1.
</event>
<event>
 5   0  0.4018942E-05  0.2298267E+04  0.7818609E-02  0.8478605E-01
        1   -1    0    0  501    0  0.00000000000E+00  0.00000000000E+00  0.19098890800E+04  0.19098890801E+04  0.50400001928E-02 0.  1.
       -1   -1    0    0    0  501  0.00000000000E+00  0.00000000000E+00 -0.69140545516E+03  0.69140545518E+03  0.50400001928E-02 0. -1.
    10030    2    1    2    0    0  0.00000000000E+00  0.00000000000E+00  0.12184836249E+04  0.26012945352E+04  0.22982669373E+04 0.  0.
        5    1    3    3  502    0 -0.41995924941E+03 -0.19588725793E+03 -0.58095052590E+03  0.74314412635E+03  0.46999998093E+01 0. -1.
       -5    1    3    3    0  502  0.41995924941E+03  0.19588725793E+03  0.17994341508E+04  0.18581504089E+04  0.46999998093E+01 0.  1.
</event>
<event>
 5   0  0.9144244E-05  0.2351200E+04  0.7818609E-02  0.8458003E-01
       -2   -1    0    0    0  501  0.00000000000E+00  0.00000000000E+00  0.89994187546E+03  0.89994187546E+03  0.25500000920E-02 0. -1.
        2   -1    0    0  501    0  0.00000000000E+00  0.00000000000E+00 -0.15356943801E+04  0.15356943801E+04  0.25500000920E-02 0.  1.
    10030    2    1    2    0    0  0.00000000000E+00  0.00000000000E+00 -0.63575250460E+03  0.24356362555E+04  0.23512002726E+04 0.  0.
        1    1    3    3  502    0 -0.20274297586E+03  0.11147983534E+04 -0.64242530219E+03  0.13025322844E+04  0.50400001928E-02 0.  1.
       -1    1    3    3    0  502  0.20274297586E+03 -0.11147983534E+04  0.66727975918E+01  0.11331039711E+04  0.50400001928E-02 0. -1.
</event>
<event>
 5   0  0.4260395E-05  0.2395825E+04  0.7818609E-02  0.8441068E-01
       -1   -1    0    0    0  501  0.00000000000E+00  0.00000000000E+00  0.10846105151E+04  0.10846105151E+04  0.50400001928E-02 0.  1.
        1   -1    0    0  501    0  0.00000000000E+00  0.00000000000E+00 -0.13230499050E+04  0.13230499050E+04  0.50400001928E-02 0. -1.
    10030    2    1    2    0    0  0.00000000000E+00  0.00000000000E+00 -0.23843938993E+03  0.24076604202E+04  0.23958245671E+04 0.  0.
        4    1    3    3  502    0  0.91982807290E+03  0.71701293389E+03 -0.39406853420E+03  0.12310494927E+04  0.12699999809E+01 0.  1.
       -4    1    3    3    0  502 -0.91982807290E+03 -0.71701293389E+03  0.15562914426E+03  0.11766109274E+04  0.12699999809E+01 0. -1.
</event>
<event>
 5   0  0.4208577E-05  0.2434772E+04  0.7818609E-02  0.8426599E-01
        1   -1    0    0  501    0  0.00000000000E+00  0.00000000000E+00  0.15182550576E+04  0.15182550576E+04  0.50400001928E-02 0. -1.
       -1   -1    0    0    0  501  0.00000000000E+00  0.00000000000E+00 -0.97613955407E+03  0.97613955408E+03  0.50400001928E-02 0.  1.
    10030    2    1    2    0    0  0.00000000000E+00  0.00000000000E+00  0.54211550356E+03  0.24943946117E+04  0.24347721166E+04 0.  0.
        1    1    3    3  502    0  0.11921099429E+04 -0.24291821088E+03  0.22647849566E+03  0.12375087402E+04  0.50400001928E-02 0.  1.
       -1    1    3    3    0  502 -0.11921099429E+04  0.24291821088E+03  0.31563700790E+03  0.12568858715E+04  0.50400001928E-02 0. -1.
</event>
<event>
 5   0  0.4018942E-05  0.2396717E+04  0.7818609E-02  0.8440734E-01
        1   -1    0    0  501    0  0.00000000000E+00  0.00000000000E+00  0.12375949328E+04  0.12375949328E+04  0.50400001928E-02 0.  1.
       -1   -1    0    0    0  501  0.00000000000E+00  0.00000000000E+00 -0.11603664309E+04  0.11603664310E+04  0.50400001928E-02 0. -1.
    10030    2    1    2    0    0  0.00000000000E+00  0.00000000000E+00  0.77228501804E+02  0.23979613637E+04  0.23967174344E+04 0.  0.
        5    1    3    3  502    0 -0.10238485654E+04  0.28851023672E+03  0.59074981743E+03  0.12167627042E+04  0.46999998093E+01 0.  1.
       -5    1    3    3    0  502  0.10238485654E+04 -0.28851023672E+03 -0.51352131563E+03  0.11811986595E+04  0.46999998093E+01 0. -1.
</event>
<event>
 5   0  0.9519092E-05  0.2382186E+04  0.7818609E-02  0.8446203E-01
        2   -1    0    0  501    0  0.00000000000E+00  0.00000000000E+00  0.14862568280E+04  0.14862568280E+04  0.25500000920E-02 0.  1.
       -2   -1    0    0    0  501  0.00000000000E+00  0.00000000000E+00 -0.95454776250E+03  0.95454776250E+03  0.25500000920E-02 0. -1.
    10030    2    1    2    0    0  0.00000000000E+00  0.00000000000E+00  0.53170906548E+03  0.24408045905E+04  0.23821864995E+04 0.  0.
        4    1    3    3  502    0  0.66223678046E+03 -0.64932269407E+02  0.12780539641E+04  0.14409015584E+04  0.12699999809E+01 0.  1.
       -4    1    3    3    0  502 -0.66223678046E+03  0.64932269407E+02 -0.74634489859E+03  0.99990303208E+03  0.12699999809E+01 0. -1.
</event>
<event>
 5   0  0.9750757E-05  0.2391543E+04  0.7818609E-02  0.8442677E-01
        2   -1    0    0  501    0  0.00000000000E+00  0.00000000000E+00  0.17508161112E+04  0.17508161112E+04  0.25500000920E-02 0.  1.
       -2   -1    0    0    0  501  0.00000000000E+00  0.00000000000E+00 -0.81668728322E+03  0.81668728322E+03  0.25500000920E-02 0. -1.
    10030    2    1    2    0    0  0.00000000000E+00  0.00000000000E+00  0.93412882798E+03  0.25675033944E+04  0.23915428102E+04 0.  0.
        2    1    3    3  502    0  0.29081920136E+03 -0.10653980817E+04  0.95929689490E+03  0.14628395035E+04  0.25500000920E-02 0.  1.
       -2    1    3    3    0  502 -0.29081920136E+03  0.10653980817E+04 -0.25168066920E+02  0.11046638909E+04  0.25500000920E-02 0. -1.
</event>
<event>
 5   0  0.4018942E-05  0.2423298E+04  0.7818609E-02  0.8430832E-01
        1   -1    0    0  501    0  0.00000000000E+00  0.00000000000E+00  0.20924622833E+04  0.20924622833E+04  0.50400001928E-02 0. -1.
       -1   -1    0    0    0  501  0.00000000000E+00  0.00000000000E+00 -0.70161045456E+03  0.70161045457E+03  0.50400001928E-02 0.  1.
    10030    2    1    2    0    0  0.00000000000E+00  0.00000000000E+00  0.13908518288E+04  0.27940727379E+04  0.24232980946E+04 0.  0.
        5    1    3    3  502    0  0.17540554328E+03 -0.20970269059E+03 -0.66557276991E+03  0.71954952929E+03  0.46999998093E+01 0.  1.
       -5    1    3    3    0  502 -0.17540554328E+03  0.20970269059E+03  0.20564245987E+04  0.20745232086E+04  0.46999998093E+01 0. -1.
</event>
<event>
 5   0  0.4208577E-05  0.2400617E+04  0.7818609E-02  0.8439273E-01
       -1   -1    0    0    0  501  0.00000000000E+00  0.00000000000E+00  0.87928861683E+03  0.87928861685E+03  0.50400001928E-02 0.  1.
        1   -1    0    0  501    0  0.00000000000E+00  0.00000000000E+00 -0.16385292726E+04  0.16385292726E+04  0.50400001928E-02 0. -1.
    10030    2    1    2    0    0  0.00000000000E+00  0.00000000000E+00 -0.75924065573E+03  0.25178178894E+04  0.24006167022E+04 0.  0.
        1    1    3    3  502    0 -0.14825491828E+03  0.76198516901E+03 -0.13398156219E+04  0.15484530407E+04  0.50400001928E-02 0. -1.
       -1    1    3    3    0  502  0.14825491828E+03 -0.76198516901E+03  0.58057496615E+03  0.96936484872E+03  0.50400001928E-02 0.  1.
</event>
<event>
 5   0  0.9182865E-05  0.2121683E+04  0.7818609E-02  0.8551751E-01
        2   -1    0    0  501    0  0.00000000000E+00  0.00000000000E+00  0.82326851317E+03  0.82326851318E+03  0.25500000920E-02 0. -1.
       -2   -1    0    0    0  501  0.00000000000E+00  0.00000000000E+00 -0.13669721367E+04  0.13669721367E+04  0.25500000920E-02 0.  1.
    10030    2    1    2    0    0  0.00000000000E+00  0.00000000000E+00 -0.54370362351E+03  0.21902406499E+04  0.21216834057E+04 0.  0.
        3    1    3    3  502    0 -0.53080018553E+03  0.11529515854E+03 -0.12125278851E+04  0.13286330166E+04  0.10100000352E+00 0.  1.
       -3    1    3    3    0  502  0.53080018553E+03 -0.11529515854E+03  0.66882426159E+03  0.86160763323E+03  0.10100000352E+00 0. -1.
</event>
<event>
 5   0  0.9519092E-05  0.2187712E+04  0.7818609E-02  0.8523560E-01
       -2   -1    0    0    0  501  0.00000000000E+00  0.00000000000E+00  0.93581467948E+03  0.93581467948E+03  0.25500000920E-02 0.  1.
        2   -1    0    0  501    0  0.00000000000E+00  0.00000000000E+00 -0.12785875055E+04  0.12785875055E+04  0.25500000920E-02 0. -1.
    10030    2    1    2    0    0  0.00000000000E+00  0.00000000000E+00 -0.34277282606E+03  0.22144021850E+04  0.21877120073E+04 0.  0.
        4    1    3    3  502    0 -0.31748520354E+03  0.99711380667E+03 -0.49384250525E+03  0.11571148736E+04  0.12699999809E+01 0. -1.
       -4    1    3    3    0  502  0.31748520354E+03 -0.99711380667E+03  0.15106967919E+03  0.10572873114E+04  0.12699999809E+01 0.  1.
</event>
<event>
 5   0  0.9519092E-05  0.2411187E+04  0.7818609E-02  0.8435327E-01
       -2   -1    0    0    0  501  0.00000000000E+00  0.00000000000E+00  0.13783361941E+04  0.13783361941E+04  0.25500000920E-02 0.  1.
        2   -1    0    0  501    0  0.00000000000E+00  0.00000000000E+00 -0.10545001937E+04  0.10545001937E+04  0.25500000920E-02 0. -1.
    10030    2    1    2    0    0  0.00000000000E+00  0.00000000000E+00  0.32383600040E+03  0.24328363878E+04  0.24111870800E+04 0.  0.
        4    1    3    3  502    0 -0.60046528453E+03  0.24988406201E+03  0.11861449732E+04  0.13527535299E+04  0.12699999809E+01 0.  1.
       -4    1    3    3    0  502  0.60046528453E+03 -0.24988406201E+03 -0.86230897281E+03  0.10800828579E+04  0.12699999809E+01 0. -1.
</event>
<event>
 5   0  0.4061631E-05  0.2390382E+04  0.7818609E-02  0.8443113E-01
       -1   -1    0    0    0  501  0.00000000000E+00  0.00000000000E+00  0.11620303888E+04  0.11620303888E+04  0.50400001928E-02 0. -1.
        1   -1    0    0  501    0  0.00000000000E+00  0.00000000000E+00 -0.12292982227E+04  0.12292982227E+04  0.50400001928E-02 0.  1.
    10030    2    1    2    0    0  0.00000000000E+00  0.00000000000E+00 -0.67267833878E+02  0.23913286115E+04  0.23903823056E+04 0.  0.
        3    1    3    3  502    0  0.11443226528E+04 -0.30238910507E+03 -0.19973692338E+03  0.12003367667E+04  0.10100000352E+00 0.  1.
       -3    1    3    3    0  502 -0.11443226528E+04  0.30238910507E+03  0.13246908950E+03  0.11909918449E+04  0.10100000352E+00 0. -1.
</event>
<event>
 5   0  0.4018942E-05  0.2371916E+04  0.7818609E-02  0.8450093E-01
       -1   -1    0    0    0  501  0.00000000000E+00  0.00000000000E+00  0.12295800185E+04  0.12295800185E+04  0.50400001928E-02 0. -1.
        1   -1    0    0  501    0  0.00000000000E+00  0.00000000000E+00 -0.11438835930E+04  0.11438835931E+04  0.50400001928E-02 0.  1.
    10030    2    1    2    0    0  0.00000000000E+00  0.00000000000E+00  0.85696425428E+02  0.23734636115E+04  0.23719160268E+04 0.  0.
        5    1    3    3  502    0 -0.95813789457E+03  0.11962716526E+03 -0.64617598734E+03  0.11618538550E+04  0.46999998093E+01 0.  1.
       -5    1    3    3    0  502  0.95813789457E+03 -0.11962716526E+03  0.73187241277E+03  0.12116097566E+04  0.46999998093E+01 0. -1.
</event>
<event>
 5   0  0.4061631E-05  0.1960008E+04  0.7818609E-02  0.8625550E-01
        1   -1    0    0  501    0  0.00000000000E+00  0.00000000000E+00  0.12201456872E+04  0.12201456872E+04  0.50400001928E-02 0.  1.
       -1   -1    0    0    0  501  0.00000000000E+00  0.00000000000E+00 -0.78712538667E+03  0.78712538669E+03  0.50400001928E-02 0. -1.
    10030    2    1    2    0    0  0.00000000000E+00  0.00000000000E+00  0.43302030050E+03  0.20072710739E+04  0.19600078019E+04 0.  0.
        3    1    3    3  502    0 -0.10731294317E+03 -0.96852017504E+03  0.32323557841E+03  0.10266589729E+04  0.10100000352E+00 0.  1.
       -3    1    3    3    0  502  0.10731294317E+03  0.96852017504E+03  0.10978472209E+03  0.98061210100E+03  0.10100000352E+00 0. -1.
</event>
<event>
 5   0  0.3934906E-05  0.1195118E+04  0.7818609E-02  0.9117140E-01
        1   -1    0    0  501    0  0.00000000000E+00  0.00000000000E+00  0.18218467107E+04  0.18218467108E+04  0.50400001928E-02 0. -1.
       -1   -1    0    0    0  501  0.00000000000E+00  0.00000000000E+00 -0.19599715097E+03  0.19599715103E+03  0.50400001928E-02 0.  1.
    10030    2    1    2    0    0  0.00000000000E+00  0.00000000000E+00  0.16258495598E+04  0.20178438618E+04  0.11951180107E+04 0.  0.
        2    1    3    3  502    0  0.41573119502E+02 -0.59611107132E+03  0.81322329612E+03  0.10091624562E+04  0.25500000920E-02 0.  1.
       -2    1    3    3    0  502 -0.41573119502E+02  0.59611107132E+03  0.81262626366E+03  0.10086814056E+04  0.25500000920E-02 0. -1.
</event>
<event>
 5   0  0.9182865E-05  0.2390691E+04  0.7818609E-02  0.8442997E-01
        2   -1    0    0  501    0  0.00000000000E+00  0.00000000000E+00  0.14824084158E+04  0.14824084158E+04  0.25500000920E-02 0. -1.
       -2   -1    0    0    0  501  0.00000000000E+00  0.00000000000E+00 -0.96387148689E+03  0.96387148689E+03  0.25500000920E-02 0.  1.
    10030    2    1    2    0    0  0.00000000000E+00  0.00000000000E+00  0.51853692887E+03  0.24462799027E+04  0.23906912840E+04 0.  0.
        3    1    3    3  502    0  0.64251510683E+03 -0.69340382529E+03 -0.48932746882E+03  0.10644603841E+04  0.10100000352E+00 0.  1.
       -3    1    3    3    0  502 -0.64251510683E+03  0.69340382529E+03  0.10078643977E+04  0.13818195185E+04  0.10100000352E+00 0. -1.
</event>
<event>
 5   0  0.9182865E-05  0.2357729E+04  0.7818609E-02  0.8455501E-01
        2   -1    0    0  501    0  0.00000000000E+00  0.00000000000E+00  0.11833474939E+04  0.11833474939E+04  0.25500000920E-02 0. -1.
       -2   -1    0    0    0  501  0.00000000000E+00  0.00000000000E+00 -0.11743982777E+04  0.11743982777E+04  0.25500000920E-02 0.  1.
    10030    2    1    2    0    0  0.00000000000E+00  0.00000000000E+00  0.89492162444E+01  0.23577457716E+04  0.23577287875E+04 0.  0.
        3    1    3    3  502    0  0.44894101035E+03 -0.43079058209E+03  0.10057773280E+04  0.11826734968E+04  0.10100000352E+00 0. -1.
       -3    1    3    3    0  502 -0.44894101035E+03  0.43079058209E+03 -0.99682811177E+03  0.11750722748E+04  0.10100000352E+00 0.  1.
</event>
<event>
 5   0  0.4061631E-05  0.2431639E+04  0.7818609E-02  0.8427752E-01
       -1   -1    0    0    0  501  0.00000000000E+00  0.00000000000E+00  0.72759202591E+03  0.72759202592E+03  0.50400001928E-02 0.  1.
        1   -1    0    0  501    0  0.00000000000E+00  0.00000000000E+00 -0.20316571446E+04  0.20316571446E+04  0.50400001928E-02 0. -1.
    10030    2    1    2    0    0  0.00000000000E+00  0.00000000000E+00 -0.13040651187E+04  0.27592491705E+04  0.24316393958E+04 0.  0.
        3    1    3    3  502    0  0.11049418796E+04 -0.49235792893E+03 -0.79056532255E+03  0.14450973763E+04  0.10100000352E+00 0. -1.
       -3    1    3    3    0  502 -0.11049418796E+04  0.49235792893E+03 -0.51349979615E+03  0.13141517943E+04  0.10100000352E+00 0.  1.
</event>
<event>
 5   0  0.9519092E-05  0.2485378E+04  0.7818609E-02  0.8408213E-01
        2   -1    0    0  501    0  0.00000000000E+00  0.00000000000E+00  0.22853172663E+04  0.22853172663E+04  0.25500000920E-02 0.  1.
       -2   -1    0    0    0  501  0.00000000000E+00  0.00000000000E+00 -0.67573835653E+03  0.67573835653E+03  0.25500000920E-02 0. -1.
    10030    2    1    2    0    0  0.00000000000E+00  0.00000000000E+00  0.16095789098E+04  0.29610556228E+04  0.24853784691E+04 0.  0.
        4    1    3    3  502    0 -0.23949564514E+03 -0.12190896120E+04  0.77243987444E+03  0.14629431359E+04  0.12699999809E+01 0.  1.
       -4    1    3    3    0  502  0.23949564514E+03  0.12190896120E+04  0.83713903533E+03  0.14981124870E+04  0.12699999809E+01 0. -1.
</event>
<event>
 5   0  0.9144244E-05  0.1311092E+04  0.7818609E-02  0.9020815E-01
       -2   -1    0    0    0  501  0.00000000000E+00  0.00000000000E+00  0.35471958887E+03  0.35471958888E+03  0.25500000920E-02 0.  1.
        2   -1    0    0  501    0  0.00000000000E+00  0.00000000000E+00 -0.12114934464E+04  0.12114934464E+04  0.25500000920E-02 0. -1.
    10030    2    1    2    0    0  0.00000000000E+00  0.00000000000E+00 -0.85677385750E+03  0.15662130352E+04  0.13110918461E+04 0.  0.
        1    1    3    3  502    0 -0.70495869618E+02  0.14439651588E+03 -0.11876034162E+04  0.11984247560E+04  0.50400001928E-02 0. -1.
       -1    1    3    3    0  502  0.70495869618E+02 -0.14439651588E+03  0.33082955872E+03  0.36778827929E+03  0.50400001928E-02 0.  1.
</event>
<event>
 5   0  0.9519092E-05  0.2285258E+04  0.7818609E-02  0.8483756E-01
       -2   -1    0    0    0  501  0.00000000000E+00  0.00000000000E+00  0.11152189142E+04  0.11152189142E+04  0.25500000920E-02 0.  1.
        2   -1    0    0  501    0  0.00000000000E+00  0.00000000000E+00 -0.11707127021E+04  0.11707127021E+04  0.25500000920E-02 0. -1.
    10030    2    1    2    0    0  0.00000000000E+00  0.00000000000E+00 -0.55493787843E+02  0.22859316163E+04  0.22852579272E+04 0.  0.
        4    1    3    3  502    0  0.45780655882E+03 -0.32755686260E+03 -0.10223835223E+04  0.11671118297E+04  0.12699999809E+01 0. -1.
       -4    1    3    3    0  502 -0.45780655882E+03  0.32755686260E+03  0.96688973441E+03  0.11188197866E+04  0.12699999809E+01 0.  1.
</event>
<event>
 5   0  0.4018942E-05  0.2431318E+04  0.7818609E-02  0.8427871E-01
       -1   -1    0    0    0  501  0.00000000000E+00  0.00000000000E+00  0.25697255785E+04  0.25697255785E+04  0.50400001928E-02 0.  1.
        1   -1    0    0  501    0  0.00000000000E+00  0.00000000000E+00 -0.57509139762E+03  0.57509139764E+03  0.50400001928E-02 0. -1.
    10030    2    1    2    0    0  0.00000000000E+00  0.00000000000E+00  0.19946341808E+04  0.31448169761E+04  0.24313182222E+04 0.  0.
        5    1    3    3  502    0 -0.14624295326E+03 -0.87696718238E+02  0.25541675080E+04  0.25598577040E+04  0.46999998093E+01 0.  1.
       -5    1    3    3    0  502  0.14624295326E+03  0.87696718238E+02 -0.55953332719E+03  0.58495927209E+03  0.46999998093E+01 0. -1.
</event>
<event>
 5   0  0.9144244E-05  0.2236099E+04  0.7818609E-02  0.8503551E-01
        2   -1    0    0  501    0  0.00000000000E+00  0.00000000000E+00  0.12389485648E+04  0.12389485648E+04  0.25500000920E-02 0.  1.
       -2   -1    0    0    0  501  0.00000000000E+00  0.00000000000E+00 -0.10089481029E+04  0.10089481029E+04  0.25500000920E-02 0. -1.
    10030    2    1    2    0    0  0.00000000000E+00  0.00000000000E+00  0.23000046197E+03  0.22478966677E+04  0.22360991070E+04 0.  0.
        1    1    3    3  502    0  0.43525228225E+03  0.95534259988E+03 -0.27162055269E+03  0.10843900392E+04  0.50400001928E-02 0. -1.
       -1    1    3    3    0  502 -0.43525228225E+03 -0.95534259988E+03  0.50162101466E+03  0.11635066286E+04  0.50400001928E-02 0.  1.
</event>
<event>
 5   0  0.9182865E-05  0.2348431E+04  0.7818609E-02  0.8459066E-01
        2   -1    0    0  501    0  0.00000000000E+00  0.00000000000E+00  0.14274342654E+04  0.14274342654E+04  0.25500000920E-02 0. -1.
       -2   -1    0    0    0  501  0.00000000000E+00  0.00000000000E+00 -0.96591664861E+03  0.96591664861E+03  0.25500000920E-02 0.  1.
    10030    2    1    2    0    0  0.00000000000E+00  0.00000000000E+00  0.46151761678E+03  0.23933509140E+04  0.23484314099E+04 0.  0.
        3    1    3    3  502    0 -0.81223737983E+03  0.17948161003E+03  0.10753685154E+04  0.13595442853E+04  0.10100000352E+00 0. -1.
       -3    1    3    3    0  502  0.81223737983E+03 -0.17948161003E+03 -0.61385089866E+03  0.10338066287E+04  0.10100000352E+00 0.  1.
</event>
<event>
 5   0  0.4260395E-05  0.2445840E+04  0.7818609E-02  0.8422538E-01
        1   -1    0    0  501    0  0.00000000000E+00  0.00000000000E+00  0.16385359967E+04  0.16385359967E+04  0.50400001928E-02 0.  1.
       -1   -1    0    0    0  501  0.00000000000E+00  0.00000000000E+00 -0.91272520587E+03  0.91272520588E+03  0.50400001928E-02 0. -1.
    10030    2    1    2    0    0  0.00000000000E+00  0.00000000000E+00  0.72581079081E+03  0.25512612026E+04  0.24458398189E+04 0.  0.
        4    1    3    3  502    0 -0.79811048775E+03 -0.21286352263E+03  0.13035733502E+04  0.15432421463E+04  0.12699999809E+01 0.  1.
       -4    1    3    3    0  502  0.79811048775E+03  0.21286352263E+03 -0.57776255936E+03  0.10080190563E+04  0.12699999809E+01 0. -1.
</event>
<event>
 5   0  0.9491680E-05  0.2446760E+04  0.7818609E-02  0.8422202E-01
        2   -1    0    0  501    0  0.00000000000E+00  0.00000000000E+00  0.26597964766E+04  0.26597964766E+04  0.25500000920E-02 0.  1.
       -2   -1    0    0    0  501  0.00000000000E+00  0.00000000000E+00 -0.56269645781E+03  0.56269645781E+03  0.25500000920E-02 0. -1.
    10030    2    1    2    0    0  0.00000000000E+00  0.00000000000E+00  0.20971000188E+04  0.32224929344E+04  0.24467595353E+04 0.  0.
        5    1    3    3  502    0 -0.10650543358E+04  0.56176455896E+03  0.76388596394E+03  0.14259957972E+04  0.46999998093E+01 0. -1.
       -5    1    3    3    0  502  0.10650543358E+04 -0.56176455896E+03  0.13332140548E+04  0.17964971371E+04  0.46999998093E+01 0.  1.
</event>
<event>
 5   0  0.9750757E-05  0.2414547E+04  0.7818609E-02  0.8434077E-01
       -2   -1    0    0    0  501  0.00000000000E+00  0.00000000000E+00  0.99791402475E+03  0.99791402476E+03  0.25500000920E-02 0.  1.
        2   -1    0    0  501    0  0.00000000000E+00  0.00000000000E+00 -0.14605560229E+04  0.14605560229E+04  0.25500000920E-02 0. -1.
    10030    2    1    2    0    0  0.00000000000E+00  0.00000000000E+00 -0.46264199817E+03  0.24584700477E+04  0.24145470293E+04 0.  0.
        2    1    3    3  502    0 -0.85731453289E+03 -0.84786857921E+03 -0.29275094607E+03  0.12407950888E+04  0.25500000920E-02 0.  1.
       -2    1    3    3    0  502  0.85731453289E+03  0.84786857921E+03 -0.16989105210E+03  0.12176749589E+04  0.25500000920E-02 0. -1.
</event>
<event>
 5   0  0.9750757E-05  0.2631877E+04  0.7818609E-02  0.8357453E-01
        2   -1    0    0  501    0  0.00000000000E+00  0.00000000000E+00  0.19066954297E+04  0.19066954297E+04  0.25500000920E-02 0.  1.
       -2   -1    0    0    0  501  0.00000000000E+00  0.00000000000E+00 -0.90821760465E+03  0.90821760465E+03  0.25500000920E-02 0. -1.
    10030    2    1    2    0    0  0.00000000000E+00  0.00000000000E+00  0.99847782510E+03  0.28149130344E+04  0.26318771673E+04 0.  0.
        2    1    3    3  502    0  0.58081706382E+03 -0.37798678549E+03  0.16957312295E+04  0.18318643166E+04  0.25500000920E-02 0.  1.
       -2    1    3    3    0  502 -0.58081706382E+03  0.37798678549E+03 -0.69725340441E+03  0.98304871781E+03  0.25500000920E-02 0. -1.
</event>
<event>
 5   0  0.4061631E-05  0.2479141E+04  0.7818609E-02  0.8410454E-01
       -1   -1    0    0    0  501  0.00000000000E+00  0.00000000000E+00  0.81360522884E+03  0.81360522886E+03  0.50400001928E-02 0.  1.
        1   -1    0    0  501    0  0.00000000000E+00  0.00000000000E+00 -0.18885514020E+04  0.18885514020E+04  0.50400001928E-02 0. -1.
    10030    2    1    2    0    0  0.00000000000E+00  0.00000000000E+00 -0.10749461732E+04  0.27021566309E+04  0.24791412188E+04 0.  0.
        3    1    3    3  502    0  0.12380652093E+04  0.48311512619E+02 -0.49675155837E+03  0.13348788656E+04  0.10100000352E+00 0.  1.
       -3    1    3    3    0  502 -0.12380652093E+04 -0.48311512619E+02 -0.57819461479E+03  0.13672777653E+04  0.10100000352E+00 0. -1.
</event>
<event>
 5   0  0.3934906E-05  0.2326181E+04  0.7818609E-02  0.8467669E-01
        1   -1    0    0  501    0  0.00000000000E+00  0.00000000000E+00  0.10719429792E+04  0.10719429792E+04  0.50400001928E-02 0. -1.
       -1   -1    0    0    0  501  0.00000000000E+00  0.00000000000E+00 -0.12619887856E+04  0.12619887856E+04  0.50400001928E-02 0.  1.
    10030    2    1    2    0    0  0.00000000000E+00  0.00000000000E+00 -0.19004580638E+03  0.23339317648E+04  0.23261814363E+04 0.  0.
        2    1    3    3  502    0 -0.49152528509E+03 -0.10434642949E+04 -0.24507108889E+03  0.11791839039E+04  0.25500000920E-02 0.  1.
       -2    1    3    3    0  502  0.49152528509E+03  0.10434642949E+04  0.55025282509E+02  0.11547478609E+04  0.25500000920E-02 0. -1.
</event>
<event>
 5   0  0.9144244E-05  0.2473666E+04  0.7818609E-02  0.8412428E-01
       -2   -1    0    0    0  501  0.00000000000E+00  0.00000000000E+00  0.26948120563E+04  0.26948120563E+04  0.25500000920E-02 0.  1.
        2   -1    0    0  501    0  0.00000000000E+00  0.00000000000E+00 -0.56766710164E+03  0.56766710164E+03  0.25500000920E-02 0. -1.
    10030    2    1    2    0    0  0.00000000000E+00  0.00000000000E+00  0.21271449547E+04  0.32624791580E+04  0.24736662260E+04 0.  0.
        1    1    3    3  502    0 -0.11518455334E+04 -0.33435890081E+03  0.14618932665E+04  0.18909457766E+04  0.50400001928E-02 0.  1.
       -1    1    3    3    0  502  0.11518455334E+04  0.33435890081E+03  0.66525168815E+03  0.13715333813E+04  0.50400001928E-02 0. -1.
</event>
<event>
 5   0  0.3934906E-05  0.1802578E+04  0.7818609E-02  0.8704930E-01
        1   -1    0    0  501    0  0.00000000000E+00  0.00000000000E+00  0.77051840861E+03  0.77051840863E+03  0.50400001928E-02 0.  1.
       -1   -1    0    0    0  501  0.00000000000E+00  0.00000000000E+00 -0.10542538707E+04  0.10542538707E+04  0.50400001928E-02 0. -1.
    10030    2    1    2    0    0  0.00000000000E+00  0.00000000000E+00 -0.28373546206E+03  0.18247722793E+04  0.18025781700E+04 0.  0.
        2    1    3    3  502    0  0.48258580250E+03  0.33662808184E+03  0.54926406056E+03  0.80492144367E+03  0.25500000920E-02 0.  1.
       -2    1    3    3    0  502 -0.48258580250E+03 -0.33662808184E+03 -0.83299952262E+03  0.10198508356E+04  0.25500000920E-02 0. -1.
</event>
<event>
 5   0  0.4018942E-05  0.2362726E+04  0.7818609E-02  0.8453592E-01
        1   -1    0    0  501    0  0.00000000000E+00  0.00000000000E+00  0.26541916689E+04  0.26541916689E+04  0.50400001928E-02 0. -1.
       -1   -1    0    0    0  501  0.00000000000E+00  0.00000000000E+00 -0.52581685594E+03  0.52581685596E+03  0.50400001928E-02 0.  1.
    10030    2    1    2    0    0  0.00000000000E+00  0.00000000000E+00  0.21283748130E+04  0.31800085249E+04  0.23627261529E+04 0.  0.
        5    1    3    3  502    0  0.30147289729E+03 -0.87479772661E+03  0.75665424083E+02  0.92838802055E+03  0.46999998093E+01 0.  1.
       -5    1    3    3    0  502 -0.30147289729E+03  0.87479772661E+03  0.20527093889E+04  0.22516205043E+04  0.46999998093E+01 0. -1.
</event>
<event>
 5   0  0.9491680E-05  0.2384754E+04  0.7818609E-02  0.8445234E-01
       -2   -1    0    0    0  501  0.00000000000E+00  0.00000000000E+00  0.86013473122E+03  0.86013473123E+03  0.25500000920E-02 0. -1.
        2   -1    0    0  501    0  0.00000000000E+00  0.00000000000E+00 -0.16529535075E+04  0.16529535075E+04  0.25500000920E-02 0.  1.
    10030    2    1    2    0    0  0.00000000000E+00  0.00000000000E+00 -0.79281877627E+03  0.25130882387E+04  0.23847538413E+04 0.  0.
        5    1    3    3  502    0  0.59157107291E+03 -0.85046210769E+03 -0.10185157423E+04  0.14528036819E+04  0.46999998093E+01 0.  1.
       -5    1    3    3    0  502 -0.59157107291E+03  0.85046210769E+03  0.22569696601E+03  0.10602845568E+04  0.46999998093E+01 0. -1.
</event>
<event>
 5   0  0.3934906E-05  0.2344329E+04  0.7818609E-02  0.8460645E-01
        1   -1    0    0  501    0  0.00000000000E+00  0.00000000000E+00  0.12615049993E+04  0.12615049993E+04  0.50400001928E-02 0.  1.
       -1   -1    0    0    0  501  0.00000000000E+00  0.00000000000E+00 -0.10891513850E+04  0.10891513850E+04  0.50400001928E-02 0. -1.
    10030    2    1    2    0    0  0.00000000000E+00  0.00000000000E+00  0.17235361429E+03  0.23506563843E+04  0.23443292577E+04 0.  0.
        2    1    3    3  502    0  0.87078847813E+03 -0.70684380801E+03  0.42778555977E+03  0.12003754528E+04  0.25500000920E-02 0.  1.
       -2    1    3    3    0  502 -0.87078847813E+03  0.70684380801E+03 -0.25543194549E+03  0.11502809315E+04  0.25500000920E-02 0. -1.
</event>
<event>
 5   0  0.4061631E-05  0.2375217E+04  0.7818609E-02  0.8448841E-01
       -1   -1    0    0    0  501  0.00000000000E+00  0.00000000000E+00  0.11168814500E+04  0.11168814500E+04  0.50400001928E-02 0. -1.
        1   -1    0    0  501    0  0.00000000000E+00  0.00000000000E+00 -0.12628142785E+04  0.12628142785E+04  0.50400001928E-02 0.  1.
    10030    2    1    2    0    0  0.00000000000E+00  0.00000000000E+00 -0.14593282845E+03  0.23796957285E+04  0.23752169101E+04 0.  0.
        3    1    3    3  502    0  0.41667803387E+03 -0.10404676785E+04  0.32048296807E+03  0.11657199136E+04  0.10100000352E+00 0. -1.
       -3    1    3    3    0  502 -0.41667803387E+03  0.10404676785E+04 -0.46641579652E+03  0.12139758149E+04  0.10100000352E+00 0.  1.
</event>
<event>
 5   0  0.4018942E-05  0.2384953E+04  0.7818609E-02  0.8445158E-01
       -1   -1    0    0    0  501  0.00000000000E+00  0.00000000000E+00  0.15683950861E+04  0.15683950861E+04  0.50400001928E-02 0.  1.
        1   -1    0    0  501    0  0.00000000000E+00  0.00000000000E+00 -0.90665951105E+03  0.90665951106E+03  0.50400001928E-02 0. -1.
    10030    2    1    2    0    0  0.00000000000E+00  0.00000000000E+00  0.66173557508E+03  0.24750545972E+04  0.23849530997E+04 0.  0.
        5    1    3    3  502    0 -0.56340156725E+03 -0.57768404042E+03  0.12420107268E+04  0.14811323074E+04  0.46999998093E+01 0.  1.
       -5    1    3    3    0  502  0.56340156725E+03  0.57768404042E+03 -0.58027515169E+03  0.99392228982E+03  0.46999998093E+01 0. -1.
</event>
<event>
 5   0  0.9750757E-05  0.2291461E+04  0.7818609E-02  0.8481296E-01
       -2   -1    0    0    0  501  0.00000000000E+00  0.00000000000E+00  0.10849276841E+04  0.10849276841E+04  0.25500000920E-02 0. -1.
        2   -1    0    0  501    0  0.00000000000E+00  0.00000000000E+00 -0.12099404584E+04  0.12099404584E+04  0.25500000920E-02 0.  1.
    10030    2    1    2    0    0  0.00000000000E+00  0.00000000000E+00 -0.12501277434E+03  0.22948681425E+04  0.22914605817E+04 0.  0.
        2    1    3    3  502    0 -0.92502749456E+03 -0.53940906324E+02 -0.73738712464E+03  0.11841981501E+04  0.25500000920E-02 0.  1.
       -2    1    3    3    0  502  0.92502749456E+03  0.53940906324E+02  0.61237435030E+03  0.11106699924E+04  0.25500000920E-02 0. -1.
</event>
<event>
 5   0  0.9182865E-05  0.2479667E+04  0.7818609E-02  0.8410265E-01
       -2   -1    0    0    0  501  0.00000000000E+00  0.00000000000E+00  0.96706853470E+03  0.96706853470E+03  0.25500000920E-02 0.  1.
        2   -1    0    0  501    0  0.00000000000E+00  0.00000000000E+00 -0.15895324322E+04  0.15895324322E+04  0.25500000920E-02 0. -1.
    10030    2    1    2    0    0  0.00000000000E+00  0.00000000000E+00 -0.62246389750E+03  0.25566009669E+04  0.24796667519E+04 0.  0.
        3    1    3    3  502    0  0.38869254487E+03  0.43920519619E+03  0.81499761636E+03  0.10040937325E+04  0.10100000352E+00 0.  1.
       -3    1    3    3    0  502 -0.38869254487E+03 -0.43920519619E+03 -0.14374615139E+04  0.15525072344E+04  0.10100000352E+00 0. -1.
</event>
<event>
 5   0  0.4061631E-05  0.2356622E+04  0.7818609E-02  0.8455925E-01
        1   -1    0    0  501    0  0.00000000000E+00  0.00000000000E+00  0.12142664021E+04  0.12142664021E+04  0.50400001928E-02 0.  1.
       -1   -1    0    0    0  501  0.00000000000E+00  0.00000000000E+00 -0.11434201854E+04  0.11434201854E+04  0.50400001928E-02 0. -1.
    10030    2    1    2    0    0  0.00000000000E+00  0.00000000000E+00  0.70846216764E+02  0.23576865875E+04  0.23566219167E+04 0.  0.
        3    1    3    3  502    0  0.36925573388E+03 -0.43745997749E+03  0.10657892038E+04  0.12098048050E+04  0.10100000352E+00 0.  1.
       -3    1    3    3    0  502 -0.36925573388E+03  0.43745997749E+03 -0.99494298708E+03  0.11478817825E+04  0.10100000352E+00 0. -1.
</event>
<event>
 5   0  0.9144244E-05  0.2409206E+04  0.7818609E-02  0.8436065E-01
        2   -1    0    0  501    0  0.00000000000E+00  0.00000000000E+00  0.17399983912E+04  0.17399983912E+04  0.25500000920E-02 0.  1.
       -2   -1    0    0    0  501  0.00000000000E+00  0.00000000000E+00 -0.83394801073E+03  0.83394801074E+03  0.25500000920E-02 0. -1.
    10030    2    1    2    0    0  0.00000000000E+00  0.00000000000E+00  0.90605038043E+03  0.25739464019E+04  0.24092058418E+04 0.  0.
        1    1    3    3  502    0 -0.48353175208E+03  0.10820902344E+04  0.22302321689E+03  0.12060106078E+04  0.50400001928E-02 0. -1.
       -1    1    3    3    0  502  0.48353175208E+03 -0.10820902344E+04  0.68302716355E+03  0.13679357941E+04  0.50400001928E-02 0.  1.
</event>
<event>
 5   0  0.9144244E-05  0.2408329E+04  0.7818609E-02  0.8436392E-01
        2   -1    0    0  501    0  0.00000000000E+00  0.00000000000E+00  0.12632430668E+04  0.12632430668E+04  0.25500000920E-02 0.  1.
       -2   -1    0    0    0  501  0.00000000000E+00  0.00000000000E+00 -0.11478485633E+04  0.11478485633E+04  0.25500000920E-02 0. -1.
    10030    2    1    2    0    0  0.00000000000E+00  0.00000000000E+00  0.11539450350E+03  0.24110916300E+04  0.24083286646E+04 0.  0.
        1    1    3    3  502    0  0.10983416918E+04 -0.13905222016E+03 -0.41647228613E+03  0.11828521282E+04  0.50400001928E-02 0. -1.
       -1    1    3    3    0  502 -0.10983416918E+04  0.13905222016E+03  0.53186678963E+03  0.12282395019E+04  0.50400001928E-02 0.  1.
</event>
<event>
 5   0  0.9491680E-05  0.2403094E+04  0.7818609E-02  0.8438346E-01
        2   -1    0    0  501    0  0.00000000000E+00  0.00000000000E+00  0.12928625299E+04  0.12928625299E+04  0.25500000920E-02 0. -1.
       -2   -1    0    0    0  501  0.00000000000E+00  0.00000000000E+00 -0.11166808040E+04  0.11166808040E+04  0.25500000920E-02 0.  1.
    10030    2    1    2    0    0  0.00000000000E+00  0.00000000000E+00  0.17618172591E+03  0.24095433338E+04  0.24030936472E+04 0.  0.
        5    1    3    3  502    0  0.45255687726E+03 -0.10996404091E+04  0.26082022230E+03  0.12174013450E+04  0.46999998093E+01 0.  1.
       -5    1    3    3    0  502 -0.45255687726E+03  0.10996404091E+04 -0.84638496386E+02  0.11921419888E+04  0.46999998093E+01 0. -1.
</event>
<event>
 5   0  0.9182865E-05  0.1753907E+04  0.7818609E-02  0.8731203E-01
        2   -1    0    0  501    0  0.00000000000E+00  0.00000000000E+00  0.11509616333E+04  0.11509616333E+04  0.25500000920E-02 0.  1.
       -2   -1    0    0    0  501  0.00000000000E+00  0.00000000000E+00 -0.66817790215E+03  0.66817790215E+03  0.25500000920E-02 0. -1.
    10030    2    1    2    0    0  0.00000000000E+00  0.00000000000E+00  0.48278373117E+03  0.18191395355E+04  0.17539066447E+04 0.  0.
        3    1    3    3  502    0  0.36026711375E+03  0.63705370635E+03 -0.25971004771E+03  0.77658170021E+03  0.10100000352E+00 0. -1.
       -3    1    3    3    0  502 -0.36026711375E+03 -0.63705370635E+03  0.74249377888E+03  0.10425578353E+04  0.10100000352E+00 0.  1.
</event>
<event>
 5   0  0.4208577E-05  0.2467775E+04  0.7818609E-02  0.8414557E-01
        1   -1    0    0  501    0  0.00000000000E+00  0.00000000000E+00  0.11516162103E+04  0.11516162104E+04  0.50400001928E-02 0.  1.
       -1   -1    0    0    0  501  0.00000000000E+00  0.00000000000E+00 -0.13220357768E+04  0.13220357769E+04  0.50400001928E-02 0. -1.
    10030    2    1    2    0    0  0.00000000000E+00  0.00000000000E+00 -0.17041956650E+03  0.24736519872E+04  0.24677745694E+04 0.  0.
        1    1    3    3  502    0  0.12164230688E+04 -0.25277828631E+02  0.12059306433E+03  0.12226474300E+04  0.50400001928E-02 0. -1.
       -1    1    3    3    0  502 -0.12164230688E+04  0.25277828631E+02 -0.29101263083E+03  0.12510045572E+04  0.50400001928E-02 0.  1.
</event>
<event>
 5   0  0.4208577E-05  0.2339321E+04  0.7818609E-02  0.8462577E-01
        1   -1    0    0  501    0  0.00000000000E+00  0.00000000000E+00  0.18945347081E+04  0.18945347081E+04  0.50400001928E-02 0. -1.
       -1   -1    0    0    0  501  0.00000000000E+00  0.00000000000E+00 -0.72213295011E+03  0.72213295012E+03  0.50400001928E-02 0.  1.
    10030    2    1    2    0    0  0.00000000000E+00  0.00000000000E+00  0.11724017580E+04  0.26166676582E+04  0.23393212159E+04 0.  0.
        1    1    3    3  502    0 -0.48390977957E+03  0.28311124961E+02  0.17768935392E+04  0.18418254109E+04  0.50400001928E-02 0. -1.
       -1    1    3    3    0  502  0.48390977957E+03 -0.28311124961E+02 -0.60449178125E+03  0.77484224729E+03  0.50400001928E-02 0.  1.
</event>
<event>
 5   0  0.4061631E-05  0.2412670E+04  0.7818609E-02  0.8434775E-01
       -1   -1    0    0    0  501  0.00000000000E+00  0.00000000000E+00  0.65015199358E+03  0.65015199360E+03  0.50400001928E-02 0. -1.
        1   -1    0    0  501    0  0.00000000000E+00  0.00000000000E+00 -0.22383131126E+04  0.22383131126E+04  0.50400001928E-02 0.  1.
    10030    2    1    2    0    0  0.00000000000E+00  0.00000000000E+00 -0.15881611190E+04  0.28884651062E+04  0.24126696686E+04 0.  0.
        3    1    3    3  502    0 -0.61958270008E+03  0.13054250537E+03 -0.20233735700E+04  0.21201331755E+04  0.10100000352E+00 0.  1.
       -3    1    3    3    0  502  0.61958270008E+03 -0.13054250537E+03  0.43521245102E+03  0.76833193065E+03  0.10100000352E+00 0. -1.
</event>
<event>
 5   0  0.9491680E-05  0.2468202E+04  0.7818609E-02  0.8414402E-01
       -2   -1    0    0    0  501  0.00000000000E+00  0.00000000000E+00  0.60500233190E+03  0.60500233190E+03  0.25500000920E-02 0. -1.
        2   -1    0    0  501    0  0.00000000000E+00  0.00000000000E+00 -0.25173543521E+04  0.25173543521E+04  0.25500000920E-02 0.  1.
    10030    2    1    2    0    0  0.00000000000E+00  0.00000000000E+00 -0.19123520202E+04  0.31223566840E+04  0.24682019798E+04 0.  0.
        5    1    3    3  502    0  0.52017944614E+03  0.21334288825E+03 -0.23459177441E+04  0.24123544508E+04  0.46999998093E+01 0.  1.
       -5    1    3    3    0  502 -0.52017944614E+03 -0.21334288825E+03  0.43356572393E+03  0.71000223318E+03  0.46999998093E+01 0. -1.
</event>
<event>
 5   0  0.9144244E-05  0.2414804E+04  0.7818609E-02  0.8433982E-01
        2   -1    0    0  501    0  0.00000000000E+00  0.00000000000E+00  0.23490557832E+04  0.23490557832E+04  0.25500000920E-02 0. -1.
       -2   -1    0    0    0  501  0.00000000000E+00  0.00000000000E+00 -0.62059791103E+03  0.62059791104E+03  0.25500000920E-02 0.  1.
    10030    2    1    2    0    0  0.00000000000E+00  0.00000000000E+00  0.17284578722E+04  0.29696536943E+04  0.24148036044E+04 0.  0.
        1    1    3    3  502    0 -0.80627625274E+03  0.84213852115E+03  0.12502679632E+04  0.17095170852E+04  0.50400001928E-02 0. -1.
       -1    1    3    3    0  502  0.80627625274E+03 -0.84213852115E+03  0.47818990896E+03  0.12601366091E+04  0.50400001928E-02 0.  1.
</event>
<event>
 5   0  0.4018942E-05  0.2339404E+04  0.7818609E-02  0.8462545E-01
       -1   -1    0    0    0  501  0.00000000000E+00  0.00000000000E+00  0.12098609392E+04  0.12098609392E+04  0.50400001928E-02 0.  1.
        1   -1    0    0  501    0  0.00000000000E+00  0.00000000000E+00 -0.11308756187E+04  0.11308756187E+04  0.50400001928E-02 0. -1.
    10030    2    1    2    0    0  0.00000000000E+00  0.00000000000E+00  0.78985320456E+02  0.23407365579E+04  0.23394035464E+04 0.  0.
        5    1    3    3  502    0  0.41530451671E+03  0.10435429508E+04  0.36635971474E+03  0.11813980119E+04  0.46999998093E+01 0. -1.
       -5    1    3    3    0  502 -0.41530451671E+03 -0.10435429508E+04 -0.28737439429E+03  0.11593385460E+04  0.46999998093E+01 0.  1.
</event>
<event>
 5   0  0.4018942E-05  0.2358819E+04  0.7818609E-02  0.8455084E-01
        1   -1    0    0  501    0  0.00000000000E+00  0.00000000000E+00  0.76987132411E+03  0.76987132412E+03  0.50400001928E-02 0.  1.
       -1   -1    0    0    0  501  0.00000000000E+00  0.00000000000E+00 -0.18068044582E+04  0.18068044582E+04  0.50400001928E-02 0. -1.
    10030    2    1    2    0    0  0.00000000000E+00  0.00000000000E+00 -0.10369331341E+04  0.25766757823E+04  0.23588191458E+04 0.  0.
        5    1    3    3  502    0 -0.19449505748E+02 -0.34766668383E+03  0.71243006094E+03  0.79298744507E+03  0.46999998093E+01 0.  1.
       -5    1    3    3    0  502  0.19449505748E+02  0.34766668383E+03 -0.17493631950E+04  0.17836883372E+04  0.46999998093E+01 0. -1.
</event>
<event>
 5   0  0.9144244E-05  0.2074520E+04  0.7818609E-02  0.8572551E-01
        2   -1    0    0  501    0  0.00000000000E+00  0.00000000000E+00  0.12407275137E+04  0.12407275137E+04  0.25500000920E-02 0. -1.
       -2   -1    0    0    0  501  0.00000000000E+00  0.00000000000E+00 -0.86715942514E+03  0.86715942515E+03  0.25500000920E-02 0.  1.
    10030    2    1    2    0    0  0.00000000000E+00  0.00000000000E+00  0.37356808854E+03  0.21078869388E+04  0.20745202410E+04 0.  0.
        1    1    3    3  502    0  0.30023167092E+03 -0.11880751129E+03 -0.81479566912E+03  0.87643953779E+03  0.50400001928E-02 0.  1.
       -1    1    3    3    0  502 -0.30023167092E+03  0.11880751129E+03  0.11883637577E+04  0.12314474010E+04  0.50400001928E-02 0. -1.
</event>
<event>
 5   0  0.4061631E-05  0.2156788E+04  0.7818609E-02  0.8536632E-01
       -1   -1    0    0    0  501  0.00000000000E+00  0.00000000000E+00  0.72498968988E+03  0.72498968990E+03  0.50400001928E-02 0.  1.
        1   -1    0    0  501    0  0.00000000000E+00  0.00000000000E+00 -0.16040697796E+04  0.16040697797E+04  0.50400001928E-02 0. -1.
    10030    2    1    2    0    0  0.00000000000E+00  0.00000000000E+00 -0.87908008976E+03  0.23290594695E+04  0.21567884014E+04 0.  0.
        3    1    3    3  502    0 -0.68965152995E+03  0.82623665940E+03 -0.36591995012E+03  0.11367425699E+04  0.10100000352E+00 0. -1.
       -3    1    3    3    0  502  0.68965152995E+03 -0.82623665940E+03 -0.51316013964E+03  0.11923168997E+04  0.10100000352E+00 0.  1.
</event>
<event>
 5   0  0.3934906E-05  0.2375809E+04  0.7818609E-02  0.8448616E-01
       -1   -1    0    0    0  501  0.00000000000E+00  0.00000000000E+00  0.13158990000E+04  0.13158990000E+04  0.50400001928E-02 0.  1.
        1   -1    0    0  501    0  0.00000000000E+00  0.00000000000E+00 -0.10723596222E+04  0.10723596222E+04  0.50400001928E-02 0. -1.
    10030    2    1    2    0    0  0.00000000000E+00  0.00000000000E+00  0.24353937780E+03  0.23882586222E+04  0.23758088766E+04 0.  0.
        2    1    3    3  502    0 -0.11728519216E+04 -0.18572920934E+03  0.15418748388E+03  0.11974350710E+04  0.25500000920E-02 0. -1.
       -2    1    3    3    0  502  0.11728519216E+04  0.18572920934E+03  0.89351893922E+02  0.11908235512E+04  0.25500000920E-02 0.  1.
</event>
<event>
 5   0  0.4260395E-05  0.2532221E+04  0.7818609E-02  0.8391596E-01
       -1   -1    0    0    0  501  0.00000000000E+00  0.00000000000E+00  0.15362876736E+04  0.15362876736E+04  0.50400001928E-02 0. -1.
        1   -1    0    0  501    0  0.00000000000E+00  0.00000000000E+00 -0.10434476413E+04  0.10434476414E+04  0.50400001928E-02 0.  1.
    10030    2    1    2    0    0  0.00000000000E+00  0.00000000000E+00  0.49284003224E+03  0.25797353149E+04  0.25322209615E+04 0.  0.
        4    1    3    3  502    0  0.75777623811E+03 -0.64258380201E+03 -0.55309572365E+03  0.11371258778E+04  0.12699999809E+01 0. -1.
       -4    1    3    3    0  502 -0.75777623811E+03  0.64258380201E+03  0.10459357559E+04  0.14426094371E+04  0.12699999809E+01 0.  1.
</event>
<event>
 5   0  0.4260395E-05  0.2405677E+04  0.7818609E-02  0.8437381E-01
       -1   -1    0    0    0  501  0.00000000000E+00  0.00000000000E+00  0.79566951397E+03  0.79566951399E+03  0.50400001928E-02 0. -1.
        1   -1    0    0  501    0  0.00000000000E+00  0.00000000000E+00 -0.18183679681E+04  0.18183679681E+04  0.50400001928E-02 0.  1.
    10030    2    1    2    0    0  0.00000000000E+00  0.00000000000E+00 -0.10226984541E+04  0.26140374821E+04  0.24056765846E+04 0.  0.
        4    1    3    3  502    0  0.54512732939E+03  0.90354402764E+03  0.11594016434E+03  0.10616022559E+04  0.12699999809E+01 0. -1.
       -4    1    3    3    0  502 -0.54512732939E+03 -0.90354402764E+03 -0.11386386184E+04  0.15524352262E+04  0.12699999809E+01 0.  1.
</event>
<event>
 5   0  0.4208577E-05  0.2394815E+04  0.7818609E-02  0.8441447E-01
        1   -1    0    0  501    0  0.00000000000E+00  0.00000000000E+00  0.24254974786E+04  0.24254974786E+04  0.50400001928E-02 0.  1.
       -1   -1    0    0    0  501  0.00000000000E+00  0.00000000000E+00 -0.59113016864E+03  0.59113016866E+03  0.50400001928E-02 0. -1.
    10030    2    1    2    0    0  0.00000000000E+00  0.00000000000E+00  0.18343673100E+04  0.30166276473E+04  0.23948150105E+04 0.  0.
        1    1    3    3  502    0 -0.11042231965E+04  0.81559315027E+02  0.14914290572E+04  0.18575040840E+04  0.50400001928E-02 0.  1.
       -1    1    3    3    0  502  0.11042231965E+04 -0.81559315027E+02  0.34293825281E+03  0.11591235632E+04  0.50400001928E-02 0. -1.
</event>
<event>
 5   0  0.4061631E-05  0.2399332E+04  0.7818609E-02  0.8439754E-01
       -1   -1    0    0    0  501  0.00000000000E+00  0.00000000000E+00  0.12009224272E+04  0.12009224272E+04  0.50400001928E-02 0. -1.
        1   -1    0    0  501    0  0.00000000000E+00  0.00000000000E+00 -0.11984106930E+04  0.11984106930E+04  0.50400001928E-02 0.  1.
    10030    2    1    2    0    0  0.00000000000E+00  0.00000000000E+00  0.25117342223E+01  0.23993331202E+04  0.23993318055E+04 0.  0.
        3    1    3    3  502    0  0.10615292952E+04  0.43626015347E+03  0.35058527552E+03  0.12000322545E+04  0.10100000352E+00 0. -1.
       -3    1    3    3    0  502 -0.10615292952E+04 -0.43626015347E+03 -0.34807354129E+03  0.11993008657E+04  0.10100000352E+00 0.  1.
</event>
<event>
 5   0  0.4260395E-05  0.2458461E+04  0.7818609E-02  0.8417935E-01
        1   -1    0    0  501    0  0.00000000000E+00  0.00000000000E+00  0.12467568308E+04  0.12467568308E+04  0.50400001928E-02 0. -1.
       -1   -1    0    0    0  501  0.00000000000E+00  0.00000000000E+00 -0.12119503549E+04  0.12119503550E+04  0.50400001928E-02 0.  1.
    10030    2    1    2    0    0  0.00000000000E+00  0.00000000000E+00  0.34806475844E+02  0.24587071858E+04  0.24584608060E+04 0.  0.
        4    1    3    3  502    0 -0.10461315109E+04  0.19104134163E+03 -0.59919552210E+03  0.12206247658E+04  0.12699999809E+01 0.  1.
       -4    1    3    3    0  502  0.10461315109E+04 -0.19104134163E+03  0.63400199794E+03  0.12380824199E+04  0.12699999809E+01 0. -1.
</event>
<event>
 5   0  0.9491680E-05  0.2402392E+04  0.7818609E-02  0.8438609E-01
        2   -1    0    0  501    0  0.00000000000E+00  0.00000000000E+00  0.19109523346E+04  0.19109523346E+04  0.25500000920E-02 0. -1.
       -2   -1    0    0    0  501  0.00000000000E+00  0.00000000000E+00 -0.75505362610E+03  0.75505362610E+03  0.25500000920E-02 0.  1.
    10030    2    1    2    0    0  0.00000000000E+00  0.00000000000E+00  0.11558987085E+04  0.26660059607E+04  0.24023917163E+04 0.  0.
        5    1    3    3  502    0  0.68828030895E+03  0.95994974709E+03  0.33579393070E+03  0.12280117892E+04  0.46999998093E+01 0.  1.
       -5    1    3    3    0  502 -0.68828030895E+03 -0.95994974709E+03  0.82010477784E+03  0.14379941715E+04  0.46999998093E+01 0. -1.
</event>
<event>
 5   0  0.3934906E-05  0.2360567E+04  0.7818609E-02  0.8454416E-01
       -1   -1    0    0    0  501  0.00000000000E+00  0.00000000000E+00  0.91517314825E+03  0.91517314827E+03  0.50400001928E-02 0.  1.
        1   -1    0    0  501    0  0.00000000000E+00  0.00000000000E+00 -0.15221914579E+04  0.15221914580E+04  0.50400001928E-02 0. -1.
    10030    2    1    2    0    0  0.00000000000E+00  0.00000000000E+00 -0.60701830969E+03  0.24373646062E+04  0.23605666683E+04 0.  0.
        2    1    3    3  502    0 -0.11652805786E+04 -0.10507348745E+03 -0.14305234278E+03  0.11787210176E+04  0.25500000920E-02 0. -1.
       -2    1    3    3    0  502  0.11652805786E+04  0.10507348745E+03 -0.46396596692E+03  0.12586435886E+04  0.25500000920E-02 0.  1.
</event>
<event>
 5   0  0.4061631E-05  0.2441167E+04  0.7818609E-02  0.8424250E-01
       -1   -1    0    0    0  501  0.00000000000E+00  0.00000000000E+00  0.84194392111E+03  0.84194392112E+03  0.50400001928E-02 0. -1.
        1   -1    0    0  501    0  0.00000000000E+00  0.00000000000E+00 -0.17695055901E+04  0.17695055901E+04  0.50400001928E-02 0.  1.
    10030    2    1    2    0    0  0.00000000000E+00  0.00000000000E+00 -0.92756166902E+03  0.26114495113E+04  0.24411673232E+04 0.  0.
        3    1    3    3  502    0 -0.60586343024E+03  0.53687892264E+03  0.51345899023E+03  0.95861859909E+03  0.10100000352E+00 0. -1.
       -3    1    3    3    0  502  0.60586343024E+03 -0.53687892264E+03 -0.14410206592E+04  0.16528309122E+04  0.10100000352E+00 0.  1.
</event>
<event>
 5   0  0.3934906E-05  0.2383484E+04  0.7818609E-02  0.8445713E-01
        1   -1    0    0  501    0  0.00000000000E+00  0.00000000000E+00  0.14743882388E+04  0.14743882389E+04  0.50400001928E-02 0. -1.
       -1   -1    0    0    0  501  0.00000000000E+00  0.00000000000E+00 -0.96328043514E+03  0.96328043515E+03  0.50400001928E-02 0.  1.
    10030    2    1    2    0    0  0.00000000000E+00  0.00000000000E+00  0.51110780371E+03  0.24376686740E+04  0.23834842935E+04 0.  0.
        2    1    3    3  502    0  0.35978354907E+03 -0.98774301838E+03 -0.31860756197E+03  0.10984494759E+04  0.25500000920E-02 0.  1.
       -2    1    3    3    0  502 -0.35978354907E+03  0.98774301838E+03  0.82971536568E+03  0.13392191981E+04  0.25500000920E-02 0. -1.
</event>
<event>
 5   0  0.9144244E-05  0.1201754E+04  0.7818609E-02  0.9111323E-01
       -2   -1    0    0    0  501  0.00000000000E+00  0.00000000000E+00  0.46284839574E+03  0.46284839575E+03  0.25500000920E-02 0. -1.
        2   -1    0    0  501    0  0.00000000000E+00  0.00000000000E+00 -0.78006755999E+03  0.78006756000E+03  0.25500000920E-02 0.  1.
    10030    2    1    2    0    0  0.00000000000E+00  0.00000000000E+00 -0.31721916425E+03  0.12429159557E+04  0.12017537497E+04 0.  0.
        1    1    3    3  502    0 -0.10255827374E+03  0.27434529528E+03 -0.70124146444E+03  0.75994942728E+03  0.50400001928E-02 0.  1.
       -1    1    3    3    0  502  0.10255827374E+03 -0.27434529528E+03  0.38402230018E+03  0.48296652846E+03  0.50400001928E-02 0. -1.
</event>
<event>
 5   0  0.4208577E-05  0.2436409E+04  0.7818609E-02  0.8425997E-01
       -1   -1    0    0    0  501  0.00000000000E+00  0.00000000000E+00  0.10781683231E+04  0.10781683231E+04  0.50400001928E-02 0.  1.
        1   -1    0    0  501    0  0.00000000000E+00  0.00000000000E+00 -0.13764291782E+04  0.13764291782E+04  0.50400001928E-02 0. -1.
    10030    2    1    2    0    0  0.00000000000E+00  0.00000000000E+00 -0.29826085510E+03  0.24545975013E+04  0.24364091109E+04 0.  0.
        1    1    3    3  502    0 -0.24654510256E+03 -0.69626846651E+01 -0.13510112871E+04  0.13733406222E+04  0.50400001928E-02 0. -1.
       -1    1    3    3    0  502  0.24654510256E+03  0.69626846651E+01  0.10527504320E+04  0.10812568791E+04  0.50400001928E-02 0.  1.
</event>
<event>
 5   0  0.9750757E-05  0.2172854E+04  0.7818609E-02  0.8529812E-01
       -2   -1    0    0    0  501  0.00000000000E+00  0.00000000000E+00  0.91930496579E+03  0.91930496580E+03  0.25500000920E-02 0.  1.
        2   -1    0    0  501    0  0.00000000000E+00  0.00000000000E+00 -0.12839306517E+04  0.12839306517E+04  0.25500000920E-02 0. -1.
    10030    2    1    2    0    0  0.00000000000E+00  0.00000000000E+00 -0.36462568590E+03  0.22032356175E+04  0.21728541818E+04 0.  0.
        2    1    3    3  502    0 -0.68844713037E+03  0.17953230955E+03  0.65022311719E+03  0.96383681379E+03  0.25500000920E-02 0.  1.
       -2    1    3    3    0  502  0.68844713037E+03 -0.17953230955E+03 -0.10148488031E+04  0.12393988037E+04  0.25500000920E-02 0. -1.
</event>
<event>
 5   0  0.3234750E-05  0.2394852E+04  0.7818609E-02  0.8441433E-01
       -3   -1    0    0    0  501  0.00000000000E+00  0.00000000000E+00  0.88065578365E+03  0.88065578944E+03  0.10100000352E+00 0.  1.
        3   -1    0    0  501    0  0.00000000000E+00  0.00000000000E+00 -0.16281383216E+04  0.16281383247E+04  0.10100000352E+00 0. -1.
    10030    2    1    2    0    0  0.00000000000E+00  0.00000000000E+00 -0.74748253792E+03  0.25087941141E+04  0.23948523467E+04 0.  0.
        4    1    3    3  502    0  0.10264633988E+03 -0.51843901780E+03 -0.14993452158E+04  0.15897650692E+04  0.12699999809E+01 0. -1.
       -4    1    3    3    0  502 -0.10264633988E+03  0.51843901780E+03  0.75186267784E+03  0.91902904497E+03  0.12699999809E+01 0.  1.
</event>
<event>
 5   0  0.4208577E-05  0.2085397E+04  0.7818609E-02  0.8567703E-01
        1   -1    0    0  501    0  0.00000000000E+00  0.00000000000E+00  0.17155793668E+04  0.17155793669E+04  0.50400001928E-02 0.  1.
       -1   -1    0    0    0  501  0.00000000000E+00  0.00000000000E+00 -0.63373372734E+03  0.63373372736E+03  0.50400001928E-02 0. -1.
    10030    2    1    2    0    0  0.00000000000E+00  0.00000000000E+00  0.10818456395E+04  0.23493130942E+04  0.20853973307E+04 0.  0.
        1    1    3    3  502    0 -0.62210297640E+03  0.77279395952E+03  0.90247105753E+03  0.13411475037E+04  0.50400001928E-02 0.  1.
       -1    1    3    3    0  502  0.62210297640E+03 -0.77279395952E+03  0.17937458198E+03  0.10081655905E+04  0.50400001928E-02 0. -1.
</event>
<event>
 5   0  0.4061631E-05  0.2420557E+04  0.7818609E-02  0.8431847E-01
        1   -1    0    0  501    0  0.00000000000E+00  0.00000000000E+00  0.15051286976E+04  0.15051286976E+04  0.50400001928E-02 0.  1.
       -1   -1    0    0    0  501  0.00000000000E+00  0.00000000000E+00 -0.97318875060E+03  0.97318875062E+03  0.50400001928E-02 0. -1.
    10030    2    1    2    0    0  0.00000000000E+00  0.00000000000E+00  0.53193994702E+03  0.24783174482E+04  0.24205572224E+04 0.  0.
        3    1    3    3  502    0  0.49359033613E+03  0.94532623202E+03 -0.31996312251E+03  0.11133954890E+04  0.10100000352E+00 0. -1.
       -3    1    3    3    0  502 -0.49359033613E+03 -0.94532623202E+03  0.85190306953E+03  0.13649219593E+04  0.10100000352E+00 0.  1.
</event>
<event>
 5   0  0.9182865E-05  0.1710071E+04  0.7818609E-02  0.8755641E-01
       -2   -1    0    0    0  501  0.00000000000E+00  0.00000000000E+00  0.10432646269E+04  0.10432646269E+04  0.25500000920E-02 0. -1.
        2   -1    0    0  501    0  0.00000000000E+00  0.00000000000E+00 -0.70076713645E+03  0.70076713646E+03  0.25500000920E-02 0.  1.
    10030    2    1    2    0    0  0.00000000000E+00  0.00000000000E+00  0.34249749046E+03  0.17440317634E+04  0.17100708350E+04 0.  0.
        3    1    3    3  502    0  0.62709705516E+03 -0.24658985558E+03 -0.36553869304E+03  0.76660016944E+03  0.10100000352E+00 0.  1.
       -3    1    3    3    0  502 -0.62709705516E+03  0.24658985558E+03  0.70803618350E+03  0.97743159393E+03  0.10100000352E+00 0. -1.
</event>
<event>
 5   0  0.9519092E-05  0.2268135E+04  0.7818609E-02  0.8490592E-01
       -2   -1    0    0    0  501  0.00000000000E+00  0.00000000000E+00  0.14575837174E+04  0.14575837174E+04  0.25500000920E-02 0.  1.
        2   -1    0    0  501    0  0.00000000000E+00  0.00000000000E+00 -0.88235700609E+03  0.88235700610E+03  0.25500000920E-02 0. -1.
    10030    2    1    2    0    0  0.00000000000E+00  0.00000000000E+00  0.57522671127E+03  0.23399407235E+04  0.22681350974E+04 0.  0.
        4    1    3    3  502    0 -0.18421097423E+03 -0.38303462069E+03  0.13723071027E+04  0.14366202006E+04  0.12699999809E+01 0.  1.
       -4    1    3    3    0  502  0.18421097423E+03  0.38303462069E+03 -0.79708039146E+03  0.90332052286E+03  0.12699999809E+01 0. -1.
</event>
<event>
 5   0  0.4208577E-05  0.2248062E+04  0.7818609E-02  0.8498686E-01
       -1   -1    0    0    0  501  0.00000000000E+00  0.00000000000E+00  0.11503304272E+04  0.11503304272E+04  0.50400001928E-02 0.  1.
        1   -1    0    0  501    0  0.00000000000E+00  0.00000000000E+00 -0.10983324606E+04  0.10983324606E+04  0.50400001928E-02 0. -1.
    10030    2    1    2    0    0  0.00000000000E+00  0.00000000000E+00  0.51997966610E+02  0.22486628878E+04  0.22480616083E+04 0.  0.
        1    1    3    3  502    0 -0.77157721741E+03  0.55377051113E+03  0.62736862437E+03  0.11382374850E+04  0.50400001928E-02 0. -1.
       -1    1    3    3    0  502  0.77157721741E+03 -0.55377051113E+03 -0.57537065776E+03  0.11104254028E+04  0.50400001928E-02 0.  1.
</event>
<event>
 5   0  0.4018942E-05  0.2397774E+04  0.7818609E-02  0.8440338E-01
        1   -1    0    0  501    0  0.00000000000E+00  0.00000000000E+00  0.61132502390E+03  0.61132502393E+03  0.50400001928E-02 0.  1.
       -1   -1    0    0    0  501  0.00000000000E+00  0.00000000000E+00 -0.23511710651E+04  0.23511710651E+04  0.50400001928E-02 0. -1.
    10030    2    1    2    0    0  0.00000000000E+00  0.00000000000E+00 -0.17398460412E+04  0.29624960890E+04  0.23977737238E+04 0.  0.
        5    1    3    3  502    0  0.50140779772E+03 -0.35137896487E+03  0.40357972870E+03  0.73333187847E+03  0.46999998093E+01 0.  1.
       -5    1    3    3    0  502 -0.50140779772E+03  0.35137896487E+03 -0.21434257699E+04  0.22291642105E+04  0.46999998093E+01 0. -1.
</event>
<event>
 5   0  0.9182865E-05  0.2230109E+04  0.7818609E-02  0.8505999E-01
       -2   -1    0    0    0  501  0.00000000000E+00  0.00000000000E+00  0.10816253229E+04  0.10816253229E+04  0.25500000920E-02 0. -1.
        2   -1    0    0  501    0  0.00000000000E+00  0.00000000000E+00 -0.11495172766E+04  0.11495172766E+04  0.25500000920E-02 0.  1.
    10030    2    1    2    0    0  0.00000000000E+00  0.00000000000E+00 -0.67891953743E+02  0.22311425995E+04  0.22301094103E+04 0.  0.
        3    1    3    3  502    0  0.85289405235E+03 -0.58088024345E+03 -0.45663060366E+03  0.11284332679E+04  0.10100000352E+00 0.  1.
       -3    1    3    3    0  502 -0.85289405235E+03  0.58088024345E+03  0.38873864992E+03  0.11027093316E+04  0.10100000352E+00 0. -1.
</event>
<event>
 5   0  0.4260395E-05  0.2209779E+04  0.7818609E-02  0.8514369E-01
        1   -1    0    0  501    0  0.00000000000E+00  0.00000000000E+00  0.11975184538E+04  0.11975184538E+04  0.50400001928E-02 0.  1.
       -1   -1    0    0    0  501  0.00000000000E+00  0.00000000000E+00 -0.10194258575E+04  0.10194258575E+04  0.50400001928E-02 0. -1.
    10030    2    1    2    0    0  0.00000000000E+00  0.00000000000E+00  0.17809259637E+03  0.22169443113E+04  0.22097794248E+04 0.  0.
        4    1    3    3  502    0 -0.55012096884E+03  0.89223101353E+03 -0.26147228337E+03  0.10803141347E+04  0.12699999809E+01 0. -1.
       -4    1    3    3    0  502  0.55012096884E+03 -0.89223101353E+03  0.43956487973E+03  0.11366301766E+04  0.12699999809E+01 0.  1.
</event>
<event>
 5   0  0.9182865E-05  0.2357859E+04  0.7818609E-02  0.8455451E-01
       -2   -1    0    0    0  501  0.00000000000E+00  0.00000000000E+00  0.67004529896E+03  0.67004529896E+03  0.25500000920E-02 0.  1.
        2   -1    0    0  501    0  0.00000000000E+00  0.00000000000E+00 -0.20743000280E+04  0.20743000280E+04  0.25500000920E-02 0. -1.
    10030    2    1    2    0    0  0.00000000000E+00  0.00000000000E+00 -0.14042547290E+04  0.27443453270E+04  0.23578591836E+04 0.  0.
        3    1    3    3  502    0 -0.81255701824E+03  0.43517936784E+02  0.29077536805E+03  0.86411402232E+03  0.10100000352E+00 0.  1.
       -3    1    3    3    0  502  0.81255701824E+03 -0.43517936784E+02 -0.16950300971E+04  0.18802313046E+04  0.10100000352E+00 0. -1.
</event>
<event>
 5   0  0.3234750E-05  0.2381146E+04  0.7818609E-02  0.8446596E-01
       -3   -1    0    0    0  501  0.00000000000E+00  0.00000000000E+00  0.12995604977E+04  0.12995605016E+04  0.10100000352E+00 0.  1.
        3   -1    0    0  501    0  0.00000000000E+00  0.00000000000E+00 -0.10907256399E+04  0.10907256446E+04  0.10100000352E+00 0. -1.
    10030    2    1    2    0    0  0.00000000000E+00  0.00000000000E+00  0.20883485777E+03  0.23902861463E+04  0.23811459139E+04 0.  0.
        2    1    3    3  502    0 -0.30291407565E+03  0.97870878057E+03  0.71324048401E+03  0.12483348118E+04  0.25500000920E-02 0.  1.
       -2    1    3    3    0  502  0.30291407565E+03 -0.97870878057E+03 -0.50440562625E+03  0.11419513344E+04  0.25500000920E-02 0. -1.
</event>
<event>
 5   0  0.3934906E-05  0.2426429E+04  0.7818609E-02  0.8429675E-01
        1   -1    0    0  501    0  0.00000000000E+00  0.00000000000E+00  0.11624859137E+04  0.11624859137E+04  0.50400001928E-02 0.  1.
       -1   -1    0    0    0  501  0.00000000000E+00  0.00000000000E+00 -0.12661572237E+04  0.12661572237E+04  0.50400001928E-02 0. -1.
    10030    2    1    2    0    0  0.00000000000E+00  0.00000000000E+00 -0.10367131001E+03  0.24286431374E+04  0.24264294237E+04 0.  0.
        2    1    3    3  502    0 -0.79198111009E+03  0.72070151448E+02 -0.96889300820E+03  0.12534679281E+04  0.25500000920E-02 0. -1.
       -2    1    3    3    0  502  0.79198111009E+03 -0.72070151448E+02  0.86522169819E+03  0.11751752093E+04  0.25500000920E-02 0.  1.
</event>
<event>
 5   0  0.9491680E-05  0.2344627E+04  0.7818609E-02  0.8460530E-01
       -2   -1    0    0    0  501  0.00000000000E+00  0.00000000000E+00  0.69349379256E+03  0.69349379257E+03  0.25500000920E-02 0.  1.
        2   -1    0    0  501    0  0.00000000000E+00  0.00000000000E+00 -0.19817323726E+04  0.19817323726E+04  0.25500000920E-02 0. -1.
    10030    2    1    2    0    0  0.00000000000E+00  0.00000000000E+00 -0.12882385800E+04  0.26752261652E+04  0.23446271336E+04 0.  0.
        5    1    3    3  502    0 -0.12360385871E+03  0.57940343426E+03 -0.17983443152E+04  0.18934229901E+04  0.46999998093E+01 0. -1.
       -5    1    3    3    0  502  0.12360385871E+03 -0.57940343426E+03  0.51010573515E+03  0.78180317507E+03  0.46999998093E+01 0.  1.
</event>
<event>
 5   0  0.4208577E-05  0.2285222E+04  0.7818609E-02  0.8483771E-01
        1   -1    0    0  501    0  0.00000000000E+00  0.00000000000E+00  0.15191804831E+04  0.15191804831E+04  0.50400001928E-02 0. -1.
       -1   -1    0    0    0  501  0.00000000000E+00  0.00000000000E+00 -0.85938456226E+03  0.85938456227E+03  0.50400001928E-02 0.  1.
    10030    2    1    2    0    0  0.00000000000E+00  0.00000000000E+00  0.65979592086E+03  0.23785650454E+04  0.22852223126E+04 0.  0.
        1    1    3    3  502    0  0.93345067579E+03 -0.25524495509E+03  0.96223248345E+03  0.13646873281E+04  0.50400001928E-02 0. -1.
       -1    1    3    3    0  502 -0.93345067579E+03  0.25524495509E+03 -0.30243656259E+03  0.10138777173E+04  0.50400001928E-02 0.  1.
</event>
<event>
 5   0  0.4208577E-05  0.2221915E+04  0.7818609E-02  0.8509362E-01
       -1   -1    0    0    0  501  0.00000000000E+00  0.00000000000E+00  0.97716925094E+03  0.97716925095E+03  0.50400001928E-02 0. -1.
        1   -1    0    0  501    0  0.00000000000E+00  0.00000000000E+00 -0.12630627917E+04  0.12630627917E+04  0.50400001928E-02 0.  1.
    10030    2    1    2    0    0  0.00000000000E+00  0.00000000000E+00 -0.28589354075E+03  0.22402320426E+04  0.22219145997E+04 0.  0.
        1    1    3    3  502    0 -0.25876588541E+03  0.33470673005E+03  0.89276950397E+03  0.98794016309E+03  0.50400001928E-02 0. -1.
       -1    1    3    3    0  502  0.25876588541E+03 -0.33470673005E+03 -0.11786630447E+04  0.12522918796E+04  0.50400001928E-02 0.  1.
</event>
<event>
 5   0  0.9182865E-05  0.2412545E+04  0.7818609E-02  0.8434822E-01
       -2   -1    0    0    0  501  0.00000000000E+00  0.00000000000E+00  0.66014674367E+03  0.66014674367E+03  0.25500000920E-02 0. -1.
        2   -1    0    0  501    0  0.00000000000E+00  0.00000000000E+00 -0.22041971888E+04  0.22041971888E+04  0.25500000920E-02 0.  1.
    10030    2    1    2    0    0  0.00000000000E+00  0.00000000000E+00 -0.15440504451E+04  0.28643439324E+04  0.24125452092E+04 0.  0.
        3    1    3    3  502    0  0.42851584030E+03 -0.90709391723E+03  0.23223094518E+02  0.10034861845E+04  0.10100000352E+00 0. -1.
       -3    1    3    3    0  502 -0.42851584030E+03  0.90709391723E+03 -0.15672735396E+04  0.18608577480E+04  0.10100000352E+00 0.  1.
</event>
<event>
 5   0  0.4260395E-05  0.2313801E+04  0.7818609E-02  0.8472499E-01
       -1   -1    0    0    0  501  0.00000000000E+00  0.00000000000E+00  0.15514585725E+04  0.15514585725E+04  0.50400001928E-02 0. -1.
        1   -1    0    0  501    0  0.00000000000E+00  0.00000000000E+00 -0.86268419010E+03  0.86268419011E+03  0.50400001928E-02 0.  1.
    10030    2    1    2    0    0  0.00000000000E+00  0.00000000000E+00  0.68877438239E+03  0.24141427626E+04  0.23138010131E+04 0.  0.
        4    1    3    3  502    0 -0.36413888276E+03  0.10539034937E+04  0.22618151356E+02  0.11152680815E+04  0.12699999809E+01 0.  1.
       -4    1    3    3    0  502  0.36413888276E+03 -0.10539034937E+04  0.66615623103E+03  0.12988746811E+04  0.12699999809E+01 0. -1.
</event>
<event>
 5   0  0.4208577E-05  0.2426207E+04  0.7818609E-02  0.8429757E-01
       -1   -1    0    0    0  501  0.00000000000E+00  0.00000000000E+00  0.11178409195E+04  0.11178409195E+04  0.50400001928E-02 0.  1.
        1   -1    0    0  501    0  0.00000000000E+00  0.00000000000E+00 -0.13164847572E+04  0.13164847572E+04  0.50400001928E-02 0. -1.
    10030    2    1    2    0    0  0.00000000000E+00  0.00000000000E+00 -0.19864383777E+03  0.24343256767E+04  0.24262073543E+04 0.  0.
        1    1    3    3  502    0  0.11145351787E+04 -0.16654820391E+03 -0.54992772539E+03  0.12539328020E+04  0.50400001928E-02 0. -1.
       -1    1    3    3    0  502 -0.11145351787E+04  0.16654820391E+03  0.35128388762E+03  0.11803928747E+04  0.50400001928E-02 0.  1.
</event>
<event>
 5   0  0.9491680E-05  0.2342643E+04  0.7818609E-02  0.8461295E-01
       -2   -1    0    0    0  501  0.00000000000E+00  0.00000000000E+00  0.10102338456E+04  0.10102338456E+04  0.25500000920E-02 0.  1.
        2   -1    0    0  501    0  0.00000000000E+00  0.00000000000E+00 -0.13580954227E+04  0.13580954227E+04  0.25500000920E-02 0. -1.
    10030    2    1    2    0    0  0.00000000000E+00  0.00000000000E+00 -0.34786157709E+03  0.23683292684E+04  0.23426429191E+04 0.  0.
        5    1    3    3  502    0  0.66259860678E+03  0.46255777113E+03  0.68329052707E+03  0.10582554700E+04  0.46999998093E+01 0.  1.
       -5    1    3    3    0  502 -0.66259860678E+03 -0.46255777113E+03 -0.10311521042E+04  0.13100737984E+04  0.46999998093E+01 0. -1.
</event>
<event>
 5   0  0.4018942E-05  0.1472391E+04  0.7818609E-02  0.8903023E-01
        1   -1    0    0  501    0  0.00000000000E+00  0.00000000000E+00  0.75247684941E+03  0.75247684942E+03  0.50400001928E-02 0. -1.
       -1   -1    0    0    0  501  0.00000000000E+00  0.00000000000E+00 -0.72026610053E+03  0.72026610055E+03  0.50400001928E-02 0.  1.
    10030    2    1    2    0    0  0.00000000000E+00  0.00000000000E+00  0.32210748871E+02  0.14727429500E+04  0.14723906630E+04 0.  0.
        5    1    3    3  502    0  0.44276764164E+03 -0.11052349902E+03 -0.56170302949E+03  0.72373407523E+03  0.46999998093E+01 0.  1.
       -5    1    3    3    0  502 -0.44276764164E+03  0.11052349902E+03  0.59391377836E+03  0.74900887474E+03  0.46999998093E+01 0. -1.
</event>
<event>
 5   0  0.9182865E-05  0.2386098E+04  0.7818609E-02  0.8444726E-01
        2   -1    0    0  501    0  0.00000000000E+00  0.00000000000E+00  0.10433207729E+04  0.10433207729E+04  0.25500000920E-02 0.  1.
       -2   -1    0    0    0  501  0.00000000000E+00  0.00000000000E+00 -0.13642653741E+04  0.13642653741E+04  0.25500000920E-02 0. -1.
    10030    2    1    2    0    0  0.00000000000E+00  0.00000000000E+00 -0.32094460125E+03  0.24075861470E+04  0.23860984091E+04 0.  0.
        3    1    3    3  502    0 -0.44503212635E+03  0.40564473385E+03 -0.11996817961E+04  0.13423254693E+04  0.10100000352E+00 0. -1.
       -3    1    3    3    0  502  0.44503212635E+03 -0.40564473385E+03  0.87873719483E+03  0.10652606777E+04  0.10100000352E+00 0.  1.
</event>
<event>
 5   0  0.3934906E-05  0.2329506E+04  0.7818609E-02  0.8466377E-01
       -1   -1    0    0    0  501  0.00000000000E+00  0.00000000000E+00  0.10191061405E+04  0.10191061406E+04  0.50400001928E-02 0.  1.
        1   -1    0    0  501    0  0.00000000000E+00  0.00000000000E+00 -0.13312152474E+04  0.13312152474E+04  0.50400001928E-02 0. -1.
    10030    2    1    2    0    0  0.00000000000E+00  0.00000000000E+00 -0.31210910688E+03  0.23503213880E+04  0.23295060705E+04 0.  0.
        2    1    3    3  502    0 -0.53058113645E+03 -0.85431035851E+03  0.43680740475E+03  0.10964320498E+04  0.25500000920E-02 0.  1.
       -2    1    3    3    0  502  0.53058113645E+03  0.85431035851E+03 -0.74891651163E+03  0.12538893382E+04  0.25500000920E-02 0. -1.
</event>
<event>
 5   0  0.4260395E-05  0.2434415E+04  0.7818609E-02  0.8426730E-01
       -1   -1    0    0    0  501  0.00000000000E+00  0.00000000000E+00  0.11099976960E+04  0.11099976960E+04  0.50400001928E-02 0. -1.
        1   -1    0    0  501    0  0.00000000000E+00  0.00000000000E+00 -0.13347727469E+04  0.13347727469E+04  0.50400001928E-02 0.  1.
    10030    2    1    2    0    0  0.00000000000E+00  0.00000000000E+00 -0.22477505090E+03  0.24447704429E+04  0.24344154730E+04 0.  0.
        4    1    3    3  502    0  0.10124470610E+04 -0.26429710120E+03  0.51210241624E+03  0.11649688866E+04  0.12699999809E+01 0. -1.
       -4    1    3    3    0  502 -0.10124470610E+04  0.26429710120E+03 -0.73687746714E+03  0.12798015563E+04  0.12699999809E+01 0.  1.
</event>
<event>
 5   0  0.4208577E-05  0.2378165E+04  0.7818609E-02  0.8447724E-01
       -1   -1    0    0    0  501  0.00000000000E+00  0.00000000000E+00  0.16144574311E+04  0.16144574311E+04  0.50400001928E-02 0. -1.
        1   -1    0    0  501    0  0.00000000000E+00  0.00000000000E+00 -0.87578461774E+03  0.87578461775E+03  0.50400001928E-02 0.  1.
    10030    2    1    2    0    0  0.00000000000E+00  0.00000000000E+00  0.73867281338E+03  0.24902420489E+04  0.23781648254E+04 0.  0.
        1    1    3    3  502    0  0.67918343235E+03 -0.96287042672E+03  0.53657350673E+03  0.12947280493E+04  0.50400001928E-02 0.  1.
       -1    1    3    3    0  502 -0.67918343235E+03  0.96287042672E+03  0.20209930664E+03  0.11955139996E+04  0.50400001928E-02 0. -1.
</event>
<event>
 5   0  0.4260395E-05  0.2335699E+04  0.7818609E-02  0.8463977E-01
        1   -1    0    0  501    0  0.00000000000E+00  0.00000000000E+00  0.11126717472E+04  0.11126717472E+04  0.50400001928E-02 0. -1.
       -1   -1    0    0    0  501  0.00000000000E+00  0.00000000000E+00 -0.12257633003E+04  0.12257633003E+04  0.50400001928E-02 0.  1.
    10030    2    1    2    0    0  0.00000000000E+00  0.00000000000E+00 -0.11309155312E+03  0.23384350476E+04  0.23356987760E+04 0.  0.
        4    1    3    3  502    0  0.99867284071E+03 -0.37821062789E+03  0.41674459779E+03  0.11463282229E+04  0.12699999809E+01 0. -1.
       -4    1    3    3    0  502 -0.99867284071E+03  0.37821062789E+03 -0.52983615091E+03  0.11921068247E+04  0.12699999809E+01 0.  1.
</event>
<event>
 5   0  0.9750757E-05  0.1793889E+04  0.7818609E-02  0.8709556E-01
        2   -1    0    0  501    0  0.00000000000E+00  0.00000000000E+00  0.10385386525E+04  0.10385386525E+04  0.25500000920E-02 0.  1.
       -2   -1    0    0    0  501  0.00000000000E+00  0.00000000000E+00 -0.77465488112E+03  0.77465488113E+03  0.25500000920E-02 0. -1.
    10030    2    1    2    0    0  0.00000000000E+00  0.00000000000E+00  0.26388377134E+03  0.18131935336E+04  0.17938885544E+04 0.  0.
        2    1    3    3  502    0 -0.41759645604E+03  0.29809197984E+03  0.87556526670E+03  0.10148202623E+04  0.25500000920E-02 0.  1.
       -2    1    3    3    0  502  0.41759645604E+03 -0.29809197984E+03 -0.61168149535E+03  0.79837327129E+03  0.25500000920E-02 0. -1.
</event>
<event>
 5   0  0.9144244E-05  0.2471221E+04  0.7818609E-02  0.8413310E-01
        2   -1    0    0  501    0  0.00000000000E+00  0.00000000000E+00  0.16225047258E+04  0.16225047258E+04  0.25500000920E-02 0.  1.
       -2   -1    0    0    0  501  0.00000000000E+00  0.00000000000E+00 -0.94097340254E+03  0.94097340254E+03  0.25500000920E-02 0. -1.
    10030    2    1    2    0    0  0.00000000000E+00  0.00000000000E+00  0.68153132329E+03  0.25634781284E+04  0.24712213923E+04 0.  0.
        1    1    3    3  502    0  0.65145300828E+03 -0.10408170820E+04  0.19761915009E+03  0.12436818519E+04  0.50400001928E-02 0. -1.
       -1    1    3    3    0  502 -0.65145300828E+03  0.10408170820E+04  0.48391217319E+03  0.13197962765E+04  0.50400001928E-02 0.  1.
</event>
<event>
 5   0  0.9182865E-05  0.1969817E+04  0.7818609E-02  0.8620864E-01
       -2   -1    0    0    0  501  0.00000000000E+00  0.00000000000E+00  0.78510964348E+03  0.78510964348E+03  0.25500000920E-02 0. -1.
        2   -1    0    0  501    0  0.00000000000E+00  0.00000000000E+00 -0.12355528984E+04  0.12355528984E+04  0.25500000920E-02 0.  1.
    10030    2    1    2    0    0  0.00000000000E+00  0.00000000000E+00 -0.45044325495E+03  0.20206625419E+04  0.19698167383E+04 0.  0.
        3    1    3    3  502    0 -0.21559516451E+03 -0.65232147149E+00  0.76060644192E+03  0.79057186275E+03  0.10100000352E+00 0. -1.
       -3    1    3    3    0  502  0.21559516451E+03  0.65232147149E+00 -0.12110496969E+04  0.12300906792E+04  0.10100000352E+00 0.  1.
</event>
<event>
 5   0  0.9144244E-05  0.2197806E+04  0.7818609E-02  0.8519342E-01
       -2   -1    0    0    0  501  0.00000000000E+00  0.00000000000E+00  0.11450548029E+04  0.11450548029E+04  0.25500000920E-02 0. -1.
        2   -1    0    0  501    0  0.00000000000E+00  0.00000000000E+00 -0.10546113196E+04  0.10546113196E+04  0.25500000920E-02 0.  1.
    10030    2    1    2    0    0  0.00000000000E+00  0.00000000000E+00  0.90443483258E+02  0.21996661225E+04  0.21978059575E+04 0.  0.
        1    1    3    3  502    0  0.68022427517E+03 -0.16896075185E+03 -0.80186033447E+03  0.10650036602E+04  0.50400001928E-02 0.  1.
       -1    1    3    3    0  502 -0.68022427517E+03  0.16896075185E+03  0.89230381773E+03  0.11346624623E+04  0.50400001928E-02 0. -1.
</event>
<event>
 5   0  0.9519092E-05  0.2408638E+04  0.7818609E-02  0.8436277E-01
       -2   -1    0    0    0  501  0.00000000000E+00  0.00000000000E+00  0.71217933269E+03  0.71217933270E+03  0.25500000920E-02 0. -1.
        2   -1    0    0  501    0  0.00000000000E+00  0.00000000000E+00 -0.20365435774E+04  0.20365435774E+04  0.25500000920E-02 0.  1.
    10030    2    1    2    0    0  0.00000000000E+00  0.00000000000E+00 -0.13243642447E+04  0.27487229101E+04  0.24086379935E+04 0.  0.
        4    1    3    3  502    0 -0.14139639638E+03  0.64714146655E+03  0.48561023304E+03  0.82134276035E+03  0.12699999809E+01 0. -1.
       -4    1    3    3    0  502  0.14139639638E+03 -0.64714146655E+03 -0.18099744777E+04  0.19273801497E+04  0.12699999809E+01 0.  1.
</event>
<event>
 5   0  0.4061631E-05  0.2385919E+04  0.7818609E-02  0.8444794E-01
        1   -1    0    0  501    0  0.00000000000E+00  0.00000000000E+00  0.50888828780E+03  0.50888828783E+03  0.50400001928E-02 0. -1.
       -1   -1    0    0    0  501  0.00000000000E+00  0.00000000000E+00 -0.27965916511E+04  0.27965916511E+04  0.50400001928E-02 0.  1.
    10030    2    1    2    0    0  0.00000000000E+00  0.00000000000E+00 -0.22877033633E+04  0.33054799389E+04  0.23859193088E+04 0.  0.
        3    1    3    3  502    0  0.46299091058E+03 -0.10158031343E+04 -0.17266080700E+04  0.20560622629E+04  0.10100000352E+00 0.  1.
       -3    1    3    3    0  502 -0.46299091058E+03  0.10158031343E+04 -0.56109529326E+03  0.12494176761E+04  0.10100000352E+00 0. -1.
</event>
<event>
 5   0  0.4208577E-05  0.2463759E+04  0.7818609E-02  0.8416012E-01
       -1   -1    0    0    0  501  0.00000000000E+00  0.00000000000E+00  0.75052526668E+03  0.75052526670E+03  0.50400001928E-02 0.  1.
        1   -1    0    0  501    0  0.00000000000E+00  0.00000000000E+00 -0.20219529740E+04  0.20219529740E+04  0.50400001928E-02 0. -1.
    10030    2    1    2    0    0  0.00000000000E+00  0.00000000000E+00 -0.12714277073E+04  0.27724782407E+04  0.24637587504E+04 0.  0.
        1    1    3    3  502    0 -0.33339236121E+03  0.71784364792E+03  0.42653810644E+03  0.89910217753E+03  0.50400001928E-02 0.  1.
       -1    1    3    3    0  502  0.33339236121E+03 -0.71784364792E+03 -0.16979658137E+04  0.18733760631E+04  0.50400001928E-02 0. -1.
</event>
<event>
 5   0  0.3234750E-05  0.2309439E+04  0.7818609E-02  0.8474209E-01
       -3   -1    0    0    0  501  0.00000000000E+00  0.00000000000E+00  0.21541398046E+04  0.21541398069E+04  0.10100000352E+00 0. -1.
        3   -1    0    0  501    0  0.00000000000E+00  0.00000000000E+00 -0.61898363876E+03  0.61898364700E+03  0.10100000352E+00 0.  1.
    10030    2    1    2    0    0  0.00000000000E+00  0.00000000000E+00  0.15351561658E+04  0.27731234539E+04  0.23094391608E+04 0.  0.
        4    1    3    3  502    0 -0.11505628546E+04  0.96182727825E+02  0.78938127933E+03  0.13986316229E+04  0.12699999809E+01 0.  1.
       -4    1    3    3    0  502  0.11505628546E+04 -0.96182727825E+02  0.74577488649E+03  0.13744918311E+04  0.12699999809E+01 0. -1.
</event>
<event>
 5   0  0.4208577E-05  0.2382074E+04  0.7818609E-02  0.8446246E-01
       -1   -1    0    0    0  501  0.00000000000E+00  0.00000000000E+00  0.95202597161E+03  0.95202597163E+03  0.50400001928E-02 0.  1.
        1   -1    0    0  501    0  0.00000000000E+00  0.00000000000E+00 -0.14900526309E+04  0.14900526309E+04  0.50400001928E-02 0. -1.
    10030    2    1    2    0    0  0.00000000000E+00  0.00000000000E+00 -0.53802665931E+03  0.24420786026E+04  0.23820737216E+04 0.  0.
        1    1    3    3  502    0 -0.59118935801E+03  0.43819413658E+03  0.69108691069E+03  0.10095147728E+04  0.50400001928E-02 0.  1.
       -1    1    3    3    0  502  0.59118935801E+03 -0.43819413658E+03 -0.12291135700E+04  0.14325638298E+04  0.50400001928E-02 0. -1.
</event>
<event>
 5   0  0.4260395E-05  0.2393754E+04  0.7818609E-02  0.8441846E-01
       -1   -1    0    0    0  501  0.00000000000E+00  0.00000000000E+00  0.13584020998E+04  0.13584020998E+04  0.50400001928E-02 0.  1.
        1   -1    0    0  501    0  0.00000000000E+00  0.00000000000E+00 -0.10545581526E+04  0.10545581527E+04  0.50400001928E-02 0. -1.
    10030    2    1    2    0    0  0.00000000000E+00  0.00000000000E+00  0.30384394714E+03  0.24129602524E+04  0.23937535453E+04 0.  0.
        4    1    3    3  502    0 -0.62238794891E+02 -0.24085183558E+03 -0.10282103643E+04  0.10578759098E+04  0.12699999809E+01 0. -1.
       -4    1    3    3    0  502  0.62238794891E+02  0.24085183558E+03  0.13320543114E+04  0.13550843427E+04  0.12699999809E+01 0.  1.
</event>
<event>
 5   0  0.4061631E-05  0.2054748E+04  0.7818609E-02  0.8581444E-01
       -1   -1    0    0    0  501  0.00000000000E+00  0.00000000000E+00  0.79030586275E+03  0.79030586276E+03  0.50400001928E-02 0.  1.
        1   -1    0    0  501    0  0.00000000000E+00  0.00000000000E+00 -0.13355548534E+04  0.13355548534E+04  0.50400001928E-02 0. -1.
    10030    2    1    2    0    0  0.00000000000E+00  0.00000000000E+00 -0.54524899065E+03  0.21258607162E+04  0.20547475083E+04 0.  0.
        3    1    3    3  502    0 -0.66545179534E+03  0.69168521737E+02  0.53403002822E+03  0.85603648144E+03  0.10100000352E+00 0.  1.
       -3    1    3    3    0  502  0.66545179534E+03 -0.69168521737E+02 -0.10792790189E+04  0.12698242347E+04  0.10100000352E+00 0. -1.
</event>
<event>
 5   0  0.9519092E-05  0.2299064E+04  0.7818609E-02  0.8478290E-01
       -2   -1    0    0    0  501  0.00000000000E+00  0.00000000000E+00  0.14324479488E+04  0.14324479488E+04  0.25500000920E-02 0.  1.
        2   -1    0    0  501    0  0.00000000000E+00  0.00000000000E+00 -0.92249362983E+03  0.92249362983E+03  0.25500000920E-02 0. -1.
    10030    2    1    2    0    0  0.00000000000E+00  0.00000000000E+00  0.50995431902E+03  0.23549415787E+04  0.22990642513E+04 0.  0.
        4    1    3    3  502    0  0.44585321316E+03  0.95556839742E+03  0.72384284711E+03  0.12790020055E+04  0.12699999809E+01 0.  1.
       -4    1    3    3    0  502 -0.44585321316E+03 -0.95556839742E+03 -0.21388852809E+03  0.10759395732E+04  0.12699999809E+01 0. -1.
</event>
<event>
 5   0  0.3934906E-05  0.2633679E+04  0.7818609E-02  0.8356850E-01
       -1   -1    0    0    0  501  0.00000000000E+00  0.00000000000E+00  0.18966319921E+04  0.18966319921E+04  0.50400001928E-02 0. -1.
        1   -1    0    0  501    0  0.00000000000E+00  0.00000000000E+00 -0.91428720155E+03  0.91428720157E+03  0.50400001928E-02 0.  1.
    10030    2    1    2    0    0  0.00000000000E+00  0.00000000000E+00  0.98234479054E+03  0.28109191937E+04  0.26336790666E+04 0.  0.
        2    1    3    3  502    0 -0.20114102559E+03  0.10298880388E+04  0.13402874300E+04  0.17022037127E+04  0.25500000920E-02 0. -1.
       -2    1    3    3    0  502  0.20114102559E+03 -0.10298880388E+04 -0.35794263943E+03  0.11087154810E+04  0.25500000920E-02 0.  1.
</event>
<event>
 5   0  0.4061631E-05  0.2406849E+04  0.7818609E-02  0.8436944E-01
       -1   -1    0    0    0  501  0.00000000000E+00  0.00000000000E+00  0.89683834779E+03  0.89683834780E+03  0.50400001928E-02 0. -1.
        1   -1    0    0  501    0  0.00000000000E+00  0.00000000000E+00 -0.16148183564E+04  0.16148183564E+04  0.50400001928E-02 0.  1.
    10030    2    1    2    0    0  0.00000000000E+00  0.00000000000E+00 -0.71798000859E+03  0.25116567042E+04  0.24068494151E+04 0.  0.
        3    1    3    3  502    0  0.75189280740E+03  0.70992630935E+03 -0.10013368109E+04  0.14394490535E+04  0.10100000352E+00 0.  1.
       -3    1    3    3    0  502 -0.75189280740E+03 -0.70992630935E+03  0.28335680234E+03  0.10722076507E+04  0.10100000352E+00 0. -1.
</event>
<event>
 5   0  0.9491680E-05  0.2418004E+04  0.7818609E-02  0.8432794E-01
        2   -1    0    0  501    0  0.00000000000E+00  0.00000000000E+00  0.12046623643E+04  0.12046623643E+04  0.25500000920E-02 0. -1.
       -2   -1    0    0    0  501  0.00000000000E+00  0.00000000000E+00 -0.12133574156E+04  0.12133574156E+04  0.25500000920E-02 0.  1.
    10030    2    1    2    0    0  0.00000000000E+00  0.00000000000E+00 -0.86950512550E+01  0.24180197799E+04  0.24180041464E+04 0.  0.
        5    1    3    3  502    0  0.71727972980E+03  0.45909033555E+03  0.85380123680E+03  0.12059240395E+04  0.46999998093E+01 0. -1.
       -5    1    3    3    0  502 -0.71727972980E+03 -0.45909033555E+03 -0.86249628806E+03  0.12120957404E+04  0.46999998093E+01 0.  1.
</event>
<event>
 5   0  0.3934906E-05  0.2159519E+04  0.7818609E-02  0.8535469E-01
       -1   -1    0    0    0  501  0.00000000000E+00  0.00000000000E+00  0.56123452342E+03  0.56123452344E+03  0.50400001928E-02 0.  1.
        1   -1    0    0  501    0  0.00000000000E+00  0.00000000000E+00 -0.20773499033E+04  0.20773499033E+04  0.50400001928E-02 0. -1.
    10030    2    1    2    0    0  0.00000000000E+00  0.00000000000E+00 -0.15161153799E+04  0.26385844268E+04  0.21595189122E+04 0.  0.
        2    1    3    3  502    0  0.16175163235E+01  0.93683171480E+03 -0.14140204853E+04  0.16962046489E+04  0.25500000920E-02 0. -1.
       -2    1    3    3    0  502 -0.16175163235E+01 -0.93683171480E+03 -0.10209489463E+03  0.94237977786E+03  0.25500000920E-02 0.  1.
</event>
<event>
 5   0  0.4018942E-05  0.2389131E+04  0.7818609E-02  0.8443584E-01
       -1   -1    0    0    0  501  0.00000000000E+00  0.00000000000E+00  0.86132386450E+03  0.86132386452E+03  0.50400001928E-02 0. -1.
        1   -1    0    0  501    0  0.00000000000E+00  0.00000000000E+00 -0.16567370567E+04  0.16567370567E+04  0.50400001928E-02 0.  1.
    10030    2    1    2    0    0  0.00000000000E+00  0.00000000000E+00 -0.79541319221E+03  0.25180609212E+04  0.23891313603E+04 0.  0.
        5    1    3    3  502    0 -0.14302089813E+02  0.11817012232E+04 -0.58129854295E+03  0.13170240760E+04  0.46999998093E+01 0.  1.
       -5    1    3    3    0  502  0.14302089813E+02 -0.11817012232E+04 -0.21411464926E+03  0.12010368453E+04  0.46999998093E+01 0. -1.
</event>
<event>
 5   0  0.4018942E-05  0.2369520E+04  0.7818609E-02  0.8451004E-01
        1   -1    0    0  501    0  0.00000000000E+00  0.00000000000E+00  0.10462434622E+04  0.10462434622E+04  0.50400001928E-02 0. -1.
       -1   -1    0    0    0  501  0.00000000000E+00  0.00000000000E+00 -0.13416150715E+04  0.13416150715E+04  0.50400001928E-02 0.  1.
    10030    2    1    2    0    0  0.00000000000E+00  0.00000000000E+00 -0.29537160924E+03  0.23878585337E+04  0.23695197804E+04 0.  0.
        5    1    3    3  502    0  0.19608091921E+03  0.21637966407E+02  0.10295669408E+04  0.10483063026E+04  0.46999998093E+01 0. -1.
       -5    1    3    3    0  502 -0.19608091921E+03 -0.21637966407E+02 -0.13249385501E+04  0.13395522311E+04  0.46999998093E+01 0.  1.
</event>
<event>
 5   0  0.9750757E-05  0.2160409E+04  0.7818609E-02  0.8535090E-01
       -2   -1    0    0    0  501  0.00000000000E+00  0.00000000000E+00  0.87873967994E+03  0.87873967995E+03  0.25500000920E-02 0. -1.
        2   -1    0    0  501    0  0.00000000000E+00  0.00000000000E+00 -0.13278579002E+04  0.13278579002E+04  0.25500000920E-02 0.  1.
    10030    2    1    2    0    0  0.00000000000E+00  0.00000000000E+00 -0.44911822027E+03  0.22065975802E+04  0.21604086893E+04 0.  0.
        2    1    3    3  502    0 -0.25603381792E+03  0.47366498234E+03  0.73190699812E+03  0.90862516216E+03  0.25500000920E-02 0. -1.
       -2    1    3    3    0  502  0.25603381792E+03 -0.47366498234E+03 -0.11810252184E+04  0.12979724180E+04  0.25500000920E-02 0.  1.
</event>
<event>
 5   0  0.9750757E-05  0.2287056E+04  0.7818609E-02  0.8483042E-01
       -2   -1    0    0    0  501  0.00000000000E+00  0.00000000000E+00  0.86742734408E+03  0.86742734409E+03  0.25500000920E-02 0. -1.
        2   -1    0    0  501    0  0.00000000000E+00  0.00000000000E+00 -0.15075114049E+04  0.15075114049E+04  0.25500000920E-02 0.  1.
    10030    2    1    2    0    0  0.00000000000E+00  0.00000000000E+00 -0.64008406084E+03  0.23749387490E+04  0.22870562863E+04 0.  0.
        2    1    3    3  502    0 -0.14046666326E+03  0.31429806292E+03  0.81233878565E+03  0.88227459360E+03  0.25500000920E-02 0. -1.
       -2    1    3    3    0  502  0.14046666326E+03 -0.31429806292E+03 -0.14524228465E+04  0.14926641554E+04  0.25500000920E-02 0.  1.
</event>
<event>
 5   0  0.9491680E-05  0.2469869E+04  0.7818609E-02  0.8413799E-01
       -2   -1    0    0    0  501  0.00000000000E+00  0.00000000000E+00  0.10428268004E+04  0.10428268004E+04  0.25500000920E-02 0. -1.
        2   -1    0    0  501    0  0.00000000000E+00  0.00000000000E+00 -0.14624323451E+04  0.14624323451E+04  0.25500000920E-02 0.  1.
    10030    2    1    2    0    0  0.00000000000E+00  0.00000000000E+00 -0.41960554473E+03  0.25052591455E+04  0.24698693433E+04 0.  0.
        5    1    3    3  502    0 -0.35343700592E+03 -0.10723241360E+04  0.29760976422E+03  0.11676431097E+04  0.46999998093E+01 0. -1.
       -5    1    3    3    0  502  0.35343700592E+03  0.10723241360E+04 -0.71721530895E+03  0.13376160358E+04  0.46999998093E+01 0.  1.
</event>
<event>
 5   0  0.9519092E-05  0.2351688E+04  0.7818609E-02  0.8457815E-01
       -2   -1    0    0    0  501  0.00000000000E+00  0.00000000000E+00  0.11857943704E+04  0.11857943704E+04  0.25500000920E-02 0.  1.
        2   -1    0    0  501    0  0.00000000000E+00  0.00000000000E+00 -0.11659775731E+04  0.11659775731E+04  0.25500000920E-02 0. -1.
    10030    2    1    2    0    0  0.00000000000E+00  0.00000000000E+00  0.19816797327E+02  0.23517719435E+04  0.23516884506E+04 0.  0.
        4    1    3    3  502    0  0.11101907037E+04  0.35320933768E+03 -0.14924433577E+03  0.11745448989E+04  0.12699999809E+01 0.  1.
       -4    1    3    3    0  502 -0.11101907037E+04 -0.35320933768E+03  0.16906113309E+03  0.11772270446E+04  0.12699999809E+01 0. -1.
</event>
<event>
 5   0  0.4208577E-05  0.2405731E+04  0.7818609E-02  0.8437361E-01
       -1   -1    0    0    0  501  0.00000000000E+00  0.00000000000E+00  0.10132038690E+04  0.10132038690E+04  0.50400001928E-02 0.  1.
        1   -1    0    0  501    0  0.00000000000E+00  0.00000000000E+00 -0.14280300157E+04  0.14280300157E+04  0.50400001928E-02 0. -1.
    10030    2    1    2    0    0  0.00000000000E+00  0.00000000000E+00 -0.41482614666E+03  0.24412338847E+04  0.24057311047E+04 0.  0.
        1    1    3    3  502    0 -0.87853192626E+03  0.28713013269E+03 -0.98859418280E+03  0.13533589756E+04  0.50400001928E-02 0. -1.
       -1    1    3    3    0  502  0.87853192626E+03 -0.28713013269E+03  0.57376803614E+03  0.10878749091E+04  0.50400001928E-02 0.  1.
</event>
<event>
 5   0  0.9519092E-05  0.2456883E+04  0.7818609E-02  0.8418509E-01
       -2   -1    0    0    0  501  0.00000000000E+00  0.00000000000E+00  0.11742076505E+04  0.11742076505E+04  0.25500000920E-02 0. -1.
        2   -1    0    0  501    0  0.00000000000E+00  0.00000000000E+00 -0.12851799791E+04  0.12851799791E+04  0.25500000920E-02 0.  1.
    10030    2    1    2    0    0  0.00000000000E+00  0.00000000000E+00 -0.11097232854E+03  0.24593876296E+04  0.24568827109E+04 0.  0.
        4    1    3    3  502    0  0.48224626436E+02 -0.10647138499E+04 -0.66694882296E+03  0.12572841931E+04  0.12699999809E+01 0.  1.
       -4    1    3    3    0  502 -0.48224626436E+02  0.10647138499E+04  0.55597649442E+03  0.12021034365E+04  0.12699999809E+01 0. -1.
</event>
<event>
 5   0  0.4260395E-05  0.2254762E+04  0.7818609E-02  0.8495974E-01
        1   -1    0    0  501    0  0.00000000000E+00  0.00000000000E+00  0.23999184758E+04  0.23999184758E+04  0.50400001928E-02 0. -1.
       -1   -1    0    0    0  501  0.00000000000E+00  0.00000000000E+00 -0.52959643994E+03  0.52959643996E+03  0.50400001928E-02 0.  1.
    10030    2    1    2    0    0  0.00000000000E+00  0.00000000000E+00  0.18703220358E+04  0.29295149158E+04  0.22547623209E+04 0.  0.
        4    1    3    3  502    0  0.81806615754E+03  0.46547246274E+03  0.12889944439E+03  0.95000712173E+03  0.12699999809E+01 0.  1.
       -4    1    3    3    0  502 -0.81806615754E+03 -0.46547246274E+03  0.17414225914E+04  0.19795077940E+04  0.12699999809E+01 0. -1.
</event>
<event>
 5   0  0.9144244E-05  0.2500238E+04  0.7818609E-02  0.8402901E-01
       -2   -1    0    0    0  501  0.00000000000E+00  0.00000000000E+00  0.13411589650E+04  0.13411589650E+04  0.25500000920E-02 0. -1.
        2   -1    0    0  501    0  0.00000000000E+00  0.00000000000E+00 -0.11652590454E+04  0.11652590454E+04  0.25500000920E-02 0.  1.
    10030    2    1    2    0    0  0.00000000000E+00  0.00000000000E+00  0.17589991958E+03  0.25064180104E+04  0.25002380809E+04 0.  0.
        1    1    3    3  502    0  0.11083998985E+04 -0.29734492093E+02 -0.49085324379E+03  0.12125887110E+04  0.50400001928E-02 0.  1.
       -1    1    3    3    0  502 -0.11083998985E+04  0.29734492093E+02  0.66675316337E+03  0.12938292994E+04  0.50400001928E-02 0. -1.
</event>
<event>
 5   0  0.4061631E-05  0.2419734E+04  0.7818609E-02  0.8432152E-01
       -1   -1    0    0    0  501  0.00000000000E+00  0.00000000000E+00  0.94406757582E+03  0.94406757583E+03  0.50400001928E-02 0.  1.
        1   -1    0    0  501    0  0.00000000000E+00  0.00000000000E+00 -0.15505014894E+04  0.15505014894E+04  0.50400001928E-02 0. -1.
    10030    2    1    2    0    0  0.00000000000E+00  0.00000000000E+00 -0.60643391359E+03  0.24945690652E+04  0.24197340205E+04 0.  0.
        3    1    3    3  502    0  0.67156960533E+03  0.10052550378E+04 -0.25448183777E+03  0.12354369436E+04  0.10100000352E+00 0. -1.
       -3    1    3    3    0  502 -0.67156960533E+03 -0.10052550378E+04 -0.35195207582E+03  0.12591321216E+04  0.10100000352E+00 0.  1.
</event>
<event>
 5   0  0.9182865E-05  0.2370124E+04  0.7818609E-02  0.8450774E-01
       -2   -1    0    0    0  501  0.00000000000E+00  0.00000000000E+00  0.96585925961E+03  0.96585925961E+03  0.25500000920E-02 0. -1.
        2   -1    0    0  501    0  0.00000000000E+00  0.00000000000E+00 -0.14540124405E+04  0.14540124405E+04  0.25500000920E-02 0.  1.
    10030    2    1    2    0    0  0.00000000000E+00  0.00000000000E+00 -0.48815318088E+03  0.24198717001E+04  0.23701235236E+04 0.  0.
        3    1    3    3  502    0 -0.87111075056E+03 -0.73982670980E+03 -0.56401291073E+03  0.12744756074E+04  0.10100000352E+00 0.  1.
       -3    1    3    3    0  502  0.87111075056E+03  0.73982670980E+03  0.75859729847E+02  0.11453960927E+04  0.10100000352E+00 0. -1.
</event>
<event>
 5   0  0.4018942E-05  0.2511908E+04  0.7818609E-02  0.8398755E-01
        1   -1    0    0  501    0  0.00000000000E+00  0.00000000000E+00  0.14366693844E+04  0.14366693844E+04  0.50400001928E-02 0.  1.
       -1   -1    0    0    0  501  0.00000000000E+00  0.00000000000E+00 -0.10979707167E+04  0.10979707168E+04  0.50400001928E-02 0. -1.
    10030    2    1    2    0    0  0.00000000000E+00  0.00000000000E+00  0.33869866764E+03  0.25346401012E+04  0.25119083691E+04 0.  0.
        5    1    3    3  502    0 -0.44579903796E+03 -0.11229451406E+04 -0.17676534221E+03  0.12210694687E+04  0.46999998093E+01 0. -1.
       -5    1    3    3    0  502  0.44579903796E+03  0.11229451406E+04  0.51546400985E+03  0.13135706325E+04  0.46999998093E+01 0.  1.
</event>
<event>
 5   0  0.9144244E-05  0.2410954E+04  0.7818609E-02  0.8435414E-01
        2   -1    0    0  501    0  0.00000000000E+00  0.00000000000E+00  0.18796116353E+04  0.18796116353E+04  0.25500000920E-02 0.  1.
       -2   -1    0    0    0  501  0.00000000000E+00  0.00000000000E+00 -0.77312522782E+03  0.77312522783E+03  0.25500000920E-02 0. -1.
    10030    2    1    2    0    0  0.00000000000E+00  0.00000000000E+00  0.11064864075E+04  0.26527368631E+04  0.24109543121E+04 0.  0.
        1    1    3    3  502    0 -0.36030231382E+03 -0.86865324936E+03  0.13830645159E+04  0.16724962422E+04  0.50400001928E-02 0.  1.
       -1    1    3    3    0  502  0.36030231382E+03  0.86865324936E+03 -0.27657810838E+03  0.98024062098E+03  0.50400001928E-02 0. -1.
</event>
<event>
 5   0  0.9182865E-05  0.2418683E+04  0.7818609E-02  0.8432542E-01
       -2   -1    0    0    0  501  0.00000000000E+00  0.00000000000E+00  0.12585987479E+04  0.12585987479E+04  0.25500000920E-02 0.  1.
        2   -1    0    0  501    0  0.00000000000E+00  0.00000000000E+00 -0.11620124618E+04  0.11620124618E+04  0.25500000920E-02 0. -1.
    10030    2    1    2    0    0  0.00000000000E+00  0.00000000000E+00  0.96586286091E+02  0.24206112097E+04  0.24186834679E+04 0.  0.
        3    1    3    3  502    0  0.81619382913E+03 -0.32771377119E+03  0.87897802420E+03  0.12434512696E+04  0.10100000352E+00 0.  1.
       -3    1    3    3    0  502 -0.81619382913E+03  0.32771377119E+03 -0.78239173811E+03  0.11771599401E+04  0.10100000352E+00 0. -1.
</event>
<event>
 5   0  0.3234750E-05  0.1258200E+04  0.7818609E-02  0.9063386E-01
       -3   -1    0    0    0  501  0.00000000000E+00  0.00000000000E+00  0.77784954168E+03  0.77784954824E+03  0.10100000352E+00 0. -1.
        3   -1    0    0  501    0  0.00000000000E+00  0.00000000000E+00 -0.50879625276E+03  0.50879626279E+03  0.10100000352E+00 0.  1.
    10030    2    1    2    0    0  0.00000000000E+00  0.00000000000E+00  0.26905328891E+03  0.12866458110E+04  0.12582002109E+04 0.  0.
        1    1    3    3  502    0  0.44341547528E+03 -0.38781137243E+03 -0.91263752915E+02  0.59610738707E+03  0.50400001928E-02 0. -1.
       -1    1    3    3    0  502 -0.44341547528E+03  0.38781137243E+03  0.36031704183E+03  0.69053842396E+03  0.50400001928E-02 0.  1.
</event>
<event>
 5   0  0.4260395E-05  0.2430193E+04  0.7818609E-02  0.8428285E-01
       -1   -1    0    0    0  501  0.00000000000E+00  0.00000000000E+00  0.77463964931E+03  0.77463964932E+03  0.50400001928E-02 0.  1.
        1   -1    0    0  501    0  0.00000000000E+00  0.00000000000E+00 -0.19059953548E+04  0.19059953548E+04  0.50400001928E-02 0. -1.
    10030    2    1    2    0    0  0.00000000000E+00  0.00000000000E+00 -0.11313557055E+04  0.26806350041E+04  0.24301930567E+04 0.  0.
        4    1    3    3  502    0 -0.13917757341E+03 -0.11401072894E+04 -0.10030815758E+04  0.15249227157E+04  0.12699999809E+01 0. -1.
       -4    1    3    3    0  502  0.13917757341E+03  0.11401072894E+04 -0.12827412972E+03  0.11557122884E+04  0.12699999809E+01 0.  1.
</event>
<event>
 5   0  0.3934906E-05  0.2377992E+04  0.7818609E-02  0.8447789E-01
       -1   -1    0    0    0  501  0.00000000000E+00  0.00000000000E+00  0.11499694462E+04  0.11499694462E+04  0.50400001928E-02 0. -1.
        1   -1    0    0  501    0  0.00000000000E+00  0.00000000000E+00 -0.12293472857E+04  0.12293472857E+04  0.50400001928E-02 0.  1.
    10030    2    1    2    0    0  0.00000000000E+00  0.00000000000E+00 -0.79377839546E+02  0.23793167319E+04  0.23779922770E+04 0.  0.
        2    1    3    3  502    0 -0.71648120322E+03 -0.52419014820E+03 -0.83107267515E+03  0.12160602030E+04  0.25500000920E-02 0.  1.
       -2    1    3    3    0  502  0.71648120322E+03  0.52419014820E+03  0.75169483561E+03  0.11632565289E+04  0.25500000920E-02 0. -1.
</event>
<event>
 5   0  0.9519092E-05  0.2454966E+04  0.7818609E-02  0.8419207E-01
        2   -1    0    0  501    0  0.00000000000E+00  0.00000000000E+00  0.15357958647E+04  0.15357958647E+04  0.25500000920E-02 0.  1.
       -2   -1    0    0    0  501  0.00000000000E+00  0.00000000000E+00 -0.98106426931E+03  0.98106426931E+03  0.25500000920E-02 0. -1.
    10030    2    1    2    0    0  0.00000000000E+00  0.00000000000E+00  0.55473159540E+03  0.25168601340E+04  0.24549659450E+04 0.  0.
        4    1    3    3  502    0  0.26155253481E+03  0.45620455314E+03 -0.85973255714E+03  0.10078065318E+04  0.12699999809E+01 0. -1.
       -4    1    3    3    0  502 -0.26155253481E+03 -0.45620455314E+03  0.14144641525E+04  0.15090536023E+04  0.12699999809E+01 0.  1.
</event>
<event>
 5   0  0.9144244E-05  0.2454256E+04  0.7818609E-02  0.8419466E-01
        2   -1    0    0  501    0  0.00000000000E+00  0.00000000000E+00  0.16204165783E+04  0.16204165783E+04  0.25500000920E-02 0. -1.
       -2   -1    0    0    0  501  0.00000000000E+00  0.00000000000E+00 -0.92929420459E+03  0.92929420459E+03  0.25500000920E-02 0.  1.
    10030    2    1    2    0    0  0.00000000000E+00  0.00000000000E+00  0.69112237367E+03  0.25497107829E+04  0.24542564945E+04 0.  0.
        1    1    3    3  502    0  0.84392177590E+03 -0.65484149437E+03  0.97305827222E+03  0.14449442023E+04  0.50400001928E-02 0. -1.
       -1    1    3    3    0  502 -0.84392177590E+03  0.65484149437E+03 -0.28193589855E+03  0.11047665806E+04  0.50400001928E-02 0.  1.
</event>
<event>
 5   0  0.4208577E-05  0.1401746E+04  0.7818609E-02  0.8952555E-01
       -1   -1    0    0    0  501  0.00000000000E+00  0.00000000000E+00  0.44972048151E+03  0.44972048154E+03  0.50400001928E-02 0. -1.
        1   -1    0    0  501    0  0.00000000000E+00  0.00000000000E+00 -0.10922856315E+04  0.10922856315E+04  0.50400001928E-02 0.  1.
    10030    2    1    2    0    0  0.00000000000E+00  0.00000000000E+00 -0.64256514998E+03  0.15420061130E+04  0.14017463682E+04 0.  0.
        1    1    3    3  502    0  0.16458258707E+03  0.58560070858E+03 -0.70426741735E+03  0.93059562272E+03  0.50400001928E-02 0. -1.
       -1    1    3    3    0  502 -0.16458258707E+03 -0.58560070858E+03  0.61702267370E+02  0.61141049033E+03  0.50400001928E-02 0.  1.
</event>
<event>
 5   0  0.9491680E-05  0.2420574E+04  0.7818609E-02  0.8431841E-01
        2   -1    0    0  501    0  0.00000000000E+00  0.00000000000E+00  0.21457371198E+04  0.21457371198E+04  0.25500000920E-02 0.  1.
       -2   -1    0    0    0  501  0.00000000000E+00  0.00000000000E+00 -0.68265362424E+03  0.68265362424E+03  0.25500000920E-02 0. -1.
    10030    2    1    2    0    0  0.00000000000E+00  0.00000000000E+00  0.14630834956E+04  0.28283907440E+04  0.24205744950E+04 0.  0.
        5    1    3    3  502    0  0.10296930337E+04  0.42503638450E+02  0.14730417174E+04  0.17977620238E+04  0.46999998093E+01 0.  1.
       -5    1    3    3    0  502 -0.10296930337E+04 -0.42503638450E+02 -0.99582218530E+01  0.10306287203E+04  0.46999998093E+01 0. -1.
</event>
<event>
 5   0  0.4260395E-05  0.2437538E+04  0.7818609E-02  0.8425582E-01
       -1   -1    0    0    0  501  0.00000000000E+00  0.00000000000E+00  0.64352512769E+03  0.64352512771E+03  0.50400001928E-02 0. -1.
        1   -1    0    0  501    0  0.00000000000E+00  0.00000000000E+00 -0.23082207259E+04  0.23082207259E+04  0.50400001928E-02 0.  1.
    10030    2    1    2    0    0  0.00000000000E+00  0.00000000000E+00 -0.16646955982E+04  0.29517458536E+04  0.24375381330E+04 0.  0.
        4    1    3    3  502    0 -0.28130672971E+03  0.33535162454E+03 -0.22097522818E+04  0.22526874945E+04  0.12699999809E+01 0.  1.
       -4    1    3    3    0  502  0.28130672971E+03 -0.33535162454E+03  0.54505668355E+03  0.69905835912E+03  0.12699999809E+01 0. -1.
</event>
<event>
 5   0  0.4018942E-05  0.2372092E+04  0.7818609E-02  0.8450026E-01
       -1   -1    0    0    0  501  0.00000000000E+00  0.00000000000E+00  0.96957062120E+03  0.96957062122E+03  0.50400001928E-02 0. -1.
        1   -1    0    0  501    0  0.00000000000E+00  0.00000000000E+00 -0.14508542869E+04  0.14508542869E+04  0.50400001928E-02 0.  1.
    10030    2    1    2    0    0  0.00000000000E+00  0.00000000000E+00 -0.48128366565E+03  0.24204249081E+04  0.23720924874E+04 0.  0.
        5    1    3    3  502    0 -0.24246860343E+03  0.16434671781E+03  0.93207221416E+03  0.97702690327E+03  0.46999998093E+01 0. -1.
       -5    1    3    3    0  502  0.24246860343E+03 -0.16434671781E+03 -0.14133558798E+04  0.14433980048E+04  0.46999998093E+01 0.  1.
</event>
<event>
 5   0  0.3934906E-05  0.2414155E+04  0.7818609E-02  0.8434223E-01
        1   -1    0    0  501    0  0.00000000000E+00  0.00000000000E+00  0.19114648122E+04  0.19114648122E+04  0.50400001928E-02 0. -1.
       -1   -1    0    0    0  501  0.00000000000E+00  0.00000000000E+00 -0.76226162989E+03  0.76226162990E+03  0.50400001928E-02 0.  1.
    10030    2    1    2    0    0  0.00000000000E+00  0.00000000000E+00  0.11492031823E+04  0.26737264421E+04  0.24141551593E+04 0.  0.
        2    1    3    3  502    0  0.82059429390E+03 -0.78485065073E+03  0.12109830550E+03  0.11419414778E+04  0.25500000920E-02 0.  1.
       -2    1    3    3    0  502 -0.82059429390E+03  0.78485065073E+03  0.10281048768E+04  0.15317849643E+04  0.25500000920E-02 0. -1.
</event>
<event>
 5   0  0.9519092E-05  0.2346811E+04  0.7818609E-02  0.8459689E-01
       -2   -1    0    0    0  501  0.00000000000E+00  0.00000000000E+00  0.10077573226E+04  0.10077573226E+04  0.25500000920E-02 0.  1.
        2   -1    0    0  501    0  0.00000000000E+00  0.00000000000E+00 -0.13662819729E+04  0.13662819729E+04  0.25500000920E-02 0. -1.
    10030    2    1    2    0    0  0.00000000000E+00  0.00000000000E+00 -0.35852465033E+03  0.23740392956E+04  0.23468111667E+04 0.  0.
        4    1    3    3  502    0  0.56896993695E+03 -0.10178713046E+04 -0.47015822387E+02  0.11670479349E+04  0.12699999809E+01 0.  1.
       -4    1    3    3    0  502 -0.56896993695E+03  0.10178713046E+04 -0.31150882794E+03  0.12069913607E+04  0.12699999809E+01 0. -1.
</event>
<event>
 5   0  0.4208577E-05  0.2409156E+04  0.7818609E-02  0.8436084E-01
       -1   -1    0    0    0  501  0.00000000000E+00  0.00000000000E+00  0.63220660408E+03  0.63220660410E+03  0.50400001928E-02 0. -1.
        1   -1    0    0  501    0  0.00000000000E+00  0.00000000000E+00 -0.22951479893E+04  0.22951479893E+04  0.50400001928E-02 0.  1.
    10030    2    1    2    0    0  0.00000000000E+00  0.00000000000E+00 -0.16629413852E+04  0.29273545934E+04  0.24091556332E+04 0.  0.
        1    1    3    3  502    0  0.73571886391E+03 -0.66756790358E+03 -0.16592341111E+04  0.19339045964E+04  0.50400001928E-02 0.  1.
       -1    1    3    3    0  502 -0.73571886391E+03  0.66756790358E+03 -0.37072741326E+01  0.99344999699E+03  0.50400001928E-02 0. -1.
</event>
<event>
 5   0  0.4061631E-05  0.2433427E+04  0.7818609E-02  0.8427094E-01
        1   -1    0    0  501    0  0.00000000000E+00  0.00000000000E+00  0.30502902127E+04  0.30502902127E+04  0.50400001928E-02 0.  1.
       -1   -1    0    0    0  501  0.00000000000E+00  0.00000000000E+00 -0.48532833036E+03  0.48532833039E+03  0.50400001928E-02 0. -1.
    10030    2    1    2    0    0  0.00000000000E+00  0.00000000000E+00  0.25649618823E+04  0.35356185431E+04  0.24334274233E+04 0.  0.
        3    1    3    3  502    0  0.51716069341E+03 -0.93658455781E+03  0.21243658141E+04  0.23785659417E+04  0.10100000352E+00 0.  1.
       -3    1    3    3    0  502 -0.51716069341E+03  0.93658455781E+03  0.44059606819E+03  0.11570526013E+04  0.10100000352E+00 0. -1.
</event>
<event>
 5   0  0.9750757E-05  0.2395082E+04  0.7818609E-02  0.8441347E-01
       -2   -1    0    0    0  501  0.00000000000E+00  0.00000000000E+00  0.13553830199E+04  0.13553830199E+04  0.25500000920E-02 0. -1.
        2   -1    0    0  501    0  0.00000000000E+00  0.00000000000E+00 -0.10580802857E+04  0.10580802857E+04  0.25500000920E-02 0.  1.
    10030    2    1    2    0    0  0.00000000000E+00  0.00000000000E+00  0.29730273420E+03  0.24134633056E+04  0.23950816712E+04 0.  0.
        2    1    3    3  502    0 -0.87040301786E+03  0.81361310675E+03  0.27014348086E+03  0.12216976718E+04  0.25500000920E-02 0. -1.
       -2    1    3    3    0  502  0.87040301786E+03 -0.81361310675E+03  0.27159253335E+02  0.11917656339E+04  0.25500000920E-02 0.  1.
</event>
<event>
 5   0  0.9519092E-05  0.2387613E+04  0.7818609E-02  0.8444156E-01
        2   -1    0    0  501    0  0.00000000000E+00  0.00000000000E+00  0.16045764312E+04  0.16045764312E+04  0.25500000920E-02 0. -1.
       -2   -1    0    0    0  501  0.00000000000E+00  0.00000000000E+00 -0.88819323934E+03  0.88819323934E+03  0.25500000920E-02 0.  1.
    10030    2    1    2    0    0  0.00000000000E+00  0.00000000000E+00  0.71638319186E+03  0.24927696705E+04  0.23876129822E+04 0.  0.
        4    1    3    3  502    0  0.93561479020E+03  0.27377419529E+03  0.10776308758E+04  0.14531404829E+04  0.12699999809E+01 0. -1.
       -4    1    3    3    0  502 -0.93561479020E+03 -0.27377419529E+03 -0.36124768398E+03  0.10396291876E+04  0.12699999809E+01 0.  1.
</event>
<event>
 5   0  0.4018942E-05  0.1268681E+04  0.7818609E-02  0.9054777E-01
        1   -1    0    0  501    0  0.00000000000E+00  0.00000000000E+00  0.14602348421E+04  0.14602348422E+04  0.50400001928E-02 0.  1.
       -1   -1    0    0    0  501  0.00000000000E+00  0.00000000000E+00 -0.27556364137E+03  0.27556364141E+03  0.50400001928E-02 0. -1.
    10030    2    1    2    0    0  0.00000000000E+00  0.00000000000E+00  0.11846712008E+04  0.17357984836E+04  0.12686806224E+04 0.  0.
        5    1    3    3  502    0  0.50061410875E+03 -0.38942461269E+03  0.57868617706E+03  0.85858359894E+03  0.46999998093E+01 0.  1.
       -5    1    3    3    0  502 -0.50061410875E+03  0.38942461269E+03  0.60598502372E+03  0.87721488463E+03  0.46999998093E+01 0. -1.
</event>
<event>
 5   0  0.9519092E-05  0.2381956E+04  0.7818609E-02  0.8446290E-01
       -2   -1    0    0    0  501  0.00000000000E+00  0.00000000000E+00  0.13882248237E+04  0.13882248237E+04  0.25500000920E-02 0.  1.
        2   -1    0    0  501    0  0.00000000000E+00  0.00000000000E+00 -0.10217572010E+04  0.10217572010E+04  0.25500000920E-02 0. -1.
    10030    2    1    2    0    0  0.00000000000E+00  0.00000000000E+00  0.36646762272E+03  0.24099820246E+04  0.23819560954E+04 0.  0.
        4    1    3    3  502    0 -0.49253469072E+03  0.54690217941E+03 -0.76412422689E+03  0.10609334863E+04  0.12699999809E+01 0. -1.
       -4    1    3    3    0  502  0.49253469072E+03 -0.54690217941E+03  0.11305918496E+04  0.13490485383E+04  0.12699999809E+01 0.  1.
</event>
<event>
 5   0  0.3934906E-05  0.2398002E+04  0.7818609E-02  0.8440252E-01
       -1   -1    0    0    0  501  0.00000000000E+00  0.00000000000E+00  0.11751772188E+04  0.11751772188E+04  0.50400001928E-02 0. -1.
        1   -1    0    0  501    0  0.00000000000E+00  0.00000000000E+00 -0.12233078305E+04  0.12233078305E+04  0.50400001928E-02 0.  1.
    10030    2    1    2    0    0  0.00000000000E+00  0.00000000000E+00 -0.48130611621E+02  0.23984850493E+04  0.23980020801E+04 0.  0.
        2    1    3    3  502    0  0.56549065331E+03 -0.94679090407E+03  0.44657255325E+03  0.11897981931E+04  0.25500000920E-02 0. -1.
       -2    1    3    3    0  502 -0.56549065331E+03  0.94679090407E+03 -0.49470316487E+03  0.12086868562E+04  0.25500000920E-02 0.  1.
</event>
<event>
 5   0  0.9491680E-05  0.2396037E+04  0.7818609E-02  0.8440989E-01
        2   -1    0    0  501    0  0.00000000000E+00  0.00000000000E+00  0.18019928597E+04  0.18019928597E+04  0.25500000920E-02 0.  1.
       -2   -1    0    0    0  501  0.00000000000E+00  0.00000000000E+00 -0.79647843441E+03  0.79647843441E+03  0.25500000920E-02 0. -1.
    10030    2    1    2    0    0  0.00000000000E+00  0.00000000000E+00  0.10055144253E+04  0.25984712941E+04  0.23960371047E+04 0.  0.
        5    1    3    3  502    0  0.31861924469E+03  0.83752152498E+03  0.13650886941E+04  0.16329267469E+04  0.46999998093E+01 0.  1.
       -5    1    3    3    0  502 -0.31861924469E+03 -0.83752152498E+03 -0.35957426883E+03  0.96554454723E+03  0.46999998093E+01 0. -1.
</event>
<event>
 5   0  0.4260395E-05  0.2390831E+04  0.7818609E-02  0.8442944E-01
        1   -1    0    0  501    0  0.00000000000E+00  0.00000000000E+00  0.20837581401E+04  0.20837581402E+04  0.50400001928E-02 0. -1.
       -1   -1    0    0    0  501  0.00000000000E+00  0.00000000000E+00 -0.68578903041E+03  0.68578903042E+03  0.50400001928E-02 0.  1.
    10030    2    1    2    0    0  0.00000000000E+00  0.00000000000E+00  0.13979691097E+04  0.27695471706E+04  0.23908312149E+04 0.  0.
        4    1    3    3  502    0  0.56673878143E+03  0.67706198306E+03  0.16324961103E+04  0.18559770845E+04  0.12699999809E+01 0. -1.
       -4    1    3    3    0  502 -0.56673878143E+03 -0.67706198306E+03 -0.23452700053E+03  0.91357008607E+03  0.12699999809E+01 0.  1.
</event>
<event>
 5   0  0.9182865E-05  0.2227757E+04  0.7818609E-02  0.8506963E-01
        2   -1    0    0  501    0  0.00000000000E+00  0.00000000000E+00  0.18329151022E+04  0.18329151022E+04  0.25500000920E-02 0.  1.
       -2   -1    0    0    0  501  0.00000000000E+00  0.00000000000E+00 -0.67691376361E+03  0.67691376362E+03  0.25500000920E-02 0. -1.
    10030    2    1    2    0    0  0.00000000000E+00  0.00000000000E+00  0.11560013386E+04  0.25098288658E+04  0.22277571324E+04 0.  0.
        3    1    3    3  502    0  0.53844219440E+03  0.77046607390E+03  0.12513251152E+04  0.15650407413E+04  0.10100000352E+00 0.  1.
       -3    1    3    3    0  502 -0.53844219440E+03 -0.77046607390E+03 -0.95323776574E+02  0.94478812457E+03  0.10100000352E+00 0. -1.
</event>
<event>
 5   0  0.3934906E-05  0.1823934E+04  0.7818609E-02  0.8693674E-01
       -1   -1    0    0    0  501  0.00000000000E+00  0.00000000000E+00  0.97307881685E+03  0.97307881686E+03  0.50400001928E-02 0. -1.
        1   -1    0    0  501    0  0.00000000000E+00  0.00000000000E+00 -0.85469328446E+03  0.85469328447E+03  0.50400001928E-02 0.  1.
    10030    2    1    2    0    0  0.00000000000E+00  0.00000000000E+00  0.11838553239E+03  0.18277721013E+04  0.18239341326E+04 0.  0.
        2    1    3    3  502    0 -0.29695900464E+03 -0.17124244884E+03  0.90605995606E+03  0.96873797836E+03  0.25500000920E-02 0. -1.
       -2    1    3    3    0  502  0.29695900464E+03  0.17124244884E+03 -0.78767442367E+03  0.85903412298E+03  0.25500000920E-02 0.  1.
</event>
<event>
 5   0  0.9750757E-05  0.2368946E+04  0.7818609E-02  0.8451222E-01
       -2   -1    0    0    0  501  0.00000000000E+00  0.00000000000E+00  0.10293024494E+04  0.10293024494E+04  0.25500000920E-02 0.  1.
        2   -1    0    0  501    0  0.00000000000E+00  0.00000000000E+00 -0.13630354585E+04  0.13630354585E+04  0.25500000920E-02 0. -1.
    10030    2    1    2    0    0  0.00000000000E+00  0.00000000000E+00 -0.33373300915E+03  0.23923379079E+04  0.23689455342E+04 0.  0.
        2    1    3    3  502    0  0.40563689043E+03  0.23100081232E+03  0.93249369878E+03  0.10428073458E+04  0.25500000920E-02 0.  1.
       -2    1    3    3    0  502 -0.40563689043E+03 -0.23100081232E+03 -0.12662267079E+04  0.13495305621E+04  0.25500000920E-02 0. -1.
</event>
<event>
 5   0  0.3234750E-05  0.2286327E+04  0.7818609E-02  0.8483332E-01
        3   -1    0    0  501    0  0.00000000000E+00  0.00000000000E+00  0.67413477148E+03  0.67413477904E+03  0.10100000352E+00 0.  1.
       -3   -1    0    0    0  501  0.00000000000E+00  0.00000000000E+00 -0.19385192464E+04  0.19385192490E+04  0.10100000352E+00 0. -1.
    10030    2    1    2    0    0  0.00000000000E+00  0.00000000000E+00 -0.12643844749E+04  0.26126540280E+04  0.22863273978E+04 0.  0.
        5    1    3    3  502    0  0.11335452004E+04 -0.10070525273E+03 -0.75598146981E+03  0.13662343656E+04  0.46999998093E+01 0. -1.
       -5    1    3    3    0  502 -0.11335452004E+04  0.10070525273E+03 -0.50840300507E+03  0.12464196624E+04  0.46999998093E+01 0.  1.
</event>
<event>
 5   0  0.9519092E-05  0.2227237E+04  0.7818609E-02  0.8507176E-01
        2   -1    0    0  501    0  0.00000000000E+00  0.00000000000E+00  0.18602439249E+04  0.18602439249E+04  0.25500000920E-02 0. -1.
       -2   -1    0    0    0  501  0.00000000000E+00  0.00000000000E+00 -0.66665800372E+03  0.66665800372E+03  0.25500000920E-02 0.  1.
    10030    2    1    2    0    0  0.00000000000E+00  0.00000000000E+00  0.11935859212E+04  0.25269019286E+04  0.22272373034E+04 0.  0.
        4    1    3    3  502    0  0.84041551743E+03 -0.55368540000E+03  0.11376738895E+04  0.15189368835E+04  0.12699999809E+01 0. -1.
       -4    1    3    3    0  502 -0.84041551743E+03  0.55368540000E+03  0.55912031663E+02  0.10079650452E+04  0.12699999809E+01 0.  1.
</event>
<event>
 5   0  0.9491680E-05  0.2411332E+04  0.7818609E-02  0.8435273E-01
        2   -1    0    0  501    0  0.00000000000E+00  0.00000000000E+00  0.15550241944E+04  0.15550241944E+04  0.25500000920E-02 0.  1.
       -2   -1    0    0    0  501  0.00000000000E+00  0.00000000000E+00 -0.93479617404E+03  0.93479617405E+03  0.25500000920E-02 0. -1.
    10030    2    1    2    0    0  0.00000000000E+00  0.00000000000E+00  0.62022802034E+03  0.24898203684E+04  0.24113321359E+04 0.  0.
        5    1    3    3  502    0 -0.11393965955E+04  0.10805034574E+03 -0.81315093886E+02  0.11474030301E+04  0.46999998093E+01 0. -1.
       -5    1    3    3    0  502  0.11393965955E+04 -0.10805034574E+03  0.70154311422E+03  0.13424173383E+04  0.46999998093E+01 0.  1.
</event>
<event>
 5   0  0.4208577E-05  0.2374039E+04  0.7818609E-02  0.8449288E-01
       -1   -1    0    0    0  501  0.00000000000E+00  0.00000000000E+00  0.12137518233E+04  0.12137518234E+04  0.50400001928E-02 0.  1.
        1   -1    0    0  501    0  0.00000000000E+00  0.00000000000E+00 -0.11608755256E+04  0.11608755257E+04  0.50400001928E-02 0. -1.
    10030    2    1    2    0    0  0.00000000000E+00  0.00000000000E+00  0.52876297709E+02  0.23746273490E+04  0.23740385725E+04 0.  0.
        1    1    3    3  502    0 -0.46102125052E+03 -0.33382950527E+02  0.11200343989E+04  0.12116649989E+04  0.50400001928E-02 0.  1.
       -1    1    3    3    0  502  0.46102125052E+03  0.33382950527E+02 -0.10671581012E+04  0.11629623501E+04  0.50400001928E-02 0. -1.
</event>
<event>
 5   0  0.3934906E-05  0.1584084E+04  0.7818609E-02  0.8830386E-01
       -1   -1    0    0    0  501  0.00000000000E+00  0.00000000000E+00  0.43061186774E+03  0.43061186777E+03  0.50400001928E-02 0. -1.
        1   -1    0    0  501    0  0.00000000000E+00  0.00000000000E+00 -0.14568356138E+04  0.14568356138E+04  0.50400001928E-02 0.  1.
    10030    2    1    2    0    0  0.00000000000E+00  0.00000000000E+00 -0.10262237461E+04  0.18874474816E+04  0.15840842209E+04 0.  0.
        2    1    3    3  502    0 -0.41746066721E+03  0.22738083034E+03 -0.12679626120E+04  0.13541435064E+04  0.25500000920E-02 0.  1.
       -2    1    3    3    0  502  0.41746066721E+03 -0.22738083034E+03  0.24173886586E+03  0.53330397518E+03  0.25500000920E-02 0. -1.
</event>
<event>
 5   0  0.9491680E-05  0.2374955E+04  0.7818609E-02  0.8448940E-01
       -2   -1    0    0    0  501  0.00000000000E+00  0.00000000000E+00  0.11270317725E+04  0.11270317725E+04  0.25500000920E-02 0.  1.
        2   -1    0    0  501    0  0.00000000000E+00  0.00000000000E+00 -0.12511648918E+04  0.12511648918E+04  0.25500000920E-02 0. -1.
    10030    2    1    2    0    0  0.00000000000E+00  0.00000000000E+00 -0.12413311926E+03  0.23781966643E+04  0.23749548086E+04 0.  0.
        5    1    3    3  502    0 -0.45316746241E+03 -0.69114572964E+03  0.79176218180E+03  0.11445316121E+04  0.46999998093E+01 0.  1.
       -5    1    3    3    0  502  0.45316746241E+03  0.69114572964E+03 -0.91589530106E+03  0.12336650522E+04  0.46999998093E+01 0. -1.
</event>
<event>
 5   0  0.4061631E-05  0.2626898E+04  0.7818609E-02  0.8359121E-01
        1   -1    0    0  501    0  0.00000000000E+00  0.00000000000E+00  0.17469984199E+04  0.17469984199E+04  0.50400001928E-02 0. -1.
       -1   -1    0    0    0  501  0.00000000000E+00  0.00000000000E+00 -0.98749308528E+03  0.98749308529E+03  0.50400001928E-02 0.  1.
    10030    2    1    2    0    0  0.00000000000E+00  0.00000000000E+00  0.75950533465E+03  0.27344915052E+04  0.26268984447E+04 0.  0.
        3    1    3    3  502    0 -0.23605367918E+03 -0.12881205667E+04  0.27476071417E+03  0.13380842254E+04  0.10100000352E+00 0.  1.
       -3    1    3    3    0  502  0.23605367918E+03  0.12881205667E+04  0.48474462047E+03  0.13964072798E+04  0.10100000352E+00 0. -1.
</event>
<event>
 5   0  0.9144244E-05  0.2446001E+04  0.7818609E-02  0.8422480E-01
        2   -1    0    0  501    0  0.00000000000E+00  0.00000000000E+00  0.10189296436E+04  0.10189296436E+04  0.25500000920E-02 0.  1.
       -2   -1    0    0    0  501  0.00000000000E+00  0.00000000000E+00 -0.14679421614E+04  0.14679421614E+04  0.25500000920E-02 0. -1.
    10030    2    1    2    0    0  0.00000000000E+00  0.00000000000E+00 -0.44901251786E+03  0.24868718050E+04  0.24460006405E+04 0.  0.
        1    1    3    3  502    0  0.43448917068E+03  0.10007589285E+04 -0.78639850819E+03  0.13448873135E+04  0.50400001928E-02 0. -1.
       -1    1    3    3    0  502 -0.43448917068E+03 -0.10007589285E+04  0.33738599033E+03  0.11419844915E+04  0.50400001928E-02 0.  1.
</event>
<event>
 5   0  0.4208577E-05  0.2193297E+04  0.7818609E-02  0.8521223E-01
       -1   -1    0    0    0  501  0.00000000000E+00  0.00000000000E+00  0.10227683509E+04  0.10227683509E+04  0.50400001928E-02 0.  1.
        1   -1    0    0  501    0  0.00000000000E+00  0.00000000000E+00 -0.11758649380E+04  0.11758649380E+04  0.50400001928E-02 0. -1.
    10030    2    1    2    0    0  0.00000000000E+00  0.00000000000E+00 -0.15309658711E+03  0.21986332888E+04  0.21932965540E+04 0.  0.
        1    1    3    3  502    0 -0.85414687496E+03  0.53042811199E+03  0.36237161148E+03  0.10687535033E+04  0.50400001928E-02 0. -1.
       -1    1    3    3    0  502  0.85414687496E+03 -0.53042811199E+03 -0.51546819859E+03  0.11298797855E+04  0.50400001928E-02 0.  1.
</event>
<event>
 5   0  0.9144244E-05  0.2341393E+04  0.7818609E-02  0.8461777E-01
        2   -1    0    0  501    0  0.00000000000E+00  0.00000000000E+00  0.18572163052E+04  0.18572163052E+04  0.25500000920E-02 0. -1.
       -2   -1    0    0    0  501  0.00000000000E+00  0.00000000000E+00 -0.73794892268E+03  0.73794892269E+03  0.25500000920E-02 0.  1.
    10030    2    1    2    0    0  0.00000000000E+00  0.00000000000E+00  0.11192673825E+04  0.25951652279E+04  0.23413934070E+04 0.  0.
        1    1    3    3  502    0 -0.10542306672E+04  0.41800687101E+03  0.23763168869E+03  0.11587065475E+04  0.50400001928E-02 0. -1.
       -1    1    3    3    0  502  0.10542306672E+04 -0.41800687101E+03  0.88163569385E+03  0.14364586804E+04  0.50400001928E-02 0.  1.
</event>
<event>
 5   0  0.9144244E-05  0.2627461E+04  0.7818609E-02  0.8358933E-01
        2   -1    0    0  501    0  0.00000000000E+00  0.00000000000E+00  0.12007982073E+04  0.12007982073E+04  0.25500000920E-02 0. -1.
       -2   -1    0    0    0  501  0.00000000000E+00  0.00000000000E+00 -0.14372838194E+04  0.14372838194E+04  0.25500000920E-02 0.  1.
    10030    2    1    2    0    0  0.00000000000E+00  0.00000000000E+00 -0.23648561213E+03  0.26380820267E+04  0.26274610054E+04 0.  0.
        1    1    3    3  502    0  0.11925589720E+04 -0.36239071609E+03  0.29860274707E+03  0.12816737235E+04  0.50400001928E-02 0. -1.
       -1    1    3    3    0  502 -0.11925589720E+04  0.36239071609E+03 -0.53508835920E+03  0.13564083032E+04  0.50400001928E-02 0.  1.
</event>
<event>
 5   0  0.9491680E-05  0.2406977E+04  0.7818609E-02  0.8436896E-01
       -2   -1    0    0    0  501  0.00000000000E+00  0.00000000000E+00  0.25820967545E+04  0.25820967545E+04  0.25500000920E-02 0.  1.
        2   -1    0    0  501    0  0.00000000000E+00  0.00000000000E+00 -0.56093334852E+03  0.56093334852E+03  0.25500000920E-02 0. -1.
    10030    2    1    2    0    0  0.00000000000E+00  0.00000000000E+00  0.20211634060E+04  0.31430301030E+04  0.24069766752E+04 0.  0.
        5    1    3    3  502    0  0.19650607011E+03  0.82598543177E+03  0.21243422259E+04  0.22877321853E+04  0.46999998093E+01 0.  1.
       -5    1    3    3    0  502 -0.19650607011E+03 -0.82598543177E+03 -0.10317881993E+03  0.85529791767E+03  0.46999998093E+01 0. -1.
</event>
<event>
 5   0  0.9182865E-05  0.1304607E+04  0.7818609E-02  0.9025920E-01
        2   -1    0    0  501    0  0.00000000000E+00  0.00000000000E+00  0.13315189338E+04  0.13315189338E+04  0.25500000920E-02 0.  1.
       -2   -1    0    0    0  501  0.00000000000E+00  0.00000000000E+00 -0.31955952118E+03  0.31955952119E+03  0.25500000920E-02 0. -1.
    10030    2    1    2    0    0  0.00000000000E+00  0.00000000000E+00  0.10119594126E+04  0.16510784550E+04  0.13046065352E+04 0.  0.
        3    1    3    3  502    0  0.10509222095E+03  0.18003743847E+03 -0.27626663138E+03  0.34609408543E+03  0.10100000352E+00 0. -1.
       -3    1    3    3    0  502 -0.10509222095E+03 -0.18003743847E+03  0.12882260440E+04  0.13049843696E+04  0.10100000352E+00 0.  1.
</event>
<event>
 5   0  0.3934906E-05  0.2398205E+04  0.7818609E-02  0.8440176E-01
        1   -1    0    0  501    0  0.00000000000E+00  0.00000000000E+00  0.97164447494E+03  0.97164447496E+03  0.50400001928E-02 0. -1.
       -1   -1    0    0    0  501  0.00000000000E+00  0.00000000000E+00 -0.14798074183E+04  0.14798074183E+04  0.50400001928E-02 0.  1.
    10030    2    1    2    0    0  0.00000000000E+00  0.00000000000E+00 -0.50816294333E+03  0.24514518932E+04  0.23982049137E+04 0.  0.
        2    1    3    3  502    0 -0.73942896138E+03 -0.83144645367E+03  0.20281954123E+03  0.11310146597E+04  0.25500000920E-02 0. -1.
       -2    1    3    3    0  502  0.73942896138E+03  0.83144645367E+03 -0.71098248456E+03  0.13204372335E+04  0.25500000920E-02 0.  1.
</event>
<event>
 5   0  0.4061631E-05  0.2308398E+04  0.7818609E-02  0.8474617E-01
        1   -1    0    0  501    0  0.00000000000E+00  0.00000000000E+00  0.13181926772E+04  0.13181926772E+04  0.50400001928E-02 0. -1.
       -1   -1    0    0    0  501  0.00000000000E+00  0.00000000000E+00 -0.10106078588E+04  0.10106078588E+04  0.50400001928E-02 0.  1.
    10030    2    1    2    0    0  0.00000000000E+00  0.00000000000E+00  0.30758481835E+03  0.23288005360E+04  0.23083984743E+04 0.  0.
        3    1    3    3  502    0  0.73812600901E+03 -0.58757532989E+03  0.82457581341E+03  0.12529964309E+04  0.10100000352E+00 0. -1.
       -3    1    3    3    0  502 -0.73812600901E+03  0.58757532989E+03 -0.51699099507E+03  0.10758041051E+04  0.10100000352E+00 0.  1.
</event>
<event>
 5   0  0.3934906E-05  0.2424839E+04  0.7818609E-02  0.8430262E-01
        1   -1    0    0  501    0  0.00000000000E+00  0.00000000000E+00  0.13407070881E+04  0.13407070881E+04  0.50400001928E-02 0. -1.
       -1   -1    0    0    0  501  0.00000000000E+00  0.00000000000E+00 -0.10964074149E+04  0.10964074149E+04  0.50400001928E-02 0.  1.
    10030    2    1    2    0    0  0.00000000000E+00  0.00000000000E+00  0.24429967320E+03  0.24371145030E+04  0.24248391226E+04 0.  0.
        2    1    3    3  502    0  0.10997895127E+04  0.98124146582E+02 -0.38118060309E+03  0.11681027235E+04  0.25500000920E-02 0.  1.
       -2    1    3    3    0  502 -0.10997895127E+04 -0.98124146582E+02  0.62548027629E+03  0.12690117795E+04  0.25500000920E-02 0. -1.
</event>
<event>
 5   0  0.4208577E-05  0.2370939E+04  0.7818609E-02  0.8450464E-01
        1   -1    0    0  501    0  0.00000000000E+00  0.00000000000E+00  0.24024032882E+04  0.24024032882E+04  0.50400001928E-02 0.  1.
       -1   -1    0    0    0  501  0.00000000000E+00  0.00000000000E+00 -0.58497156888E+03  0.58497156890E+03  0.50400001928E-02 0. -1.
    10030    2    1    2    0    0  0.00000000000E+00  0.00000000000E+00  0.18174317193E+04  0.29873748571E+04  0.23709387345E+04 0.  0.
        1    1    3    3  502    0 -0.73895891544E+03  0.79820427068E+02 -0.25492773949E+03  0.78576060710E+03  0.50400001928E-02 0. -1.
       -1    1    3    3    0  502  0.73895891544E+03 -0.79820427068E+02  0.20723594588E+04  0.22016142500E+04  0.50400001928E-02 0.  1.
</event>
<event>
 5   0  0.9144244E-05  0.2407227E+04  0.7818609E-02  0.8436803E-01
        2   -1    0    0  501    0  0.00000000000E+00  0.00000000000E+00  0.10166224898E+04  0.10166224898E+04  0.25500000920E-02 0. -1.
       -2   -1    0    0    0  501  0.00000000000E+00  0.00000000000E+00 -0.14249988007E+04  0.14249988007E+04  0.25500000920E-02 0.  1.
    10030    2    1    2    0    0  0.00000000000E+00  0.00000000000E+00 -0.40837631088E+03  0.24416212906E+04  0.24072273086E+04 0.  0.
        1    1    3    3  502    0 -0.47690092587E+01 -0.11383214503E+04  0.19240662477E+03  0.11544777075E+04  0.50400001928E-02 0. -1.
       -1    1    3    3    0  502  0.47690092587E+01  0.11383214503E+04 -0.60078293564E+03  0.12871435831E+04  0.50400001928E-02 0.  1.
</event>
<event>
 5   0  0.4061631E-05  0.2041049E+04  0.7818609E-02  0.8587666E-01
       -1   -1    0    0    0  501  0.00000000000E+00  0.00000000000E+00  0.12094039139E+04  0.12094039139E+04  0.50400001928E-02 0.  1.
        1   -1    0    0  501    0  0.00000000000E+00  0.00000000000E+00 -0.86114344896E+03  0.86114344898E+03  0.50400001928E-02 0. -1.
    10030    2    1    2    0    0  0.00000000000E+00  0.00000000000E+00  0.34826046496E+03  0.20705473629E+04  0.20410490025E+04 0.  0.
        3    1    3    3  502    0  0.62962782725E+03 -0.66150732348E+03 -0.28791599600E+03  0.95755875580E+03  0.10100000352E+00 0. -1.
       -3    1    3    3    0  502 -0.62962782725E+03  0.66150732348E+03  0.63617646096E+03  0.11129886071E+04  0.10100000352E+00 0.  1.
</event>
<event>
 5   0  0.9750757E-05  0.2497414E+04  0.7818609E-02  0.8403907E-01
        2   -1    0    0  501    0  0.00000000000E+00  0.00000000000E+00  0.16435310926E+04  0.16435310926E+04  0.25500000920E-02 0.  1.
       -2   -1    0    0    0  501  0.00000000000E+00  0.00000000000E+00 -0.94873129262E+03  0.94873129262E+03  0.25500000920E-02 0. -1.
    10030    2    1    2    0    0  0.00000000000E+00  0.00000000000E+00  0.69479979998E+03  0.25922623852E+04  0.24974141650E+04 0.  0.
        2    1    3    3  502    0  0.10788227179E+04  0.50484901307E+03  0.73652198720E+03  0.14004269421E+04  0.25500000920E-02 0.  1.
       -2    1    3    3    0  502 -0.10788227179E+04 -0.50484901307E+03 -0.41722187217E+02  0.11918354431E+04  0.25500000920E-02 0. -1.
</event>
<event>
 5   0  0.4018942E-05  0.2521593E+04  0.7818609E-02  0.8395333E-01
       -1   -1    0    0    0  501  0.00000000000E+00  0.00000000000E+00  0.13674784696E+04  0.13674784696E+04  0.50400001928E-02 0.  1.
        1   -1    0    0  501    0  0.00000000000E+00  0.00000000000E+00 -0.11624369976E+04  0.11624369976E+04  0.50400001928E-02 0. -1.
    10030    2    1    2    0    0  0.00000000000E+00  0.00000000000E+00  0.20504147204E+03  0.25299154672E+04  0.25215928034E+04 0.  0.
        5    1    3    3  502    0  0.60102482138E+03 -0.29512926381E+03  0.11743413073E+04  0.13518253268E+04  0.46999998093E+01 0.  1.
       -5    1    3    3    0  502 -0.60102482138E+03  0.29512926381E+03 -0.96929983523E+03  0.11780901404E+04  0.46999998093E+01 0. -1.
</event>
<event>
 5   0  0.9519092E-05  0.2401275E+04  0.7818609E-02  0.8439026E-01
        2   -1    0    0  501    0  0.00000000000E+00  0.00000000000E+00  0.15986811592E+04  0.15986811592E+04  0.25500000920E-02 0. -1.
       -2   -1    0    0    0  501  0.00000000000E+00  0.00000000000E+00 -0.90169966874E+03  0.90169966874E+03  0.25500000920E-02 0.  1.
    10030    2    1    2    0    0  0.00000000000E+00  0.00000000000E+00  0.69698149046E+03  0.25003808279E+04  0.24012748878E+04 0.  0.
        4    1    3    3  502    0  0.46878716899E+03 -0.98022690131E+03  0.88037853724E+03  0.13984542072E+04  0.12699999809E+01 0. -1.
       -4    1    3    3    0  502 -0.46878716899E+03  0.98022690131E+03 -0.18339704678E+03  0.11019266208E+04  0.12699999809E+01 0.  1.
</event>
<event>
 5   0  0.9144244E-05  0.2445895E+04  0.7818609E-02  0.8422518E-01
        2   -1    0    0  501    0  0.00000000000E+00  0.00000000000E+00  0.14299660857E+04  0.14299660857E+04  0.25500000920E-02 0. -1.
       -2   -1    0    0    0  501  0.00000000000E+00  0.00000000000E+00 -0.10458990508E+04  0.10458990508E+04  0.25500000920E-02 0.  1.
    10030    2    1    2    0    0  0.00000000000E+00  0.00000000000E+00  0.38406703491E+03  0.24758651366E+04  0.24458946599E+04 0.  0.
        1    1    3    3  502    0 -0.61514044812E+03 -0.99637494211E+03 -0.16504863767E+03  0.11825404217E+04  0.50400001928E-02 0.  1.
       -1    1    3    3    0  502  0.61514044812E+03  0.99637494211E+03  0.54911567258E+03  0.12933247149E+04  0.50400001928E-02 0. -1.
</event>
<event>
 5   0  0.9144244E-05  0.2467325E+04  0.7818609E-02  0.8414719E-01
       -2   -1    0    0    0  501  0.00000000000E+00  0.00000000000E+00  0.10560125760E+04  0.10560125760E+04  0.25500000920E-02 0. -1.
        2   -1    0    0  501    0  0.00000000000E+00  0.00000000000E+00 -0.14411979270E+04  0.14411979270E+04  0.25500000920E-02 0.  1.
    10030    2    1    2    0    0  0.00000000000E+00  0.00000000000E+00 -0.38518535100E+03  0.24972105029E+04  0.24673249768E+04 0.  0.
        1    1    3    3  502    0 -0.80502557393E+03  0.85013572753E+03  0.20086560224E+03  0.11879157883E+04  0.50400001928E-02 0. -1.
       -1    1    3    3    0  502  0.80502557393E+03 -0.85013572753E+03 -0.58605095324E+03  0.13092947146E+04  0.50400001928E-02 0.  1.
</event>
<event>
 5   0  0.4260395E-05  0.1932840E+04  0.7818609E-02  0.8638680E-01
        1   -1    0    0  501    0  0.00000000000E+00  0.00000000000E+00  0.71309660919E+03  0.71309660920E+03  0.50400001928E-02 0. -1.
       -1   -1    0    0    0  501  0.00000000000E+00  0.00000000000E+00 -0.13097357040E+04  0.13097357040E+04  0.50400001928E-02 0.  1.
    10030    2    1    2    0    0  0.00000000000E+00  0.00000000000E+00 -0.59663909482E+03  0.20228323132E+04  0.19328404895E+04 0.  0.
        4    1    3    3  502    0 -0.58112887587E+03 -0.73756477437E+03 -0.59085348112E+02  0.94085347319E+03  0.12699999809E+01 0. -1.
       -4    1    3    3    0  502  0.58112887587E+03  0.73756477437E+03 -0.53755374670E+03  0.10819788400E+04  0.12699999809E+01 0.  1.
</event>
<event>
 5   0  0.9519092E-05  0.2379821E+04  0.7818609E-02  0.8447097E-01
       -2   -1    0    0    0  501  0.00000000000E+00  0.00000000000E+00  0.56324650842E+03  0.56324650842E+03  0.25500000920E-02 0. -1.
        2   -1    0    0  501    0  0.00000000000E+00  0.00000000000E+00 -0.25137968061E+04  0.25137968061E+04  0.25500000920E-02 0.  1.
    10030    2    1    2    0    0  0.00000000000E+00  0.00000000000E+00 -0.19505502977E+04  0.30770433146E+04  0.23798212319E+04 0.  0.
        4    1    3    3  502    0 -0.11214789048E+03  0.98868638830E+03 -0.13155960694E+03  0.10036869367E+04  0.12699999809E+01 0. -1.
       -4    1    3    3    0  502  0.11214789048E+03 -0.98868638830E+03 -0.18189906908E+04  0.20733563779E+04  0.12699999809E+01 0.  1.
</event>
<event>
 5   0  0.9519092E-05  0.2449666E+04  0.7818609E-02  0.8421140E-01
       -2   -1    0    0    0  501  0.00000000000E+00  0.00000000000E+00  0.86700648704E+03  0.86700648704E+03  0.25500000920E-02 0.  1.
        2   -1    0    0  501    0  0.00000000000E+00  0.00000000000E+00 -0.17303393363E+04  0.17303393363E+04  0.25500000920E-02 0. -1.
    10030    2    1    2    0    0  0.00000000000E+00  0.00000000000E+00 -0.86333284923E+03  0.25973458233E+04  0.24496656338E+04 0.  0.
        4    1    3    3  502    0 -0.62798952226E+03 -0.10090620682E+04 -0.11778470550E+03  0.11943416376E+04  0.12699999809E+01 0.  1.
       -4    1    3    3    0  502  0.62798952226E+03  0.10090620682E+04 -0.74554814373E+03  0.14030041857E+04  0.12699999809E+01 0. -1.
</event>
<event>
 5   0  0.3934906E-05  0.1229042E+04  0.7818609E-02  0.9087809E-01
       -1   -1    0    0    0  501  0.00000000000E+00  0.00000000000E+00  0.71841760140E+03  0.71841760142E+03  0.50400001928E-02 0. -1.
        1   -1    0    0  501    0  0.00000000000E+00  0.00000000000E+00 -0.52564957995E+03  0.52564957998E+03  0.50400001928E-02 0.  1.
    10030    2    1    2    0    0  0.00000000000E+00  0.00000000000E+00  0.19276802145E+03  0.12440671814E+04  0.12290417575E+04 0.  0.
        2    1    3    3  502    0  0.56995900329E+01 -0.28709919371E+03 -0.45356041439E+03  0.53681978527E+03  0.25500000920E-02 0.  1.
       -2    1    3    3    0  502 -0.56995900329E+01  0.28709919371E+03  0.64632843584E+03  0.70724739613E+03  0.25500000920E-02 0. -1.
</event>
<event>
 5   0  0.9144244E-05  0.2403006E+04  0.7818609E-02  0.8438379E-01
        2   -1    0    0  501    0  0.00000000000E+00  0.00000000000E+00  0.28042000503E+04  0.28042000503E+04  0.25500000920E-02 0. -1.
       -2   -1    0    0    0  501  0.00000000000E+00  0.00000000000E+00 -0.51480276486E+03  0.51480276487E+03  0.25500000920E-02 0.  1.
    10030    2    1    2    0    0  0.00000000000E+00  0.00000000000E+00  0.22893972854E+04  0.33190028152E+04  0.24030063996E+04 0.  0.
        1    1    3    3  502    0  0.26043777303E+03  0.57485962079E+03 -0.26743895525E+03  0.68543053043E+03  0.50400001928E-02 0.  1.
       -1    1    3    3    0  502 -0.26043777303E+03 -0.57485962079E+03  0.25568362407E+04  0.26335722847E+04  0.50400001928E-02 0. -1.
</event>
<event>
 5   0  0.4018942E-05  0.2479347E+04  0.7818609E-02  0.8410380E-01
       -1   -1    0    0    0  501  0.00000000000E+00  0.00000000000E+00  0.29591933295E+04  0.29591933295E+04  0.50400001928E-02 0.  1.
        1   -1    0    0  501    0  0.00000000000E+00  0.00000000000E+00 -0.51932759454E+03  0.51932759457E+03  0.50400001928E-02 0. -1.
    10030    2    1    2    0    0  0.00000000000E+00  0.00000000000E+00  0.24398657350E+04  0.34785209241E+04  0.24793472961E+04 0.  0.
        5    1    3    3  502    0 -0.54554887888E+03  0.11131086315E+04  0.12361894389E+04  0.17506629669E+04  0.46999998093E+01 0. -1.
       -5    1    3    3    0  502  0.54554887888E+03 -0.11131086315E+04  0.12036762960E+04  0.17278579572E+04  0.46999998093E+01 0.  1.
</event>
<event>
 5   0  0.4018942E-05  0.2335231E+04  0.7818609E-02  0.8464158E-01
        1   -1    0    0  501    0  0.00000000000E+00  0.00000000000E+00  0.18561924544E+04  0.18561924544E+04  0.50400001928E-02 0.  1.
       -1   -1    0    0    0  501  0.00000000000E+00  0.00000000000E+00 -0.73447422137E+03  0.73447422139E+03  0.50400001928E-02 0. -1.
    10030    2    1    2    0    0  0.00000000000E+00  0.00000000000E+00  0.11217182330E+04  0.25906666758E+04  0.23352306162E+04 0.  0.
        5    1    3    3  502    0  0.44265120914E+03  0.10544907207E+04  0.82200681471E+03  0.14084062150E+04  0.46999998093E+01 0.  1.
       -5    1    3    3    0  502 -0.44265120914E+03 -0.10544907207E+04  0.29971141832E+03  0.11822604608E+04  0.46999998093E+01 0. -1.
</event>
<event>
 5   0  0.4018942E-05  0.2397075E+04  0.7818609E-02  0.8440600E-01
       -1   -1    0    0    0  501  0.00000000000E+00  0.00000000000E+00  0.12635124627E+04  0.12635124628E+04  0.50400001928E-02 0.  1.
        1   -1    0    0  501    0  0.00000000000E+00  0.00000000000E+00 -0.11369034638E+04  0.11369034638E+04  0.50400001928E-02 0. -1.
    10030    2    1    2    0    0  0.00000000000E+00  0.00000000000E+00  0.12660899899E+03  0.24004159265E+04  0.23970746300E+04 0.  0.
        5    1    3    3  502    0  0.63467527603E+03 -0.25601140029E+03  0.10486043858E+04  0.12521772203E+04  0.46999998093E+01 0.  1.
       -5    1    3    3    0  502 -0.63467527603E+03  0.25601140029E+03 -0.92199538684E+03  0.11482387062E+04  0.46999998093E+01 0. -1.
</event>
<event>
 5   0  0.3934906E-05  0.2390403E+04  0.7818609E-02  0.8443105E-01
        1   -1    0    0  501    0  0.00000000000E+00  0.00000000000E+00  0.12102581099E+04  0.12102581099E+04  0.50400001928E-02 0.  1.
       -1   -1    0    0    0  501  0.00000000000E+00  0.00000000000E+00 -0.11803320496E+04  0.11803320496E+04  0.50400001928E-02 0. -1.
    10030    2    1    2    0    0  0.00000000000E+00  0.00000000000E+00  0.29926060311E+02  0.23905901596E+04  0.23904028409E+04 0.  0.
        2    1    3    3  502    0 -0.40298069435E+03 -0.55217882630E+03  0.99545382134E+03  0.12075691312E+04  0.25500000920E-02 0.  1.
       -2    1    3    3    0  502  0.40298069435E+03  0.55217882630E+03 -0.96552776103E+03  0.11830210284E+04  0.25500000920E-02 0. -1.
</event>
<event>
 5   0  0.9182865E-05  0.2430922E+04  0.7818609E-02  0.8428017E-01
       -2   -1    0    0    0  501  0.00000000000E+00  0.00000000000E+00  0.85450141503E+03  0.85450141503E+03  0.25500000920E-02 0.  1.
        2   -1    0    0  501    0  0.00000000000E+00  0.00000000000E+00 -0.17288976478E+04  0.17288976478E+04  0.25500000920E-02 0. -1.
    10030    2    1    2    0    0  0.00000000000E+00  0.00000000000E+00 -0.87439623280E+03  0.25833990629E+04  0.24309220362E+04 0.  0.
        3    1    3    3  502    0 -0.36526242312E+03  0.38868123317E+03 -0.15978832693E+04  0.16845535584E+04  0.10100000352E+00 0. -1.
       -3    1    3    3    0  502  0.36526242312E+03 -0.38868123317E+03  0.72348703645E+03  0.89884550446E+03  0.10100000352E+00 0.  1.
</event>
<event>
 5   0  0.9491680E-05  0.1623762E+04  0.7818609E-02  0.8806082E-01
        2   -1    0    0  501    0  0.00000000000E+00  0.00000000000E+00  0.19402420263E+04  0.19402420263E+04  0.25500000920E-02 0.  1.
       -2   -1    0    0    0  501  0.00000000000E+00  0.00000000000E+00 -0.33972584476E+03  0.33972584477E+03  0.25500000920E-02 0. -1.
    10030    2    1    2    0    0  0.00000000000E+00  0.00000000000E+00  0.16005161815E+04  0.22799678710E+04  0.16237615113E+04 0.  0.
        5    1    3    3  502    0  0.52215852818E+02 -0.28386687370E+03  0.18657505364E+04  0.18879496951E+04  0.46999998093E+01 0.  1.
       -5    1    3    3    0  502 -0.52215852818E+02  0.28386687370E+03 -0.26523435486E+03  0.39201817594E+03  0.46999998093E+01 0. -1.
</event>
<event>
 5   0  0.9750757E-05  0.2399478E+04  0.7818609E-02  0.8439699E-01
       -2   -1    0    0    0  501  0.00000000000E+00  0.00000000000E+00  0.83880355614E+03  0.83880355615E+03  0.25500000920E-02 0.  1.
        2   -1    0    0  501    0  0.00000000000E+00  0.00000000000E+00 -0.17159838522E+04  0.17159838522E+04  0.25500000920E-02 0. -1.
    10030    2    1    2    0    0  0.00000000000E+00  0.00000000000E+00 -0.87718029603E+03  0.25547874083E+04  0.23994777411E+04 0.  0.
        2    1    3    3  502    0 -0.37590384917E+03 -0.88536980404E+03 -0.12020739706E+04  0.15395340934E+04  0.25500000920E-02 0. -1.
       -2    1    3    3    0  502  0.37590384917E+03  0.88536980404E+03  0.32489367461E+03  0.10152533150E+04  0.25500000920E-02 0.  1.
</event>
<event>
 5   0  0.4260395E-05  0.2375578E+04  0.7818609E-02  0.8448704E-01
        1   -1    0    0  501    0  0.00000000000E+00  0.00000000000E+00  0.20531546878E+04  0.20531546878E+04  0.50400001928E-02 0. -1.
       -1   -1    0    0    0  501  0.00000000000E+00  0.00000000000E+00 -0.68715834500E+03  0.68715834502E+03  0.50400001928E-02 0.  1.
    10030    2    1    2    0    0  0.00000000000E+00  0.00000000000E+00  0.13659963428E+04  0.27403130328E+04  0.23755777212E+04 0.  0.
        4    1    3    3  502    0 -0.10433961692E+04 -0.29064522582E+03  0.12060907573E+03  0.10898157529E+04  0.12699999809E+01 0.  1.
       -4    1    3    3    0  502  0.10433961692E+04  0.29064522582E+03  0.12453872670E+04  0.16504972799E+04  0.12699999809E+01 0. -1.
</event>
<event>
 5   0  0.9144244E-05  0.2388580E+04  0.7818609E-02  0.8443792E-01
       -2   -1    0    0    0  501  0.00000000000E+00  0.00000000000E+00  0.91804571110E+03  0.91804571111E+03  0.25500000920E-02 0.  1.
        2   -1    0    0  501    0  0.00000000000E+00  0.00000000000E+00 -0.15536570771E+04  0.15536570771E+04  0.25500000920E-02 0. -1.
    10030    2    1    2    0    0  0.00000000000E+00  0.00000000000E+00 -0.63561136603E+03  0.24717027882E+04  0.23885796752E+04 0.  0.
        1    1    3    3  502    0  0.10888828886E+03  0.11087313065E+04  0.12750294960E+03  0.11213379382E+04  0.50400001928E-02 0.  1.
       -1    1    3    3    0  502 -0.10888828886E+03 -0.11087313065E+04 -0.76311431563E+03  0.13503648500E+04  0.50400001928E-02 0. -1.
</event>
<event>
 5   0  0.3934906E-05  0.2039214E+04  0.7818609E-02  0.8588503E-01
       -1   -1    0    0    0  501  0.00000000000E+00  0.00000000000E+00  0.54314103271E+03  0.54314103274E+03  0.50400001928E-02 0.  1.
        1   -1    0    0  501    0  0.00000000000E+00  0.00000000000E+00 -0.19140480152E+04  0.19140480152E+04  0.50400001928E-02 0. -1.
    10030    2    1    2    0    0  0.00000000000E+00  0.00000000000E+00 -0.13709069825E+04  0.24571890480E+04  0.20392135893E+04 0.  0.
        2    1    3    3  502    0  0.57610596916E+03  0.63366432973E+03 -0.18713080979E+02  0.85660886633E+03  0.25500000920E-02 0.  1.
       -2    1    3    3    0  502 -0.57610596916E+03 -0.63366432973E+03 -0.13521939015E+04  0.16005801816E+04  0.25500000920E-02 0. -1.
</event>
<event>
 5   0  0.4208577E-05  0.2363053E+04  0.7818609E-02  0.8453467E-01
       -1   -1    0    0    0  501  0.00000000000E+00  0.00000000000E+00  0.12587067296E+04  0.12587067296E+04  0.50400001928E-02 0.  1.
        1   -1    0    0  501    0  0.00000000000E+00  0.00000000000E+00 -0.11090788344E+04  0.11090788344E+04  0.50400001928E-02 0. -1.
    10030    2    1    2    0    0  0.00000000000E+00  0.00000000000E+00  0.14962789521E+03  0.23677855640E+04  0.23630531036E+04 0.  0.
        1    1    3    3  502    0 -0.30733372866E+03  0.52845951961E+03 -0.93829030759E+03  0.11198715042E+04  0.50400001928E-02 0. -1.
       -1    1    3    3    0  502  0.30733372866E+03 -0.52845951961E+03  0.10879182028E+04  0.12479140598E+04  0.50400001928E-02 0.  1.
</event>
<event>
 5   0  0.4061631E-05  0.1987262E+04  0.7818609E-02  0.8612599E-01
       -1   -1    0    0    0  501  0.00000000000E+00  0.00000000000E+00  0.58639938611E+03  0.58639938614E+03  0.50400001928E-02 0. -1.
        1   -1    0    0  501    0  0.00000000000E+00  0.00000000000E+00 -0.16836687655E+04  0.16836687656E+04  0.50400001928E-02 0.  1.
    10030    2    1    2    0    0  0.00000000000E+00  0.00000000000E+00 -0.10972693794E+04  0.22700681517E+04  0.19872617649E+04 0.  0.
        3    1    3    3  502    0  0.65413178935E+03  0.45605226999E+01 -0.14029975891E+04  0.15480024036E+04  0.10100000352E+00 0. -1.
       -3    1    3    3    0  502 -0.65413178935E+03 -0.45605226999E+01  0.30572820969E+03  0.72206574811E+03  0.10100000352E+00 0.  1.
</event>
<event>
 5   0  0.3934906E-05  0.2370149E+04  0.7818609E-02  0.8450764E-01
       -1   -1    0    0    0  501  0.00000000000E+00  0.00000000000E+00  0.90564403572E+03  0.90564403573E+03  0.50400001928E-02 0. -1.
        1   -1    0    0  501    0  0.00000000000E+00  0.00000000000E+00 -0.15507217172E+04  0.15507217172E+04  0.50400001928E-02 0.  1.
    10030    2    1    2    0    0  0.00000000000E+00  0.00000000000E+00 -0.64507768147E+03  0.24563657529E+04  0.23701492563E+04 0.  0.
        2    1    3    3  502    0 -0.49580978803E+03 -0.30699241007E+03 -0.13917304163E+04  0.15089682692E+04  0.25500000920E-02 0.  1.
       -2    1    3    3    0  502  0.49580978803E+03  0.30699241007E+03  0.74665273484E+03  0.94739748374E+03  0.25500000920E-02 0. -1.
</event>
<event>
 5   0  0.4061631E-05  0.2341895E+04  0.7818609E-02  0.8461583E-01
        1   -1    0    0  501    0  0.00000000000E+00  0.00000000000E+00  0.19013082109E+04  0.19013082109E+04  0.50400001928E-02 0. -1.
       -1   -1    0    0    0  501  0.00000000000E+00  0.00000000000E+00 -0.72114435989E+03  0.72114435991E+03  0.50400001928E-02 0.  1.
    10030    2    1    2    0    0  0.00000000000E+00  0.00000000000E+00  0.11801638511E+04  0.26224525709E+04  0.23418946968E+04 0.  0.
        3    1    3    3  502    0 -0.29957562447E+03 -0.13418545558E+03  0.18487318061E+04  0.18776476219E+04  0.10100000352E+00 0. -1.
       -3    1    3    3    0  502  0.29957562447E+03  0.13418545558E+03 -0.66856795500E+03  0.74480494891E+03  0.10100000352E+00 0.  1.
</event>
<event>
 5   0  0.4208577E-05  0.2374497E+04  0.7818609E-02  0.8449114E-01
       -1   -1    0    0    0  501  0.00000000000E+00  0.00000000000E+00  0.14928894831E+04  0.14928894831E+04  0.50400001928E-02 0.  1.
        1   -1    0    0  501    0  0.00000000000E+00  0.00000000000E+00 -0.94418143620E+03  0.94418143621E+03  0.50400001928E-02 0. -1.
    10030    2    1    2    0    0  0.00000000000E+00  0.00000000000E+00  0.54870804694E+03  0.24370709194E+04  0.23744966088E+04 0.  0.
        1    1    3    3  502    0  0.79242039535E+02 -0.80863348334E+03 -0.61413258530E+03  0.10184921421E+04  0.50400001928E-02 0. -1.
       -1    1    3    3    0  502 -0.79242039535E+02  0.80863348334E+03  0.11628406322E+04  0.14185787772E+04  0.50400001928E-02 0.  1.
</event>
<event>
 5   0  0.3934906E-05  0.2315440E+04  0.7818609E-02  0.8471858E-01
       -1   -1    0    0    0  501  0.00000000000E+00  0.00000000000E+00  0.82731722250E+03  0.82731722251E+03  0.50400001928E-02 0.  1.
        1   -1    0    0  501    0  0.00000000000E+00  0.00000000000E+00 -0.16200750772E+04  0.16200750772E+04  0.50400001928E-02 0. -1.
    10030    2    1    2    0    0  0.00000000000E+00  0.00000000000E+00 -0.79275785472E+03  0.24473922997E+04  0.23154403583E+04 0.  0.
        2    1    3    3  502    0 -0.72823158305E+03  0.59166445264E+03 -0.11132068133E+04  0.14558906113E+04  0.25500000920E-02 0. -1.
       -2    1    3    3    0  502  0.72823158305E+03 -0.59166445264E+03  0.32044895855E+03  0.99150168840E+03  0.25500000920E-02 0.  1.
</event>
<event>
 5   0  0.9750757E-05  0.2302678E+04  0.7818609E-02  0.8476866E-01
       -2   -1    0    0    0  501  0.00000000000E+00  0.00000000000E+00  0.94101344238E+03  0.94101344239E+03  0.25500000920E-02 0. -1.
        2   -1    0    0  501    0  0.00000000000E+00  0.00000000000E+00 -0.14086747459E+04  0.14086747459E+04  0.25500000920E-02 0.  1.
    10030    2    1    2    0    0  0.00000000000E+00  0.00000000000E+00 -0.46766130355E+03  0.23496881883E+04  0.23026783291E+04 0.  0.
        2    1    3    3  502    0 -0.99409545276E+03  0.53513370078E+03 -0.34154890845E+01  0.11289842835E+04  0.25500000920E-02 0. -1.
       -2    1    3    3    0  502  0.99409545276E+03 -0.53513370078E+03 -0.46424581447E+03  0.12207039048E+04  0.25500000920E-02 0.  1.
</event>
<event>
 5   0  0.3934906E-05  0.2429918E+04  0.7818609E-02  0.8428387E-01
       -1   -1    0    0    0  501  0.00000000000E+00  0.00000000000E+00  0.15084632232E+04  0.15084632232E+04  0.50400001928E-02 0. -1.
        1   -1    0    0  501    0  0.00000000000E+00  0.00000000000E+00 -0.97856258883E+03  0.97856258885E+03  0.50400001928E-02 0.  1.
    10030    2    1    2    0    0  0.00000000000E+00  0.00000000000E+00  0.52990063439E+03  0.24870258121E+04  0.24299182512E+04 0.  0.
        2    1    3    3  502    0  0.75131849261E+03  0.26586049333E+03  0.12035435849E+04  0.14434952165E+04  0.25500000920E-02 0. -1.
       -2    1    3    3    0  502 -0.75131849261E+03 -0.26586049333E+03 -0.67364295048E+03  0.10435305956E+04  0.25500000920E-02 0.  1.
</event>
<event>
 5   0  0.4018942E-05  0.2463525E+04  0.7818609E-02  0.8416096E-01
        1   -1    0    0  501    0  0.00000000000E+00  0.00000000000E+00  0.14047700948E+04  0.14047700948E+04  0.50400001928E-02 0.  1.
       -1   -1    0    0    0  501  0.00000000000E+00  0.00000000000E+00 -0.10800620257E+04  0.10800620257E+04  0.50400001928E-02 0. -1.
    10030    2    1    2    0    0  0.00000000000E+00  0.00000000000E+00  0.32470806912E+03  0.24848321205E+04  0.24635249819E+04 0.  0.
        5    1    3    3  502    0 -0.90183505545E+03 -0.81512675655E+03 -0.38056808758E+02  0.12162271610E+04  0.46999998093E+01 0. -1.
       -5    1    3    3    0  502  0.90183505545E+03  0.81512675655E+03  0.36276487788E+03  0.12686049594E+04  0.46999998093E+01 0.  1.
</event>
<event>
 5   0  0.9182865E-05  0.2414595E+04  0.7818609E-02  0.8434059E-01
       -2   -1    0    0    0  501  0.00000000000E+00  0.00000000000E+00  0.14215934645E+04  0.14215934645E+04  0.25500000920E-02 0.  1.
        2   -1    0    0  501    0  0.00000000000E+00  0.00000000000E+00 -0.10253054063E+04  0.10253054063E+04  0.25500000920E-02 0. -1.
    10030    2    1    2    0    0  0.00000000000E+00  0.00000000000E+00  0.39628805821E+03  0.24468988708E+04  0.24145951749E+04 0.  0.
        3    1    3    3  502    0 -0.53754615200E+03  0.21055868029E+03  0.12726486411E+04  0.13974710720E+04  0.10100000352E+00 0.  1.
       -3    1    3    3    0  502  0.53754615200E+03 -0.21055868029E+03 -0.87636058286E+03  0.10494277987E+04  0.10100000352E+00 0. -1.
</event>
<event>
 5   0  0.9182865E-05  0.2366218E+04  0.7818609E-02  0.8452260E-01
       -2   -1    0    0    0  501  0.00000000000E+00  0.00000000000E+00  0.88359039200E+03  0.88359039200E+03  0.25500000920E-02 0.  1.
        2   -1    0    0  501    0  0.00000000000E+00  0.00000000000E+00 -0.15841579094E+04  0.15841579094E+04  0.25500000920E-02 0. -1.
    10030    2    1    2    0    0  0.00000000000E+00  0.00000000000E+00 -0.70056751740E+03  0.24677483014E+04  0.23662178329E+04 0.  0.
        3    1    3    3  502    0  0.95954476874E+03 -0.64226112092E+03 -0.81299952508E+02  0.11575125067E+04  0.10100000352E+00 0.  1.
       -3    1    3    3    0  502 -0.95954476874E+03  0.64226112092E+03 -0.61926756490E+03  0.13102357947E+04  0.10100000352E+00 0. -1.
</event>
<event>
 5   0  0.9519092E-05  0.2396872E+04  0.7818609E-02  0.8440676E-01
       -2   -1    0    0    0  501  0.00000000000E+00  0.00000000000E+00  0.66947455227E+03  0.66947455228E+03  0.25500000920E-02 0. -1.
        2   -1    0    0  501    0  0.00000000000E+00  0.00000000000E+00 -0.21453370457E+04  0.21453370457E+04  0.25500000920E-02 0.  1.
    10030    2    1    2    0    0  0.00000000000E+00  0.00000000000E+00 -0.14758624934E+04  0.28148115980E+04  0.23968717597E+04 0.  0.
        4    1    3    3  502    0  0.81094530480E+03  0.87715573444E+03 -0.85064909871E+03  0.14665060422E+04  0.12699999809E+01 0. -1.
       -4    1    3    3    0  502 -0.81094530480E+03 -0.87715573444E+03 -0.62521339469E+03  0.13483055557E+04  0.12699999809E+01 0.  1.
</event>
<event>
 5   0  0.9182865E-05  0.2402729E+04  0.7818609E-02  0.8438483E-01
       -2   -1    0    0    0  501  0.00000000000E+00  0.00000000000E+00  0.85887509824E+03  0.85887509824E+03  0.25500000920E-02 0. -1.
        2   -1    0    0  501    0  0.00000000000E+00  0.00000000000E+00 -0.16804264873E+04  0.16804264873E+04  0.25500000920E-02 0.  1.
    10030    2    1    2    0    0  0.00000000000E+00  0.00000000000E+00 -0.82155138909E+03  0.25393015856E+04  0.24027288356E+04 0.  0.
        3    1    3    3  502    0 -0.62182592378E+03 -0.97726505921E+03 -0.74757803461E+03  0.13786179324E+04  0.10100000352E+00 0.  1.
       -3    1    3    3    0  502  0.62182592378E+03  0.97726505921E+03 -0.73973354483E+02  0.11606836532E+04  0.10100000352E+00 0. -1.
</event>
<event>
 5   0  0.9144244E-05  0.2307913E+04  0.7818609E-02  0.8474808E-01
        2   -1    0    0  501    0  0.00000000000E+00  0.00000000000E+00  0.15167381717E+04  0.15167381717E+04  0.25500000920E-02 0.  1.
       -2   -1    0    0    0  501  0.00000000000E+00  0.00000000000E+00 -0.87794698364E+03  0.87794698364E+03  0.25500000920E-02 0. -1.
    10030    2    1    2    0    0  0.00000000000E+00  0.00000000000E+00  0.63879118801E+03  0.23946851553E+04  0.23079130857E+04 0.  0.
        1    1    3    3  502    0 -0.67883458467E+03 -0.36719877265E+03 -0.57074245914E+03  0.95989493523E+03  0.50400001928E-02 0. -1.
       -1    1    3    3    0  502  0.67883458467E+03  0.36719877265E+03  0.12095336472E+04  0.14347902201E+04  0.50400001928E-02 0.  1.
</event>
<event>
 5   0  0.9491680E-05  0.1890193E+04  0.7818609E-02  0.8659753E-01
        2   -1    0    0  501    0  0.00000000000E+00  0.00000000000E+00  0.96710967497E+03  0.96710967498E+03  0.25500000920E-02 0.  1.
       -2   -1    0    0    0  501  0.00000000000E+00  0.00000000000E+00 -0.92358467992E+03  0.92358467993E+03  0.25500000920E-02 0. -1.
    10030    2    1    2    0    0  0.00000000000E+00  0.00000000000E+00  0.43524995050E+02  0.18906943549E+04  0.18901933019E+04 0.  0.
        5    1    3    3  502    0 -0.54099992337E+03  0.71627121435E+03 -0.27405263753E+03  0.93853732357E+03  0.46999998093E+01 0.  1.
       -5    1    3    3    0  502  0.54099992337E+03 -0.71627121435E+03  0.31757763258E+03  0.95215703133E+03  0.46999998093E+01 0. -1.
</event>
<event>
 5   0  0.9491680E-05  0.2313163E+04  0.7818609E-02  0.8472749E-01
        2   -1    0    0  501    0  0.00000000000E+00  0.00000000000E+00  0.15014596051E+04  0.15014596051E+04  0.25500000920E-02 0.  1.
       -2   -1    0    0    0  501  0.00000000000E+00  0.00000000000E+00 -0.89091991060E+03  0.89091991060E+03  0.25500000920E-02 0. -1.
    10030    2    1    2    0    0  0.00000000000E+00  0.00000000000E+00  0.61053969452E+03  0.23923795157E+04  0.23131625599E+04 0.  0.
        5    1    3    3  502    0 -0.24267120288E+03 -0.11164512460E+04  0.11937731178E+03  0.11487496376E+04  0.46999998093E+01 0. -1.
       -5    1    3    3    0  502  0.24267120288E+03  0.11164512460E+04  0.49116238274E+03  0.12436298781E+04  0.46999998093E+01 0.  1.
</event>
<event>
 5   0  0.4061631E-05  0.2281989E+04  0.7818609E-02  0.8485057E-01
        1   -1    0    0  501    0  0.00000000000E+00  0.00000000000E+00  0.16689093135E+04  0.16689093135E+04  0.50400001928E-02 0. -1.
       -1   -1    0    0    0  501  0.00000000000E+00  0.00000000000E+00 -0.78007140277E+03  0.78007140278E+03  0.50400001928E-02 0.  1.
    10030    2    1    2    0    0  0.00000000000E+00  0.00000000000E+00  0.88883791076E+03  0.24489807163E+04  0.22819889827E+04 0.  0.
        3    1    3    3  502    0 -0.39388836244E+03 -0.10487332375E+04  0.67677868884E+03  0.13088234599E+04  0.10100000352E+00 0. -1.
       -3    1    3    3    0  502  0.39388836244E+03  0.10487332375E+04  0.21205922192E+03  0.11401572564E+04  0.10100000352E+00 0.  1.
</event>
<event>
 5   0  0.4208577E-05  0.2389296E+04  0.7818609E-02  0.8443522E-01
       -1   -1    0    0    0  501  0.00000000000E+00  0.00000000000E+00  0.19144588003E+04  0.19144588003E+04  0.50400001928E-02 0. -1.
        1   -1    0    0  501    0  0.00000000000E+00  0.00000000000E+00 -0.74547649219E+03  0.74547649221E+03  0.50400001928E-02 0.  1.
    10030    2    1    2    0    0  0.00000000000E+00  0.00000000000E+00  0.11689823081E+04  0.26599352925E+04  0.23892961565E+04 0.  0.
        1    1    3    3  502    0 -0.43713237770E+03 -0.15871930985E+02 -0.65311799410E+03  0.78606599473E+03  0.50400001928E-02 0.  1.
       -1    1    3    3    0  502  0.43713237770E+03  0.15871930985E+02  0.18221003022E+04  0.18738692978E+04  0.50400001928E-02 0. -1.
</event>
<event>
 5   0  0.4061631E-05  0.1276331E+04  0.7818609E-02  0.9048549E-01
        1   -1    0    0  501    0  0.00000000000E+00  0.00000000000E+00  0.14615796718E+04  0.14615796718E+04  0.50400001928E-02 0. -1.
       -1   -1    0    0    0  501  0.00000000000E+00  0.00000000000E+00 -0.27864024141E+03  0.27864024146E+03  0.50400001928E-02 0.  1.
    10030    2    1    2    0    0  0.00000000000E+00  0.00000000000E+00  0.11829394304E+04  0.17402199132E+04  0.12763305413E+04 0.  0.
        3    1    3    3  502    0 -0.90048546607E+02  0.63012301151E+03  0.65381933047E+03  0.91249300134E+03  0.10100000352E+00 0. -1.
       -3    1    3    3    0  502  0.90048546607E+02 -0.63012301151E+03  0.52912009990E+03  0.82772691191E+03  0.10100000352E+00 0.  1.
</event>
<event>
 5   0  0.4208577E-05  0.2355376E+04  0.7818609E-02  0.8456401E-01
       -1   -1    0    0    0  501  0.00000000000E+00  0.00000000000E+00  0.68690285179E+03  0.68690285180E+03  0.50400001928E-02 0.  1.
        1   -1    0    0  501    0  0.00000000000E+00  0.00000000000E+00 -0.20191348680E+04  0.20191348680E+04  0.50400001928E-02 0. -1.
    10030    2    1    2    0    0  0.00000000000E+00  0.00000000000E+00 -0.13322320162E+04  0.27060377198E+04  0.23553764022E+04 0.  0.
        1    1    3    3  502    0 -0.32656644063E+03  0.96273786568E+03 -0.13491324639E+04  0.16892803922E+04  0.50400001928E-02 0. -1.
       -1    1    3    3    0  502  0.32656644063E+03 -0.96273786568E+03  0.16900447703E+02  0.10167573276E+04  0.50400001928E-02 0.  1.
</event>
<event>
 5   0  0.4260395E-05  0.2459383E+04  0.7818609E-02  0.8417600E-01
       -1   -1    0    0    0  501  0.00000000000E+00  0.00000000000E+00  0.10799785663E+04  0.10799785664E+04  0.50400001928E-02 0. -1.
        1   -1    0    0  501    0  0.00000000000E+00  0.00000000000E+00 -0.14001586977E+04  0.14001586977E+04  0.50400001928E-02 0.  1.
    10030    2    1    2    0    0  0.00000000000E+00  0.00000000000E+00 -0.32018013133E+03  0.24801372640E+04  0.24593831609E+04 0.  0.
        4    1    3    3  502    0 -0.14070046195E+02 -0.31273937652E+03 -0.13592996594E+04  0.13948838879E+04  0.12699999809E+01 0.  1.
       -4    1    3    3    0  502  0.14070046195E+02  0.31273937652E+03  0.10391195281E+04  0.10852533761E+04  0.12699999809E+01 0. -1.
</event>
<event>
 5   0  0.9519092E-05  0.2345179E+04  0.7818609E-02  0.8460317E-01
        2   -1    0    0  501    0  0.00000000000E+00  0.00000000000E+00  0.10740649521E+04  0.10740649521E+04  0.25500000920E-02 0.  1.
       -2   -1    0    0    0  501  0.00000000000E+00  0.00000000000E+00 -0.12801522841E+04  0.12801522841E+04  0.25500000920E-02 0. -1.
    10030    2    1    2    0    0  0.00000000000E+00  0.00000000000E+00 -0.20608733195E+03  0.23542172362E+04  0.23451794828E+04 0.  0.
        4    1    3    3  502    0  0.64533639567E+03 -0.12525821890E+03 -0.10777729503E+04  0.12624360698E+04  0.12699999809E+01 0. -1.
       -4    1    3    3    0  502 -0.64533639567E+03  0.12525821890E+03  0.87168561840E+03  0.10917811663E+04  0.12699999809E+01 0.  1.
</event>
<event>
 5   0  0.9491680E-05  0.2408611E+04  0.7818609E-02  0.8436287E-01
       -2   -1    0    0    0  501  0.00000000000E+00  0.00000000000E+00  0.72894883636E+03  0.72894883637E+03  0.25500000920E-02 0.  1.
        2   -1    0    0  501    0  0.00000000000E+00  0.00000000000E+00 -0.19896487919E+04  0.19896487919E+04  0.25500000920E-02 0. -1.
    10030    2    1    2    0    0  0.00000000000E+00  0.00000000000E+00 -0.12606999555E+04  0.27185976282E+04  0.24086113606E+04 0.  0.
        5    1    3    3  502    0  0.52242611614E+03 -0.10104887232E+04 -0.10765982537E+04  0.15662382949E+04  0.46999998093E+01 0.  1.
       -5    1    3    3    0  502 -0.52242611614E+03  0.10104887232E+04 -0.18410170182E+03  0.11523593333E+04  0.46999998093E+01 0. -1.
</event>
<event>
 5   0  0.4208577E-05  0.2335350E+04  0.7818609E-02  0.8464112E-01
       -1   -1    0    0    0  501  0.00000000000E+00  0.00000000000E+00  0.61794029982E+03  0.61794029984E+03  0.50400001928E-02 0. -1.
        1   -1    0    0  501    0  0.00000000000E+00  0.00000000000E+00 -0.22064663873E+04  0.22064663873E+04  0.50400001928E-02 0.  1.
    10030    2    1    2    0    0  0.00000000000E+00  0.00000000000E+00 -0.15885260875E+04  0.28244066872E+04  0.23353496535E+04 0.  0.
        1    1    3    3  502    0  0.60828986933E+03 -0.99669357097E+03 -0.80280303869E+03  0.14170064779E+04  0.50400001928E-02 0. -1.
       -1    1    3    3    0  502 -0.60828986933E+03  0.99669357097E+03 -0.78572304882E+03  0.14074002092E+04  0.50400001928E-02 0.  1.
</event>
<event>
 5   0  0.9182865E-05  0.2363951E+04  0.7818609E-02  0.8453125E-01
       -2   -1    0    0    0  501  0.00000000000E+00  0.00000000000E+00  0.10785223884E+04  0.10785223884E+04  0.25500000920E-02 0. -1.
        2   -1    0    0  501    0  0.00000000000E+00  0.00000000000E+00 -0.12953515058E+04  0.12953515058E+04  0.25500000920E-02 0.  1.
    10030    2    1    2    0    0  0.00000000000E+00  0.00000000000E+00 -0.21682911743E+03  0.23738738942E+04  0.23639505916E+04 0.  0.
        3    1    3    3  502    0  0.96441914234E+03  0.36297177964E+03  0.47299148598E+03  0.11338314473E+04  0.10100000352E+00 0. -1.
       -3    1    3    3    0  502 -0.96441914234E+03 -0.36297177964E+03 -0.68982060341E+03  0.12400424469E+04  0.10100000352E+00 0.  1.
</event>
<event>
 5   0  0.9144244E-05  0.2332253E+04  0.7818609E-02  0.8465312E-01
       -2   -1    0    0    0  501  0.00000000000E+00  0.00000000000E+00  0.62716719317E+03  0.62716719318E+03  0.25500000920E-02 0.  1.
        2   -1    0    0  501    0  0.00000000000E+00  0.00000000000E+00 -0.21682439824E+04  0.21682439824E+04  0.25500000920E-02 0. -1.
    10030    2    1    2    0    0  0.00000000000E+00  0.00000000000E+00 -0.15410767892E+04  0.27954111756E+04  0.23322534104E+04 0.  0.
        1    1    3    3  502    0  0.48310829831E+03  0.10612135229E+04 -0.79072752445E+03  0.14088356139E+04  0.50400001928E-02 0.  1.
       -1    1    3    3    0  502 -0.48310829831E+03 -0.10612135229E+04 -0.75034926476E+03  0.13865755617E+04  0.50400001928E-02 0. -1.
</event>
<event>
 5   0  0.9750757E-05  0.2405100E+04  0.7818609E-02  0.8437597E-01
        2   -1    0    0  501    0  0.00000000000E+00  0.00000000000E+00  0.13368561122E+04  0.13368561122E+04  0.25500000920E-02 0.  1.
       -2   -1    0    0    0  501  0.00000000000E+00  0.00000000000E+00 -0.10817367326E+04  0.10817367326E+04  0.25500000920E-02 0. -1.
    10030    2    1    2    0    0  0.00000000000E+00  0.00000000000E+00  0.25511937963E+03  0.24185928448E+04  0.24050998838E+04 0.  0.
        2    1    3    3  502    0 -0.22808640624E+03 -0.51402044131E+03 -0.94136460660E+03  0.10965435447E+04  0.25500000920E-02 0. -1.
       -2    1    3    3    0  502  0.22808640624E+03  0.51402044131E+03  0.11964839862E+04  0.13220493002E+04  0.25500000920E-02 0.  1.
</event>
<event>
 5   0  0.3934906E-05  0.2386426E+04  0.7818609E-02  0.8444603E-01
        1   -1    0    0  501    0  0.00000000000E+00  0.00000000000E+00  0.16491263446E+04  0.16491263446E+04  0.50400001928E-02 0. -1.
       -1   -1    0    0    0  501  0.00000000000E+00  0.00000000000E+00 -0.86334032661E+03  0.86334032663E+03  0.50400001928E-02 0.  1.
    10030    2    1    2    0    0  0.00000000000E+00  0.00000000000E+00  0.78578601800E+03  0.25124666712E+04  0.23864260114E+04 0.  0.
        2    1    3    3  502    0  0.11202476306E+04 -0.26561173408E+03  0.62884536137E+02  0.11530216008E+04  0.25500000920E-02 0. -1.
       -2    1    3    3    0  502 -0.11202476306E+04  0.26561173408E+03  0.72290148187E+03  0.13594450704E+04  0.25500000920E-02 0.  1.
</event>
<event>
 5   0  0.4260395E-05  0.2395895E+04  0.7818609E-02  0.8441042E-01
       -1   -1    0    0    0  501  0.00000000000E+00  0.00000000000E+00  0.83559034670E+03  0.83559034672E+03  0.50400001928E-02 0.  1.
        1   -1    0    0  501    0  0.00000000000E+00  0.00000000000E+00 -0.17174425192E+04  0.17174425192E+04  0.50400001928E-02 0. -1.
    10030    2    1    2    0    0  0.00000000000E+00  0.00000000000E+00 -0.88185217248E+03  0.25530328659E+04  0.23958951480E+04 0.  0.
        4    1    3    3  502    0 -0.42618870510E+03  0.67839987944E+03  0.50811205072E+03  0.94870579094E+03  0.12699999809E+01 0.  1.
       -4    1    3    3    0  502  0.42618870510E+03 -0.67839987944E+03 -0.13899642232E+04  0.16043270750E+04  0.12699999809E+01 0. -1.
</event>
<event>
 5   0  0.9491680E-05  0.1960300E+04  0.7818609E-02  0.8625410E-01
       -2   -1    0    0    0  501  0.00000000000E+00  0.00000000000E+00  0.59124486107E+03  0.59124486108E+03  0.25500000920E-02 0. -1.
        2   -1    0    0  501    0  0.00000000000E+00  0.00000000000E+00 -0.16248667116E+04  0.16248667116E+04  0.25500000920E-02 0.  1.
    10030    2    1    2    0    0  0.00000000000E+00  0.00000000000E+00 -0.10336218505E+04  0.22161115727E+04  0.19603000721E+04 0.  0.
        5    1    3    3  502    0  0.54800076711E+03  0.17768098082E+02  0.40164424407E+03  0.67967693418E+03  0.46999998093E+01 0. -1.
       -5    1    3    3    0  502 -0.54800076711E+03 -0.17768098082E+02 -0.14352660946E+04  0.15364346385E+04  0.46999998093E+01 0.  1.
</event>
<event>
 5   0  0.3934906E-05  0.2464828E+04  0.7818609E-02  0.8415624E-01
       -1   -1    0    0    0  501  0.00000000000E+00  0.00000000000E+00  0.11917065841E+04  0.11917065841E+04  0.50400001928E-02 0.  1.
        1   -1    0    0  501    0  0.00000000000E+00  0.00000000000E+00 -0.12745115381E+04  0.12745115381E+04  0.50400001928E-02 0. -1.
    10030    2    1    2    0    0  0.00000000000E+00  0.00000000000E+00 -0.82804954060E+02  0.24662181222E+04  0.24648276138E+04 0.  0.
        2    1    3    3  502    0  0.47276382862E+02  0.25746535514E+03  0.11635693714E+04  0.11926513102E+04  0.25500000920E-02 0.  1.
       -2    1    3    3    0  502 -0.47276382862E+02 -0.25746535514E+03 -0.12463743255E+04  0.12735668120E+04  0.25500000920E-02 0. -1.
</event>
<event>
 5   0  0.4018942E-05  0.1908404E+04  0.7818609E-02  0.8650685E-01
       -1   -1    0    0    0  501  0.00000000000E+00  0.00000000000E+00  0.67783866337E+03  0.67783866339E+03  0.50400001928E-02 0.  1.
        1   -1    0    0  501    0  0.00000000000E+00  0.00000000000E+00 -0.13432414545E+04  0.13432414545E+04  0.50400001928E-02 0. -1.
    10030    2    1    2    0    0  0.00000000000E+00  0.00000000000E+00 -0.66540279110E+03  0.20210801179E+04  0.19084035130E+04 0.  0.
        5    1    3    3  502    0 -0.66629860015E+03  0.67342986590E+03 -0.21187170391E+03  0.97075914508E+03  0.46999998093E+01 0. -1.
       -5    1    3    3    0  502  0.66629860015E+03 -0.67342986590E+03 -0.45353108719E+03  0.10503209728E+04  0.46999998093E+01 0.  1.
</event>
<event>
 5   0  0.4260395E-05  0.2444765E+04  0.7818609E-02  0.8422932E-01
        1   -1    0    0  501    0  0.00000000000E+00  0.00000000000E+00  0.10332566246E+04  0.10332566246E+04  0.50400001928E-02 0. -1.
       -1   -1    0    0    0  501  0.00000000000E+00  0.00000000000E+00 -0.14461261316E+04  0.14461261316E+04  0.50400001928E-02 0.  1.
    10030    2    1    2    0    0  0.00000000000E+00  0.00000000000E+00 -0.41286950697E+03  0.24793827562E+04  0.24447653511E+04 0.  0.
        4    1    3    3  502    0 -0.55274800263E+03 -0.16934167971E+03  0.88585388723E+03  0.10578022884E+04  0.12699999809E+01 0. -1.
       -4    1    3    3    0  502  0.55274800263E+03  0.16934167971E+03 -0.12987233942E+04  0.14215804678E+04  0.12699999809E+01 0.  1.
</event>
<event>
 5   0  0.4061631E-05  0.2426526E+04  0.7818609E-02  0.8429639E-01
       -1   -1    0    0    0  501  0.00000000000E+00  0.00000000000E+00  0.10799200596E+04  0.10799200596E+04  0.50400001928E-02 0. -1.
        1   -1    0    0  501    0  0.00000000000E+00  0.00000000000E+00 -0.13630705074E+04  0.13630705075E+04  0.50400001928E-02 0.  1.
    10030    2    1    2    0    0  0.00000000000E+00  0.00000000000E+00 -0.28315044784E+03  0.24429905671E+04  0.24265260630E+04 0.  0.
        3    1    3    3  502    0 -0.81947610423E+03 -0.85989877599E+03  0.10716426836E+03  0.11926655780E+04  0.10100000352E+00 0. -1.
       -3    1    3    3    0  502  0.81947610423E+03  0.85989877599E+03 -0.39031471620E+03  0.12503249891E+04  0.10100000352E+00 0.  1.
</event>
<event>
 5   0  0.4018942E-05  0.2422554E+04  0.7818609E-02  0.8431108E-01
       -1   -1    0    0    0  501  0.00000000000E+00  0.00000000000E+00  0.27075940844E+04  0.27075940845E+04  0.50400001928E-02 0.  1.
        1   -1    0    0  501    0  0.00000000000E+00  0.00000000000E+00 -0.54188028365E+03  0.54188028367E+03  0.50400001928E-02 0. -1.
    10030    2    1    2    0    0  0.00000000000E+00  0.00000000000E+00  0.21657138008E+04  0.32494743681E+04  0.24225539008E+04 0.  0.
        5    1    3    3  502    0 -0.52866096066E+03  0.20885507904E+03  0.25175710395E+04  0.25809472843E+04  0.46999998093E+01 0.  1.
       -5    1    3    3    0  502  0.52866096066E+03 -0.20885507904E+03 -0.35185723871E+03  0.66852708382E+03  0.46999998093E+01 0. -1.
</event>
<event>
 5   0  0.4208577E-05  0.2423339E+04  0.7818609E-02  0.8430817E-01
        1   -1    0    0  501    0  0.00000000000E+00  0.00000000000E+00  0.12688475973E+04  0.12688475973E+04  0.50400001928E-02 0.  1.
       -1   -1    0    0    0  501  0.00000000000E+00  0.00000000000E+00 -0.11570680414E+04  0.11570680414E+04  0.50400001928E-02 0. -1.
    10030    2    1    2    0    0  0.00000000000E+00  0.00000000000E+00  0.11177955585E+03  0.24259156387E+04  0.24233390223E+04 0.  0.
        1    1    3    3  502    0  0.30642228840E+03  0.45297239250E+02  0.12285432110E+04  0.12669904814E+04  0.50400001928E-02 0.  1.
       -1    1    3    3    0  502 -0.30642228840E+03 -0.45297239250E+02 -0.11167636552E+04  0.11589251573E+04  0.50400001928E-02 0. -1.
</event>
<event>
 5   0  0.9144244E-05  0.2439214E+04  0.7818609E-02  0.8424967E-01
        2   -1    0    0  501    0  0.00000000000E+00  0.00000000000E+00  0.49390001939E+03  0.49390001939E+03  0.25500000920E-02 0. -1.
       -2   -1    0    0    0  501  0.00000000000E+00  0.00000000000E+00 -0.30116233398E+04  0.30116233398E+04  0.25500000920E-02 0.  1.
    10030    2    1    2    0    0  0.00000000000E+00  0.00000000000E+00 -0.25177233205E+04  0.35055233592E+04  0.24392136651E+04 0.  0.
        1    1    3    3  502    0  0.44172086120E+03  0.77200128575E+03 -0.24581204761E+04  0.26140886709E+04  0.50400001928E-02 0.  1.
       -1    1    3    3    0  502 -0.44172086120E+03 -0.77200128575E+03 -0.59602844348E+02  0.89143468830E+03  0.50400001928E-02 0. -1.
</event>
<event>
 5   0  0.4208577E-05  0.2117324E+04  0.7818609E-02  0.8553650E-01
       -1   -1    0    0    0  501  0.00000000000E+00  0.00000000000E+00  0.52565121439E+03  0.52565121441E+03  0.50400001928E-02 0. -1.
        1   -1    0    0  501    0  0.00000000000E+00  0.00000000000E+00 -0.21321469359E+04  0.21321469359E+04  0.50400001928E-02 0.  1.
    10030    2    1    2    0    0  0.00000000000E+00  0.00000000000E+00 -0.16064957215E+04  0.26577981503E+04  0.21173243740E+04 0.  0.
        1    1    3    3  502    0 -0.52303762163E+03 -0.43855093607E+03 -0.18190573403E+04  0.19429011515E+04  0.50400001928E-02 0.  1.
       -1    1    3    3    0  502  0.52303762163E+03  0.43855093607E+03  0.21256161876E+03  0.71489699885E+03  0.50400001928E-02 0. -1.
</event>
<event>
 5   0  0.9144244E-05  0.2379954E+04  0.7818609E-02  0.8447047E-01
       -2   -1    0    0    0  501  0.00000000000E+00  0.00000000000E+00  0.10736836876E+04  0.10736836876E+04  0.25500000920E-02 0.  1.
        2   -1    0    0  501    0  0.00000000000E+00  0.00000000000E+00 -0.13188667873E+04  0.13188667873E+04  0.25500000920E-02 0. -1.
    10030    2    1    2    0    0  0.00000000000E+00  0.00000000000E+00 -0.24518309970E+03  0.23925504749E+04  0.23799544161E+04 0.  0.
        1    1    3    3  502    0 -0.12219626350E+03 -0.11755954018E+04 -0.26148675183E+03  0.12105089000E+04  0.50400001928E-02 0. -1.
       -1    1    3    3    0  502  0.12219626350E+03  0.11755954018E+04  0.16303652132E+02  0.11820415749E+04  0.50400001928E-02 0.  1.
</event>
<event>
 5   0  0.9491680E-05  0.2317615E+04  0.7818609E-02  0.8471008E-01
       -2   -1    0    0    0  501  0.00000000000E+00  0.00000000000E+00  0.76541192889E+03  0.76541192889E+03  0.25500000920E-02 0. -1.
        2   -1    0    0  501    0  0.00000000000E+00  0.00000000000E+00 -0.17543947377E+04  0.17543947377E+04  0.25500000920E-02 0.  1.
    10030    2    1    2    0    0  0.00000000000E+00  0.00000000000E+00 -0.98898280878E+03  0.25198066666E+04  0.23176148603E+04 0.  0.
        5    1    3    3  502    0 -0.11420170192E+04  0.18842822285E+03 -0.43391241911E+03  0.12361270746E+04  0.46999998093E+01 0. -1.
       -5    1    3    3    0  502  0.11420170192E+04 -0.18842822285E+03 -0.55507038967E+03  0.12836795919E+04  0.46999998093E+01 0.  1.
</event>
<event>
 5   0  0.3934906E-05  0.1382851E+04  0.7818609E-02  0.8966326E-01
       -1   -1    0    0    0  501  0.00000000000E+00  0.00000000000E+00  0.51149533989E+03  0.51149533992E+03  0.50400001928E-02 0.  1.
        1   -1    0    0  501    0  0.00000000000E+00  0.00000000000E+00 -0.93465075885E+03  0.93465075887E+03  0.50400001928E-02 0. -1.
    10030    2    1    2    0    0  0.00000000000E+00  0.00000000000E+00 -0.42315541896E+03  0.14461460988E+04  0.13828514130E+04 0.  0.
        2    1    3    3  502    0  0.29794080185E+03 -0.55888383973E+03 -0.50167251238E+03  0.80795741063E+03  0.25500000920E-02 0. -1.
       -2    1    3    3    0  502 -0.29794080185E+03  0.55888383973E+03  0.78517093413E+02  0.63818868815E+03  0.25500000920E-02 0.  1.
</event>
<event>
 5   0  0.4208577E-05  0.2392828E+04  0.7818609E-02  0.8442194E-01
       -1   -1    0    0    0  501  0.00000000000E+00  0.00000000000E+00  0.82836361473E+03  0.82836361475E+03  0.50400001928E-02 0.  1.
        1   -1    0    0  501    0  0.00000000000E+00  0.00000000000E+00 -0.17279923796E+04  0.17279923796E+04  0.50400001928E-02 0. -1.
    10030    2    1    2    0    0  0.00000000000E+00  0.00000000000E+00 -0.89962876487E+03  0.25563559944E+04  0.23928276276E+04 0.  0.
        1    1    3    3  502    0  0.62299928696E+03  0.42187871945E+03  0.54397036943E+03  0.92844683656E+03  0.50400001928E-02 0.  1.
       -1    1    3    3    0  502 -0.62299928696E+03 -0.42187871945E+03 -0.14435991343E+04  0.16279091578E+04  0.50400001928E-02 0. -1.
</event>
<event>
 5   0  0.9750757E-05  0.2377282E+04  0.7818609E-02  0.8448058E-01
       -2   -1    0    0    0  501  0.00000000000E+00  0.00000000000E+00  0.67516622941E+03  0.67516622941E+03  0.25500000920E-02 0. -1.
        2   -1    0    0  501    0  0.00000000000E+00  0.00000000000E+00 -0.20926217548E+04  0.20926217548E+04  0.25500000920E-02 0.  1.
    10030    2    1    2    0    0  0.00000000000E+00  0.00000000000E+00 -0.14174555254E+04  0.27677879842E+04  0.23772820950E+04 0.  0.
        2    1    3    3  502    0 -0.88177501936E+03  0.33849671115E+03  0.13144973863E+03  0.95361745056E+03  0.25500000920E-02 0. -1.
       -2    1    3    3    0  502  0.88177501936E+03 -0.33849671115E+03 -0.15489052640E+04  0.18141705336E+04  0.25500000920E-02 0.  1.
</event>
<event>
 5   0  0.4061631E-05  0.2386725E+04  0.7818609E-02  0.8444490E-01
        1   -1    0    0  501    0  0.00000000000E+00  0.00000000000E+00  0.14403085601E+04  0.14403085601E+04  0.50400001928E-02 0.  1.
       -1   -1    0    0    0  501  0.00000000000E+00  0.00000000000E+00 -0.98875605536E+03  0.98875605538E+03  0.50400001928E-02 0. -1.
    10030    2    1    2    0    0  0.00000000000E+00  0.00000000000E+00  0.45155250474E+03  0.24290646155E+04  0.23867247939E+04 0.  0.
        3    1    3    3  502    0 -0.22239725918E+03 -0.11222976795E+04 -0.11950786914E+03  0.11503454974E+04  0.10100000352E+00 0. -1.
       -3    1    3    3    0  502  0.22239725918E+03  0.11222976795E+04  0.57106037388E+03  0.12787191181E+04  0.10100000352E+00 0.  1.
</event>
<event>
 5   0  0.4061631E-05  0.2343479E+04  0.7818609E-02  0.8460972E-01
       -1   -1    0    0    0  501  0.00000000000E+00  0.00000000000E+00  0.13027984632E+04  0.13027984632E+04  0.50400001928E-02 0.  1.
        1   -1    0    0  501    0  0.00000000000E+00  0.00000000000E+00 -0.10538650769E+04  0.10538650769E+04  0.50400001928E-02 0. -1.
    10030    2    1    2    0    0  0.00000000000E+00  0.00000000000E+00  0.24893338630E+03  0.23566635400E+04  0.23434792959E+04 0.  0.
        3    1    3    3  502    0 -0.10629986616E+03  0.11192693321E+04 -0.20740554579E+03  0.11432762439E+04  0.10100000352E+00 0. -1.
       -3    1    3    3    0  502  0.10629986616E+03 -0.11192693321E+04  0.45633893209E+03  0.12133872961E+04  0.10100000352E+00 0.  1.
</event>
<event>
 5   0  0.9750757E-05  0.2068742E+04  0.7818609E-02  0.8575139E-01
        2   -1    0    0  501    0  0.00000000000E+00  0.00000000000E+00  0.17495182398E+04  0.17495182398E+04  0.25500000920E-02 0.  1.
       -2   -1    0    0    0  501  0.00000000000E+00  0.00000000000E+00 -0.61155334881E+03  0.61155334882E+03  0.25500000920E-02 0. -1.
    10030    2    1    2    0    0  0.00000000000E+00  0.00000000000E+00  0.11379648909E+04  0.23610715886E+04  0.20687423603E+04 0.  0.
        2    1    3    3  502    0  0.52895217753E+03  0.71702600844E+03 -0.30619211248E+02  0.89154598255E+03  0.25500000920E-02 0. -1.
       -2    1    3    3    0  502 -0.52895217753E+03 -0.71702600844E+03  0.11685841022E+04  0.14695256060E+04  0.25500000920E-02 0.  1.
</event>
<event>
 5   0  0.4018942E-05  0.2377985E+04  0.7818609E-02  0.8447792E-01
        1   -1    0    0  501    0  0.00000000000E+00  0.00000000000E+00  0.14232344657E+04  0.14232344657E+04  0.50400001928E-02 0.  1.
       -1   -1    0    0    0  501  0.00000000000E+00  0.00000000000E+00 -0.99330288069E+03  0.99330288070E+03  0.50400001928E-02 0. -1.
    10030    2    1    2    0    0  0.00000000000E+00  0.00000000000E+00  0.42993158499E+03  0.24165373464E+04  0.23779847726E+04 0.  0.
        5    1    3    3  502    0  0.60834598163E+03 -0.78874275827E+00 -0.82316126260E+03  0.10235731580E+04  0.46999998093E+01 0. -1.
       -5    1    3    3    0  502 -0.60834598163E+03  0.78874275827E+00  0.12530928476E+04  0.13929641884E+04  0.46999998093E+01 0.  1.
</event>
<event>
 5   0  0.9182865E-05  0.2486959E+04  0.7818609E-02  0.8407646E-01
       -2   -1    0    0    0  501  0.00000000000E+00  0.00000000000E+00  0.11599695796E+04  0.11599695796E+04  0.25500000920E-02 0. -1.
        2   -1    0    0  501    0  0.00000000000E+00  0.00000000000E+00 -0.13330015739E+04  0.13330015739E+04  0.25500000920E-02 0.  1.
    10030    2    1    2    0    0  0.00000000000E+00  0.00000000000E+00 -0.17303199428E+03  0.24929711535E+04  0.24869590067E+04 0.  0.
        3    1    3    3  502    0  0.91331588992E+03  0.75544225463E+03  0.29042809457E+03  0.12203226635E+04  0.10100000352E+00 0. -1.
       -3    1    3    3    0  502 -0.91331588992E+03 -0.75544225463E+03 -0.46346008885E+03  0.12726484900E+04  0.10100000352E+00 0.  1.
</event>
<event>
 5   0  0.9182865E-05  0.2456298E+04  0.7818609E-02  0.8418722E-01
       -2   -1    0    0    0  501  0.00000000000E+00  0.00000000000E+00  0.23886974560E+04  0.23886974560E+04  0.25500000920E-02 0. -1.
        2   -1    0    0  501    0  0.00000000000E+00  0.00000000000E+00 -0.63145297680E+03  0.63145297680E+03  0.25500000920E-02 0.  1.
    10030    2    1    2    0    0  0.00000000000E+00  0.00000000000E+00  0.17572444792E+04  0.30201504328E+04  0.24562981246E+04 0.  0.
        3    1    3    3  502    0 -0.85523213067E+03  0.12448431521E+02  0.19622861273E+04  0.21405942671E+04  0.10100000352E+00 0. -1.
       -3    1    3    3    0  502  0.85523213067E+03 -0.12448431521E+02 -0.20504164819E+03  0.87955616561E+03  0.10100000352E+00 0.  1.
</event>
<event>
 5   0  0.9750757E-05  0.2370682E+04  0.7818609E-02  0.8450562E-01
       -2   -1    0    0    0  501  0.00000000000E+00  0.00000000000E+00  0.17036086089E+04  0.17036086089E+04  0.25500000920E-02 0. -1.
        2   -1    0    0  501    0  0.00000000000E+00  0.00000000000E+00 -0.82473935453E+03  0.82473935454E+03  0.25500000920E-02 0.  1.
    10030    2    1    2    0    0  0.00000000000E+00  0.00000000000E+00  0.87886925433E+03  0.25283479634E+04  0.23706818129E+04 0.  0.
        2    1    3    3  502    0 -0.53299337426E+03  0.47188866686E+02  0.15674762345E+04  0.16562881608E+04  0.25500000920E-02 0. -1.
       -2    1    3    3    0  502  0.53299337426E+03 -0.47188866686E+02 -0.68860698013E+03  0.87205980256E+03  0.25500000920E-02 0.  1.
</event>
<event>
 5   0  0.4260395E-05  0.2356088E+04  0.7818609E-02  0.8456129E-01
        1   -1    0    0  501    0  0.00000000000E+00  0.00000000000E+00  0.18363765203E+04  0.18363765204E+04  0.50400001928E-02 0.  1.
       -1   -1    0    0    0  501  0.00000000000E+00  0.00000000000E+00 -0.75572040462E+03  0.75572040464E+03  0.50400001928E-02 0. -1.
    10030    2    1    2    0    0  0.00000000000E+00  0.00000000000E+00  0.10806561157E+04  0.25920969250E+04  0.23560876104E+04 0.  0.
        4    1    3    3  502    0 -0.34054612094E+03  0.10268006261E+04  0.10534065962E+04  0.15099530642E+04  0.12699999809E+01 0.  1.
       -4    1    3    3    0  502  0.34054612094E+03 -0.10268006261E+04  0.27249519519E+02  0.10821438608E+04  0.12699999809E+01 0. -1.
</event>
<event>
 5   0  0.9144244E-05  0.1839214E+04  0.7818609E-02  0.8685719E-01
        2   -1    0    0  501    0  0.00000000000E+00  0.00000000000E+00  0.13684467991E+04  0.13684467991E+04  0.25500000920E-02 0.  1.
       -2   -1    0    0    0  501  0.00000000000E+00  0.00000000000E+00 -0.61798342631E+03  0.61798342631E+03  0.25500000920E-02 0. -1.
    10030    2    1    2    0    0  0.00000000000E+00  0.00000000000E+00  0.75046337275E+03  0.19864302254E+04  0.18392144427E+04 0.  0.
        1    1    3    3  502    0  0.67184104247E+03 -0.16471797322E+03  0.10296832720E+04  0.12404636382E+04  0.50400001928E-02 0.  1.
       -1    1    3    3    0  502 -0.67184104247E+03  0.16471797322E+03 -0.27921989922E+03  0.74596658719E+03  0.50400001928E-02 0. -1.
</event>
<event>
 5   0  0.9750757E-05  0.2184586E+04  0.7818609E-02  0.8524871E-01
        2   -1    0    0  501    0  0.00000000000E+00  0.00000000000E+00  0.16438406810E+04  0.16438406810E+04  0.25500000920E-02 0.  1.
       -2   -1    0    0    0  501  0.00000000000E+00  0.00000000000E+00 -0.72580279479E+03  0.72580279479E+03  0.25500000920E-02 0. -1.
    10030    2    1    2    0    0  0.00000000000E+00  0.00000000000E+00  0.91803788625E+03  0.23696434758E+04  0.21845861489E+04 0.  0.
        2    1    3    3  502    0 -0.32803753607E+03 -0.29840219887E+03 -0.62376536103E+03  0.76533373308E+03  0.25500000920E-02 0. -1.
       -2    1    3    3    0  502  0.32803753607E+03  0.29840219887E+03  0.15418032473E+04  0.16043097428E+04  0.25500000920E-02 0.  1.
</event>
<event>
 5   0  0.9144244E-05  0.2440074E+04  0.7818609E-02  0.8424651E-01
       -2   -1    0    0    0  501  0.00000000000E+00  0.00000000000E+00  0.18994498864E+04  0.18994498864E+04  0.25500000920E-02 0.  1.
        2   -1    0    0  501    0  0.00000000000E+00  0.00000000000E+00 -0.78364306404E+03  0.78364306404E+03  0.25500000920E-02 0. -1.
    10030    2    1    2    0    0  0.00000000000E+00  0.00000000000E+00  0.11158068223E+04  0.26830929504E+04  0.24400743669E+04 0.  0.
        1    1    3    3  502    0  0.72997101187E+03  0.67125680496E+03  0.13393489298E+04  0.16665230068E+04  0.50400001928E-02 0.  1.
       -1    1    3    3    0  502 -0.72997101187E+03 -0.67125680496E+03 -0.22354210751E+03  0.10165699436E+04  0.50400001928E-02 0. -1.
</event>
<event>
 5   0  0.9182865E-05  0.2327705E+04  0.7818609E-02  0.8467077E-01
        2   -1    0    0  501    0  0.00000000000E+00  0.00000000000E+00  0.17338821720E+04  0.17338821720E+04  0.25500000920E-02 0.  1.
       -2   -1    0    0    0  501  0.00000000000E+00  0.00000000000E+00 -0.78122552901E+03  0.78122552901E+03  0.25500000920E-02 0. -1.
    10030    2    1    2    0    0  0.00000000000E+00  0.00000000000E+00  0.95265664303E+03  0.25151077010E+04  0.23277053225E+04 0.  0.
        3    1    3    3  502    0 -0.82161000832E+03  0.58184487555E+03 -0.15460646065E+03  0.10185723503E+04  0.10100000352E+00 0. -1.
       -3    1    3    3    0  502  0.82161000832E+03 -0.58184487555E+03  0.11072631037E+04  0.14965353507E+04  0.10100000352E+00 0.  1.
</event>
<event>
 5   0  0.3934906E-05  0.2400029E+04  0.7818609E-02  0.8439493E-01
        1   -1    0    0  501    0  0.00000000000E+00  0.00000000000E+00  0.25025168165E+04  0.25025168166E+04  0.50400001928E-02 0.  1.
       -1   -1    0    0    0  501  0.00000000000E+00  0.00000000000E+00 -0.57543448733E+03  0.57543448736E+03  0.50400001928E-02 0. -1.
    10030    2    1    2    0    0  0.00000000000E+00  0.00000000000E+00  0.19270823292E+04  0.30779513039E+04  0.24000287343E+04 0.  0.
        2    1    3    3  502    0 -0.26692069462E+02 -0.28959891047E+03 -0.52955497595E+03  0.60415930687E+03  0.25500000920E-02 0. -1.
       -2    1    3    3    0  502  0.26692069462E+02  0.28959891047E+03  0.24566373052E+04  0.24737919970E+04  0.25500000920E-02 0.  1.
</event>
<event>
 5   0  0.9182865E-05  0.2352495E+04  0.7818609E-02  0.8457506E-01
        2   -1    0    0  501    0  0.00000000000E+00  0.00000000000E+00  0.13342677250E+04  0.13342677250E+04  0.25500000920E-02 0. -1.
       -2   -1    0    0    0  501  0.00000000000E+00  0.00000000000E+00 -0.10369423427E+04  0.10369423427E+04  0.25500000920E-02 0.  1.
    10030    2    1    2    0    0  0.00000000000E+00  0.00000000000E+00  0.29732538231E+03  0.23712100676E+04  0.23524954414E+04 0.  0.
        3    1    3    3  502    0  0.10330357749E+04 -0.41082267208E+03  0.53593334665E+03  0.12341647955E+04  0.10100000352E+00 0.  1.
       -3    1    3    3    0  502 -0.10330357749E+04  0.41082267208E+03 -0.23860796434E+03  0.11370452722E+04  0.10100000352E+00 0. -1.
</event>
<event>
 5   0  0.9519092E-05  0.2481931E+04  0.7818609E-02  0.8409451E-01
       -2   -1    0    0    0  501  0.00000000000E+00  0.00000000000E+00  0.10672115946E+04  0.10672115946E+04  0.25500000920E-02 0.  1.
        2   -1    0    0  501    0  0.00000000000E+00  0.00000000000E+00 -0.14430086528E+04  0.14430086528E+04  0.25500000920E-02 0. -1.
    10030    2    1    2    0    0  0.00000000000E+00  0.00000000000E+00 -0.37579705820E+03  0.25102202475E+04  0.24819311558E+04 0.  0.
        4    1    3    3  502    0 -0.80346838181E+03 -0.90855689098E+03 -0.45348804288E+03  0.12948706818E+04  0.12699999809E+01 0. -1.
       -4    1    3    3    0  502  0.80346838181E+03  0.90855689098E+03  0.77690984682E+02  0.12153495657E+04  0.12699999809E+01 0.  1.
</event>
<event>
 5   0  0.4208577E-05  0.2388445E+04  0.7818609E-02  0.8443842E-01
        1   -1    0    0  501    0  0.00000000000E+00  0.00000000000E+00  0.60360978885E+03  0.60360978887E+03  0.50400001928E-02 0. -1.
       -1   -1    0    0    0  501  0.00000000000E+00  0.00000000000E+00 -0.23627313018E+04  0.23627313018E+04  0.50400001928E-02 0.  1.
    10030    2    1    2    0    0  0.00000000000E+00  0.00000000000E+00 -0.17591215130E+04  0.29663410907E+04  0.23884453038E+04 0.  0.
        1    1    3    3  502    0  0.87305501280E+03  0.15324814196E+03  0.11435828561E+03  0.89374933058E+03  0.50400001928E-02 0. -1.
       -1    1    3    3    0  502 -0.87305501280E+03 -0.15324814196E+03 -0.18734797986E+04  0.20725917601E+04  0.50400001928E-02 0.  1.
</event>
<event>
 5   0  0.3934906E-05  0.1513818E+04  0.7818609E-02  0.8875316E-01
        1   -1    0    0  501    0  0.00000000000E+00  0.00000000000E+00  0.47157408977E+03  0.47157408979E+03  0.50400001928E-02 0. -1.
       -1   -1    0    0    0  501  0.00000000000E+00  0.00000000000E+00 -0.12148915614E+04  0.12148915614E+04  0.50400001928E-02 0.  1.
    10030    2    1    2    0    0  0.00000000000E+00  0.00000000000E+00 -0.74331747165E+03  0.16864656512E+04  0.15138181955E+04 0.  0.
        2    1    3    3  502    0  0.71900197492E+03 -0.23520752339E+03 -0.34380836211E+03  0.83095764564E+03  0.25500000920E-02 0.  1.
       -2    1    3    3    0  502 -0.71900197492E+03  0.23520752339E+03 -0.39950910954E+03  0.85550800558E+03  0.25500000920E-02 0. -1.
</event>
<event>
 5   0  0.4018942E-05  0.1379385E+04  0.7818609E-02  0.8968877E-01
       -1   -1    0    0    0  501  0.00000000000E+00  0.00000000000E+00  0.27475844305E+03  0.27475844310E+03  0.50400001928E-02 0. -1.
        1   -1    0    0  501    0  0.00000000000E+00  0.00000000000E+00 -0.17312511368E+04  0.17312511369E+04  0.50400001928E-02 0.  1.
    10030    2    1    2    0    0  0.00000000000E+00  0.00000000000E+00 -0.14564926938E+04  0.20060095800E+04  0.13793851774E+04 0.  0.
        5    1    3    3  502    0  0.36340773489E+03  0.19641256518E+03 -0.15314117357E+04  0.15861548070E+04  0.46999998093E+01 0.  1.
       -5    1    3    3    0  502 -0.36340773489E+03 -0.19641256518E+03  0.74919041898E+02  0.41985477295E+03  0.46999998093E+01 0. -1.
</event>
<event>
 5   0  0.3234750E-05  0.2317712E+04  0.7818609E-02  0.8470970E-01
        3   -1    0    0  501    0  0.00000000000E+00  0.00000000000E+00  0.10838543526E+04  0.10838543573E+04  0.10100000352E+00 0. -1.
       -3   -1    0    0    0  501  0.00000000000E+00  0.00000000000E+00 -0.12390478122E+04  0.12390478164E+04  0.10100000352E+00 0.  1.
    10030    2    1    2    0    0  0.00000000000E+00  0.00000000000E+00 -0.15519345969E+03  0.23229021736E+04  0.23177121259E+04 0.  0.
        5    1    3    3  502    0  0.38881431000E+03 -0.10102943308E+03  0.10118248338E+04  0.10886666607E+04  0.46999998093E+01 0. -1.
       -5    1    3    3    0  502 -0.38881431000E+03  0.10102943308E+03 -0.11670182935E+04  0.12342355129E+04  0.46999998093E+01 0.  1.
</event>
<event>
 5   0  0.4061631E-05  0.2369662E+04  0.7818609E-02  0.8450950E-01
        1   -1    0    0  501    0  0.00000000000E+00  0.00000000000E+00  0.10938527579E+04  0.10938527579E+04  0.50400001928E-02 0. -1.
       -1   -1    0    0    0  501  0.00000000000E+00  0.00000000000E+00 -0.12833758461E+04  0.12833758461E+04  0.50400001928E-02 0.  1.
    10030    2    1    2    0    0  0.00000000000E+00  0.00000000000E+00 -0.18952308817E+03  0.23772286040E+04  0.23696617553E+04 0.  0.
        3    1    3    3  502    0  0.82036353681E+03  0.72950250533E+03 -0.54189091844E+03  0.12242614163E+04  0.10100000352E+00 0. -1.
       -3    1    3    3    0  502 -0.82036353681E+03 -0.72950250533E+03  0.35236783027E+03  0.11529671877E+04  0.10100000352E+00 0.  1.
</event>
<event>
 5   0  0.9519092E-05  0.1874002E+04  0.7818609E-02  0.8667907E-01
       -2   -1    0    0    0  501  0.00000000000E+00  0.00000000000E+00  0.80209125286E+03  0.80209125286E+03  0.25500000920E-02 0. -1.
        2   -1    0    0  501    0  0.00000000000E+00  0.00000000000E+00 -0.10946023015E+04  0.10946023015E+04  0.25500000920E-02 0.  1.
    10030    2    1    2    0    0  0.00000000000E+00  0.00000000000E+00 -0.29251104868E+03  0.18966935544E+04  0.18740020613E+04 0.  0.
        4    1    3    3  502    0 -0.73543865063E+03  0.50090976362E+03 -0.44338950117E+03  0.99417124419E+03  0.12699999809E+01 0.  1.
       -4    1    3    3    0  502  0.73543865063E+03 -0.50090976362E+03  0.15087845248E+03  0.90252231022E+03  0.12699999809E+01 0. -1.
</event>
<event>
 5   0  0.4208577E-05  0.2413694E+04  0.7818609E-02  0.8434395E-01
       -1   -1    0    0    0  501  0.00000000000E+00  0.00000000000E+00  0.13818421362E+04  0.13818421362E+04  0.50400001928E-02 0. -1.
        1   -1    0    0  501    0  0.00000000000E+00  0.00000000000E+00 -0.10540127470E+04  0.10540127471E+04  0.50400001928E-02 0.  1.
    10030    2    1    2    0    0  0.00000000000E+00  0.00000000000E+00  0.32782938912E+03  0.24358548832E+04  0.24136936226E+04 0.  0.
        1    1    3    3  502    0  0.71878763171E+02 -0.55763948006E+03 -0.91376207056E+03  0.10728883763E+04  0.50400001928E-02 0.  1.
       -1    1    3    3    0  502 -0.71878763171E+02  0.55763948006E+03  0.12415914597E+04  0.13629665070E+04  0.50400001928E-02 0. -1.
</event>
<event>
 5   0  0.9491680E-05  0.2398651E+04  0.7818609E-02  0.8440009E-01
        2   -1    0    0  501    0  0.00000000000E+00  0.00000000000E+00  0.85699490380E+03  0.85699490381E+03  0.25500000920E-02 0. -1.
       -2   -1    0    0    0  501  0.00000000000E+00  0.00000000000E+00 -0.16784010748E+04  0.16784010748E+04  0.25500000920E-02 0.  1.
    10030    2    1    2    0    0  0.00000000000E+00  0.00000000000E+00 -0.82140617100E+03  0.25353959786E+04  0.23986505937E+04 0.  0.
        5    1    3    3  502    0 -0.46554460492E+03 -0.10039049495E+04  0.78044744628E+02  0.11093556684E+04  0.46999998093E+01 0.  1.
       -5    1    3    3    0  502  0.46554460492E+03  0.10039049495E+04 -0.89945091563E+03  0.14260403102E+04  0.46999998093E+01 0. -1.
</event>
<event>
 5   0  0.9491680E-05  0.1271801E+04  0.7818609E-02  0.9052231E-01
        2   -1    0    0  501    0  0.00000000000E+00  0.00000000000E+00  0.82605329624E+03  0.82605329625E+03  0.25500000920E-02 0. -1.
       -2   -1    0    0    0  501  0.00000000000E+00  0.00000000000E+00 -0.48951981221E+03  0.48951981221E+03  0.25500000920E-02 0.  1.
    10030    2    1    2    0    0  0.00000000000E+00  0.00000000000E+00  0.33653348404E+03  0.13155731085E+04  0.12718010135E+04 0.  0.
        5    1    3    3  502    0 -0.17102138920E+03 -0.20943076232E+02  0.80142859024E+03  0.81975411147E+03  0.46999998093E+01 0. -1.
       -5    1    3    3    0  502  0.17102138920E+03  0.20943076232E+02 -0.46489510621E+03  0.49581899699E+03  0.46999998093E+01 0.  1.
</event>
<event>
 5   0  0.9491680E-05  0.2268940E+04  0.7818609E-02  0.8490269E-01
       -2   -1    0    0    0  501  0.00000000000E+00  0.00000000000E+00  0.10790097570E+04  0.10790097571E+04  0.25500000920E-02 0. -1.
        2   -1    0    0  501    0  0.00000000000E+00  0.00000000000E+00 -0.11927810252E+04  0.11927810252E+04  0.25500000920E-02 0.  1.
    10030    2    1    2    0    0  0.00000000000E+00  0.00000000000E+00 -0.11377126811E+03  0.22717907822E+04  0.22689401615E+04 0.  0.
        5    1    3    3  502    0 -0.95998953793E+03 -0.54283989987E+02  0.54592858385E+03  0.11057064589E+04  0.46999998093E+01 0. -1.
       -5    1    3    3    0  502  0.95998953793E+03  0.54283989987E+02 -0.65969985196E+03  0.11660843234E+04  0.46999998093E+01 0.  1.
</event>
<event>
 5   0  0.9750757E-05  0.2479044E+04  0.7818609E-02  0.8410489E-01
       -2   -1    0    0    0  501  0.00000000000E+00  0.00000000000E+00  0.16342076476E+04  0.16342076476E+04  0.25500000920E-02 0. -1.
        2   -1    0    0  501    0  0.00000000000E+00  0.00000000000E+00 -0.94015912028E+03  0.94015912028E+03  0.25500000920E-02 0.  1.
    10030    2    1    2    0    0  0.00000000000E+00  0.00000000000E+00  0.69404852735E+03  0.25743667679E+04  0.24790443516E+04 0.  0.
        2    1    3    3  502    0  0.29196609942E+03 -0.50327395365E+03  0.14835883575E+04  0.15936007311E+04  0.25500000920E-02 0. -1.
       -2    1    3    3    0  502 -0.29196609942E+03  0.50327395365E+03 -0.78953983013E+03  0.98076603683E+03  0.25500000920E-02 0.  1.
</event>
<event>
 5   0  0.4260395E-05  0.2172706E+04  0.7818609E-02  0.8529875E-01
       -1   -1    0    0    0  501  0.00000000000E+00  0.00000000000E+00  0.11189846548E+04  0.11189846548E+04  0.50400001928E-02 0.  1.
        1   -1    0    0  501    0  0.00000000000E+00  0.00000000000E+00 -0.10546727138E+04  0.10546727138E+04  0.50400001928E-02 0. -1.
    10030    2    1    2    0    0  0.00000000000E+00  0.00000000000E+00  0.64311940990E+02  0.21736573686E+04  0.21727057624E+04 0.  0.
        4    1    3    3  502    0  0.92867503246E+02  0.76772556004E+03 -0.73115530358E+03  0.10642446145E+04  0.12699999809E+01 0. -1.
       -4    1    3    3    0  502 -0.92867503246E+02 -0.76772556004E+03  0.79546724457E+03  0.11094127540E+04  0.12699999809E+01 0.  1.
</event>
<event>
 5   0  0.9144244E-05  0.2122214E+04  0.7818609E-02  0.8551521E-01
       -2   -1    0    0    0  501  0.00000000000E+00  0.00000000000E+00  0.88449192458E+03  0.88449192458E+03  0.25500000920E-02 0.  1.
        2   -1    0    0  501    0  0.00000000000E+00  0.00000000000E+00 -0.12729884102E+04  0.12729884102E+04  0.25500000920E-02 0. -1.
    10030    2    1    2    0    0  0.00000000000E+00  0.00000000000E+00 -0.38849648564E+03  0.21574803348E+04  0.21222139090E+04 0.  0.
        1    1    3    3  502    0 -0.10138741940E+04  0.79931193620E+02 -0.50196299024E+03  0.11341502196E+04  0.50400001928E-02 0. -1.
       -1    1    3    3    0  502  0.10138741940E+04 -0.79931193620E+02  0.11346650460E+03  0.10233301152E+04  0.50400001928E-02 0.  1.
</event>
<event>
 5   0  0.9491680E-05  0.2374749E+04  0.7818609E-02  0.8449018E-01
        2   -1    0    0  501    0  0.00000000000E+00  0.00000000000E+00  0.14624402311E+04  0.14624402311E+04  0.25500000920E-02 0.  1.
       -2   -1    0    0    0  501  0.00000000000E+00  0.00000000000E+00 -0.96404530716E+03  0.96404530717E+03  0.25500000920E-02 0. -1.
    10030    2    1    2    0    0  0.00000000000E+00  0.00000000000E+00  0.49839492398E+03  0.24264855383E+04  0.23747493694E+04 0.  0.
        5    1    3    3  502    0  0.78191873268E+03  0.72705819245E+03  0.77996194029E+03  0.13222606543E+04  0.46999998093E+01 0.  1.
       -5    1    3    3    0  502 -0.78191873268E+03 -0.72705819245E+03 -0.28156701631E+03  0.11042248840E+04  0.46999998093E+01 0. -1.
</event>
<event>
 5   0  0.9519092E-05  0.2369330E+04  0.7818609E-02  0.8451076E-01
        2   -1    0    0  501    0  0.00000000000E+00  0.00000000000E+00  0.22621501989E+04  0.22621501989E+04  0.25500000920E-02 0.  1.
       -2   -1    0    0    0  501  0.00000000000E+00  0.00000000000E+00 -0.62039700259E+03  0.62039700259E+03  0.25500000920E-02 0. -1.
    10030    2    1    2    0    0  0.00000000000E+00  0.00000000000E+00  0.16417531964E+04  0.28825472015E+04  0.23693300343E+04 0.  0.
        4    1    3    3  502    0  0.61537654095E+03  0.94690463612E+03  0.12563356482E+04  0.16892890667E+04  0.12699999809E+01 0.  1.
       -4    1    3    3    0  502 -0.61537654095E+03 -0.94690463612E+03  0.38541754820E+03  0.11932581349E+04  0.12699999809E+01 0. -1.
</event>
<event>
 5   0  0.9182865E-05  0.1999685E+04  0.7818609E-02  0.8606768E-01
        2   -1    0    0  501    0  0.00000000000E+00  0.00000000000E+00  0.13246017714E+04  0.13246017714E+04  0.25500000920E-02 0.  1.
       -2   -1    0    0    0  501  0.00000000000E+00  0.00000000000E+00 -0.75470572193E+03  0.75470572193E+03  0.25500000920E-02 0. -1.
    10030    2    1    2    0    0  0.00000000000E+00  0.00000000000E+00  0.56989604949E+03  0.20793074934E+04  0.19996845113E+04 0.  0.
        3    1    3    3  502    0 -0.44322083779E+03 -0.62438078958E+03  0.95350188719E+03  0.12228908130E+04  0.10100000352E+00 0.  1.
       -3    1    3    3    0  502  0.44322083779E+03  0.62438078958E+03 -0.38360583770E+03  0.85641668035E+03  0.10100000352E+00 0. -1.
</event>
<event>
 5   0  0.9491680E-05  0.1502090E+04  0.7818609E-02  0.8883064E-01
        2   -1    0    0  501    0  0.00000000000E+00  0.00000000000E+00  0.13362638931E+04  0.13362638931E+04  0.25500000920E-02 0.  1.
       -2   -1    0    0    0  501  0.00000000000E+00  0.00000000000E+00 -0.42212386942E+03  0.42212386942E+03  0.25500000920E-02 0. -1.
    10030    2    1    2    0    0  0.00000000000E+00  0.00000000000E+00  0.91414002371E+03  0.17583877626E+04  0.15020903903E+04 0.  0.
        5    1    3    3  502    0  0.31549690395E+03 -0.16197784771E+03 -0.31790961745E+03  0.47630214614E+03  0.46999998093E+01 0. -1.
       -5    1    3    3    0  502 -0.31549690395E+03  0.16197784771E+03  0.12320496412E+04  0.12820856164E+04  0.46999998093E+01 0.  1.
</event>
<event>
 5   0  0.4260395E-05  0.1827964E+04  0.7818609E-02  0.8691568E-01
       -1   -1    0    0    0  501  0.00000000000E+00  0.00000000000E+00  0.60512240400E+03  0.60512240402E+03  0.50400001928E-02 0.  1.
        1   -1    0    0  501    0  0.00000000000E+00  0.00000000000E+00 -0.13804862884E+04  0.13804862884E+04  0.50400001928E-02 0. -1.
    10030    2    1    2    0    0  0.00000000000E+00  0.00000000000E+00 -0.77536388436E+03  0.19856086924E+04  0.18279640932E+04 0.  0.
        4    1    3    3  502    0 -0.26572454544E+03 -0.27395277338E+03 -0.12897861735E+04  0.13450686385E+04  0.12699999809E+01 0. -1.
       -4    1    3    3    0  502  0.26572454544E+03  0.27395277338E+03  0.51442228916E+03  0.64054005385E+03  0.12699999809E+01 0.  1.
</event>
<event>
 5   0  0.4061631E-05  0.2367397E+04  0.7818609E-02  0.8451812E-01
       -1   -1    0    0    0  501  0.00000000000E+00  0.00000000000E+00  0.13982698485E+04  0.13982698485E+04  0.50400001928E-02 0.  1.
        1   -1    0    0  501    0  0.00000000000E+00  0.00000000000E+00 -0.10020538466E+04  0.10020538466E+04  0.50400001928E-02 0. -1.
    10030    2    1    2    0    0  0.00000000000E+00  0.00000000000E+00  0.39621600186E+03  0.24003236951E+04  0.23673966126E+04 0.  0.
        3    1    3    3  502    0  0.54203439009E+03  0.10298840294E+04 -0.20950870552E+02  0.11640022952E+04  0.10100000352E+00 0.  1.
       -3    1    3    3    0  502 -0.54203439009E+03 -0.10298840294E+04  0.41716687241E+03  0.12363213999E+04  0.10100000352E+00 0. -1.
</event>
<event>
 5   0  0.4018942E-05  0.2565329E+04  0.7818609E-02  0.8380074E-01
        1   -1    0    0  501    0  0.00000000000E+00  0.00000000000E+00  0.15826803492E+04  0.15826803492E+04  0.50400001928E-02 0. -1.
       -1   -1    0    0    0  501  0.00000000000E+00  0.00000000000E+00 -0.10395203851E+04  0.10395203851E+04  0.50400001928E-02 0.  1.
    10030    2    1    2    0    0  0.00000000000E+00  0.00000000000E+00  0.54315996413E+03  0.26222007344E+04  0.25653292079E+04 0.  0.
        5    1    3    3  502    0  0.87658428432E+03 -0.81124945324E+03  0.74958017255E+03  0.14101128352E+04  0.46999998093E+01 0. -1.
       -5    1    3    3    0  502 -0.87658428432E+03  0.81124945324E+03 -0.20642020842E+03  0.12120878992E+04  0.46999998093E+01 0.  1.
</event>
<event>
 5   0  0.9144244E-05  0.2478982E+04  0.7818609E-02  0.8410512E-01
       -2   -1    0    0    0  501  0.00000000000E+00  0.00000000000E+00  0.10718557818E+04  0.10718557818E+04  0.25500000920E-02 0.  1.
        2   -1    0    0  501    0  0.00000000000E+00  0.00000000000E+00 -0.14333434599E+04  0.14333434599E+04  0.25500000920E-02 0. -1.
    10030    2    1    2    0    0  0.00000000000E+00  0.00000000000E+00 -0.36148767817E+03  0.25051992417E+04  0.24789816254E+04 0.  0.
        1    1    3    3  502    0 -0.11868304782E+04  0.74817156182E+02 -0.53397343756E+03  0.13035688792E+04  0.50400001928E-02 0. -1.
       -1    1    3    3    0  502  0.11868304782E+04 -0.74817156182E+02  0.17248575939E+03  0.12016303625E+04  0.50400001928E-02 0.  1.
</event>
<event>
 5   0  0.9491680E-05  0.2461852E+04  0.7818609E-02  0.8416703E-01
       -2   -1    0    0    0  501  0.00000000000E+00  0.00000000000E+00  0.12845251972E+04  0.12845251972E+04  0.25500000920E-02 0.  1.
        2   -1    0    0  501    0  0.00000000000E+00  0.00000000000E+00 -0.11795631422E+04  0.11795631422E+04  0.25500000920E-02 0. -1.
    10030    2    1    2    0    0  0.00000000000E+00  0.00000000000E+00  0.10496205498E+03  0.24640883393E+04  0.24618518053E+04 0.  0.
        5    1    3    3  502    0 -0.37091834938E+03  0.34524263326E+03 -0.10703150591E+04  0.11842167510E+04  0.46999998093E+01 0. -1.
       -5    1    3    3    0  502  0.37091834938E+03 -0.34524263326E+03  0.11752771141E+04  0.12798715883E+04  0.46999998093E+01 0.  1.
</event>
<event>
 5   0  0.4018942E-05  0.2365089E+04  0.7818609E-02  0.8452691E-01
       -1   -1    0    0    0  501  0.00000000000E+00  0.00000000000E+00  0.62780890764E+03  0.62780890766E+03  0.50400001928E-02 0. -1.
        1   -1    0    0  501    0  0.00000000000E+00  0.00000000000E+00 -0.22274469479E+04  0.22274469479E+04  0.50400001928E-02 0.  1.
    10030    2    1    2    0    0  0.00000000000E+00  0.00000000000E+00 -0.15996380402E+04  0.28552558555E+04  0.23650886116E+04 0.  0.
        5    1    3    3  502    0 -0.57611586885E+03 -0.60160001941E+03  0.21352203948E+03  0.85991036105E+03  0.46999998093E+01 0. -1.
       -5    1    3    3    0  502  0.57611586885E+03  0.60160001941E+03 -0.18131600797E+04  0.19953454945E+04  0.46999998093E+01 0.  1.
</event>
<event>
 5   0  0.4208577E-05  0.2317020E+04  0.7818609E-02  0.8471240E-01
       -1   -1    0    0    0  501  0.00000000000E+00  0.00000000000E+00  0.63782932682E+03  0.63782932684E+03  0.50400001928E-02 0. -1.
        1   -1    0    0  501    0  0.00000000000E+00  0.00000000000E+00 -0.21042394885E+04  0.21042394885E+04  0.50400001928E-02 0.  1.
    10030    2    1    2    0    0  0.00000000000E+00  0.00000000000E+00 -0.14664101617E+04  0.27420688154E+04  0.23170202040E+04 0.  0.
        1    1    3    3  502    0 -0.25005638065E+03 -0.35324362131E+03  0.53856546447E+03  0.69091389409E+03  0.50400001928E-02 0. -1.
       -1    1    3    3    0  502  0.25005638065E+03  0.35324362131E+03 -0.20049756262E+04  0.20511549213E+04  0.50400001928E-02 0.  1.
</event>
<event>
 5   0  0.9519092E-05  0.2416168E+04  0.7818609E-02  0.8433475E-01
        2   -1    0    0  501    0  0.00000000000E+00  0.00000000000E+00  0.11367565191E+04  0.11367565191E+04  0.25500000920E-02 0. -1.
       -2   -1    0    0    0  501  0.00000000000E+00  0.00000000000E+00 -0.12838867558E+04  0.12838867558E+04  0.25500000920E-02 0.  1.
    10030    2    1    2    0    0  0.00000000000E+00  0.00000000000E+00 -0.14713023671E+03  0.24206432750E+04  0.24161677421E+04 0.  0.
        4    1    3    3  502    0  0.17741892692E+03  0.87159802522E+02  0.11204439476E+04  0.11377480211E+04  0.12699999809E+01 0. -1.
       -4    1    3    3    0  502 -0.17741892692E+03 -0.87159802522E+02 -0.12675741843E+04  0.12828952539E+04  0.12699999809E+01 0.  1.
</event>
<event>
 5   0  0.4208577E-05  0.2257530E+04  0.7818609E-02  0.8494857E-01
       -1   -1    0    0    0  501  0.00000000000E+00  0.00000000000E+00  0.56429420201E+03  0.56429420203E+03  0.50400001928E-02 0.  1.
        1   -1    0    0  501    0  0.00000000000E+00  0.00000000000E+00 -0.22578824318E+04  0.22578824318E+04  0.50400001928E-02 0. -1.
    10030    2    1    2    0    0  0.00000000000E+00  0.00000000000E+00 -0.16935882298E+04  0.28221766338E+04  0.22575295924E+04 0.  0.
        1    1    3    3  502    0 -0.57927811567E+03  0.51766253545E+02  0.36257208481E+03  0.68534764683E+03  0.50400001928E-02 0.  1.
       -1    1    3    3    0  502  0.57927811567E+03 -0.51766253545E+02 -0.20561603146E+04  0.21368289870E+04  0.50400001928E-02 0. -1.
</event>
<event>
 5   0  0.9519092E-05  0.2432501E+04  0.7818609E-02  0.8427435E-01
        2   -1    0    0  501    0  0.00000000000E+00  0.00000000000E+00  0.10758045616E+04  0.10758045616E+04  0.25500000920E-02 0. -1.
       -2   -1    0    0    0  501  0.00000000000E+00  0.00000000000E+00 -0.13750315615E+04  0.13750315615E+04  0.25500000920E-02 0.  1.
    10030    2    1    2    0    0  0.00000000000E+00  0.00000000000E+00 -0.29922699988E+03  0.24508361231E+04  0.24325009568E+04 0.  0.
        4    1    3    3  502    0 -0.22732500220E+03 -0.54979979211E+03 -0.12184143518E+04  0.13559098841E+04  0.12699999809E+01 0.  1.
       -4    1    3    3    0  502  0.22732500220E+03  0.54979979211E+03  0.91918735196E+03  0.10949262390E+04  0.12699999809E+01 0. -1.
</event>
<event>
 5   0  0.9144244E-05  0.2337138E+04  0.7818609E-02  0.8463420E-01
        2   -1    0    0  501    0  0.00000000000E+00  0.00000000000E+00  0.11323673779E+04  0.11323673779E+04  0.25500000920E-02 0.  1.
       -2   -1    0    0    0  501  0.00000000000E+00  0.00000000000E+00 -0.12059279265E+04  0.12059279265E+04  0.25500000920E-02 0. -1.
    10030    2    1    2    0    0  0.00000000000E+00  0.00000000000E+00 -0.73560548571E+02  0.23382953044E+04  0.23371379455E+04 0.  0.
        1    1    3    3  502    0  0.11006888818E+03 -0.20181139111E+03  0.11095228645E+04  0.11330860446E+04  0.50400001928E-02 0.  1.
       -1    1    3    3    0  502 -0.11006888818E+03  0.20181139111E+03 -0.11830834130E+04  0.12052092598E+04  0.50400001928E-02 0. -1.
</event>
<event>
 5   0  0.3934906E-05  0.2426993E+04  0.7818609E-02  0.8429466E-01
       -1   -1    0    0    0  501  0.00000000000E+00  0.00000000000E+00  0.16109397545E+04  0.16109397545E+04  0.50400001928E-02 0.  1.
        1   -1    0    0  501    0  0.00000000000E+00  0.00000000000E+00 -0.91410835390E+03  0.91410835391E+03  0.50400001928E-02 0. -1.
    10030    2    1    2    0    0  0.00000000000E+00  0.00000000000E+00  0.69683140056E+03  0.25250481084E+04  0.24269927789E+04 0.  0.
        2    1    3    3  502    0 -0.43135991595E+03 -0.15531882450E+03  0.15173656352E+04  0.15851163318E+04  0.25500000920E-02 0.  1.
       -2    1    3    3    0  502  0.43135991595E+03  0.15531882450E+03 -0.82053423468E+03  0.93993177658E+03  0.25500000920E-02 0. -1.
</event>
<event>
 5   0  0.4208577E-05  0.2379320E+04  0.7818609E-02  0.8447287E-01
       -1   -1    0    0    0  501  0.00000000000E+00  0.00000000000E+00  0.97709392164E+03  0.97709392166E+03  0.50400001928E-02 0.  1.
        1   -1    0    0  501    0  0.00000000000E+00  0.00000000000E+00 -0.14484691119E+04  0.14484691119E+04  0.50400001928E-02 0. -1.
    10030    2    1    2    0    0  0.00000000000E+00  0.00000000000E+00 -0.47137519021E+03  0.24255630335E+04  0.23793195371E+04 0.  0.
        1    1    3    3  502    0  0.53965313751E+01 -0.10315633645E+04 -0.83977374060E+03  0.13301774441E+04  0.50400001928E-02 0. -1.
       -1    1    3    3    0  502 -0.53965313751E+01  0.10315633645E+04  0.36839855039E+03  0.10953855894E+04  0.50400001928E-02 0.  1.
</event>
<event>
 5   0  0.3234750E-05  0.2437390E+04  0.7818609E-02  0.8425637E-01
        3   -1    0    0  501    0  0.00000000000E+00  0.00000000000E+00  0.68851559725E+03  0.68851560466E+03  0.10100000352E+00 0.  1.
       -3   -1    0    0    0  501  0.00000000000E+00  0.00000000000E+00 -0.21571292958E+04  0.21571292982E+04  0.10100000352E+00 0. -1.
    10030    2    1    2    0    0  0.00000000000E+00  0.00000000000E+00 -0.14686136986E+04  0.28456449029E+04  0.24373897344E+04 0.  0.
        3    1    3    3  502    0  0.98672283893E+03 -0.31362575618E+03  0.16198513941E+02  0.10354928671E+04  0.10100000352E+00 0.  1.
       -3    1    3    3    0  502 -0.98672283893E+03  0.31362575618E+03 -0.14848122125E+04  0.18101520357E+04  0.10100000352E+00 0. -1.
</event>
<event>
 5   0  0.9519092E-05  0.2403504E+04  0.7818609E-02  0.8438193E-01
        2   -1    0    0  501    0  0.00000000000E+00  0.00000000000E+00  0.21792859782E+04  0.21792859782E+04  0.25500000920E-02 0. -1.
       -2   -1    0    0    0  501  0.00000000000E+00  0.00000000000E+00 -0.66269783545E+03  0.66269783545E+03  0.25500000920E-02 0.  1.
    10030    2    1    2    0    0  0.00000000000E+00  0.00000000000E+00  0.15165881427E+04  0.28419838136E+04  0.24035041923E+04 0.  0.
        4    1    3    3  502    0  0.32361230341E+03  0.11379087906E+04  0.10081351549E+04  0.15543163906E+04  0.12699999809E+01 0. -1.
       -4    1    3    3    0  502 -0.32361230341E+03 -0.11379087906E+04  0.50845298782E+03  0.12876674230E+04  0.12699999809E+01 0.  1.
</event>
<event>
 5   0  0.4260395E-05  0.2386953E+04  0.7818609E-02  0.8444404E-01
       -1   -1    0    0    0  501  0.00000000000E+00  0.00000000000E+00  0.12121042296E+04  0.12121042296E+04  0.50400001928E-02 0. -1.
        1   -1    0    0  501    0  0.00000000000E+00  0.00000000000E+00 -0.11751348642E+04  0.11751348642E+04  0.50400001928E-02 0.  1.
    10030    2    1    2    0    0  0.00000000000E+00  0.00000000000E+00  0.36969365400E+02  0.23872390938E+04  0.23869528183E+04 0.  0.
        4    1    3    3  502    0 -0.93066945681E+03 -0.74096596807E+03  0.11445515470E+03  0.11951057690E+04  0.12699999809E+01 0. -1.
       -4    1    3    3    0  502  0.93066945681E+03  0.74096596807E+03 -0.77485789296E+02  0.11921333248E+04  0.12699999809E+01 0.  1.
</event>
<event>
 5   0  0.9519092E-05  0.2368629E+04  0.7818609E-02  0.8451343E-01
        2   -1    0    0  501    0  0.00000000000E+00  0.00000000000E+00  0.14578027678E+04  0.14578027678E+04  0.25500000920E-02 0. -1.
       -2   -1    0    0    0  501  0.00000000000E+00  0.00000000000E+00 -0.96213355880E+03  0.96213355880E+03  0.25500000920E-02 0.  1.
    10030    2    1    2    0    0  0.00000000000E+00  0.00000000000E+00  0.49566920898E+03  0.24199363266E+04  0.23686291098E+04 0.  0.
        4    1    3    3  502    0 -0.18267658932E+03 -0.87635515197E+03 -0.54435163288E+03  0.10477067346E+04  0.12699999809E+01 0.  1.
       -4    1    3    3    0  502  0.18267658932E+03  0.87635515197E+03  0.10400208419E+04  0.13722295920E+04  0.12699999809E+01 0. -1.
</event>
<event>
 5   0  0.3934906E-05  0.2365174E+04  0.7818609E-02  0.8452658E-01
       -1   -1    0    0    0  501  0.00000000000E+00  0.00000000000E+00  0.73701260370E+03  0.73701260372E+03  0.50400001928E-02 0.  1.
        1   -1    0    0  501    0  0.00000000000E+00  0.00000000000E+00 -0.18975407283E+04  0.18975407283E+04  0.50400001928E-02 0. -1.
    10030    2    1    2    0    0  0.00000000000E+00  0.00000000000E+00 -0.11605281246E+04  0.26345533320E+04  0.23651735098E+04 0.  0.
        2    1    3    3  502    0 -0.17442088381E+03  0.11657651950E+04 -0.47412040600E+03  0.12705200880E+04  0.25500000920E-02 0. -1.
       -2    1    3    3    0  502  0.17442088381E+03 -0.11657651950E+04 -0.68640771861E+03  0.13640332440E+04  0.25500000920E-02 0.  1.
</event>
<event>
 5   0  0.9144244E-05  0.1736058E+04  0.7818609E-02  0.8741062E-01
        2   -1    0    0  501    0  0.00000000000E+00  0.00000000000E+00  0.85248632227E+03  0.85248632228E+03  0.25500000920E-02 0.  1.
       -2   -1    0    0    0  501  0.00000000000E+00  0.00000000000E+00 -0.88385485756E+03  0.88385485757E+03  0.25500000920E-02 0. -1.
    10030    2    1    2    0    0  0.00000000000E+00  0.00000000000E+00 -0.31368535291E+02  0.17363411798E+04  0.17360578066E+04 0.  0.
        1    1    3    3  502    0  0.56091150630E+03  0.56003129262E+03  0.33823421396E+03  0.86177674031E+03  0.50400001928E-02 0.  1.
       -1    1    3    3    0  502 -0.56091150630E+03 -0.56003129262E+03 -0.36960274925E+03  0.87456443953E+03  0.50400001928E-02 0. -1.
</event>
<event>
 5   0  0.4061631E-05  0.1212251E+04  0.7818609E-02  0.9102200E-01
       -1   -1    0    0    0  501  0.00000000000E+00  0.00000000000E+00  0.26449261413E+03  0.26449261418E+03  0.50400001928E-02 0. -1.
        1   -1    0    0  501    0  0.00000000000E+00  0.00000000000E+00 -0.13890297396E+04  0.13890297396E+04  0.50400001928E-02 0.  1.
    10030    2    1    2    0    0  0.00000000000E+00  0.00000000000E+00 -0.11245371255E+04  0.16535223538E+04  0.12122509756E+04 0.  0.
        3    1    3    3  502    0  0.56126860026E+03 -0.71811042183E+02 -0.26590204053E+03  0.62520650410E+03  0.10100000352E+00 0. -1.
       -3    1    3    3    0  502 -0.56126860026E+03  0.71811042183E+02 -0.85863508495E+03  0.10283158497E+04  0.10100000352E+00 0.  1.
</event>
<event>
 5   0  0.4208577E-05  0.2440187E+04  0.7818609E-02  0.8424610E-01
       -1   -1    0    0    0  501  0.00000000000E+00  0.00000000000E+00  0.79695159114E+03  0.79695159115E+03  0.50400001928E-02 0. -1.
        1   -1    0    0  501    0  0.00000000000E+00  0.00000000000E+00 -0.18679023141E+04  0.18679023141E+04  0.50400001928E-02 0.  1.
    10030    2    1    2    0    0  0.00000000000E+00  0.00000000000E+00 -0.10709507229E+04  0.26648539052E+04  0.24401866497E+04 0.  0.
        1    1    3    3  502    0  0.73991187239E+03 -0.66829238265E+03  0.23250935616E+03  0.10237894746E+04  0.50400001928E-02 0. -1.
       -1    1    3    3    0  502 -0.73991187239E+03  0.66829238265E+03 -0.13034600791E+04  0.16410644306E+04  0.50400001928E-02 0.  1.
</event>
<event>
 5   0  0.4061631E-05  0.2356899E+04  0.7818609E-02  0.8455818E-01
       -1   -1    0    0    0  501  0.00000000000E+00  0.00000000000E+00  0.93515535524E+03  0.93515535526E+03  0.50400001928E-02 0.  1.
        1   -1    0    0  501    0  0.00000000000E+00  0.00000000000E+00 -0.14850402466E+04  0.14850402466E+04  0.50400001928E-02 0. -1.
    10030    2    1    2    0    0  0.00000000000E+00  0.00000000000E+00 -0.54988489132E+03  0.24201956018E+04  0.23568990978E+04 0.  0.
        3    1    3    3  502    0  0.41254282689E+03  0.32562848094E+03 -0.13580285118E+04  0.14561823171E+04  0.10100000352E+00 0. -1.
       -3    1    3    3    0  502 -0.41254282689E+03 -0.32562848094E+03  0.80814362047E+03  0.96401328472E+03  0.10100000352E+00 0.  1.
</event>
<event>
 5   0  0.9182865E-05  0.2364042E+04  0.7818609E-02  0.8453090E-01
        2   -1    0    0  501    0  0.00000000000E+00  0.00000000000E+00  0.86142462990E+03  0.86142462990E+03  0.25500000920E-02 0.  1.
       -2   -1    0    0    0  501  0.00000000000E+00  0.00000000000E+00 -0.16219340420E+04  0.16219340420E+04  0.25500000920E-02 0. -1.
    10030    2    1    2    0    0  0.00000000000E+00  0.00000000000E+00 -0.76050941206E+03  0.24833586719E+04  0.23640422431E+04 0.  0.
        3    1    3    3  502    0  0.37097909234E+03 -0.31569516696E+03 -0.15115909014E+04  0.15881423074E+04  0.10100000352E+00 0. -1.
       -3    1    3    3    0  502 -0.37097909234E+03  0.31569516696E+03  0.75108148929E+03  0.89521636443E+03  0.10100000352E+00 0.  1.
</event>
<event>
 5   0  0.9750757E-05  0.2372961E+04  0.7818609E-02  0.8449696E-01
       -2   -1    0    0    0  501  0.00000000000E+00  0.00000000000E+00  0.59048296741E+03  0.59048296742E+03  0.25500000920E-02 0.  1.
        2   -1    0    0  501    0  0.00000000000E+00  0.00000000000E+00 -0.23840424361E+04  0.23840424361E+04  0.25500000920E-02 0. -1.
    10030    2    1    2    0    0  0.00000000000E+00  0.00000000000E+00 -0.17935594686E+04  0.29745254035E+04  0.23729614005E+04 0.  0.
        2    1    3    3  502    0 -0.12147988861E+02 -0.60446233293E+03 -0.21764718508E+04  0.22588829104E+04  0.25500000920E-02 0. -1.
       -2    1    3    3    0  502  0.12147988861E+02  0.60446233293E+03  0.38291238212E+03  0.71564249312E+03  0.25500000920E-02 0.  1.
</event>
<event>
 5   0  0.4260395E-05  0.2272042E+04  0.7818609E-02  0.8489027E-01
        1   -1    0    0  501    0  0.00000000000E+00  0.00000000000E+00  0.11432000926E+04  0.11432000926E+04  0.50400001928E-02 0. -1.
       -1   -1    0    0    0  501  0.00000000000E+00  0.00000000000E+00 -0.11288866172E+04  0.11288866172E+04  0.50400001928E-02 0.  1.
    10030    2    1    2    0    0  0.00000000000E+00  0.00000000000E+00  0.14313475402E+02  0.22720867098E+04  0.22720416240E+04 0.  0.
        4    1    3    3  502    0  0.26163055436E+03  0.98336134393E+03 -0.49791921374E+03  0.11328615255E+04  0.12699999809E+01 0.  1.
       -4    1    3    3    0  502 -0.26163055436E+03 -0.98336134393E+03  0.51223268915E+03  0.11392251843E+04  0.12699999809E+01 0. -1.
</event>
<event>
 5   0  0.9144244E-05  0.2097182E+04  0.7818609E-02  0.8562486E-01
        2   -1    0    0  501    0  0.00000000000E+00  0.00000000000E+00  0.80079560479E+03  0.80079560479E+03  0.25500000920E-02 0. -1.
       -2   -1    0    0    0  501  0.00000000000E+00  0.00000000000E+00 -0.13730638798E+04  0.13730638798E+04  0.25500000920E-02 0.  1.
    10030    2    1    2    0    0  0.00000000000E+00  0.00000000000E+00 -0.57226827497E+03  0.21738594846E+04  0.20971824146E+04 0.  0.
        1    1    3    3  502    0 -0.27228204028E+03 -0.10079079066E+04 -0.18495558986E+03  0.10602945005E+04  0.50400001928E-02 0. -1.
       -1    1    3    3    0  502  0.27228204028E+03  0.10079079066E+04 -0.38731268511E+03  0.11135649840E+04  0.50400001928E-02 0.  1.
</event>
<event>
 5   0  0.9491680E-05  0.2648290E+04  0.7818609E-02  0.8351981E-01
       -2   -1    0    0    0  501  0.00000000000E+00  0.00000000000E+00  0.15848282412E+04  0.15848282412E+04  0.25500000920E-02 0. -1.
        2   -1    0    0  501    0  0.00000000000E+00  0.00000000000E+00 -0.11063405960E+04  0.11063405961E+04  0.25500000920E-02 0.  1.
    10030    2    1    2    0    0  0.00000000000E+00  0.00000000000E+00  0.47848764510E+03  0.26911688372E+04  0.26482898791E+04 0.  0.
        5    1    3    3  502    0  0.66927387487E+03  0.19106656186E+02  0.14001261301E+04  0.15519883550E+04  0.46999998093E+01 0. -1.
       -5    1    3    3    0  502 -0.66927387487E+03 -0.19106656186E+02 -0.92163848502E+03  0.11391804822E+04  0.46999998093E+01 0.  1.
</event>
<event>
 5   0  0.4260395E-05  0.2419078E+04  0.7818609E-02  0.8432396E-01
       -1   -1    0    0    0  501  0.00000000000E+00  0.00000000000E+00  0.44667357197E+03  0.44667357200E+03  0.50400001928E-02 0. -1.
        1   -1    0    0  501    0  0.00000000000E+00  0.00000000000E+00 -0.32752868451E+04  0.32752868451E+04  0.50400001928E-02 0.  1.
    10030    2    1    2    0    0  0.00000000000E+00  0.00000000000E+00 -0.28286132731E+04  0.37219604171E+04  0.24190775716E+04 0.  0.
        4    1    3    3  502    0 -0.52775736576E+03  0.58079469463E+03  0.18051467795E+01  0.78476441426E+03  0.12699999809E+01 0. -1.
       -4    1    3    3    0  502  0.52775736576E+03 -0.58079469463E+03 -0.28304184199E+04  0.29371960028E+04  0.12699999809E+01 0.  1.
</event>
<event>
 5   0  0.9144244E-05  0.2489613E+04  0.7818609E-02  0.8406695E-01
       -2   -1    0    0    0  501  0.00000000000E+00  0.00000000000E+00  0.11815599063E+04  0.11815599063E+04  0.25500000920E-02 0.  1.
        2   -1    0    0  501    0  0.00000000000E+00  0.00000000000E+00 -0.13114380708E+04  0.13114380708E+04  0.25500000920E-02 0. -1.
    10030    2    1    2    0    0  0.00000000000E+00  0.00000000000E+00 -0.12987816456E+03  0.24929979771E+04  0.24896125353E+04 0.  0.
        1    1    3    3  502    0  0.34432101108E+03  0.46649655928E+03 -0.11679662016E+04  0.13039635910E+04  0.50400001928E-02 0. -1.
       -1    1    3    3    0  502 -0.34432101108E+03 -0.46649655928E+03  0.10380880371E+04  0.11890343861E+04  0.50400001928E-02 0.  1.
</event>
<event>
 5   0  0.4208577E-05  0.2303670E+04  0.7818609E-02  0.8476476E-01
        1   -1    0    0  501    0  0.00000000000E+00  0.00000000000E+00  0.13178717905E+04  0.13178717906E+04  0.50400001928E-02 0.  1.
       -1   -1    0    0    0  501  0.00000000000E+00  0.00000000000E+00 -0.10067168506E+04  0.10067168506E+04  0.50400001928E-02 0. -1.
    10030    2    1    2    0    0  0.00000000000E+00  0.00000000000E+00  0.31115493996E+03  0.23245886411E+04  0.23036698882E+04 0.  0.
        1    1    3    3  502    0 -0.72126117941E+03 -0.31468535024E+03 -0.69317821772E+03  0.10486851768E+04  0.50400001928E-02 0. -1.
       -1    1    3    3    0  502  0.72126117941E+03  0.31468535024E+03  0.10043331577E+04  0.12759034643E+04  0.50400001928E-02 0.  1.
</event>
<event>
 5   0  0.9144244E-05  0.2357192E+04  0.7818609E-02  0.8455706E-01
       -2   -1    0    0    0  501  0.00000000000E+00  0.00000000000E+00  0.92794806654E+03  0.92794806655E+03  0.25500000920E-02 0. -1.
        2   -1    0    0  501    0  0.00000000000E+00  0.00000000000E+00 -0.14969467364E+04  0.14969467364E+04  0.25500000920E-02 0.  1.
    10030    2    1    2    0    0  0.00000000000E+00  0.00000000000E+00 -0.56899866983E+03  0.24248948029E+04  0.23571922533E+04 0.  0.
        1    1    3    3  502    0  0.51015960678E+03 -0.63873820045E+03  0.58890871622E+03  0.10075032452E+04  0.50400001928E-02 0. -1.
       -1    1    3    3    0  502 -0.51015960678E+03  0.63873820045E+03 -0.11579073860E+04  0.14173915577E+04  0.50400001928E-02 0.  1.
</event>
<event>
 5   0  0.4260395E-05  0.2306881E+04  0.7818609E-02  0.8475213E-01
        1   -1    0    0  501    0  0.00000000000E+00  0.00000000000E+00  0.10276544180E+04  0.10276544180E+04  0.50400001928E-02 0.  1.
       -1   -1    0    0    0  501  0.00000000000E+00  0.00000000000E+00 -0.12946234324E+04  0.12946234324E+04  0.50400001928E-02 0. -1.
    10030    2    1    2    0    0  0.00000000000E+00  0.00000000000E+00 -0.26696901439E+03  0.23222778504E+04  0.23068814360E+04 0.  0.
        4    1    3    3  502    0 -0.51373453901E+02  0.95012248056E+03  0.52282681352E+03  0.10856893891E+04  0.12699999809E+01 0.  1.
       -4    1    3    3    0  502  0.51373453901E+02 -0.95012248056E+03 -0.78979582790E+03  0.12365884613E+04  0.12699999809E+01 0. -1.
</event>
<event>
 5   0  0.9750757E-05  0.2483368E+04  0.7818609E-02  0.8408935E-01
       -2   -1    0    0    0  501  0.00000000000E+00  0.00000000000E+00  0.78403862100E+03  0.78403862100E+03  0.25500000920E-02 0.  1.
        2   -1    0    0  501    0  0.00000000000E+00  0.00000000000E+00 -0.19664589421E+04  0.19664589421E+04  0.25500000920E-02 0. -1.
    10030    2    1    2    0    0  0.00000000000E+00  0.00000000000E+00 -0.11824203211E+04  0.27504975631E+04  0.24833684843E+04 0.  0.
        2    1    3    3  502    0 -0.12327989766E+04 -0.14046240160E+03 -0.53859483921E+03  0.13526298104E+04  0.25500000920E-02 0.  1.
       -2    1    3    3    0  502  0.12327989766E+04  0.14046240160E+03 -0.64382548191E+03  0.13978677528E+04  0.25500000920E-02 0. -1.
</event>
<event>
 5   0  0.9750757E-05  0.1507327E+04  0.7818609E-02  0.8879595E-01
        2   -1    0    0  501    0  0.00000000000E+00  0.00000000000E+00  0.62207179698E+03  0.62207179698E+03  0.25500000920E-02 0.  1.
       -2   -1    0    0    0  501  0.00000000000E+00  0.00000000000E+00 -0.91309222441E+03  0.91309222441E+03  0.25500000920E-02 0. -1.
    10030    2    1    2    0    0  0.00000000000E+00  0.00000000000E+00 -0.29102042743E+03  0.15351640214E+04  0.15073273312E+04 0.  0.
        2    1    3    3  502    0 -0.57311659218E+03 -0.47765623881E+03 -0.25420895526E+03  0.78818798751E+03  0.25500000920E-02 0. -1.
       -2    1    3    3    0  502  0.57311659218E+03  0.47765623881E+03 -0.36811472174E+02  0.74697603389E+03  0.25500000920E-02 0.  1.
</event>
<event>
 5   0  0.4260395E-05  0.2364728E+04  0.7818609E-02  0.8452828E-01
       -1   -1    0    0    0  501  0.00000000000E+00  0.00000000000E+00  0.87698086029E+03  0.87698086030E+03  0.50400001928E-02 0.  1.
        1   -1    0    0  501    0  0.00000000000E+00  0.00000000000E+00 -0.15940877360E+04  0.15940877360E+04  0.50400001928E-02 0. -1.
    10030    2    1    2    0    0  0.00000000000E+00  0.00000000000E+00 -0.71710687569E+03  0.24710685963E+04  0.23647278356E+04 0.  0.
        4    1    3    3  502    0 -0.87688171179E+03  0.76543322074E+03 -0.14142780041E+03  0.11725241949E+04  0.12699999809E+01 0.  1.
       -4    1    3    3    0  502  0.87688171179E+03 -0.76543322074E+03 -0.57567907528E+03  0.12985444014E+04  0.12699999809E+01 0. -1.
</event>
<event>
 5   0  0.4018942E-05  0.1753409E+04  0.7818609E-02  0.8731476E-01
        1   -1    0    0  501    0  0.00000000000E+00  0.00000000000E+00  0.16739691048E+04  0.16739691048E+04  0.50400001928E-02 0.  1.
       -1   -1    0    0    0  501  0.00000000000E+00  0.00000000000E+00 -0.45915471060E+03  0.45915471063E+03  0.50400001928E-02 0. -1.
    10030    2    1    2    0    0  0.00000000000E+00  0.00000000000E+00  0.12148143942E+04  0.21331238154E+04  0.17534090223E+04 0.  0.
        5    1    3    3  502    0  0.54264128010E+02 -0.51155958935E+03 -0.25622125263E+03  0.57472535122E+03  0.46999998093E+01 0. -1.
       -5    1    3    3    0  502 -0.54264128010E+02  0.51155958935E+03  0.14710356468E+04  0.15583984642E+04  0.46999998093E+01 0.  1.
</event>
<event>
 5   0  0.3934906E-05  0.1888890E+04  0.7818609E-02  0.8660406E-01
       -1   -1    0    0    0  501  0.00000000000E+00  0.00000000000E+00  0.76701110545E+03  0.76701110547E+03  0.50400001928E-02 0. -1.
        1   -1    0    0  501    0  0.00000000000E+00  0.00000000000E+00 -0.11629254478E+04  0.11629254478E+04  0.50400001928E-02 0.  1.
    10030    2    1    2    0    0  0.00000000000E+00  0.00000000000E+00 -0.39591434236E+03  0.19299365533E+04  0.18888903974E+04 0.  0.
        2    1    3    3  502    0  0.68096433027E+03  0.12973366446E+03  0.45741212824E+03  0.83052338790E+03  0.25500000920E-02 0. -1.
       -2    1    3    3    0  502 -0.68096433027E+03 -0.12973366446E+03 -0.85332647060E+03  0.10994131654E+04  0.25500000920E-02 0.  1.
</event>
<event>
 5   0  0.9182865E-05  0.2438662E+04  0.7818609E-02  0.8425169E-01
        2   -1    0    0  501    0  0.00000000000E+00  0.00000000000E+00  0.16853024889E+04  0.16853024889E+04  0.25500000920E-02 0. -1.
       -2   -1    0    0    0  501  0.00000000000E+00  0.00000000000E+00 -0.88219639299E+03  0.88219639299E+03  0.25500000920E-02 0.  1.
    10030    2    1    2    0    0  0.00000000000E+00  0.00000000000E+00  0.80310609591E+03  0.25674988819E+04  0.24386617451E+04 0.  0.
        3    1    3    3  502    0  0.45061412104E+03  0.32038736371E+03 -0.74263101630E+03  0.92585203217E+03  0.10100000352E+00 0.  1.
       -3    1    3    3    0  502 -0.45061412104E+03 -0.32038736371E+03  0.15457371122E+04  0.16416468497E+04  0.10100000352E+00 0. -1.
</event>
<event>
 5   0  0.3934906E-05  0.2168654E+04  0.7818609E-02  0.8531590E-01
        1   -1    0    0  501    0  0.00000000000E+00  0.00000000000E+00  0.13653905739E+04  0.13653905739E+04  0.50400001928E-02 0.  1.
       -1   -1    0    0    0  501  0.00000000000E+00  0.00000000000E+00 -0.86111960697E+03  0.86111960699E+03  0.50400001928E-02 0. -1.
    10030    2    1    2    0    0  0.00000000000E+00  0.00000000000E+00  0.50427096692E+03  0.22265101809E+04  0.21686535863E+04 0.  0.
        2    1    3    3  502    0 -0.99025141664E+03 -0.27229440613E+03  0.60929936113E+03  0.11941473206E+04  0.25500000920E-02 0.  1.
       -2    1    3    3    0  502  0.99025141664E+03  0.27229440613E+03 -0.10502839421E+03  0.10323628603E+04  0.25500000920E-02 0. -1.
</event>
<event>
 5   0  0.4208577E-05  0.2387950E+04  0.7818609E-02  0.8444029E-01
       -1   -1    0    0    0  501  0.00000000000E+00  0.00000000000E+00  0.16008575981E+04  0.16008575981E+04  0.50400001928E-02 0.  1.
        1   -1    0    0  501    0  0.00000000000E+00  0.00000000000E+00 -0.89050782252E+03  0.89050782253E+03  0.50400001928E-02 0. -1.
    10030    2    1    2    0    0  0.00000000000E+00  0.00000000000E+00  0.71034977560E+03  0.24913654207E+04  0.23879499274E+04 0.  0.
        1    1    3    3  502    0 -0.52336521300E+03  0.10724192046E+04  0.39667330786E+03  0.12575149342E+04  0.50400001928E-02 0.  1.
       -1    1    3    3    0  502  0.52336521300E+03 -0.10724192046E+04  0.31367646775E+03  0.12338504865E+04  0.50400001928E-02 0. -1.
</event>
<event>
 5   0  0.9144244E-05  0.2419606E+04  0.7818609E-02  0.8432200E-01
        2   -1    0    0  501    0  0.00000000000E+00  0.00000000000E+00  0.20559623334E+04  0.20559623334E+04  0.25500000920E-02 0.  1.
       -2   -1    0    0    0  501  0.00000000000E+00  0.00000000000E+00 -0.71189191781E+03  0.71189191782E+03  0.25500000920E-02 0. -1.
    10030    2    1    2    0    0  0.00000000000E+00  0.00000000000E+00  0.13440704156E+04  0.27678542512E+04  0.24196057270E+04 0.  0.
        1    1    3    3  502    0  0.52047554624E+03 -0.79235094375E+03  0.15318155994E+04  0.18014366053E+04  0.50400001928E-02 0.  1.
       -1    1    3    3    0  502 -0.52047554624E+03  0.79235094375E+03 -0.18774518381E+03  0.96641764593E+03  0.50400001928E-02 0. -1.
</event>
<event>
 5   0  0.3234750E-05  0.2418741E+04  0.7818609E-02  0.8432520E-01
        3   -1    0    0  501    0  0.00000000000E+00  0.00000000000E+00  0.16037026347E+04  0.16037026378E+04  0.10100000352E+00 0. -1.
       -3   -1    0    0    0  501  0.00000000000E+00  0.00000000000E+00 -0.91200000619E+03  0.91200001179E+03  0.10100000352E+00 0.  1.
    10030    2    1    2    0    0  0.00000000000E+00  0.00000000000E+00  0.69170262847E+03  0.25157026496E+04  0.24187408491E+04 0.  0.
        2    1    3    3  502    0  0.25400019448E+03  0.10855127565E+04 -0.14168560759E+03  0.11238010743E+04  0.25500000920E-02 0.  1.
       -2    1    3    3    0  502 -0.25400019448E+03 -0.10855127565E+04  0.83338823606E+03  0.13919015753E+04  0.25500000920E-02 0. -1.
</event>
<event>
 5   0  0.4018942E-05  0.1820301E+04  0.7818609E-02  0.8695577E-01
        1   -1    0    0  501    0  0.00000000000E+00  0.00000000000E+00  0.20020249198E+04  0.20020249198E+04  0.50400001928E-02 0. -1.
       -1   -1    0    0    0  501  0.00000000000E+00  0.00000000000E+00 -0.41376824636E+03  0.41376824639E+03  0.50400001928E-02 0.  1.
    10030    2    1    2    0    0  0.00000000000E+00  0.00000000000E+00  0.15882566735E+04  0.24157931662E+04  0.18203014479E+04 0.  0.
        5    1    3    3  502    0  0.55129745445E+03  0.65067422674E+03  0.12159966383E+04  0.14852527553E+04  0.46999998093E+01 0. -1.
       -5    1    3    3    0  502 -0.55129745445E+03 -0.65067422674E+03  0.37226003513E+03  0.93054041094E+03  0.46999998093E+01 0.  1.
</event>
<event>
 5   0  0.9750757E-05  0.2567714E+04  0.7818609E-02  0.8379251E-01
        2   -1    0    0  501    0  0.00000000000E+00  0.00000000000E+00  0.12583920751E+04  0.12583920751E+04  0.25500000920E-02 0. -1.
       -2   -1    0    0    0  501  0.00000000000E+00  0.00000000000E+00 -0.13098376757E+04  0.13098376757E+04  0.25500000920E-02 0.  1.
    10030    2    1    2    0    0  0.00000000000E+00  0.00000000000E+00 -0.51445600646E+02  0.25682297508E+04  0.25677144317E+04 0.  0.
        2    1    3    3  502    0  0.21619063717E+03 -0.95543070190E+03 -0.85577074761E+03  0.13007420152E+04  0.25500000920E-02 0.  1.
       -2    1    3    3    0  502 -0.21619063717E+03  0.95543070190E+03  0.80432514696E+03  0.12674877356E+04  0.25500000920E-02 0. -1.
</event>
<event>
 5   0  0.9750757E-05  0.2484761E+04  0.7818609E-02  0.8408435E-01
       -2   -1    0    0    0  501  0.00000000000E+00  0.00000000000E+00  0.90652696927E+03  0.90652696927E+03  0.25500000920E-02 0.  1.
        2   -1    0    0  501    0  0.00000000000E+00  0.00000000000E+00 -0.17026619643E+04  0.17026619643E+04  0.25500000920E-02 0. -1.
    10030    2    1    2    0    0  0.00000000000E+00  0.00000000000E+00 -0.79613499500E+03  0.26091889335E+04  0.24847607452E+04 0.  0.
        2    1    3    3  502    0 -0.77755937604E+03  0.76160631376E+03 -0.10271205100E+04  0.14965357672E+04  0.25500000920E-02 0. -1.
       -2    1    3    3    0  502  0.77755937604E+03 -0.76160631376E+03  0.23098551500E+03  0.11126531663E+04  0.25500000920E-02 0.  1.
</event>
<event>
 5   0  0.4061631E-05  0.2032649E+04  0.7818609E-02  0.8591506E-01
        1   -1    0    0  501    0  0.00000000000E+00  0.00000000000E+00  0.26974372302E+04  0.26974372302E+04  0.50400001928E-02 0.  1.
       -1   -1    0    0    0  501  0.00000000000E+00  0.00000000000E+00 -0.38292481855E+03  0.38292481859E+03  0.50400001928E-02 0. -1.
    10030    2    1    2    0    0  0.00000000000E+00  0.00000000000E+00  0.23145124117E+04  0.30803620488E+04  0.20326491699E+04 0.  0.
        3    1    3    3  502    0  0.86099012175E+03  0.33412265882E+03  0.51435554397E+03  0.10571204173E+04  0.10100000352E+00 0. -1.
       -3    1    3    3    0  502 -0.86099012175E+03 -0.33412265882E+03  0.18001568677E+04  0.20232416315E+04  0.10100000352E+00 0.  1.
</event>
<event>
 5   0  0.9491680E-05  0.2256193E+04  0.7818609E-02  0.8495397E-01
        2   -1    0    0  501    0  0.00000000000E+00  0.00000000000E+00  0.32086374937E+04  0.32086374937E+04  0.25500000920E-02 0.  1.
       -2   -1    0    0    0  501  0.00000000000E+00  0.00000000000E+00 -0.39661736715E+03  0.39661736716E+03  0.25500000920E-02 0. -1.
    10030    2    1    2    0    0  0.00000000000E+00  0.00000000000E+00  0.28120201265E+04  0.36052548609E+04  0.22561926823E+04 0.  0.
        5    1    3    3  502    0 -0.92598736063E+03  0.30142319350E+03  0.49606816988E+03  0.10928926081E+04  0.46999998093E+01 0. -1.
       -5    1    3    3    0  502  0.92598736063E+03 -0.30142319350E+03  0.23159519567E+04  0.25123622528E+04  0.46999998093E+01 0.  1.
</event>
<event>
 5   0  0.4260395E-05  0.2421842E+04  0.7818609E-02  0.8431371E-01
        1   -1    0    0  501    0  0.00000000000E+00  0.00000000000E+00  0.18474584820E+04  0.18474584820E+04  0.50400001928E-02 0. -1.
       -1   -1    0    0    0  501  0.00000000000E+00  0.00000000000E+00 -0.79370116490E+03  0.79370116492E+03  0.50400001928E-02 0.  1.
    10030    2    1    2    0    0  0.00000000000E+00  0.00000000000E+00  0.10537573171E+04  0.26411596470E+04  0.24218422321E+04 0.  0.
        4    1    3    3  502    0  0.37689081143E+02  0.97719128463E+03 -0.25193946417E+03  0.10098506722E+04  0.12699999809E+01 0.  1.
       -4    1    3    3    0  502 -0.37689081143E+02 -0.97719128463E+03  0.13056967813E+04  0.16313089748E+04  0.12699999809E+01 0. -1.
</event>
<event>
 5   0  0.9750757E-05  0.2421204E+04  0.7818609E-02  0.8431607E-01
       -2   -1    0    0    0  501  0.00000000000E+00  0.00000000000E+00  0.92166721794E+03  0.92166721795E+03  0.25500000920E-02 0.  1.
        2   -1    0    0  501    0  0.00000000000E+00  0.00000000000E+00 -0.15901159501E+04  0.15901159501E+04  0.25500000920E-02 0. -1.
    10030    2    1    2    0    0  0.00000000000E+00  0.00000000000E+00 -0.66844873212E+03  0.25117831680E+04  0.24212044473E+04 0.  0.
        2    1    3    3  502    0 -0.32664706227E+02  0.12093402893E+04 -0.38046572060E+03  0.12681975725E+04  0.25500000920E-02 0.  1.
       -2    1    3    3    0  502  0.32664706227E+02 -0.12093402893E+04 -0.28798301152E+03  0.12435855955E+04  0.25500000920E-02 0. -1.
</event>
<event>
 5   0  0.4018942E-05  0.1399111E+04  0.7818609E-02  0.8954462E-01
       -1   -1    0    0    0  501  0.00000000000E+00  0.00000000000E+00  0.11173029038E+04  0.11173029038E+04  0.50400001928E-02 0. -1.
        1   -1    0    0  501    0  0.00000000000E+00  0.00000000000E+00 -0.43799938716E+03  0.43799938719E+03  0.50400001928E-02 0.  1.
    10030    2    1    2    0    0  0.00000000000E+00  0.00000000000E+00  0.67930351667E+03  0.15553022910E+04  0.13991111281E+04 0.  0.
        5    1    3    3  502    0 -0.14119094628E+03  0.65670004054E+03  0.55682250562E+03  0.87250399386E+03  0.46999998093E+01 0.  1.
       -5    1    3    3    0  502  0.14119094628E+03 -0.65670004054E+03  0.12248101106E+03  0.68279829717E+03  0.46999998093E+01 0. -1.
</event>
<event>
 5   0  0.3234750E-05  0.1203825E+04  0.7818609E-02  0.9109515E-01
       -3   -1    0    0    0  501  0.00000000000E+00  0.00000000000E+00  0.74323335623E+03  0.74323336309E+03  0.10100000352E+00 0.  1.
        3   -1    0    0  501    0  0.00000000000E+00  0.00000000000E+00 -0.48746260344E+03  0.48746261390E+03  0.10100000352E+00 0. -1.
    10030    2    1    2    0    0  0.00000000000E+00  0.00000000000E+00  0.25577075279E+03  0.12306959770E+04  0.12038247006E+04 0.  0.
        4    1    3    3  502    0  0.39646526214E+03  0.12563466813E+01  0.59088598761E+03  0.71157160269E+03  0.12699999809E+01 0.  1.
       -4    1    3    3    0  502 -0.39646526214E+03 -0.12563466813E+01 -0.33511523482E+03  0.51912437431E+03  0.12699999809E+01 0. -1.
</event>
<event>
 5   0  0.3934906E-05  0.2334578E+04  0.7818609E-02  0.8464411E-01
        1   -1    0    0  501    0  0.00000000000E+00  0.00000000000E+00  0.19834361843E+04  0.19834361843E+04  0.50400001928E-02 0.  1.
       -1   -1    0    0    0  501  0.00000000000E+00  0.00000000000E+00 -0.68697110157E+03  0.68697110159E+03  0.50400001928E-02 0. -1.
    10030    2    1    2    0    0  0.00000000000E+00  0.00000000000E+00  0.12964650827E+04  0.26704072859E+04  0.23345777695E+04 0.  0.
        2    1    3    3  502    0 -0.87485855808E+03 -0.36338123811E+03  0.14283517387E+04  0.17139463557E+04  0.25500000920E-02 0.  1.
       -2    1    3    3    0  502  0.87485855808E+03  0.36338123811E+03 -0.13188665601E+03  0.95646093014E+03  0.25500000920E-02 0. -1.
</event>
<event>
 5   0  0.4018942E-05  0.2449884E+04  0.7818609E-02  0.8421060E-01
       -1   -1    0    0    0  501  0.00000000000E+00  0.00000000000E+00  0.95945415110E+03  0.95945415111E+03  0.50400001928E-02 0.  1.
        1   -1    0    0  501    0  0.00000000000E+00  0.00000000000E+00 -0.15638920023E+04  0.15638920023E+04  0.50400001928E-02 0. -1.
    10030    2    1    2    0    0  0.00000000000E+00  0.00000000000E+00 -0.60443785121E+03  0.25233461534E+04  0.24498838124E+04 0.  0.
        5    1    3    3  502    0 -0.12213291613E+04  0.67985401588E+02 -0.36891915902E+03  0.12776503320E+04  0.46999998093E+01 0. -1.
       -5    1    3    3    0  502  0.12213291613E+04 -0.67985401588E+02 -0.23551869220E+03  0.12456958214E+04  0.46999998093E+01 0.  1.
</event>
<event>
 5   0  0.9750757E-05  0.2368008E+04  0.7818609E-02  0.8451579E-01
        2   -1    0    0  501    0  0.00000000000E+00  0.00000000000E+00  0.17679017131E+04  0.17679017131E+04  0.25500000920E-02 0.  1.
       -2   -1    0    0    0  501  0.00000000000E+00  0.00000000000E+00 -0.79295447277E+03  0.79295447277E+03  0.25500000920E-02 0. -1.
    10030    2    1    2    0    0  0.00000000000E+00  0.00000000000E+00  0.97494724032E+03  0.25608561859E+04  0.23680080834E+04 0.  0.
        2    1    3    3  502    0  0.65595697490E+03 -0.44483537741E+03  0.14387142985E+04  0.16425762992E+04  0.25500000920E-02 0.  1.
       -2    1    3    3    0  502 -0.65595697490E+03  0.44483537741E+03 -0.46376705822E+03  0.91827988664E+03  0.25500000920E-02 0. -1.
</event>
<event>
 5   0  0.9750757E-05  0.2064546E+04  0.7818609E-02  0.8577024E-01
       -2   -1    0    0    0  501  0.00000000000E+00  0.00000000000E+00  0.72724721059E+03  0.72724721059E+03  0.25500000920E-02 0.  1.
        2   -1    0    0  501    0  0.00000000000E+00  0.00000000000E+00 -0.14652340764E+04  0.14652340765E+04  0.25500000920E-02 0. -1.
    10030    2    1    2    0    0  0.00000000000E+00  0.00000000000E+00 -0.73798686586E+03  0.21924812870E+04  0.20645458532E+04 0.  0.
        2    1    3    3  502    0  0.48803386486E+03 -0.56203737207E+03 -0.11285226974E+04  0.13518973849E+04  0.25500000920E-02 0. -1.
       -2    1    3    3    0  502 -0.48803386486E+03  0.56203737207E+03  0.39053583149E+03  0.84058390214E+03  0.25500000920E-02 0.  1.
</event>
<event>
 5   0  0.4260395E-05  0.2365791E+04  0.7818609E-02  0.8452423E-01
        1   -1    0    0  501    0  0.00000000000E+00  0.00000000000E+00  0.89684312465E+03  0.89684312467E+03  0.50400001928E-02 0. -1.
       -1   -1    0    0    0  501  0.00000000000E+00  0.00000000000E+00 -0.15601855072E+04  0.15601855072E+04  0.50400001928E-02 0.  1.
    10030    2    1    2    0    0  0.00000000000E+00  0.00000000000E+00 -0.66334238250E+03  0.24570286318E+04  0.23657908997E+04 0.  0.
        4    1    3    3  502    0 -0.27971279587E+03  0.88481963015E+03  0.43016805441E+03  0.10228348811E+04  0.12699999809E+01 0. -1.
       -4    1    3    3    0  502  0.27971279587E+03 -0.88481963015E+03 -0.10935104369E+04  0.14341937507E+04  0.12699999809E+01 0.  1.
</event>
<event>
 5   0  0.9519092E-05  0.2411170E+04  0.7818609E-02  0.8435333E-01
       -2   -1    0    0    0  501  0.00000000000E+00  0.00000000000E+00  0.12271396210E+04  0.12271396210E+04  0.25500000920E-02 0. -1.
        2   -1    0    0  501    0  0.00000000000E+00  0.00000000000E+00 -0.11844094123E+04  0.11844094123E+04  0.25500000920E-02 0.  1.
    10030    2    1    2    0    0  0.00000000000E+00  0.00000000000E+00  0.42730208710E+02  0.24115490333E+04  0.24111704355E+04 0.  0.
        4    1    3    3  502    0  0.61669474276E+03 -0.99365481081E+03 -0.27154913768E+03  0.12005843727E+04  0.12699999809E+01 0.  1.
       -4    1    3    3    0  502 -0.61669474276E+03  0.99365481081E+03  0.31427934639E+03  0.12109646606E+04  0.12699999809E+01 0. -1.
</event>
<event>
 5   0  0.3234750E-05  0.2348076E+04  0.7818609E-02  0.8459203E-01
       -3   -1    0    0    0  501  0.00000000000E+00  0.00000000000E+00  0.10768113191E+04  0.10768113238E+04  0.10100000352E+00 0.  1.
        3   -1    0    0  501    0  0.00000000000E+00  0.00000000000E+00 -0.12800431018E+04  0.12800431058E+04  0.10100000352E+00 0. -1.
    10030    2    1    2    0    0  0.00000000000E+00  0.00000000000E+00 -0.20323178274E+03  0.23568544296E+04  0.23480757324E+04 0.  0.
        5    1    3    3  502    0  0.27048194436E+02  0.82361424300E+03 -0.94096639321E+03  0.12508044888E+04  0.46999998093E+01 0. -1.
       -5    1    3    3    0  502 -0.27048194436E+02 -0.82361424300E+03  0.73773461047E+03  0.11060499408E+04  0.46999998093E+01 0.  1.
</event>
<event>
 5   0  0.3234750E-05  0.2435519E+04  0.7818609E-02  0.8426324E-01
        3   -1    0    0  501    0  0.00000000000E+00  0.00000000000E+00  0.11052707175E+04  0.11052707221E+04  0.10100000352E+00 0. -1.
       -3   -1    0    0    0  501  0.00000000000E+00  0.00000000000E+00 -0.13416971067E+04  0.13416971105E+04  0.10100000352E+00 0.  1.
    10030    2    1    2    0    0  0.00000000000E+00  0.00000000000E+00 -0.23642638918E+03  0.24469678326E+04  0.24355192744E+04 0.  0.
        4    1    3    3  502    0  0.52188259613E+03  0.10218813020E+04  0.29154468301E+03  0.11838930503E+04  0.12699999809E+01 0. -1.
       -4    1    3    3    0  502 -0.52188259613E+03 -0.10218813020E+04 -0.52797107218E+03  0.12630747822E+04  0.12699999809E+01 0.  1.
</event>
<event>
 5   0  0.4061631E-05  0.2346882E+04  0.7818609E-02  0.8459662E-01
       -1   -1    0    0    0  501  0.00000000000E+00  0.00000000000E+00  0.90009866212E+03  0.90009866213E+03  0.50400001928E-02 0.  1.
        1   -1    0    0  501    0  0.00000000000E+00  0.00000000000E+00 -0.15297920554E+04  0.15297920554E+04  0.50400001928E-02 0. -1.
    10030    2    1    2    0    0  0.00000000000E+00  0.00000000000E+00 -0.62969339324E+03  0.24298907175E+04  0.23468820016E+04 0.  0.
        3    1    3    3  502    0 -0.76179959555E+03 -0.11003391693E+03 -0.12319048086E+04  0.14525961429E+04  0.10100000352E+00 0. -1.
       -3    1    3    3    0  502  0.76179959555E+03  0.11003391693E+03  0.60221141533E+03  0.97729457464E+03  0.10100000352E+00 0.  1.
</event>
<event>
 5   0  0.9750757E-05  0.2398876E+04  0.7818609E-02  0.8439924E-01
        2   -1    0    0  501    0  0.00000000000E+00  0.00000000000E+00  0.15535507819E+04  0.15535507819E+04  0.25500000920E-02 0.  1.
       -2   -1    0    0    0  501  0.00000000000E+00  0.00000000000E+00 -0.92604097279E+03  0.92604097279E+03  0.25500000920E-02 0. -1.
    10030    2    1    2    0    0  0.00000000000E+00  0.00000000000E+00  0.62750980907E+03  0.24795917547E+04  0.23988761346E+04 0.  0.
        2    1    3    3  502    0  0.95671957956E+03 -0.71992314098E+03  0.38720930375E+03  0.12583849680E+04  0.25500000920E-02 0.  1.
       -2    1    3    3    0  502 -0.95671957956E+03  0.71992314098E+03  0.24030050532E+03  0.12212067866E+04  0.25500000920E-02 0. -1.
</event>
<event>
 5   0  0.4208577E-05  0.2431040E+04  0.7818609E-02  0.8427973E-01
        1   -1    0    0  501    0  0.00000000000E+00  0.00000000000E+00  0.16203492250E+04  0.16203492250E+04  0.50400001928E-02 0. -1.
       -1   -1    0    0    0  501  0.00000000000E+00  0.00000000000E+00 -0.91183358062E+03  0.91183358063E+03  0.50400001928E-02 0.  1.
    10030    2    1    2    0    0  0.00000000000E+00  0.00000000000E+00  0.70851564438E+03  0.25321828056E+04  0.24310399715E+04 0.  0.
        1    1    3    3  502    0  0.73593303897E+03 -0.82367959129E+03 -0.17424069960E+03  0.11182152424E+04  0.50400001928E-02 0.  1.
       -1    1    3    3    0  502 -0.73593303897E+03  0.82367959129E+03  0.88275634398E+03  0.14139675632E+04  0.50400001928E-02 0. -1.
</event>
<event>
 5   0  0.9750757E-05  0.2455526E+04  0.7818609E-02  0.8419003E-01
        2   -1    0    0  501    0  0.00000000000E+00  0.00000000000E+00  0.18021574860E+04  0.18021574860E+04  0.25500000920E-02 0. -1.
       -2   -1    0    0    0  501  0.00000000000E+00  0.00000000000E+00 -0.83644294508E+03  0.83644294509E+03  0.25500000920E-02 0.  1.
    10030    2    1    2    0    0  0.00000000000E+00  0.00000000000E+00  0.96571454089E+03  0.26386004311E+04  0.24555259437E+04 0.  0.
        2    1    3    3  502    0 -0.31127427944E+03 -0.10105043706E+04  0.11533933381E+04  0.15647130576E+04  0.25500000920E-02 0. -1.
       -2    1    3    3    0  502  0.31127427944E+03  0.10105043706E+04 -0.18767879725E+03  0.10738873735E+04  0.25500000920E-02 0.  1.
</event>
<event>
 5   0  0.9750757E-05  0.2292460E+04  0.7818609E-02  0.8480900E-01
        2   -1    0    0  501    0  0.00000000000E+00  0.00000000000E+00  0.14986144276E+04  0.14986144276E+04  0.25500000920E-02 0. -1.
       -2   -1    0    0    0  501  0.00000000000E+00  0.00000000000E+00 -0.87670524810E+03  0.87670524810E+03  0.25500000920E-02 0.  1.
    10030    2    1    2    0    0  0.00000000000E+00  0.00000000000E+00  0.62190917955E+03  0.23753196758E+04  0.22924599308E+04 0.  0.
        2    1    3    3  502    0 -0.42821315764E+03  0.10134231795E+04  0.64421654469E+03  0.12749149013E+04  0.25500000920E-02 0. -1.
       -2    1    3    3    0  502  0.42821315764E+03 -0.10134231795E+04 -0.22307365141E+02  0.11004047745E+04  0.25500000920E-02 0.  1.
</event>
<event>
 5   0  0.4061631E-05  0.2355664E+04  0.7818609E-02  0.8456291E-01
       -1   -1    0    0    0  501  0.00000000000E+00  0.00000000000E+00  0.10053659231E+04  0.10053659231E+04  0.50400001928E-02 0.  1.
        1   -1    0    0  501    0  0.00000000000E+00  0.00000000000E+00 -0.13798840100E+04  0.13798840100E+04  0.50400001928E-02 0. -1.
    10030    2    1    2    0    0  0.00000000000E+00  0.00000000000E+00 -0.37451808689E+03  0.23852499331E+04  0.23556641200E+04 0.  0.
        3    1    3    3  502    0 -0.57715047798E+03 -0.51562274092E+03 -0.10862834570E+04  0.13337845569E+04  0.10100000352E+00 0. -1.
       -3    1    3    3    0  502  0.57715047798E+03  0.51562274092E+03  0.71176537007E+03  0.10514653762E+04  0.10100000352E+00 0.  1.
</event>
<event>
 5   0  0.4208577E-05  0.1377917E+04  0.7818609E-02  0.8969960E-01
        1   -1    0    0  501    0  0.00000000000E+00  0.00000000000E+00  0.73222806945E+03  0.73222806947E+03  0.50400001928E-02 0.  1.
       -1   -1    0    0    0  501  0.00000000000E+00  0.00000000000E+00 -0.64824606200E+03  0.64824606202E+03  0.50400001928E-02 0. -1.
    10030    2    1    2    0    0  0.00000000000E+00  0.00000000000E+00  0.83982007450E+02  0.13804741315E+04  0.13779172145E+04 0.  0.
        1    1    3    3  502    0 -0.30715687556E+03  0.23093700750E+02  0.65940180203E+03  0.72779763793E+03  0.50400001928E-02 0.  1.
       -1    1    3    3    0  502  0.30715687556E+03 -0.23093700750E+02 -0.57541979458E+03  0.65267649356E+03  0.50400001928E-02 0. -1.
</event>
<event>
 5   0  0.4061631E-05  0.2409653E+04  0.7818609E-02  0.8435898E-01
       -1   -1    0    0    0  501  0.00000000000E+00  0.00000000000E+00  0.13171336783E+04  0.13171336783E+04  0.50400001928E-02 0.  1.
        1   -1    0    0  501    0  0.00000000000E+00  0.00000000000E+00 -0.11020956338E+04  0.11020956339E+04  0.50400001928E-02 0. -1.
    10030    2    1    2    0    0  0.00000000000E+00  0.00000000000E+00  0.21503804443E+03  0.24192293121E+04  0.24096533162E+04 0.  0.
        3    1    3    3  502    0  0.44236503639E+03 -0.29099579931E+03 -0.97902110388E+03  0.11130353600E+04  0.10100000352E+00 0. -1.
       -3    1    3    3    0  502 -0.44236503639E+03  0.29099579931E+03  0.11940591483E+04  0.13061939521E+04  0.10100000352E+00 0.  1.
</event>
<event>
 5   0  0.3234750E-05  0.2395096E+04  0.7818609E-02  0.8441342E-01
       -3   -1    0    0    0  501  0.00000000000E+00  0.00000000000E+00  0.84706786604E+03  0.84706787206E+03  0.10100000352E+00 0. -1.
        3   -1    0    0  501    0  0.00000000000E+00  0.00000000000E+00 -0.16930422458E+04  0.16930422488E+04  0.10100000352E+00 0.  1.
    10030    2    1    2    0    0  0.00000000000E+00  0.00000000000E+00 -0.84597437973E+03  0.25401101208E+04  0.23950964020E+04 0.  0.
        3    1    3    3  502    0  0.65722491507E+03 -0.61209102073E+03 -0.12631121984E+04  0.15498556199E+04  0.10100000352E+00 0.  1.
       -3    1    3    3    0  502 -0.65722491507E+03  0.61209102073E+03  0.41713781866E+03  0.99025450093E+03  0.10100000352E+00 0. -1.
</event>
<event>
 5   0  0.4260395E-05  0.2032986E+04  0.7818609E-02  0.8591352E-01
        1   -1    0    0  501    0  0.00000000000E+00  0.00000000000E+00  0.16422613893E+04  0.16422613893E+04  0.50400001928E-02 0. -1.
       -1   -1    0    0    0  501  0.00000000000E+00  0.00000000000E+00 -0.62916786148E+03  0.62916786150E+03  0.50400001928E-02 0.  1.
    10030    2    1    2    0    0  0.00000000000E+00  0.00000000000E+00  0.10130935278E+04  0.22714292508E+04  0.20329860662E+04 0.  0.
        4    1    3    3  502    0  0.96457639684E+02  0.94132237032E+03  0.92139684805E+03  0.13207443529E+04  0.12699999809E+01 0. -1.
       -4    1    3    3    0  502 -0.96457639684E+02 -0.94132237032E+03  0.91696679720E+02  0.95068489790E+03  0.12699999809E+01 0.  1.
</event>
<event>
 5   0  0.4260395E-05  0.2220170E+04  0.7818609E-02  0.8510080E-01
       -1   -1    0    0    0  501  0.00000000000E+00  0.00000000000E+00  0.80140186654E+03  0.80140186656E+03  0.50400001928E-02 0.  1.
        1   -1    0    0  501    0  0.00000000000E+00  0.00000000000E+00 -0.15376664105E+04  0.15376664105E+04  0.50400001928E-02 0. -1.
    10030    2    1    2    0    0  0.00000000000E+00  0.00000000000E+00 -0.73626454397E+03  0.23390682771E+04  0.22201700219E+04 0.  0.
        4    1    3    3  502    0 -0.42960357667E+03 -0.86680820827E+03  0.20542240040E+03  0.98899730965E+03  0.12699999809E+01 0.  1.
       -4    1    3    3    0  502  0.42960357667E+03  0.86680820827E+03 -0.94168694436E+03  0.13500709674E+04  0.12699999809E+01 0. -1.
</event>
<event>
 5   0  0.9144244E-05  0.2450223E+04  0.7818609E-02  0.8420936E-01
       -2   -1    0    0    0  501  0.00000000000E+00  0.00000000000E+00  0.99136424710E+03  0.99136424711E+03  0.25500000920E-02 0. -1.
        2   -1    0    0  501    0  0.00000000000E+00  0.00000000000E+00 -0.15139730678E+04  0.15139730678E+04  0.25500000920E-02 0.  1.
    10030    2    1    2    0    0  0.00000000000E+00  0.00000000000E+00 -0.52260882065E+03  0.25053373149E+04  0.24502234759E+04 0.  0.
        1    1    3    3  502    0  0.44664857788E+03 -0.27386365113E+03  0.87103605422E+03  0.10164644899E+04  0.50400001928E-02 0. -1.
       -1    1    3    3    0  502 -0.44664857788E+03  0.27386365113E+03 -0.13936448749E+04  0.14888728249E+04  0.50400001928E-02 0.  1.
</event>
<event>
 5   0  0.9182865E-05  0.1452387E+04  0.7818609E-02  0.8916748E-01
        2   -1    0    0  501    0  0.00000000000E+00  0.00000000000E+00  0.36919899703E+03  0.36919899704E+03  0.25500000920E-02 0. -1.
       -2   -1    0    0    0  501  0.00000000000E+00  0.00000000000E+00 -0.14283805602E+04  0.14283805602E+04  0.25500000920E-02 0.  1.
    10030    2    1    2    0    0  0.00000000000E+00  0.00000000000E+00 -0.10591815632E+04  0.17975795572E+04  0.14523865466E+04 0.  0.
        3    1    3    3  502    0 -0.61341190004E+03  0.18873135592E+03 -0.10903144693E+03  0.65098506161E+03  0.10100000352E+00 0.  1.
       -3    1    3    3    0  502  0.61341190004E+03 -0.18873135592E+03 -0.95015011622E+03  0.11465944956E+04  0.10100000352E+00 0. -1.
</event>
<event>
 5   0  0.3234750E-05  0.2195861E+04  0.7818609E-02  0.8520153E-01
       -3   -1    0    0    0  501  0.00000000000E+00  0.00000000000E+00  0.13953556236E+04  0.13953556272E+04  0.10100000352E+00 0. -1.
        3   -1    0    0  501    0  0.00000000000E+00  0.00000000000E+00 -0.86390244366E+03  0.86390244956E+03  0.10100000352E+00 0.  1.
    10030    2    1    2    0    0  0.00000000000E+00  0.00000000000E+00  0.53145317992E+03  0.22592580768E+04  0.21958607823E+04 0.  0.
        4    1    3    3  502    0  0.27361710652E+03 -0.15463313087E+02 -0.82814508391E+03  0.87231377837E+03  0.12699999809E+01 0.  1.
       -4    1    3    3    0  502 -0.27361710652E+03  0.15463313087E+02  0.13595982638E+04  0.13869442984E+04  0.12699999809E+01 0. -1.
</event>
<event>
 5   0  0.9750757E-05  0.2450241E+04  0.7818609E-02  0.8420930E-01
        2   -1    0    0  501    0  0.00000000000E+00  0.00000000000E+00  0.19941147848E+04  0.19941147848E+04  0.25500000920E-02 0.  1.
       -2   -1    0    0    0  501  0.00000000000E+00  0.00000000000E+00 -0.75267465149E+03  0.75267465150E+03  0.25500000920E-02 0. -1.
    10030    2    1    2    0    0  0.00000000000E+00  0.00000000000E+00  0.12414401333E+04  0.27467894363E+04  0.24502405194E+04 0.  0.
        2    1    3    3  502    0  0.33171234112E+03 -0.17099522929E+03  0.19288441775E+04  0.19646150531E+04  0.25500000920E-02 0.  1.
       -2    1    3    3    0  502 -0.33171234112E+03  0.17099522929E+03 -0.68740404423E+03  0.78217438319E+03  0.25500000920E-02 0. -1.
</event>
<event>
 5   0  0.9519092E-05  0.2361958E+04  0.7818609E-02  0.8453885E-01
       -2   -1    0    0    0  501  0.00000000000E+00  0.00000000000E+00  0.11537673751E+04  0.11537673751E+04  0.25500000920E-02 0.  1.
        2   -1    0    0  501    0  0.00000000000E+00  0.00000000000E+00 -0.12088319508E+04  0.12088319508E+04  0.25500000920E-02 0. -1.
    10030    2    1    2    0    0  0.00000000000E+00  0.00000000000E+00 -0.55064575733E+02  0.23625993258E+04  0.23619575498E+04 0.  0.
        4    1    3    3  502    0  0.48658457201E+03 -0.48582435486E+03 -0.98795952017E+03  0.12036841263E+04  0.12699999809E+01 0. -1.
       -4    1    3    3    0  502 -0.48658457201E+03  0.48582435486E+03  0.93289494444E+03  0.11589151996E+04  0.12699999809E+01 0.  1.
</event>
<event>
 5   0  0.4260395E-05  0.1363651E+04  0.7818609E-02  0.8980558E-01
       -1   -1    0    0    0  501  0.00000000000E+00  0.00000000000E+00  0.43588528483E+03  0.43588528486E+03  0.50400001928E-02 0.  1.
        1   -1    0    0  501    0  0.00000000000E+00  0.00000000000E+00 -0.10665328236E+04  0.10665328236E+04  0.50400001928E-02 0. -1.
    10030    2    1    2    0    0  0.00000000000E+00  0.00000000000E+00 -0.63064753879E+03  0.15024181085E+04  0.13636509284E+04 0.  0.
        4    1    3    3  502    0 -0.41535561868E+03  0.17127601146E+03  0.24972908652E+03  0.51402528307E+03  0.12699999809E+01 0.  1.
       -4    1    3    3    0  502  0.41535561868E+03 -0.17127601146E+03 -0.88037662531E+03  0.98839282543E+03  0.12699999809E+01 0. -1.
</event>
<event>
 5   0  0.9491680E-05  0.2347907E+04  0.7818609E-02  0.8459268E-01
        2   -1    0    0  501    0  0.00000000000E+00  0.00000000000E+00  0.17903470361E+04  0.17903470361E+04  0.25500000920E-02 0. -1.
       -2   -1    0    0    0  501  0.00000000000E+00  0.00000000000E+00 -0.76977658746E+03  0.76977658747E+03  0.25500000920E-02 0.  1.
    10030    2    1    2    0    0  0.00000000000E+00  0.00000000000E+00  0.10205704487E+04  0.25601236236E+04  0.23479073507E+04 0.  0.
        5    1    3    3  502    0  0.40843880259E+03 -0.32669203025E+03  0.16562771512E+04  0.17369012723E+04  0.46999998093E+01 0. -1.
       -5    1    3    3    0  502 -0.40843880259E+03  0.32669203025E+03 -0.63570670252E+03  0.82322235132E+03  0.46999998093E+01 0.  1.
</event>
<event>
 5   0  0.9182865E-05  0.1354171E+04  0.7818609E-02  0.8987677E-01
       -2   -1    0    0    0  501  0.00000000000E+00  0.00000000000E+00  0.62670933180E+03  0.62670933180E+03  0.25500000920E-02 0. -1.
        2   -1    0    0  501    0  0.00000000000E+00  0.00000000000E+00 -0.73151059435E+03  0.73151059435E+03  0.25500000920E-02 0.  1.
    10030    2    1    2    0    0  0.00000000000E+00  0.00000000000E+00 -0.10480126255E+03  0.13582199262E+04  0.13541706182E+04 0.  0.
        3    1    3    3  502    0 -0.65197109408E+03  0.11003486679E+03  0.93879663759E+02  0.66782286641E+03  0.10100000352E+00 0. -1.
       -3    1    3    3    0  502  0.65197109408E+03 -0.11003486679E+03 -0.19868092631E+03  0.69039705975E+03  0.10100000352E+00 0.  1.
</event>
<event>
 5   0  0.4260395E-05  0.1649256E+04  0.7818609E-02  0.8790847E-01
       -1   -1    0    0    0  501  0.00000000000E+00  0.00000000000E+00  0.81619610522E+03  0.81619610524E+03  0.50400001928E-02 0.  1.
        1   -1    0    0  501    0  0.00000000000E+00  0.00000000000E+00 -0.83314728797E+03  0.83314728799E+03  0.50400001928E-02 0. -1.
    10030    2    1    2    0    0  0.00000000000E+00  0.00000000000E+00 -0.16951182754E+02  0.16493433932E+04  0.16492562827E+04 0.  0.
        4    1    3    3  502    0  0.66515962881E+03 -0.47224915428E+03 -0.12911928383E+03  0.82591161626E+03  0.12699999809E+01 0. -1.
       -4    1    3    3    0  502 -0.66515962881E+03  0.47224915428E+03  0.11216810107E+03  0.82343177696E+03  0.12699999809E+01 0.  1.
</event>
<event>
 5   0  0.4061631E-05  0.2400362E+04  0.7818609E-02  0.8439368E-01
       -1   -1    0    0    0  501  0.00000000000E+00  0.00000000000E+00  0.22480466213E+04  0.22480466213E+04  0.50400001928E-02 0.  1.
        1   -1    0    0  501    0  0.00000000000E+00  0.00000000000E+00 -0.64074939199E+03  0.64074939201E+03  0.50400001928E-02 0. -1.
    10030    2    1    2    0    0  0.00000000000E+00  0.00000000000E+00  0.16072972293E+04  0.28887960133E+04  0.24003620608E+04 0.  0.
        3    1    3    3  502    0 -0.30877770416E+03 -0.78841968830E+02 -0.58889915131E+03  0.66959834770E+03  0.10100000352E+00 0. -1.
       -3    1    3    3    0  502  0.30877770416E+03  0.78841968830E+02  0.21961963806E+04  0.22191976656E+04  0.10100000352E+00 0.  1.
</event>
<event>
 5   0  0.9519092E-05  0.2128995E+04  0.7818609E-02  0.8548577E-01
        2   -1    0    0  501    0  0.00000000000E+00  0.00000000000E+00  0.13780065771E+04  0.13780065771E+04  0.25500000920E-02 0. -1.
       -2   -1    0    0    0  501  0.00000000000E+00  0.00000000000E+00 -0.82231467488E+03  0.82231467489E+03  0.25500000920E-02 0.  1.
    10030    2    1    2    0    0  0.00000000000E+00  0.00000000000E+00  0.55569190220E+03  0.22003212520E+04  0.21289950967E+04 0.  0.
        4    1    3    3  502    0  0.59967838990E+03  0.67591404720E+03 -0.30374999565E+03  0.95327836610E+03  0.12699999809E+01 0.  1.
       -4    1    3    3    0  502 -0.59967838990E+03 -0.67591404720E+03  0.85944189785E+03  0.12470428859E+04  0.12699999809E+01 0. -1.
</event>
<event>
 5   0  0.9182865E-05  0.2436168E+04  0.7818609E-02  0.8426086E-01
        2   -1    0    0  501    0  0.00000000000E+00  0.00000000000E+00  0.21180928480E+04  0.21180928480E+04  0.25500000920E-02 0. -1.
       -2   -1    0    0    0  501  0.00000000000E+00  0.00000000000E+00 -0.70050233709E+03  0.70050233710E+03  0.25500000920E-02 0.  1.
    10030    2    1    2    0    0  0.00000000000E+00  0.00000000000E+00  0.14175905109E+04  0.28185951851E+04  0.24361682948E+04 0.  0.
        3    1    3    3  502    0  0.69099792900E+03  0.68417406923E+03  0.15575452581E+04  0.18361698005E+04  0.10100000352E+00 0. -1.
       -3    1    3    3    0  502 -0.69099792900E+03 -0.68417406923E+03 -0.13995474720E+03  0.98242538463E+03  0.10100000352E+00 0.  1.
</event>
<event>
 5   0  0.9750757E-05  0.2428425E+04  0.7818609E-02  0.8428938E-01
       -2   -1    0    0    0  501  0.00000000000E+00  0.00000000000E+00  0.58204334374E+03  0.58204334375E+03  0.25500000920E-02 0.  1.
        2   -1    0    0  501    0  0.00000000000E+00  0.00000000000E+00 -0.25329933022E+04  0.25329933022E+04  0.25500000920E-02 0. -1.
    10030    2    1    2    0    0  0.00000000000E+00  0.00000000000E+00 -0.19509499585E+04  0.31150366460E+04  0.24284249145E+04 0.  0.
        2    1    3    3  502    0 -0.31119296415E+03 -0.11557667112E+04 -0.71361338878E+03  0.13935141981E+04  0.25500000920E-02 0. -1.
       -2    1    3    3    0  502  0.31119296415E+03  0.11557667112E+04 -0.12373365697E+04  0.17215224479E+04  0.25500000920E-02 0.  1.
</event>
<event>
 5   0  0.9750757E-05  0.2369322E+04  0.7818609E-02  0.8451079E-01
        2   -1    0    0  501    0  0.00000000000E+00  0.00000000000E+00  0.17450695972E+04  0.17450695972E+04  0.25500000920E-02 0.  1.
       -2   -1    0    0    0  501  0.00000000000E+00  0.00000000000E+00 -0.80422100276E+03  0.80422100276E+03  0.25500000920E-02 0. -1.
    10030    2    1    2    0    0  0.00000000000E+00  0.00000000000E+00  0.94084859442E+03  0.25492905999E+04  0.23693219463E+04 0.  0.
        2    1    3    3  502    0 -0.56927183937E+03 -0.68772174876E+03  0.13082839537E+04  0.15838682188E+04  0.25500000920E-02 0.  1.
       -2    1    3    3    0  502  0.56927183937E+03  0.68772174876E+03 -0.36743535930E+03  0.96542238118E+03  0.25500000920E-02 0. -1.
</event>
<event>
 5   0  0.9519092E-05  0.2318507E+04  0.7818609E-02  0.8470660E-01
       -2   -1    0    0    0  501  0.00000000000E+00  0.00000000000E+00  0.69888118508E+03  0.69888118509E+03  0.25500000920E-02 0.  1.
        2   -1    0    0  501    0  0.00000000000E+00  0.00000000000E+00 -0.19228853392E+04  0.19228853392E+04  0.25500000920E-02 0. -1.
    10030    2    1    2    0    0  0.00000000000E+00  0.00000000000E+00 -0.12240041541E+04  0.26217665243E+04  0.23185067476E+04 0.  0.
        4    1    3    3  502    0 -0.86602894732E+03  0.54172247761E+03  0.77724580466E+01  0.10215338489E+04  0.12699999809E+01 0.  1.
       -4    1    3    3    0  502  0.86602894732E+03 -0.54172247761E+03 -0.12317766121E+04  0.16002326754E+04  0.12699999809E+01 0. -1.
</event>
<event>
 5   0  0.9491680E-05  0.2232396E+04  0.7818609E-02  0.8505064E-01
       -2   -1    0    0    0  501  0.00000000000E+00  0.00000000000E+00  0.13269909778E+04  0.13269909778E+04  0.25500000920E-02 0. -1.
        2   -1    0    0  501    0  0.00000000000E+00  0.00000000000E+00 -0.93888982548E+03  0.93888982549E+03  0.25500000920E-02 0.  1.
    10030    2    1    2    0    0  0.00000000000E+00  0.00000000000E+00  0.38810115228E+03  0.22658808032E+04  0.22323963157E+04 0.  0.
        5    1    3    3  502    0 -0.56224995948E+03  0.31158243382E+03  0.11202437972E+04  0.12915792214E+04  0.46999998093E+01 0. -1.
       -5    1    3    3    0  502  0.56224995948E+03 -0.31158243382E+03 -0.73214264488E+03  0.97430158188E+03  0.46999998093E+01 0.  1.
</event>
<event>
 5   0  0.9491680E-05  0.2394839E+04  0.7818609E-02  0.8441438E-01
        2   -1    0    0  501    0  0.00000000000E+00  0.00000000000E+00  0.16452888330E+04  0.16452888330E+04  0.25500000920E-02 0. -1.
       -2   -1    0    0    0  501  0.00000000000E+00  0.00000000000E+00 -0.87146609971E+03  0.87146609971E+03  0.25500000920E-02 0.  1.
    10030    2    1    2    0    0  0.00000000000E+00  0.00000000000E+00  0.77382273330E+03  0.25167549327E+04  0.23948389860E+04 0.  0.
        5    1    3    3  502    0  0.96483403746E+02 -0.14222633150E+03 -0.85842720618E+03  0.87547514807E+03  0.46999998093E+01 0.  1.
       -5    1    3    3    0  502 -0.96483403746E+02  0.14222633150E+03  0.16322499395E+04  0.16412797847E+04  0.46999998093E+01 0. -1.
</event>
<event>
 5   0  0.9182865E-05  0.2357565E+04  0.7818609E-02  0.8455564E-01
       -2   -1    0    0    0  501  0.00000000000E+00  0.00000000000E+00  0.10598025614E+04  0.10598025614E+04  0.25500000920E-02 0.  1.
        2   -1    0    0  501    0  0.00000000000E+00  0.00000000000E+00 -0.13111194730E+04  0.13111194730E+04  0.25500000920E-02 0. -1.
    10030    2    1    2    0    0  0.00000000000E+00  0.00000000000E+00 -0.25131691160E+03  0.23709220345E+04  0.23575646552E+04 0.  0.
        3    1    3    3  502    0 -0.33613784365E+03  0.10666255721E+04 -0.50039413623E+03  0.12251828691E+04  0.10100000352E+00 0.  1.
       -3    1    3    3    0  502  0.33613784365E+03 -0.10666255721E+04  0.24907722463E+03  0.11457391653E+04  0.10100000352E+00 0. -1.
</event>
<event>
 5   0  0.4208577E-05  0.2421676E+04  0.7818609E-02  0.8431433E-01
        1   -1    0    0  501    0  0.00000000000E+00  0.00000000000E+00  0.13856323990E+04  0.13856323990E+04  0.50400001928E-02 0.  1.
       -1   -1    0    0    0  501  0.00000000000E+00  0.00000000000E+00 -0.10580937410E+04  0.10580937410E+04  0.50400001928E-02 0. -1.
    10030    2    1    2    0    0  0.00000000000E+00  0.00000000000E+00  0.32753865795E+03  0.24437261401E+04  0.24216762532E+04 0.  0.
        1    1    3    3  502    0  0.10169487134E+04 -0.56672049698E+03 -0.17208563083E+03  0.11768475992E+04  0.50400001928E-02 0. -1.
       -1    1    3    3    0  502 -0.10169487134E+04  0.56672049698E+03  0.49962428879E+03  0.12668785409E+04  0.50400001928E-02 0.  1.
</event>
<event>
 5   0  0.4208577E-05  0.2410092E+04  0.7818609E-02  0.8435735E-01
        1   -1    0    0  501    0  0.00000000000E+00  0.00000000000E+00  0.11420431506E+04  0.11420431506E+04  0.50400001928E-02 0.  1.
       -1   -1    0    0    0  501  0.00000000000E+00  0.00000000000E+00 -0.12715244725E+04  0.12715244725E+04  0.50400001928E-02 0. -1.
    10030    2    1    2    0    0  0.00000000000E+00  0.00000000000E+00 -0.12948132188E+03  0.24135676231E+04  0.24100919606E+04 0.  0.
        1    1    3    3  502    0  0.11836912740E+04  0.93163207225E+02  0.14130200940E+03  0.11957301841E+04  0.50400001928E-02 0.  1.
       -1    1    3    3    0  502 -0.11836912740E+04 -0.93163207225E+02 -0.27078333128E+03  0.12178374390E+04  0.50400001928E-02 0. -1.
</event>
<event>
 5   0  0.9750757E-05  0.2438959E+04  0.7818609E-02  0.8425060E-01
        2   -1    0    0  501    0  0.00000000000E+00  0.00000000000E+00  0.21445778705E+04  0.21445778705E+04  0.25500000920E-02 0. -1.
       -2   -1    0    0    0  501  0.00000000000E+00  0.00000000000E+00 -0.69343703045E+03  0.69343703045E+03  0.25500000920E-02 0.  1.
    10030    2    1    2    0    0  0.00000000000E+00  0.00000000000E+00  0.14511408401E+04  0.28380149010E+04  0.24389585565E+04 0.  0.
        2    1    3    3  502    0  0.46869264930E+03 -0.27588199273E+03 -0.54450412766E+03  0.76958977284E+03  0.25500000920E-02 0.  1.
       -2    1    3    3    0  502 -0.46869264930E+03  0.27588199273E+03  0.19956449678E+04  0.20684251282E+04  0.25500000920E-02 0. -1.
</event>
<event>
 5   0  0.9519092E-05  0.2416977E+04  0.7818609E-02  0.8433175E-01
       -2   -1    0    0    0  501  0.00000000000E+00  0.00000000000E+00  0.12672028512E+04  0.12672028512E+04  0.25500000920E-02 0.  1.
        2   -1    0    0  501    0  0.00000000000E+00  0.00000000000E+00 -0.11524942017E+04  0.11524942017E+04  0.25500000920E-02 0. -1.
    10030    2    1    2    0    0  0.00000000000E+00  0.00000000000E+00  0.11470864947E+03  0.24196970529E+04  0.24169765728E+04 0.  0.
        4    1    3    3  502    0  0.49208518496E+03 -0.54824971539E+03 -0.90169928178E+03  0.11643834366E+04  0.12699999809E+01 0. -1.
       -4    1    3    3    0  502 -0.49208518496E+03  0.54824971539E+03  0.10164079313E+04  0.12553136163E+04  0.12699999809E+01 0.  1.
</event>
<event>
 5   0  0.4018942E-05  0.2524762E+04  0.7818609E-02  0.8394217E-01
        1   -1    0    0  501    0  0.00000000000E+00  0.00000000000E+00  0.12849866812E+04  0.12849866812E+04  0.50400001928E-02 0. -1.
       -1   -1    0    0    0  501  0.00000000000E+00  0.00000000000E+00 -0.12401733965E+04  0.12401733965E+04  0.50400001928E-02 0.  1.
    10030    2    1    2    0    0  0.00000000000E+00  0.00000000000E+00  0.44813284696E+02  0.25251600777E+04  0.25247624022E+04 0.  0.
        5    1    3    3  502    0 -0.25610877180E+03  0.35043936168E+03  0.12079982474E+04  0.12836203898E+04  0.46999998093E+01 0. -1.
       -5    1    3    3    0  502  0.25610877180E+03 -0.35043936168E+03 -0.11631849627E+04  0.12415396880E+04  0.46999998093E+01 0.  1.
</event>
<event>
 5   0  0.9144244E-05  0.2425916E+04  0.7818609E-02  0.8429864E-01
        2   -1    0    0  501    0  0.00000000000E+00  0.00000000000E+00  0.26421131640E+04  0.26421131640E+04  0.25500000920E-02 0. -1.
       -2   -1    0    0    0  501  0.00000000000E+00  0.00000000000E+00 -0.55685228678E+03  0.55685228678E+03  0.25500000920E-02 0.  1.
    10030    2    1    2    0    0  0.00000000000E+00  0.00000000000E+00  0.20852608772E+04  0.31989654508E+04  0.24259157094E+04 0.  0.
        1    1    3    3  502    0  0.82189294624E+03 -0.92509472232E+02 -0.12734458226E+03  0.83682893126E+03  0.50400001928E-02 0.  1.
       -1    1    3    3    0  502 -0.82189294624E+03  0.92509472232E+02  0.22126054595E+04  0.23621365196E+04  0.50400001928E-02 0. -1.
</event>
<event>
 5   0  0.4018942E-05  0.1866611E+04  0.7818609E-02  0.8671657E-01
       -1   -1    0    0    0  501  0.00000000000E+00  0.00000000000E+00  0.14580151981E+04  0.14580151981E+04  0.50400001928E-02 0. -1.
        1   -1    0    0  501    0  0.00000000000E+00  0.00000000000E+00 -0.59742800535E+03  0.59742800537E+03  0.50400001928E-02 0.  1.
    10030    2    1    2    0    0  0.00000000000E+00  0.00000000000E+00  0.86058719277E+03  0.20554432035E+04  0.18666109521E+04 0.  0.
        5    1    3    3  502    0  0.47814241828E+03  0.55327964066E+03  0.10688718560E+04  0.12950859691E+04  0.46999998093E+01 0. -1.
       -5    1    3    3    0  502 -0.47814241828E+03 -0.55327964066E+03 -0.20828466320E+03  0.76035723437E+03  0.46999998093E+01 0.  1.
</event>
<event>
 5   0  0.4260395E-05  0.2431844E+04  0.7818609E-02  0.8427677E-01
        1   -1    0    0  501    0  0.00000000000E+00  0.00000000000E+00  0.74572144723E+03  0.74572144725E+03  0.50400001928E-02 0.  1.
       -1   -1    0    0    0  501  0.00000000000E+00  0.00000000000E+00 -0.19825979722E+04  0.19825979722E+04  0.50400001928E-02 0. -1.
    10030    2    1    2    0    0  0.00000000000E+00  0.00000000000E+00 -0.12368765249E+04  0.27283194194E+04  0.24318436044E+04 0.  0.
        4    1    3    3  502    0 -0.91741946952E+03 -0.43975992647E+03  0.12863933465E+03  0.10254740208E+04  0.12699999809E+01 0.  1.
       -4    1    3    3    0  502  0.91741946952E+03  0.43975992647E+03 -0.13655158596E+04  0.17028453986E+04  0.12699999809E+01 0. -1.
</event>
<event>
 5   0  0.4208577E-05  0.1421897E+04  0.7818609E-02  0.8938119E-01
       -1   -1    0    0    0  501  0.00000000000E+00  0.00000000000E+00  0.25621552547E+03  0.25621552552E+03  0.50400001928E-02 0.  1.
        1   -1    0    0  501    0  0.00000000000E+00  0.00000000000E+00 -0.19727450540E+04  0.19727450540E+04  0.50400001928E-02 0. -1.
    10030    2    1    2    0    0  0.00000000000E+00  0.00000000000E+00 -0.17165295285E+04  0.22289605795E+04  0.14218971984E+04 0.  0.
        1    1    3    3  502    0 -0.68660600099E+03 -0.18379368302E+03 -0.83398006654E+03  0.10957785679E+04  0.50400001928E-02 0.  1.
       -1    1    3    3    0  502  0.68660600099E+03  0.18379368302E+03 -0.88254946200E+03  0.11331820116E+04  0.50400001928E-02 0. -1.
</event>
<event>
 5   0  0.4208577E-05  0.2414269E+04  0.7818609E-02  0.8434181E-01
        1   -1    0    0  501    0  0.00000000000E+00  0.00000000000E+00  0.21772377581E+04  0.21772377581E+04  0.50400001928E-02 0. -1.
       -1   -1    0    0    0  501  0.00000000000E+00  0.00000000000E+00 -0.66927636455E+03  0.66927636457E+03  0.50400001928E-02 0.  1.
    10030    2    1    2    0    0  0.00000000000E+00  0.00000000000E+00  0.15079613936E+04  0.28465141227E+04  0.24142690584E+04 0.  0.
        1    1    3    3  502    0  0.10984065077E+04 -0.43857200579E+03  0.10387408961E+04  0.15741108314E+04  0.50400001928E-02 0. -1.
       -1    1    3    3    0  502 -0.10984065077E+04  0.43857200579E+03  0.46922049746E+03  0.12724032913E+04  0.50400001928E-02 0.  1.
</event>
<event>
 5   0  0.4208577E-05  0.1710409E+04  0.7818609E-02  0.8755450E-01
       -1   -1    0    0    0  501  0.00000000000E+00  0.00000000000E+00  0.75757338899E+03  0.75757338901E+03  0.50400001928E-02 0.  1.
        1   -1    0    0  501    0  0.00000000000E+00  0.00000000000E+00 -0.96541737702E+03  0.96541737704E+03  0.50400001928E-02 0. -1.
    10030    2    1    2    0    0  0.00000000000E+00  0.00000000000E+00 -0.20784398804E+03  0.17229907660E+04  0.17104087396E+04 0.  0.
        1    1    3    3  502    0  0.57891480506E+03 -0.62384409062E+03 -0.18850820418E+03  0.87169899850E+03  0.50400001928E-02 0. -1.
       -1    1    3    3    0  502 -0.57891480506E+03  0.62384409062E+03 -0.19335783853E+02  0.85129176754E+03  0.50400001928E-02 0.  1.
</event>
<event>
 5   0  0.3934906E-05  0.2474907E+04  0.7818609E-02  0.8411980E-01
       -1   -1    0    0    0  501  0.00000000000E+00  0.00000000000E+00  0.11899595472E+04  0.11899595472E+04  0.50400001928E-02 0. -1.
        1   -1    0    0  501    0  0.00000000000E+00  0.00000000000E+00 -0.12868427130E+04  0.12868427130E+04  0.50400001928E-02 0.  1.
    10030    2    1    2    0    0  0.00000000000E+00  0.00000000000E+00 -0.96883165834E+02  0.24768022602E+04  0.24749066828E+04 0.  0.
        2    1    3    3  502    0  0.40969117410E+03  0.10990023044E+04 -0.44325337606E+03  0.12538446789E+04  0.25500000920E-02 0.  1.
       -2    1    3    3    0  502 -0.40969117410E+03 -0.10990023044E+04  0.34637021022E+03  0.12229575814E+04  0.25500000920E-02 0. -1.
</event>
<event>
 5   0  0.4018942E-05  0.2407477E+04  0.7818609E-02  0.8436710E-01
       -1   -1    0    0    0  501  0.00000000000E+00  0.00000000000E+00  0.10233784288E+04  0.10233784288E+04  0.50400001928E-02 0.  1.
        1   -1    0    0  501    0  0.00000000000E+00  0.00000000000E+00 -0.14158852768E+04  0.14158852768E+04  0.50400001928E-02 0. -1.
    10030    2    1    2    0    0  0.00000000000E+00  0.00000000000E+00 -0.39250684799E+03  0.24392637056E+04  0.24074770611E+04 0.  0.
        5    1    3    3  502    0 -0.70627526761E+03  0.79558904477E+03 -0.76687462548E+03  0.13114516625E+04  0.46999998093E+01 0. -1.
       -5    1    3    3    0  502  0.70627526761E+03 -0.79558904477E+03  0.37436777749E+03  0.11278120431E+04  0.46999998093E+01 0.  1.
</event>
<event>
 5   0  0.9182865E-05  0.2317885E+04  0.7818609E-02  0.8470902E-01
        2   -1    0    0  501    0  0.00000000000E+00  0.00000000000E+00  0.15370822139E+04  0.15370822139E+04  0.25500000920E-02 0. -1.
       -2   -1    0    0    0  501  0.00000000000E+00  0.00000000000E+00 -0.87382974941E+03  0.87382974941E+03  0.25500000920E-02 0.  1.
    10030    2    1    2    0    0  0.00000000000E+00  0.00000000000E+00  0.66325246448E+03  0.24109119633E+04  0.23178853861E+04 0.  0.
        3    1    3    3  502    0  0.57073569437E+03  0.10086646888E+04  0.33382491541E+03  0.12060608490E+04  0.10100000352E+00 0.  1.
       -3    1    3    3    0  502 -0.57073569437E+03 -0.10086646888E+04  0.32942754907E+03  0.12048511143E+04  0.10100000352E+00 0. -1.
</event>
<event>
 5   0  0.4061631E-05  0.1440728E+04  0.7818609E-02  0.8924854E-01
        1   -1    0    0  501    0  0.00000000000E+00  0.00000000000E+00  0.15720394751E+04  0.15720394751E+04  0.50400001928E-02 0. -1.
       -1   -1    0    0    0  501  0.00000000000E+00  0.00000000000E+00 -0.33009643094E+03  0.33009643098E+03  0.50400001928E-02 0.  1.
    10030    2    1    2    0    0  0.00000000000E+00  0.00000000000E+00  0.12419430442E+04  0.19021359061E+04  0.14407284547E+04 0.  0.
        3    1    3    3  502    0  0.69039225565E+03  0.17408494854E+03  0.76546353443E+03  0.10454097133E+04  0.10100000352E+00 0.  1.
       -3    1    3    3    0  502 -0.69039225565E+03 -0.17408494854E+03  0.47647950972E+03  0.85672619276E+03  0.10100000352E+00 0. -1.
</event>
<event>
 5   0  0.3934906E-05  0.2435502E+04  0.7818609E-02  0.8426331E-01
       -1   -1    0    0    0  501  0.00000000000E+00  0.00000000000E+00  0.14359459259E+04  0.14359459259E+04  0.50400001928E-02 0. -1.
        1   -1    0    0  501    0  0.00000000000E+00  0.00000000000E+00 -0.10327109828E+04  0.10327109828E+04  0.50400001928E-02 0.  1.
    10030    2    1    2    0    0  0.00000000000E+00  0.00000000000E+00  0.40323494310E+03  0.24686569088E+04  0.24355016966E+04 0.  0.
        2    1    3    3  502    0  0.35416866990E+03 -0.10529250753E+04 -0.30400233453E+03  0.11517395888E+04  0.25500000920E-02 0.  1.
       -2    1    3    3    0  502 -0.35416866990E+03  0.10529250753E+04  0.70723727763E+03  0.13169173200E+04  0.25500000920E-02 0. -1.
</event>
<event>
 5   0  0.9491680E-05  0.2411175E+04  0.7818609E-02  0.8435332E-01
       -2   -1    0    0    0  501  0.00000000000E+00  0.00000000000E+00  0.13784422193E+04  0.13784422193E+04  0.25500000920E-02 0.  1.
        2   -1    0    0  501    0  0.00000000000E+00  0.00000000000E+00 -0.10544088373E+04  0.10544088373E+04  0.25500000920E-02 0. -1.
    10030    2    1    2    0    0  0.00000000000E+00  0.00000000000E+00  0.32403338192E+03  0.24328510566E+04  0.24111753630E+04 0.  0.
        5    1    3    3  502    0  0.87903226916E+03  0.13719798152E+03  0.98290191674E+03  0.13257598894E+04  0.46999998093E+01 0.  1.
       -5    1    3    3    0  502 -0.87903226916E+03 -0.13719798152E+03 -0.65886853482E+03  0.11070911672E+04  0.46999998093E+01 0. -1.
</event>
<event>
 5   0  0.9182865E-05  0.2374740E+04  0.7818609E-02  0.8449022E-01
        2   -1    0    0  501    0  0.00000000000E+00  0.00000000000E+00  0.21135699696E+04  0.21135699696E+04  0.25500000920E-02 0. -1.
       -2   -1    0    0    0  501  0.00000000000E+00  0.00000000000E+00 -0.66704555067E+03  0.66704555068E+03  0.25500000920E-02 0.  1.
    10030    2    1    2    0    0  0.00000000000E+00  0.00000000000E+00  0.14465244189E+04  0.27806155203E+04  0.23747399388E+04 0.  0.
        3    1    3    3  502    0  0.33497157388E+03 -0.20648907381E+03  0.20350011049E+04  0.20726970835E+04  0.10100000352E+00 0. -1.
       -3    1    3    3    0  502 -0.33497157388E+03  0.20648907381E+03 -0.58847668599E+03  0.70791843674E+03  0.10100000352E+00 0.  1.
</event>
<event>
 5   0  0.4208577E-05  0.2422758E+04  0.7818609E-02  0.8431032E-01
       -1   -1    0    0    0  501  0.00000000000E+00  0.00000000000E+00  0.11551080983E+04  0.11551080984E+04  0.50400001928E-02 0.  1.
        1   -1    0    0  501    0  0.00000000000E+00  0.00000000000E+00 -0.12703909775E+04  0.12703909775E+04  0.50400001928E-02 0. -1.
    10030    2    1    2    0    0  0.00000000000E+00  0.00000000000E+00 -0.11528287917E+03  0.24254990759E+04  0.24227578552E+04 0.  0.
        1    1    3    3  502    0 -0.33875292078E+03  0.71110247582E+03 -0.97901890321E+03  0.12565421940E+04  0.50400001928E-02 0. -1.
       -1    1    3    3    0  502  0.33875292078E+03 -0.71110247582E+03  0.86373602403E+03  0.11689568819E+04  0.50400001928E-02 0.  1.
</event>
<event>
 5   0  0.9519092E-05  0.2428642E+04  0.7818609E-02  0.8428858E-01
        2   -1    0    0  501    0  0.00000000000E+00  0.00000000000E+00  0.13383802368E+04  0.13383802368E+04  0.25500000920E-02 0. -1.
       -2   -1    0    0    0  501  0.00000000000E+00  0.00000000000E+00 -0.11017612178E+04  0.11017612178E+04  0.25500000920E-02 0.  1.
    10030    2    1    2    0    0  0.00000000000E+00  0.00000000000E+00  0.23661901904E+03  0.24401414546E+04  0.24286419576E+04 0.  0.
        4    1    3    3  502    0 -0.72149612854E+03 -0.65297483825E+03 -0.61151893646E+03  0.11492997109E+04  0.12699999809E+01 0.  1.
       -4    1    3    3    0  502  0.72149612854E+03  0.65297483825E+03  0.84813795550E+03  0.12908417437E+04  0.12699999809E+01 0. -1.
</event>
<event>
 5   0  0.9144244E-05  0.2396766E+04  0.7818609E-02  0.8440715E-01
       -2   -1    0    0    0  501  0.00000000000E+00  0.00000000000E+00  0.76077081735E+03  0.76077081736E+03  0.25500000920E-02 0.  1.
        2   -1    0    0  501    0  0.00000000000E+00  0.00000000000E+00 -0.18877199468E+04  0.18877199468E+04  0.25500000920E-02 0. -1.
    10030    2    1    2    0    0  0.00000000000E+00  0.00000000000E+00 -0.11269491294E+04  0.26484907641E+04  0.23967663606E+04 0.  0.
        1    1    3    3  502    0  0.10560785561E+04  0.21854414885E+03  0.13957423543E+02  0.10785445153E+04  0.50400001928E-02 0.  1.
       -1    1    3    3    0  502 -0.10560785561E+04 -0.21854414885E+03 -0.11409065530E+04  0.15699462489E+04  0.50400001928E-02 0. -1.
</event>
<event>
 5   0  0.9182865E-05  0.2535411E+04  0.7818609E-02  0.8390478E-01
        2   -1    0    0  501    0  0.00000000000E+00  0.00000000000E+00  0.16553710861E+04  0.16553710861E+04  0.25500000920E-02 0. -1.
       -2   -1    0    0    0  501  0.00000000000E+00  0.00000000000E+00 -0.97082602189E+03  0.97082602190E+03  0.25500000920E-02 0.  1.
    10030    2    1    2    0    0  0.00000000000E+00  0.00000000000E+00  0.68454506416E+03  0.26261971080E+04  0.25354110722E+04 0.  0.
        3    1    3    3  502    0 -0.66425135719E+03 -0.21626334697E+02 -0.77590991429E+03  0.10216328935E+04  0.10100000352E+00 0.  1.
       -3    1    3    3    0  502  0.66425135719E+03  0.21626334697E+02  0.14604549785E+04  0.16045642144E+04  0.10100000352E+00 0. -1.
</event>
<event>
 5   0  0.4018942E-05  0.2113957E+04  0.7818609E-02  0.8555120E-01
        1   -1    0    0  501    0  0.00000000000E+00  0.00000000000E+00  0.60508502997E+03  0.60508503000E+03  0.50400001928E-02 0.  1.
       -1   -1    0    0    0  501  0.00000000000E+00  0.00000000000E+00 -0.18463582548E+04  0.18463582548E+04  0.50400001928E-02 0. -1.
    10030    2    1    2    0    0  0.00000000000E+00  0.00000000000E+00 -0.12412732248E+04  0.24514432848E+04  0.21139571802E+04 0.  0.
        5    1    3    3  502    0  0.54395454975E+03  0.12220997487E+03  0.42069751958E+03  0.69844851144E+03  0.46999998093E+01 0.  1.
       -5    1    3    3    0  502 -0.54395454975E+03 -0.12220997487E+03 -0.16619707444E+04  0.17529947733E+04  0.46999998093E+01 0. -1.
</event>
<event>
 5   0  0.3934906E-05  0.2388089E+04  0.7818609E-02  0.8443976E-01
       -1   -1    0    0    0  501  0.00000000000E+00  0.00000000000E+00  0.14282972685E+04  0.14282972685E+04  0.50400001928E-02 0. -1.
        1   -1    0    0  501    0  0.00000000000E+00  0.00000000000E+00 -0.99821126027E+03  0.99821126029E+03  0.50400001928E-02 0.  1.
    10030    2    1    2    0    0  0.00000000000E+00  0.00000000000E+00  0.43008600819E+03  0.24265085288E+04  0.23880891243E+04 0.  0.
        2    1    3    3  502    0  0.23835642289E+03 -0.45480366729E+03 -0.88029895986E+03  0.10191106019E+04  0.25500000920E-02 0.  1.
       -2    1    3    3    0  502 -0.23835642289E+03  0.45480366729E+03  0.13103849680E+04  0.14073979269E+04  0.25500000920E-02 0. -1.
</event>
<event>
 5   0  0.4061631E-05  0.2422076E+04  0.7818609E-02  0.8431284E-01
        1   -1    0    0  501    0  0.00000000000E+00  0.00000000000E+00  0.19921187573E+04  0.19921187573E+04  0.50400001928E-02 0. -1.
       -1   -1    0    0    0  501  0.00000000000E+00  0.00000000000E+00 -0.73620784157E+03  0.73620784159E+03  0.50400001928E-02 0.  1.
    10030    2    1    2    0    0  0.00000000000E+00  0.00000000000E+00  0.12559109157E+04  0.27283265989E+04  0.24220763411E+04 0.  0.
        3    1    3    3  502    0 -0.19122417642E+03 -0.10634463815E+04  0.11874960170E+02  0.10805674051E+04  0.10100000352E+00 0.  1.
       -3    1    3    3    0  502  0.19122417642E+03  0.10634463815E+04  0.12440359556E+04  0.16477591939E+04  0.10100000352E+00 0. -1.
</event>
<event>
 5   0  0.9750757E-05  0.2371769E+04  0.7818609E-02  0.8450149E-01
        2   -1    0    0  501    0  0.00000000000E+00  0.00000000000E+00  0.12114443421E+04  0.12114443421E+04  0.25500000920E-02 0.  1.
       -2   -1    0    0    0  501  0.00000000000E+00  0.00000000000E+00 -0.11608639505E+04  0.11608639505E+04  0.25500000920E-02 0. -1.
    10030    2    1    2    0    0  0.00000000000E+00  0.00000000000E+00  0.50580391567E+02  0.23723082927E+04  0.23717690148E+04 0.  0.
        2    1    3    3  502    0 -0.31024321281E+03 -0.22561902780E+03  0.11476715642E+04  0.12100846318E+04  0.25500000920E-02 0.  1.
       -2    1    3    3    0  502  0.31024321281E+03  0.22561902780E+03 -0.10970911726E+04  0.11622236609E+04  0.25500000920E-02 0. -1.
</event>
<event>
 5   0  0.9519092E-05  0.2288293E+04  0.7818609E-02  0.8482551E-01
        2   -1    0    0  501    0  0.00000000000E+00  0.00000000000E+00  0.21037352256E+04  0.21037352256E+04  0.25500000920E-02 0.  1.
       -2   -1    0    0    0  501  0.00000000000E+00  0.00000000000E+00 -0.62226034266E+03  0.62226034267E+03  0.25500000920E-02 0. -1.
    10030    2    1    2    0    0  0.00000000000E+00  0.00000000000E+00  0.14814748830E+04  0.27259955683E+04  0.22882928155E+04 0.  0.
        4    1    3    3  502    0 -0.88497173907E+03  0.12633481412E+03  0.15914258231E+04  0.18253145558E+04  0.12699999809E+01 0.  1.
       -4    1    3    3    0  502  0.88497173907E+03 -0.12633481412E+03 -0.10995094011E+03  0.90068101254E+03  0.12699999809E+01 0. -1.
</event>
<event>
 5   0  0.3934906E-05  0.1661465E+04  0.7818609E-02  0.8783652E-01
       -1   -1    0    0    0  501  0.00000000000E+00  0.00000000000E+00  0.40745395372E+03  0.40745395376E+03  0.50400001928E-02 0.  1.
        1   -1    0    0  501    0  0.00000000000E+00  0.00000000000E+00 -0.16937295242E+04  0.16937295242E+04  0.50400001928E-02 0. -1.
    10030    2    1    2    0    0  0.00000000000E+00  0.00000000000E+00 -0.12862755705E+04  0.21011834780E+04  0.16614653667E+04 0.  0.
        2    1    3    3  502    0 -0.55629940157E+02 -0.81810911481E+03 -0.47479311843E+03  0.94753665854E+03  0.25500000920E-02 0. -1.
       -2    1    3    3    0  502  0.55629940157E+02  0.81810911481E+03 -0.81148245205E+03  0.11536468194E+04  0.25500000920E-02 0.  1.
</event>
<event>
 5   0  0.4018942E-05  0.2380130E+04  0.7818609E-02  0.8446980E-01
        1   -1    0    0  501    0  0.00000000000E+00  0.00000000000E+00  0.18216153185E+04  0.18216153185E+04  0.50400001928E-02 0. -1.
       -1   -1    0    0    0  501  0.00000000000E+00  0.00000000000E+00 -0.77747214845E+03  0.77747214846E+03  0.50400001928E-02 0.  1.
    10030    2    1    2    0    0  0.00000000000E+00  0.00000000000E+00  0.10441431700E+04  0.25990874669E+04  0.23801303959E+04 0.  0.
        5    1    3    3  502    0  0.90855623916E+03  0.62494490807E+03  0.33469967100E+02  0.11032555944E+04  0.46999998093E+01 0.  1.
       -5    1    3    3    0  502 -0.90855623916E+03 -0.62494490807E+03  0.10106732029E+04  0.14958318725E+04  0.46999998093E+01 0. -1.
</event>
<event>
 5   0  0.3934906E-05  0.1999228E+04  0.7818609E-02  0.8606982E-01
        1   -1    0    0  501    0  0.00000000000E+00  0.00000000000E+00  0.95902416304E+03  0.95902416305E+03  0.50400001928E-02 0.  1.
       -1   -1    0    0    0  501  0.00000000000E+00  0.00000000000E+00 -0.10419215770E+04  0.10419215770E+04  0.50400001928E-02 0. -1.
    10030    2    1    2    0    0  0.00000000000E+00  0.00000000000E+00 -0.82897413938E+02  0.20009457400E+04  0.19992278193E+04 0.  0.
        2    1    3    3  502    0  0.87961865163E+03 -0.42841977696E+03 -0.24645511119E+03  0.10089661042E+04  0.25500000920E-02 0.  1.
       -2    1    3    3    0  502 -0.87961865163E+03  0.42841977696E+03  0.16355769725E+03  0.99197963584E+03  0.25500000920E-02 0. -1.
</event>
<event>
 5   0  0.9750757E-05  0.1706615E+04  0.7818609E-02  0.8757601E-01
        2   -1    0    0  501    0  0.00000000000E+00  0.00000000000E+00  0.14048829852E+04  0.14048829853E+04  0.25500000920E-02 0. -1.
       -2   -1    0    0    0  501  0.00000000000E+00  0.00000000000E+00 -0.51828773867E+03  0.51828773868E+03  0.25500000920E-02 0.  1.
    10030    2    1    2    0    0  0.00000000000E+00  0.00000000000E+00  0.88659524657E+03  0.19231707239E+04  0.17066149250E+04 0.  0.
        2    1    3    3  502    0 -0.13265009381E+03  0.48913350204E+02  0.13915925245E+04  0.13987559893E+04  0.25500000920E-02 0. -1.
       -2    1    3    3    0  502  0.13265009381E+03 -0.48913350204E+02 -0.50499727793E+03  0.52441473467E+03  0.25500000920E-02 0.  1.
</event>
<event>
 5   0  0.9182865E-05  0.2408810E+04  0.7818609E-02  0.8436213E-01
        2   -1    0    0  501    0  0.00000000000E+00  0.00000000000E+00  0.90602040623E+03  0.90602040623E+03  0.25500000920E-02 0. -1.
       -2   -1    0    0    0  501  0.00000000000E+00  0.00000000000E+00 -0.16010581599E+04  0.16010581599E+04  0.25500000920E-02 0.  1.
    10030    2    1    2    0    0  0.00000000000E+00  0.00000000000E+00 -0.69503775370E+03  0.25070785662E+04  0.24088099672E+04 0.  0.
        3    1    3    3  502    0 -0.66021812627E+03  0.62217262570E+03  0.47701492598E+03  0.10249536576E+04  0.10100000352E+00 0. -1.
       -3    1    3    3    0  502  0.66021812627E+03 -0.62217262570E+03 -0.11720526797E+04  0.14821249086E+04  0.10100000352E+00 0.  1.
</event>
<event>
 5   0  0.9750757E-05  0.2351345E+04  0.7818609E-02  0.8457947E-01
        2   -1    0    0  501    0  0.00000000000E+00  0.00000000000E+00  0.15362317875E+04  0.15362317875E+04  0.25500000920E-02 0.  1.
       -2   -1    0    0    0  501  0.00000000000E+00  0.00000000000E+00 -0.89973803908E+03  0.89973803908E+03  0.25500000920E-02 0. -1.
    10030    2    1    2    0    0  0.00000000000E+00  0.00000000000E+00  0.63649374842E+03  0.24359698266E+04  0.23513452967E+04 0.  0.
        2    1    3    3  502    0 -0.89501825276E+03 -0.75417260847E+03  0.43348033572E+03  0.12480942262E+04  0.25500000920E-02 0.  1.
       -2    1    3    3    0  502  0.89501825276E+03  0.75417260847E+03  0.20301341270E+03  0.11878756003E+04  0.25500000920E-02 0. -1.
</event>
<event>
 5   0  0.4061631E-05  0.2365907E+04  0.7818609E-02  0.8452379E-01
       -1   -1    0    0    0  501  0.00000000000E+00  0.00000000000E+00  0.10111135963E+04  0.10111135963E+04  0.50400001928E-02 0. -1.
        1   -1    0    0  501    0  0.00000000000E+00  0.00000000000E+00 -0.13839978410E+04  0.13839978410E+04  0.50400001928E-02 0.  1.
    10030    2    1    2    0    0  0.00000000000E+00  0.00000000000E+00 -0.37288424469E+03  0.23951114373E+04  0.23659070432E+04 0.  0.
        3    1    3    3  502    0 -0.27419299134E+03  0.11213974910E+04 -0.44782470586E+03  0.12382492103E+04  0.10100000352E+00 0. -1.
       -3    1    3    3    0  502  0.27419299134E+03 -0.11213974910E+04  0.74940461169E+02  0.11568622270E+04  0.10100000352E+00 0.  1.
</event>
<event>
 5   0  0.4018942E-05  0.2379936E+04  0.7818609E-02  0.8447054E-01
        1   -1    0    0  501    0  0.00000000000E+00  0.00000000000E+00  0.10692756658E+04  0.10692756658E+04  0.50400001928E-02 0. -1.
       -1   -1    0    0    0  501  0.00000000000E+00  0.00000000000E+00 -0.13242834200E+04  0.13242834200E+04  0.50400001928E-02 0.  1.
    10030    2    1    2    0    0  0.00000000000E+00  0.00000000000E+00 -0.25500775421E+03  0.23935590859E+04  0.23799361636E+04 0.  0.
        5    1    3    3  502    0 -0.64494183946E+03  0.95440098143E+03 -0.42782786370E+03  0.12287758057E+04  0.46999998093E+01 0.  1.
       -5    1    3    3    0  502  0.64494183946E+03 -0.95440098143E+03  0.17282010950E+03  0.11647832802E+04  0.46999998093E+01 0. -1.
</event>
<event>
 5   0  0.9491680E-05  0.2440700E+04  0.7818609E-02  0.8424421E-01
       -2   -1    0    0    0  501  0.00000000000E+00  0.00000000000E+00  0.10479968604E+04  0.10479968604E+04  0.25500000920E-02 0. -1.
        2   -1    0    0  501    0  0.00000000000E+00  0.00000000000E+00 -0.14210485347E+04  0.14210485347E+04  0.25500000920E-02 0.  1.
    10030    2    1    2    0    0  0.00000000000E+00  0.00000000000E+00 -0.37305167429E+03  0.24690453951E+04  0.24407002297E+04 0.  0.
        5    1    3    3  502    0 -0.11328720253E+04 -0.21425054284E+03  0.21803104206E+03  0.11733976079E+04  0.46999998093E+01 0. -1.
       -5    1    3    3    0  502  0.11328720253E+04  0.21425054284E+03 -0.59108271635E+03  0.12956477872E+04  0.46999998093E+01 0.  1.
</event>
<event>
 5   0  0.4018942E-05  0.2406163E+04  0.7818609E-02  0.8437200E-01
        1   -1    0    0  501    0  0.00000000000E+00  0.00000000000E+00  0.13661043552E+04  0.13661043552E+04  0.50400001928E-02 0. -1.
       -1   -1    0    0    0  501  0.00000000000E+00  0.00000000000E+00 -0.10595131009E+04  0.10595131009E+04  0.50400001928E-02 0.  1.
    10030    2    1    2    0    0  0.00000000000E+00  0.00000000000E+00  0.30659125429E+03  0.24256174560E+04  0.24061633041E+04 0.  0.
        5    1    3    3  502    0  0.43891114279E+02  0.89494286283E+02 -0.10553340073E+04  0.10600413266E+04  0.46999998093E+01 0.  1.
       -5    1    3    3    0  502 -0.43891114279E+02 -0.89494286283E+02  0.13619252616E+04  0.13655761294E+04  0.46999998093E+01 0. -1.
</event>
<event>
 5   0  0.3934906E-05  0.2326224E+04  0.7818609E-02  0.8467653E-01
       -1   -1    0    0    0  501  0.00000000000E+00  0.00000000000E+00  0.94114164744E+03  0.94114164745E+03  0.50400001928E-02 0.  1.
        1   -1    0    0  501    0  0.00000000000E+00  0.00000000000E+00 -0.14374347384E+04  0.14374347384E+04  0.50400001928E-02 0. -1.
    10030    2    1    2    0    0  0.00000000000E+00  0.00000000000E+00 -0.49629309092E+03  0.23785763858E+04  0.23262241489E+04 0.  0.
        2    1    3    3  502    0  0.10777300962E+04  0.42144465300E+03 -0.36787986560E+03  0.12142707076E+04  0.25500000920E-02 0. -1.
       -2    1    3    3    0  502 -0.10777300962E+04 -0.42144465300E+03 -0.12841322532E+03  0.11643056782E+04  0.25500000920E-02 0.  1.
</event>
<event>
 5   0  0.9491680E-05  0.1424178E+04  0.7818609E-02  0.8936501E-01
        2   -1    0    0  501    0  0.00000000000E+00  0.00000000000E+00  0.20299571868E+04  0.20299571868E+04  0.25500000920E-02 0.  1.
       -2   -1    0    0    0  501  0.00000000000E+00  0.00000000000E+00 -0.24979380177E+03  0.24979380178E+03  0.25500000920E-02 0. -1.
    10030    2    1    2    0    0  0.00000000000E+00  0.00000000000E+00  0.17801633850E+04  0.22797509886E+04  0.14241779708E+04 0.  0.
        5    1    3    3  502    0 -0.56100255211E+03 -0.11064361126E+03  0.15693779457E+04  0.16703098810E+04  0.46999998093E+01 0.  1.
       -5    1    3    3    0  502  0.56100255211E+03  0.11064361126E+03  0.21078543937E+03  0.60944110760E+03  0.46999998093E+01 0. -1.
</event>
<event>
 5   0  0.4208577E-05  0.2456656E+04  0.7818609E-02  0.8418592E-01
       -1   -1    0    0    0  501  0.00000000000E+00  0.00000000000E+00  0.10972920852E+04  0.10972920852E+04  0.50400001928E-02 0. -1.
        1   -1    0    0  501    0  0.00000000000E+00  0.00000000000E+00 -0.13750124038E+04  0.13750124038E+04  0.50400001928E-02 0.  1.
    10030    2    1    2    0    0  0.00000000000E+00  0.00000000000E+00 -0.27772031861E+03  0.24723044890E+04  0.24566564495E+04 0.  0.
        1    1    3    3  502    0 -0.42705609999E+03 -0.54599681662E+03  0.88165066495E+03  0.11215156403E+04  0.50400001928E-02 0. -1.
       -1    1    3    3    0  502  0.42705609999E+03  0.54599681662E+03 -0.11593709836E+04  0.13507888487E+04  0.50400001928E-02 0.  1.
</event>
<event>
 5   0  0.9182865E-05  0.1994935E+04  0.7818609E-02  0.8608992E-01
       -2   -1    0    0    0  501  0.00000000000E+00  0.00000000000E+00  0.94937474666E+03  0.94937474666E+03  0.25500000920E-02 0.  1.
        2   -1    0    0  501    0  0.00000000000E+00  0.00000000000E+00 -0.10479964042E+04  0.10479964042E+04  0.25500000920E-02 0. -1.
    10030    2    1    2    0    0  0.00000000000E+00  0.00000000000E+00 -0.98621657543E+02  0.19973711509E+04  0.19949349070E+04 0.  0.
        3    1    3    3  502    0 -0.68419017731E+03 -0.71472361518E+03 -0.17593766984E+03  0.10049378681E+04  0.10100000352E+00 0. -1.
       -3    1    3    3    0  502  0.68419017731E+03  0.71472361518E+03  0.77316012298E+02  0.99243328279E+03  0.10100000352E+00 0.  1.
</event>
<event>
 5   0  0.9144244E-05  0.2457570E+04  0.7818609E-02  0.8418259E-01
       -2   -1    0    0    0  501  0.00000000000E+00  0.00000000000E+00  0.62808775534E+03  0.62808775534E+03  0.25500000920E-02 0. -1.
        2   -1    0    0  501    0  0.00000000000E+00  0.00000000000E+00 -0.24039833927E+04  0.24039833927E+04  0.25500000920E-02 0.  1.
    10030    2    1    2    0    0  0.00000000000E+00  0.00000000000E+00 -0.17758956373E+04  0.30320711480E+04  0.24575699648E+04 0.  0.
        1    1    3    3  502    0  0.62100099342E+03  0.35143995491E+03 -0.21221847069E+04  0.22389328275E+04  0.50400001928E-02 0.  1.
       -1    1    3    3    0  502 -0.62100099342E+03 -0.35143995491E+03  0.34628906958E+03  0.79313832052E+03  0.50400001928E-02 0. -1.
</event>
<event>
 5   0  0.9182865E-05  0.2373064E+04  0.7818609E-02  0.8449657E-01
        2   -1    0    0  501    0  0.00000000000E+00  0.00000000000E+00  0.14246332459E+04  0.14246332459E+04  0.25500000920E-02 0.  1.
       -2   -1    0    0    0  501  0.00000000000E+00  0.00000000000E+00 -0.98822520263E+03  0.98822520263E+03  0.25500000920E-02 0. -1.
    10030    2    1    2    0    0  0.00000000000E+00  0.00000000000E+00  0.43640804332E+03  0.24128584486E+04  0.23730642454E+04 0.  0.
        3    1    3    3  502    0 -0.41403146392E+03  0.61945330900E+03 -0.72070615993E+03  0.10366107439E+04  0.10100000352E+00 0. -1.
       -3    1    3    3    0  502  0.41403146392E+03 -0.61945330900E+03  0.11571142032E+04  0.13762477047E+04  0.10100000352E+00 0.  1.
</event>
<event>
 5   0  0.3934906E-05  0.2406440E+04  0.7818609E-02  0.8437096E-01
       -1   -1    0    0    0  501  0.00000000000E+00  0.00000000000E+00  0.81211500497E+03  0.81211500498E+03  0.50400001928E-02 0. -1.
        1   -1    0    0  501    0  0.00000000000E+00  0.00000000000E+00 -0.17826765120E+04  0.17826765120E+04  0.50400001928E-02 0.  1.
    10030    2    1    2    0    0  0.00000000000E+00  0.00000000000E+00 -0.97056150703E+03  0.25947915170E+04  0.24064399801E+04 0.  0.
        2    1    3    3  502    0  0.20336984002E+03  0.63934578028E+03 -0.15622644867E+04  0.17002331149E+04  0.25500000920E-02 0.  1.
       -2    1    3    3    0  502 -0.20336984002E+03 -0.63934578028E+03  0.59170297967E+03  0.89455840209E+03  0.25500000920E-02 0. -1.
</event>
<event>
 5   0  0.9519092E-05  0.2097173E+04  0.7818609E-02  0.8562490E-01
        2   -1    0    0  501    0  0.00000000000E+00  0.00000000000E+00  0.12006398759E+04  0.12006398759E+04  0.25500000920E-02 0.  1.
       -2   -1    0    0    0  501  0.00000000000E+00  0.00000000000E+00 -0.91579010015E+03  0.91579010016E+03  0.25500000920E-02 0. -1.
    10030    2    1    2    0    0  0.00000000000E+00  0.00000000000E+00  0.28484977578E+03  0.21164299761E+04  0.20971734427E+04 0.  0.
        4    1    3    3  502    0  0.41409534757E+03  0.94405989580E+03  0.33604182805E+03  0.10842738431E+04  0.12699999809E+01 0.  1.
       -4    1    3    3    0  502 -0.41409534757E+03 -0.94405989580E+03 -0.51192052267E+02  0.10321561330E+04  0.12699999809E+01 0. -1.
</event>
<event>
 5   0  0.4018942E-05  0.2384986E+04  0.7818609E-02  0.8445146E-01
        1   -1    0    0  501    0  0.00000000000E+00  0.00000000000E+00  0.12253081026E+04  0.12253081026E+04  0.50400001928E-02 0.  1.
       -1   -1    0    0    0  501  0.00000000000E+00  0.00000000000E+00 -0.11605567651E+04  0.11605567651E+04  0.50400001928E-02 0. -1.
    10030    2    1    2    0    0  0.00000000000E+00  0.00000000000E+00  0.64751337434E+02  0.23858648677E+04  0.23849860442E+04 0.  0.
        5    1    3    3  502    0 -0.17555668124E+03 -0.10013247111E+04 -0.59118875408E+03  0.11760091659E+04  0.46999998093E+01 0. -1.
       -5    1    3    3    0  502  0.17555668124E+03  0.10013247111E+04  0.65594009151E+03  0.12098557018E+04  0.46999998093E+01 0.  1.
</event>
<event>
 5   0  0.3934906E-05  0.1721884E+04  0.7818609E-02  0.8748980E-01
        1   -1    0    0  501    0  0.00000000000E+00  0.00000000000E+00  0.10808490470E+04  0.10808490470E+04  0.50400001928E-02 0.  1.
       -1   -1    0    0    0  501  0.00000000000E+00  0.00000000000E+00 -0.68577690309E+03  0.68577690311E+03  0.50400001928E-02 0. -1.
    10030    2    1    2    0    0  0.00000000000E+00  0.00000000000E+00  0.39507214393E+03  0.17666259501E+04  0.17218842147E+04 0.  0.
        2    1    3    3  502    0 -0.25923906781E+03  0.27457033664E+03 -0.59627839633E+03  0.70579153436E+03  0.25500000920E-02 0. -1.
       -2    1    3    3    0  502  0.25923906781E+03 -0.27457033664E+03  0.99135054026E+03  0.10608344158E+04  0.25500000920E-02 0.  1.
</event>
<event>
 5   0  0.3934906E-05  0.2448980E+04  0.7818609E-02  0.8421391E-01
       -1   -1    0    0    0  501  0.00000000000E+00  0.00000000000E+00  0.13649457840E+04  0.13649457840E+04  0.50400001928E-02 0.  1.
        1   -1    0    0  501    0  0.00000000000E+00  0.00000000000E+00 -0.10984870822E+04  0.10984870822E+04  0.50400001928E-02 0. -1.
    10030    2    1    2    0    0  0.00000000000E+00  0.00000000000E+00  0.26645870187E+03  0.24634328662E+04  0.24489796338E+04 0.  0.
        2    1    3    3  502    0  0.12221949720E+04  0.68302654305E+02  0.16422531825E+03  0.12350691306E+04  0.25500000920E-02 0.  1.
       -2    1    3    3    0  502 -0.12221949720E+04 -0.68302654305E+02  0.10223338362E+03  0.12283637356E+04  0.25500000920E-02 0. -1.
</event>
<event>
 5   0  0.4061631E-05  0.2383570E+04  0.7818609E-02  0.8445680E-01
       -1   -1    0    0    0  501  0.00000000000E+00  0.00000000000E+00  0.96470119702E+03  0.96470119703E+03  0.50400001928E-02 0. -1.
        1   -1    0    0  501    0  0.00000000000E+00  0.00000000000E+00 -0.14723230196E+04  0.14723230196E+04  0.50400001928E-02 0.  1.
    10030    2    1    2    0    0  0.00000000000E+00  0.00000000000E+00 -0.50762182254E+03  0.24370242166E+04  0.23835702460E+04 0.  0.
        3    1    3    3  502    0 -0.11906033679E+04  0.21620488789E+02 -0.30335316390E+03  0.12288315497E+04  0.10100000352E+00 0. -1.
       -3    1    3    3    0  502  0.11906033679E+04 -0.21620488789E+02 -0.20426865864E+03  0.12081926669E+04  0.10100000352E+00 0.  1.
</event>
<event>
 5   0  0.4018942E-05  0.2891914E+04  0.7818609E-02  0.8275287E-01
        1   -1    0    0  501    0  0.00000000000E+00  0.00000000000E+00  0.13985837576E+04  0.13985837576E+04  0.50400001928E-02 0.  1.
       -1   -1    0    0    0  501  0.00000000000E+00  0.00000000000E+00 -0.14949349130E+04  0.14949349130E+04  0.50400001928E-02 0. -1.
    10030    2    1    2    0    0  0.00000000000E+00  0.00000000000E+00 -0.96351155432E+02  0.28935186706E+04  0.28919140292E+04 0.  0.
        5    1    3    3  502    0 -0.60281780679E+03 -0.12487423875E+04  0.36195763641E+03  0.14331023268E+04  0.46999998093E+01 0. -1.
       -5    1    3    3    0  502  0.60281780679E+03  0.12487423875E+04 -0.45830879185E+03  0.14604163438E+04  0.46999998093E+01 0.  1.
</event>
<event>
 5   0  0.9491680E-05  0.2361271E+04  0.7818609E-02  0.8454147E-01
        2   -1    0    0  501    0  0.00000000000E+00  0.00000000000E+00  0.16793629443E+04  0.16793629443E+04  0.25500000920E-02 0.  1.
       -2   -1    0    0    0  501  0.00000000000E+00  0.00000000000E+00 -0.83001718772E+03  0.83001718773E+03  0.25500000920E-02 0. -1.
    10030    2    1    2    0    0  0.00000000000E+00  0.00000000000E+00  0.84934575662E+03  0.25093801321E+04  0.23612709360E+04 0.  0.
        5    1    3    3  502    0  0.51835007230E+03  0.97174500916E+03 -0.27332234808E+02  0.11017006405E+04  0.46999998093E+01 0.  1.
       -5    1    3    3    0  502 -0.51835007230E+03 -0.97174500916E+03  0.87667799143E+03  0.14076794915E+04  0.46999998093E+01 0. -1.
</event>
<event>
 5   0  0.4061631E-05  0.2416051E+04  0.7818609E-02  0.8433519E-01
       -1   -1    0    0    0  501  0.00000000000E+00  0.00000000000E+00  0.11246913097E+04  0.11246913097E+04  0.50400001928E-02 0. -1.
        1   -1    0    0  501    0  0.00000000000E+00  0.00000000000E+00 -0.12975345718E+04  0.12975345718E+04  0.50400001928E-02 0.  1.
    10030    2    1    2    0    0  0.00000000000E+00  0.00000000000E+00 -0.17284326207E+03  0.24222258815E+04  0.24160512055E+04 0.  0.
        3    1    3    3  502    0 -0.18283625471E+02  0.32627295698E+03 -0.12523803261E+04  0.12943124911E+04  0.10100000352E+00 0.  1.
       -3    1    3    3    0  502  0.18283625471E+02 -0.32627295698E+03  0.10795370640E+04  0.11279133904E+04  0.10100000352E+00 0. -1.
</event>
<event>
 5   0  0.4018942E-05  0.2578591E+04  0.7818609E-02  0.8375510E-01
       -1   -1    0    0    0  501  0.00000000000E+00  0.00000000000E+00  0.10361219734E+04  0.10361219734E+04  0.50400001928E-02 0. -1.
        1   -1    0    0  501    0  0.00000000000E+00  0.00000000000E+00 -0.16043311158E+04  0.16043311158E+04  0.50400001928E-02 0.  1.
    10030    2    1    2    0    0  0.00000000000E+00  0.00000000000E+00 -0.56820914245E+03  0.26404530892E+04  0.25785908723E+04 0.  0.
        5    1    3    3  502    0 -0.90351938429E+02 -0.11370344634E+04  0.33135540466E+03  0.11877833717E+04  0.46999998093E+01 0. -1.
       -5    1    3    3    0  502  0.90351938429E+02  0.11370344634E+04 -0.89956454710E+03  0.14526697175E+04  0.46999998093E+01 0.  1.
</event>
<event>
 5   0  0.4260395E-05  0.2235684E+04  0.7818609E-02  0.8503721E-01
       -1   -1    0    0    0  501  0.00000000000E+00  0.00000000000E+00  0.11086721080E+04  0.11086721080E+04  0.50400001928E-02 0.  1.
        1   -1    0    0  501    0  0.00000000000E+00  0.00000000000E+00 -0.11270881417E+04  0.11270881417E+04  0.50400001928E-02 0. -1.
    10030    2    1    2    0    0  0.00000000000E+00  0.00000000000E+00 -0.18416033723E+02  0.22357602497E+04  0.22356844016E+04 0.  0.
        4    1    3    3  502    0  0.44878883353E+03 -0.70641575559E+03  0.73185351690E+03  0.11117759756E+04  0.12699999809E+01 0.  1.
       -4    1    3    3    0  502 -0.44878883353E+03  0.70641575559E+03 -0.75026955062E+03  0.11239842741E+04  0.12699999809E+01 0. -1.
</event>
<event>
 5   0  0.3934906E-05  0.2345802E+04  0.7818609E-02  0.8460078E-01
       -1   -1    0    0    0  501  0.00000000000E+00  0.00000000000E+00  0.55455000381E+03  0.55455000384E+03  0.50400001928E-02 0. -1.
        1   -1    0    0  501    0  0.00000000000E+00  0.00000000000E+00 -0.24807441280E+04  0.24807441280E+04  0.50400001928E-02 0.  1.
    10030    2    1    2    0    0  0.00000000000E+00  0.00000000000E+00 -0.19261941242E+04  0.30352941318E+04  0.23458019232E+04 0.  0.
        2    1    3    3  502    0 -0.72431131999E+03  0.10546070690E+03 -0.21489630061E+04  0.22701962141E+04  0.25500000920E-02 0.  1.
       -2    1    3    3    0  502  0.72431131999E+03 -0.10546070690E+03  0.22276888191E+03  0.76509791773E+03  0.25500000920E-02 0. -1.
</event>
<event>
 5   0  0.9750757E-05  0.2223587E+04  0.7818609E-02  0.8508674E-01
        2   -1    0    0  501    0  0.00000000000E+00  0.00000000000E+00  0.76814153456E+03  0.76814153456E+03  0.25500000920E-02 0. -1.
       -2   -1    0    0    0  501  0.00000000000E+00  0.00000000000E+00 -0.16091884832E+04  0.16091884832E+04  0.25500000920E-02 0.  1.
    10030    2    1    2    0    0  0.00000000000E+00  0.00000000000E+00 -0.84104694859E+03  0.23773300177E+04  0.22235867519E+04 0.  0.
        2    1    3    3  502    0  0.10159099508E+04 -0.12803676457E+03  0.42574336284E+02  0.10248312131E+04  0.25500000920E-02 0. -1.
       -2    1    3    3    0  502 -0.10159099508E+04  0.12803676457E+03 -0.88362128488E+03  0.13524988046E+04  0.25500000920E-02 0.  1.
</event>
<event>
 5   0  0.9182865E-05  0.2317045E+04  0.7818609E-02  0.8471231E-01
        2   -1    0    0  501    0  0.00000000000E+00  0.00000000000E+00  0.18944088926E+04  0.18944088926E+04  0.25500000920E-02 0.  1.
       -2   -1    0    0    0  501  0.00000000000E+00  0.00000000000E+00 -0.70849229498E+03  0.70849229499E+03  0.25500000920E-02 0. -1.
    10030    2    1    2    0    0  0.00000000000E+00  0.00000000000E+00  0.11859165976E+04  0.26029011876E+04  0.23170447592E+04 0.  0.
        3    1    3    3  502    0 -0.80197866087E+03 -0.71065780016E+03  0.98203140221E+02  0.10760335257E+04  0.10100000352E+00 0. -1.
       -3    1    3    3    0  502  0.80197866087E+03  0.71065780016E+03  0.10877134574E+04  0.15268676619E+04  0.10100000352E+00 0.  1.
</event>
<event>
 5   0  0.9519092E-05  0.2773357E+04  0.7818609E-02  0.8311588E-01
       -2   -1    0    0    0  501  0.00000000000E+00  0.00000000000E+00  0.83255940829E+03  0.83255940830E+03  0.25500000920E-02 0. -1.
        2   -1    0    0  501    0  0.00000000000E+00  0.00000000000E+00 -0.23095974984E+04  0.23095974984E+04  0.25500000920E-02 0.  1.
    10030    2    1    2    0    0  0.00000000000E+00  0.00000000000E+00 -0.14770380901E+04  0.31421569067E+04  0.27733569021E+04 0.  0.
        4    1    3    3  502    0 -0.61924619755E+03 -0.84717948641E+03  0.28849845782E+03  0.10883068999E+04  0.12699999809E+01 0. -1.
       -4    1    3    3    0  502  0.61924619755E+03  0.84717948641E+03 -0.17655365479E+04  0.20538500068E+04  0.12699999809E+01 0.  1.
</event>
<event>
 5   0  0.4018942E-05  0.2432786E+04  0.7818609E-02  0.8427330E-01
       -1   -1    0    0    0  501  0.00000000000E+00  0.00000000000E+00  0.13570140969E+04  0.13570140969E+04  0.50400001928E-02 0. -1.
        1   -1    0    0  501    0  0.00000000000E+00  0.00000000000E+00 -0.10903441727E+04  0.10903441727E+04  0.50400001928E-02 0.  1.
    10030    2    1    2    0    0  0.00000000000E+00  0.00000000000E+00  0.26666992420E+03  0.24473582695E+04  0.24327863965E+04 0.  0.
        5    1    3    3  502    0  0.60413059716E+02 -0.24325108255E+03 -0.10640758370E+04  0.10932064324E+04  0.46999998093E+01 0.  1.
       -5    1    3    3    0  502 -0.60413059716E+02  0.24325108255E+03  0.13307457612E+04  0.13541518371E+04  0.46999998093E+01 0. -1.
</event>
<event>
 5   0  0.9144244E-05  0.2493920E+04  0.7818609E-02  0.8405155E-01
        2   -1    0    0  501    0  0.00000000000E+00  0.00000000000E+00  0.18193318916E+04  0.18193318916E+04  0.25500000920E-02 0.  1.
       -2   -1    0    0    0  501  0.00000000000E+00  0.00000000000E+00 -0.85465964723E+03  0.85465964724E+03  0.25500000920E-02 0. -1.
    10030    2    1    2    0    0  0.00000000000E+00  0.00000000000E+00  0.96467224438E+03  0.26739915389E+04  0.24939202495E+04 0.  0.
        1    1    3    3  502    0  0.11968354765E+04 -0.21860454335E+03  0.77539609998E+03  0.14427204220E+04  0.50400001928E-02 0.  1.
       -1    1    3    3    0  502 -0.11968354765E+04  0.21860454335E+03  0.18927614440E+03  0.12312711168E+04  0.50400001928E-02 0. -1.
</event>
<event>
 5   0  0.9491680E-05  0.1458740E+04  0.7818609E-02  0.8912364E-01
       -2   -1    0    0    0  501  0.00000000000E+00  0.00000000000E+00  0.34185534892E+03  0.34185534892E+03  0.25500000920E-02 0. -1.
        2   -1    0    0  501    0  0.00000000000E+00  0.00000000000E+00 -0.15561570310E+04  0.15561570310E+04  0.25500000920E-02 0.  1.
    10030    2    1    2    0    0  0.00000000000E+00  0.00000000000E+00 -0.12143016821E+04  0.18980123799E+04  0.14587400108E+04 0.  0.
        5    1    3    3  502    0 -0.33645103460E+03  0.45197053484E+03 -0.45684713330E+01  0.56348879668E+03  0.46999998093E+01 0. -1.
       -5    1    3    3    0  502  0.33645103460E+03 -0.45197053484E+03 -0.12097332107E+04  0.13345235832E+04  0.46999998093E+01 0.  1.
</event>
<event>
 5   0  0.4260395E-05  0.2365092E+04  0.7818609E-02  0.8452689E-01
        1   -1    0    0  501    0  0.00000000000E+00  0.00000000000E+00  0.16893292588E+04  0.16893292588E+04  0.50400001928E-02 0. -1.
       -1   -1    0    0    0  501  0.00000000000E+00  0.00000000000E+00 -0.82779339602E+03  0.82779339604E+03  0.50400001928E-02 0.  1.
    10030    2    1    2    0    0  0.00000000000E+00  0.00000000000E+00  0.86153586282E+03  0.25171226549E+04  0.23650924753E+04 0.  0.
        4    1    3    3  502    0 -0.55475271000E+03  0.15359384108E+03 -0.66862562248E+03  0.88227176834E+03  0.12699999809E+01 0.  1.
       -4    1    3    3    0  502  0.55475271000E+03 -0.15359384108E+03  0.15301614853E+04  0.16348508865E+04  0.12699999809E+01 0. -1.
</event>
<event>
 5   0  0.3934906E-05  0.1227959E+04  0.7818609E-02  0.9088730E-01
       -1   -1    0    0    0  501  0.00000000000E+00  0.00000000000E+00  0.30361646767E+03  0.30361646771E+03  0.50400001928E-02 0.  1.
        1   -1    0    0  501    0  0.00000000000E+00  0.00000000000E+00 -0.12416017379E+04  0.12416017380E+04  0.50400001928E-02 0. -1.
    10030    2    1    2    0    0  0.00000000000E+00  0.00000000000E+00 -0.93798527028E+03  0.15452182057E+04  0.12279588494E+04 0.  0.
        2    1    3    3  502    0 -0.16714833264E+03 -0.28062130600E+03 -0.11232009393E+04  0.11697295553E+04  0.25500000920E-02 0. -1.
       -2    1    3    3    0  502  0.16714833264E+03  0.28062130600E+03  0.18521566903E+03  0.37548865035E+03  0.25500000920E-02 0.  1.
</event>
<event>
 5   0  0.3934906E-05  0.2353163E+04  0.7818609E-02  0.8457250E-01
        1   -1    0    0  501    0  0.00000000000E+00  0.00000000000E+00  0.11617669823E+04  0.11617669823E+04  0.50400001928E-02 0.  1.
       -1   -1    0    0    0  501  0.00000000000E+00  0.00000000000E+00 -0.11915853304E+04  0.11915853304E+04  0.50400001928E-02 0. -1.
    10030    2    1    2    0    0  0.00000000000E+00  0.00000000000E+00 -0.29818348103E+02  0.23533523128E+04  0.23531633972E+04 0.  0.
        2    1    3    3  502    0 -0.57829004117E+03  0.19959945139E+03  0.99020145153E+03  0.11639408178E+04  0.25500000920E-02 0.  1.
       -2    1    3    3    0  502  0.57829004117E+03 -0.19959945139E+03 -0.10200197996E+04  0.11894114950E+04  0.25500000920E-02 0. -1.
</event>
<event>
 5   0  0.4018942E-05  0.2442591E+04  0.7818609E-02  0.8423728E-01
       -1   -1    0    0    0  501  0.00000000000E+00  0.00000000000E+00  0.13928547455E+04  0.13928547456E+04  0.50400001928E-02 0.  1.
        1   -1    0    0  501    0  0.00000000000E+00  0.00000000000E+00 -0.10708669815E+04  0.10708669816E+04  0.50400001928E-02 0. -1.
    10030    2    1    2    0    0  0.00000000000E+00  0.00000000000E+00  0.32198776400E+03  0.24637217271E+04  0.24425905569E+04 0.  0.
        5    1    3    3  502    0 -0.16451571719E+03 -0.57947760269E+02  0.13802176839E+04  0.13912031876E+04  0.46999998093E+01 0.  1.
       -5    1    3    3    0  502  0.16451571719E+03  0.57947760269E+02 -0.10582299199E+04  0.10725185395E+04  0.46999998093E+01 0. -1.
</event>
<event>
 5   0  0.3934906E-05  0.2357918E+04  0.7818609E-02  0.8455429E-01
        1   -1    0    0  501    0  0.00000000000E+00  0.00000000000E+00  0.20311478948E+04  0.20311478948E+04  0.50400001928E-02 0. -1.
       -1   -1    0    0    0  501  0.00000000000E+00  0.00000000000E+00 -0.68431475599E+03  0.68431475601E+03  0.50400001928E-02 0.  1.
    10030    2    1    2    0    0  0.00000000000E+00  0.00000000000E+00  0.13468331388E+04  0.27154626508E+04  0.23579181292E+04 0.  0.
        2    1    3    3  502    0 -0.61261240196E+03  0.28119695140E+02  0.18330055099E+04  0.19328719233E+04  0.25500000920E-02 0. -1.
       -2    1    3    3    0  502  0.61261240196E+03 -0.28119695140E+02 -0.48617237117E+03  0.78259072751E+03  0.25500000920E-02 0.  1.
</event>
<event>
 5   0  0.9750757E-05  0.2316526E+04  0.7818609E-02  0.8471434E-01
        2   -1    0    0  501    0  0.00000000000E+00  0.00000000000E+00  0.17617084722E+04  0.17617084723E+04  0.25500000920E-02 0. -1.
       -2   -1    0    0    0  501  0.00000000000E+00  0.00000000000E+00 -0.76151822084E+03  0.76151822084E+03  0.25500000920E-02 0.  1.
    10030    2    1    2    0    0  0.00000000000E+00  0.00000000000E+00  0.10001902514E+04  0.25232266931E+04  0.23165259346E+04 0.  0.
        2    1    3    3  502    0  0.46022163786E+03 -0.10468754060E+04  0.29978056595E+03  0.11822099896E+04  0.25500000920E-02 0. -1.
       -2    1    3    3    0  502 -0.46022163786E+03  0.10468754060E+04  0.70040968546E+03  0.13410167035E+04  0.25500000920E-02 0.  1.
</event>
<event>
 5   0  0.9750757E-05  0.2431326E+04  0.7818609E-02  0.8427868E-01
       -2   -1    0    0    0  501  0.00000000000E+00  0.00000000000E+00  0.56171913325E+03  0.56171913325E+03  0.25500000920E-02 0. -1.
        2   -1    0    0  501    0  0.00000000000E+00  0.00000000000E+00 -0.26309168271E+04  0.26309168271E+04  0.25500000920E-02 0.  1.
    10030    2    1    2    0    0  0.00000000000E+00  0.00000000000E+00 -0.20691976938E+04  0.31926359603E+04  0.24313258274E+04 0.  0.
        2    1    3    3  502    0 -0.50079458493E+03 -0.95571664489E+03 -0.29919369720E+03  0.11196903099E+04  0.25500000920E-02 0. -1.
       -2    1    3    3    0  502  0.50079458493E+03  0.95571664489E+03 -0.17700039966E+04  0.20729456504E+04  0.25500000920E-02 0.  1.
</event>
<event>
 5   0  0.9182865E-05  0.2370252E+04  0.7818609E-02  0.8450726E-01
        2   -1    0    0  501    0  0.00000000000E+00  0.00000000000E+00  0.13082651028E+04  0.13082651028E+04  0.25500000920E-02 0. -1.
       -2   -1    0    0    0  501  0.00000000000E+00  0.00000000000E+00 -0.10735769354E+04  0.10735769354E+04  0.25500000920E-02 0.  1.
    10030    2    1    2    0    0  0.00000000000E+00  0.00000000000E+00  0.23468816737E+03  0.23818420382E+04  0.23702516658E+04 0.  0.
        3    1    3    3  502    0  0.11632113923E+04  0.20646212640E+03  0.21180307917E+03  0.12002282730E+04  0.10100000352E+00 0. -1.
       -3    1    3    3    0  502 -0.11632113923E+04 -0.20646212640E+03  0.22885088202E+02  0.11816137652E+04  0.10100000352E+00 0.  1.
</event>
<event>
 5   0  0.4208577E-05  0.2381772E+04  0.7818609E-02  0.8446360E-01
        1   -1    0    0  501    0  0.00000000000E+00  0.00000000000E+00  0.10857713140E+04  0.10857713140E+04  0.50400001928E-02 0.  1.
       -1   -1    0    0    0  501  0.00000000000E+00  0.00000000000E+00 -0.13061768423E+04  0.13061768423E+04  0.50400001928E-02 0. -1.
    10030    2    1    2    0    0  0.00000000000E+00  0.00000000000E+00 -0.22040552831E+03  0.23919481563E+04  0.23817719004E+04 0.  0.
        1    1    3    3  502    0 -0.55770167322E+03 -0.10281870116E+04  0.11438109617E+03  0.11752798485E+04  0.50400001928E-02 0.  1.
       -1    1    3    3    0  502  0.55770167322E+03  0.10281870116E+04 -0.33478662448E+03  0.12166683078E+04  0.50400001928E-02 0. -1.
</event>
<event>
 5   0  0.3934906E-05  0.2372800E+04  0.7818609E-02  0.8449757E-01
        1   -1    0    0  501    0  0.00000000000E+00  0.00000000000E+00  0.10031183890E+04  0.10031183891E+04  0.50400001928E-02 0.  1.
       -1   -1    0    0    0  501  0.00000000000E+00  0.00000000000E+00 -0.14031696632E+04  0.14031696632E+04  0.50400001928E-02 0. -1.
    10030    2    1    2    0    0  0.00000000000E+00  0.00000000000E+00 -0.40005127417E+03  0.24062880523E+04  0.23728002800E+04 0.  0.
        2    1    3    3  502    0 -0.67567481755E+03  0.53226781469E+03 -0.10286869333E+04  0.13409109934E+04  0.25500000920E-02 0. -1.
       -2    1    3    3    0  502  0.67567481755E+03 -0.53226781469E+03  0.62863565910E+03  0.10653770588E+04  0.25500000920E-02 0.  1.
</event>
<event>
 5   0  0.3934906E-05  0.2400769E+04  0.7818609E-02  0.8439216E-01
        1   -1    0    0  501    0  0.00000000000E+00  0.00000000000E+00  0.11625720366E+04  0.11625720366E+04  0.50400001928E-02 0.  1.
       -1   -1    0    0    0  501  0.00000000000E+00  0.00000000000E+00 -0.12394272116E+04  0.12394272116E+04  0.50400001928E-02 0. -1.
    10030    2    1    2    0    0  0.00000000000E+00  0.00000000000E+00 -0.76855174974E+02  0.24019992483E+04  0.24007693914E+04 0.  0.
        2    1    3    3  502    0  0.11501224562E+04 -0.21757277524E+03  0.22779863531E+03  0.11924813605E+04  0.25500000920E-02 0.  1.
       -2    1    3    3    0  502 -0.11501224562E+04  0.21757277524E+03 -0.30465381029E+03  0.12095178878E+04  0.25500000920E-02 0. -1.
</event>
<event>
 5   0  0.9182865E-05  0.2403324E+04  0.7818609E-02  0.8438260E-01
        2   -1    0    0  501    0  0.00000000000E+00  0.00000000000E+00  0.16287282510E+04  0.16287282510E+04  0.25500000920E-02 0.  1.
       -2   -1    0    0    0  501  0.00000000000E+00  0.00000000000E+00 -0.88657603839E+03  0.88657603839E+03  0.25500000920E-02 0. -1.
    10030    2    1    2    0    0  0.00000000000E+00  0.00000000000E+00  0.74215221260E+03  0.25153042894E+04  0.24033238986E+04 0.  0.
        3    1    3    3  502    0 -0.21935250570E+03  0.10922972579E+04 -0.10019646231E+03  0.11186009846E+04  0.10100000352E+00 0. -1.
       -3    1    3    3    0  502  0.21935250570E+03 -0.10922972579E+04  0.84234867490E+03  0.13967033048E+04  0.10100000352E+00 0.  1.
</event>
<event>
 5   0  0.9750757E-05  0.2382164E+04  0.7818609E-02  0.8446211E-01
       -2   -1    0    0    0  501  0.00000000000E+00  0.00000000000E+00  0.96925641987E+03  0.96925641987E+03  0.25500000920E-02 0. -1.
        2   -1    0    0  501    0  0.00000000000E+00  0.00000000000E+00 -0.14636748984E+04  0.14636748984E+04  0.25500000920E-02 0.  1.
    10030    2    1    2    0    0  0.00000000000E+00  0.00000000000E+00 -0.49441847848E+03  0.24329313182E+04  0.23821639674E+04 0.  0.
        2    1    3    3  502    0 -0.56853749231E+03 -0.86664615547E+03 -0.84654230392E+03  0.13382616752E+04  0.25500000920E-02 0.  1.
       -2    1    3    3    0  502  0.56853749231E+03  0.86664615547E+03  0.35212382543E+03  0.10946696430E+04  0.25500000920E-02 0. -1.
</event>
<event>
 5   0  0.9750757E-05  0.2327514E+04  0.7818609E-02  0.8467151E-01
       -2   -1    0    0    0  501  0.00000000000E+00  0.00000000000E+00  0.17179592379E+04  0.17179592379E+04  0.25500000920E-02 0.  1.
        2   -1    0    0  501    0  0.00000000000E+00  0.00000000000E+00 -0.78833689727E+03  0.78833689727E+03  0.25500000920E-02 0. -1.
    10030    2    1    2    0    0  0.00000000000E+00  0.00000000000E+00  0.92962234067E+03  0.25062961352E+04  0.23275142580E+04 0.  0.
        2    1    3    3  502    0  0.70244492669E+03 -0.57870067257E+03 -0.31616165939E+03  0.96347368326E+03  0.25500000920E-02 0. -1.
       -2    1    3    3    0  502 -0.70244492669E+03  0.57870067257E+03  0.12457840001E+04  0.15428224520E+04  0.25500000920E-02 0.  1.
</event>
<event>
 5   0  0.4260395E-05  0.2380784E+04  0.7818609E-02  0.8446733E-01
       -1   -1    0    0    0  501  0.00000000000E+00  0.00000000000E+00  0.13815721131E+04  0.13815721131E+04  0.50400001928E-02 0. -1.
        1   -1    0    0  501    0  0.00000000000E+00  0.00000000000E+00 -0.10256672243E+04  0.10256672243E+04  0.50400001928E-02 0.  1.
    10030    2    1    2    0    0  0.00000000000E+00  0.00000000000E+00  0.35590488878E+03  0.24072393374E+04  0.23807841014E+04 0.  0.
        4    1    3    3  502    0  0.12943196723E+03  0.90460162721E+03 -0.59339736935E+03  0.10895773442E+04  0.12699999809E+01 0.  1.
       -4    1    3    3    0  502 -0.12943196723E+03 -0.90460162721E+03  0.94930225813E+03  0.13176619932E+04  0.12699999809E+01 0. -1.
</event>
<event>
 5   0  0.3234750E-05  0.2362821E+04  0.7818609E-02  0.8453555E-01
       -3   -1    0    0    0  501  0.00000000000E+00  0.00000000000E+00  0.75524263483E+03  0.75524264158E+03  0.10100000352E+00 0. -1.
        3   -1    0    0  501    0  0.00000000000E+00  0.00000000000E+00 -0.18480563493E+04  0.18480563521E+04  0.10100000352E+00 0.  1.
    10030    2    1    2    0    0  0.00000000000E+00  0.00000000000E+00 -0.10928137145E+04  0.26032989936E+04  0.23628211603E+04 0.  0.
        3    1    3    3  502    0 -0.33244135594E+03  0.86979496233E+03 -0.13475049606E+04  0.16379347242E+04  0.10100000352E+00 0.  1.
       -3    1    3    3    0  502  0.33244135594E+03 -0.86979496233E+03  0.25469124615E+03  0.96536426944E+03  0.10100000352E+00 0. -1.
</event>
<event>
 5   0  0.9144244E-05  0.2420599E+04  0.7818609E-02  0.8431832E-01
       -2   -1    0    0    0  501  0.00000000000E+00  0.00000000000E+00  0.10268301353E+04  0.10268301353E+04  0.25500000920E-02 0.  1.
        2   -1    0    0  501    0  0.00000000000E+00  0.00000000000E+00 -0.14265507398E+04  0.14265507398E+04  0.25500000920E-02 0. -1.
    10030    2    1    2    0    0  0.00000000000E+00  0.00000000000E+00 -0.39972060455E+03  0.24533808751E+04  0.24205993383E+04 0.  0.
        1    1    3    3  502    0  0.20094570359E+03  0.31765551887E+03 -0.13658931335E+04  0.14166680122E+04  0.50400001928E-02 0. -1.
       -1    1    3    3    0  502 -0.20094570359E+03 -0.31765551887E+03  0.96617252898E+03  0.10367128630E+04  0.50400001928E-02 0.  1.
</event>
<event>
 5   0  0.9182865E-05  0.2375702E+04  0.7818609E-02  0.8448657E-01
        2   -1    0    0  501    0  0.00000000000E+00  0.00000000000E+00  0.18850902659E+04  0.18850902659E+04  0.25500000920E-02 0. -1.
       -2   -1    0    0    0  501  0.00000000000E+00  0.00000000000E+00 -0.74850000373E+03  0.74850000374E+03  0.25500000920E-02 0.  1.
    10030    2    1    2    0    0  0.00000000000E+00  0.00000000000E+00  0.11365902621E+04  0.26335902696E+04  0.23757020613E+04 0.  0.
        3    1    3    3  502    0 -0.38927087327E+03  0.43868903485E+03  0.17133874872E+04  0.18109877343E+04  0.10100000352E+00 0. -1.
       -3    1    3    3    0  502  0.38927087327E+03 -0.43868903485E+03 -0.57679722509E+03  0.82260253534E+03  0.10100000352E+00 0.  1.
</event>
<event>
 5   0  0.3934906E-05  0.2381105E+04  0.7818609E-02  0.8446611E-01
       -1   -1    0    0    0  501  0.00000000000E+00  0.00000000000E+00  0.15297969064E+04  0.15297969065E+04  0.50400001928E-02 0.  1.
        1   -1    0    0  501    0  0.00000000000E+00  0.00000000000E+00 -0.92653843779E+03  0.92653843781E+03  0.50400001928E-02 0. -1.
    10030    2    1    2    0    0  0.00000000000E+00  0.00000000000E+00  0.60325846865E+03  0.24563353443E+04  0.23811053197E+04 0.  0.
        2    1    3    3  502    0  0.69746636204E+03 -0.33789084245E+03 -0.63068693881E+03  0.99919745916E+03  0.25500000920E-02 0. -1.
       -2    1    3    3    0  502 -0.69746636204E+03  0.33789084245E+03  0.12339454075E+04  0.14571378851E+04  0.25500000920E-02 0.  1.
</event>
<event>
 5   0  0.9182865E-05  0.2406545E+04  0.7818609E-02  0.8437057E-01
        2   -1    0    0  501    0  0.00000000000E+00  0.00000000000E+00  0.12370660581E+04  0.12370660581E+04  0.25500000920E-02 0.  1.
       -2   -1    0    0    0  501  0.00000000000E+00  0.00000000000E+00 -0.11704016200E+04  0.11704016200E+04  0.25500000920E-02 0. -1.
    10030    2    1    2    0    0  0.00000000000E+00  0.00000000000E+00  0.66664438079E+02  0.24074676781E+04  0.24065445090E+04 0.  0.
        3    1    3    3  502    0 -0.36360769867E+03  0.90492340567E+03  0.73841971728E+03  0.12232581975E+04  0.10100000352E+00 0.  1.
       -3    1    3    3    0  502  0.36360769867E+03 -0.90492340567E+03 -0.67175527920E+03  0.11842094806E+04  0.10100000352E+00 0. -1.
</event>
<event>
 5   0  0.9750757E-05  0.2343515E+04  0.7818609E-02  0.8460959E-01
       -2   -1    0    0    0  501  0.00000000000E+00  0.00000000000E+00  0.11684077644E+04  0.11684077644E+04  0.25500000920E-02 0.  1.
        2   -1    0    0  501    0  0.00000000000E+00  0.00000000000E+00 -0.11751167221E+04  0.11751167221E+04  0.25500000920E-02 0. -1.
    10030    2    1    2    0    0  0.00000000000E+00  0.00000000000E+00 -0.67089577661E+01  0.23435244865E+04  0.23435148834E+04 0.  0.
        2    1    3    3  502    0 -0.91672663372E+03 -0.58069815942E+02  0.72414810888E+03  0.11696795750E+04  0.25500000920E-02 0.  1.
       -2    1    3    3    0  502  0.91672663372E+03  0.58069815942E+02 -0.73085706665E+03  0.11738449115E+04  0.25500000920E-02 0. -1.
</event>
<event>
 5   0  0.9491680E-05  0.2436704E+04  0.7818609E-02  0.8425889E-01
       -2   -1    0    0    0  501  0.00000000000E+00  0.00000000000E+00  0.68152982807E+03  0.68152982808E+03  0.25500000920E-02 0.  1.
        2   -1    0    0  501    0  0.00000000000E+00  0.00000000000E+00 -0.21780137276E+04  0.21780137276E+04  0.25500000920E-02 0. -1.
    10030    2    1    2    0    0  0.00000000000E+00  0.00000000000E+00 -0.14964838995E+04  0.28595435557E+04  0.24367037746E+04 0.  0.
        5    1    3    3  502    0 -0.78218179523E+02  0.97851724389E+03  0.98608255820E+02  0.98658996463E+03  0.46999998093E+01 0.  1.
       -5    1    3    3    0  502  0.78218179523E+02 -0.97851724389E+03 -0.15950921553E+04  0.18729535910E+04  0.46999998093E+01 0. -1.
</event>
<event>
 5   0  0.4018942E-05  0.2412742E+04  0.7818609E-02  0.8434749E-01
        1   -1    0    0  501    0  0.00000000000E+00  0.00000000000E+00  0.13114238065E+04  0.13114238065E+04  0.50400001928E-02 0.  1.
       -1   -1    0    0    0  501  0.00000000000E+00  0.00000000000E+00 -0.11097331857E+04  0.11097331857E+04  0.50400001928E-02 0. -1.
    10030    2    1    2    0    0  0.00000000000E+00  0.00000000000E+00  0.20169062082E+03  0.24211569922E+04  0.24127416096E+04 0.  0.
        5    1    3    3  502    0 -0.82878794479E+03  0.37791771312E+03 -0.69286043794E+03  0.11444601049E+04  0.46999998093E+01 0. -1.
       -5    1    3    3    0  502  0.82878794479E+03 -0.37791771312E+03  0.89455105876E+03  0.12766968873E+04  0.46999998093E+01 0.  1.
</event>
<event>
 5   0  0.4018942E-05  0.2023285E+04  0.7818609E-02  0.8595811E-01
       -1   -1    0    0    0  501  0.00000000000E+00  0.00000000000E+00  0.23863940440E+04  0.23863940440E+04  0.50400001928E-02 0.  1.
        1   -1    0    0  501    0  0.00000000000E+00  0.00000000000E+00 -0.42885634341E+03  0.42885634344E+03  0.50400001928E-02 0. -1.
    10030    2    1    2    0    0  0.00000000000E+00  0.00000000000E+00  0.19575377006E+04  0.28152503875E+04  0.20232846796E+04 0.  0.
        5    1    3    3  502    0  0.54942927542E+03 -0.50942343625E+03  0.19245427061E+04  0.20652533703E+04  0.46999998093E+01 0.  1.
       -5    1    3    3    0  502 -0.54942927542E+03  0.50942343625E+03  0.32994994535E+02  0.74999701716E+03  0.46999998093E+01 0. -1.
</event>
<event>
 5   0  0.9144244E-05  0.2366427E+04  0.7818609E-02  0.8452181E-01
       -2   -1    0    0    0  501  0.00000000000E+00  0.00000000000E+00  0.63367529589E+03  0.63367529590E+03  0.25500000920E-02 0.  1.
        2   -1    0    0  501    0  0.00000000000E+00  0.00000000000E+00 -0.22093250493E+04  0.22093250493E+04  0.25500000920E-02 0. -1.
    10030    2    1    2    0    0  0.00000000000E+00  0.00000000000E+00 -0.15756497534E+04  0.28430003452E+04  0.23664274376E+04 0.  0.
        1    1    3    3  502    0 -0.81109356460E+03 -0.11917694026E+03  0.23717823911E+03  0.85342218788E+03  0.50400001928E-02 0. -1.
       -1    1    3    3    0  502  0.81109356460E+03  0.11917694026E+03 -0.18128279925E+04  0.19895781573E+04  0.50400001928E-02 0.  1.
</event>
<event>
 5   0  0.4260395E-05  0.1495379E+04  0.7818609E-02  0.8887532E-01
        1   -1    0    0  501    0  0.00000000000E+00  0.00000000000E+00  0.13167550056E+04  0.13167550056E+04  0.50400001928E-02 0.  1.
       -1   -1    0    0    0  501  0.00000000000E+00  0.00000000000E+00 -0.42455856589E+03  0.42455856592E+03  0.50400001928E-02 0. -1.
    10030    2    1    2    0    0  0.00000000000E+00  0.00000000000E+00  0.89219643973E+03  0.17413135715E+04  0.14953790380E+04 0.  0.
        4    1    3    3  502    0 -0.26129627149E+03  0.17375900318E+03  0.12363646848E+04  0.12755654352E+04  0.12699999809E+01 0.  1.
       -4    1    3    3    0  502  0.26129627149E+03 -0.17375900318E+03 -0.34416824509E+03  0.46574813635E+03  0.12699999809E+01 0. -1.
</event>
<event>
 5   0  0.9750757E-05  0.2452691E+04  0.7818609E-02  0.8420036E-01
       -2   -1    0    0    0  501  0.00000000000E+00  0.00000000000E+00  0.80358603017E+03  0.80358603017E+03  0.25500000920E-02 0.  1.
        2   -1    0    0  501    0  0.00000000000E+00  0.00000000000E+00 -0.18715142195E+04  0.18715142195E+04  0.25500000920E-02 0. -1.
    10030    2    1    2    0    0  0.00000000000E+00  0.00000000000E+00 -0.10679281894E+04  0.26751002497E+04  0.24526905081E+04 0.  0.
        2    1    3    3  502    0  0.50065799647E+03 -0.10491556492E+04 -0.95993942768E+03  0.15076039634E+04  0.25500000920E-02 0. -1.
       -2    1    3    3    0  502 -0.50065799647E+03  0.10491556492E+04 -0.10798876167E+03  0.11674962863E+04  0.25500000920E-02 0.  1.
</event>
<event>
 5   0  0.4208577E-05  0.2352805E+04  0.7818609E-02  0.8457387E-01
        1   -1    0    0  501    0  0.00000000000E+00  0.00000000000E+00  0.12901972014E+04  0.12901972014E+04  0.50400001928E-02 0.  1.
       -1   -1    0    0    0  501  0.00000000000E+00  0.00000000000E+00 -0.10726440585E+04  0.10726440585E+04  0.50400001928E-02 0. -1.
    10030    2    1    2    0    0  0.00000000000E+00  0.00000000000E+00  0.21755314295E+03  0.23628412599E+04  0.23528045923E+04 0.  0.
        1    1    3    3  502    0  0.12758754997E+03 -0.12991605705E+03 -0.10584056998E+04  0.10739550224E+04  0.50400001928E-02 0. -1.
       -1    1    3    3    0  502 -0.12758754997E+03  0.12991605705E+03  0.12759588427E+04  0.12888862375E+04  0.50400001928E-02 0.  1.
</event>
<event>
 5   0  0.9519092E-05  0.3204246E+04  0.7818609E-02  0.8187697E-01
       -2   -1    0    0    0  501  0.00000000000E+00  0.00000000000E+00  0.92436377509E+03  0.92436377509E+03  0.25500000920E-02 0. -1.
        2   -1    0    0  501    0  0.00000000000E+00  0.00000000000E+00 -0.27768266507E+04  0.27768266507E+04  0.25500000920E-02 0.  1.
    10030    2    1    2    0    0  0.00000000000E+00  0.00000000000E+00 -0.18524628756E+04  0.37011904258E+04  0.32042459117E+04 0.  0.
        4    1    3    3  502    0 -0.52826610944E+03  0.60888565278E+03 -0.25255149573E+04  0.26510439893E+04  0.12699999809E+01 0.  1.
       -4    1    3    3    0  502  0.52826610944E+03 -0.60888565278E+03  0.67305208171E+03  0.10501464365E+04  0.12699999809E+01 0. -1.
</event>
<event>
 5   0  0.4260395E-05  0.2176954E+04  0.7818609E-02  0.8528082E-01
        1   -1    0    0  501    0  0.00000000000E+00  0.00000000000E+00  0.95079768805E+03  0.95079768806E+03  0.50400001928E-02 0. -1.
       -1   -1    0    0    0  501  0.00000000000E+00  0.00000000000E+00 -0.12460931212E+04  0.12460931212E+04  0.50400001928E-02 0.  1.
    10030    2    1    2    0    0  0.00000000000E+00  0.00000000000E+00 -0.29529543313E+03  0.21968908093E+04  0.21769542565E+04 0.  0.
        4    1    3    3  502    0 -0.25415049608E+03 -0.53848160397E+03  0.77186410289E+03  0.97484907483E+03  0.12699999809E+01 0. -1.
       -4    1    3    3    0  502  0.25415049608E+03  0.53848160397E+03 -0.10671595360E+04  0.12220417344E+04  0.12699999809E+01 0.  1.
</event>
<event>
 5   0  0.3234750E-05  0.2058011E+04  0.7818609E-02  0.8579969E-01
        4   -1    0    0  501    0  0.00000000000E+00  0.00000000000E+00  0.96888507554E+03  0.96888590789E+03  0.12699999809E+01 0. -1.
       -4   -1    0    0    0  501  0.00000000000E+00  0.00000000000E+00 -0.10928550414E+04  0.10928557793E+04  0.12699999809E+01 0.  1.
    10030    2    1    2    0    0  0.00000000000E+00  0.00000000000E+00 -0.12396996581E+03  0.20617416872E+04  0.20580112323E+04 0.  0.
        4    1    3    3  502    0  0.24153643544E+03  0.96552440530E+03 -0.32375101462E+03  0.10466105098E+04  0.12699999809E+01 0.  1.
       -4    1    3    3    0  502 -0.24153643544E+03 -0.96552440530E+03  0.19978104881E+03  0.10151311774E+04  0.12699999809E+01 0. -1.
</event>
<event>
 5   0  0.4260395E-05  0.2011932E+04  0.7818609E-02  0.8601062E-01
        1   -1    0    0  501    0  0.00000000000E+00  0.00000000000E+00  0.53388223466E+03  0.53388223469E+03  0.50400001928E-02 0. -1.
       -1   -1    0    0    0  501  0.00000000000E+00  0.00000000000E+00 -0.18954883612E+04  0.18954883612E+04  0.50400001928E-02 0.  1.
    10030    2    1    2    0    0  0.00000000000E+00  0.00000000000E+00 -0.13616061266E+04  0.24293705959E+04  0.20119319691E+04 0.  0.
        4    1    3    3  502    0  0.92418991405E+03  0.38212787109E+03 -0.81206492090E+03  0.12882545384E+04  0.12699999809E+01 0. -1.
       -4    1    3    3    0  502 -0.92418991405E+03 -0.38212787109E+03 -0.54954120567E+03  0.11411160575E+04  0.12699999809E+01 0.  1.
</event>
<event>
 5   0  0.4018942E-05  0.2422509E+04  0.7818609E-02  0.8431124E-01
        1   -1    0    0  501    0  0.00000000000E+00  0.00000000000E+00  0.11098223145E+04  0.11098223145E+04  0.50400001928E-02 0. -1.
       -1   -1    0    0    0  501  0.00000000000E+00  0.00000000000E+00 -0.13219568791E+04  0.13219568791E+04  0.50400001928E-02 0.  1.
    10030    2    1    2    0    0  0.00000000000E+00  0.00000000000E+00 -0.21213456458E+03  0.24317791936E+04  0.24225088179E+04 0.  0.
        5    1    3    3  502    0  0.70771627577E+03 -0.44322063080E+02  0.87967239692E+03  0.11298992823E+04  0.46999998093E+01 0. -1.
       -5    1    3    3    0  502 -0.70771627577E+03  0.44322063080E+02 -0.10918069615E+04  0.13018799113E+04  0.46999998093E+01 0.  1.
</event>
<event>
 5   0  0.9144244E-05  0.1537005E+04  0.7818609E-02  0.8860211E-01
        2   -1    0    0  501    0  0.00000000000E+00  0.00000000000E+00  0.87579940289E+03  0.87579940290E+03  0.25500000920E-02 0.  1.
       -2   -1    0    0    0  501  0.00000000000E+00  0.00000000000E+00 -0.67435062723E+03  0.67435062723E+03  0.25500000920E-02 0. -1.
    10030    2    1    2    0    0  0.00000000000E+00  0.00000000000E+00  0.20144877566E+03  0.15501500301E+04  0.15370047192E+04 0.  0.
        1    1    3    3  502    0  0.75301845401E+03  0.26383464531E+02  0.25322272748E+03  0.79489284122E+03  0.50400001928E-02 0.  1.
       -1    1    3    3    0  502 -0.75301845401E+03 -0.26383464531E+02 -0.51773951816E+02  0.75525718891E+03  0.50400001928E-02 0. -1.
</event>
<event>
 5   0  0.4018942E-05  0.2405267E+04  0.7818609E-02  0.8437534E-01
       -1   -1    0    0    0  501  0.00000000000E+00  0.00000000000E+00  0.11437525065E+04  0.11437525065E+04  0.50400001928E-02 0. -1.
        1   -1    0    0  501    0  0.00000000000E+00  0.00000000000E+00 -0.12645452196E+04  0.12645452196E+04  0.50400001928E-02 0.  1.
    10030    2    1    2    0    0  0.00000000000E+00  0.00000000000E+00 -0.12079271305E+03  0.24082977261E+04  0.24052665253E+04 0.  0.
        5    1    3    3  502    0 -0.11621196495E+04 -0.33469482186E+02 -0.36845663056E+03  0.12196002069E+04  0.46999998093E+01 0.  1.
       -5    1    3    3    0  502  0.11621196495E+04  0.33469482186E+02  0.24766391751E+03  0.11886975192E+04  0.46999998093E+01 0. -1.
</event>
<event>
 5   0  0.9144244E-05  0.2392988E+04  0.7818609E-02  0.8442134E-01
        2   -1    0    0  501    0  0.00000000000E+00  0.00000000000E+00  0.16511666403E+04  0.16511666403E+04  0.25500000920E-02 0. -1.
       -2   -1    0    0    0  501  0.00000000000E+00  0.00000000000E+00 -0.86702171727E+03  0.86702171727E+03  0.25500000920E-02 0.  1.
    10030    2    1    2    0    0  0.00000000000E+00  0.00000000000E+00  0.78414492299E+03  0.25181883575E+04  0.23929875352E+04 0.  0.
        1    1    3    3  502    0 -0.58187713444E+03  0.75385759928E+03 -0.37019878538E+03  0.10217286432E+04  0.50400001928E-02 0.  1.
       -1    1    3    3    0  502  0.58187713444E+03 -0.75385759928E+03  0.11543437084E+04  0.14964597143E+04  0.50400001928E-02 0. -1.
</event>
<event>
 5   0  0.4061631E-05  0.1928817E+04  0.7818609E-02  0.8640644E-01
       -1   -1    0    0    0  501  0.00000000000E+00  0.00000000000E+00  0.10108974634E+04  0.10108974634E+04  0.50400001928E-02 0. -1.
        1   -1    0    0  501    0  0.00000000000E+00  0.00000000000E+00 -0.92005760696E+03  0.92005760698E+03  0.50400001928E-02 0.  1.
    10030    2    1    2    0    0  0.00000000000E+00  0.00000000000E+00  0.90839856457E+02  0.19309550704E+04  0.19288171516E+04 0.  0.
        3    1    3    3  502    0  0.88317686385E+03 -0.33486132224E+03 -0.14960465673E+03  0.95630279801E+03  0.10100000352E+00 0. -1.
       -3    1    3    3    0  502 -0.88317686385E+03  0.33486132224E+03  0.24044451319E+03  0.97465227240E+03  0.10100000352E+00 0.  1.
</event>
<event>
 5   0  0.4018942E-05  0.2382690E+04  0.7818609E-02  0.8446013E-01
        1   -1    0    0  501    0  0.00000000000E+00  0.00000000000E+00  0.10651104214E+04  0.10651104214E+04  0.50400001928E-02 0. -1.
       -1   -1    0    0    0  501  0.00000000000E+00  0.00000000000E+00 -0.13325403919E+04  0.13325403919E+04  0.50400001928E-02 0.  1.
    10030    2    1    2    0    0  0.00000000000E+00  0.00000000000E+00 -0.26742997058E+03  0.23976508133E+04  0.23826897896E+04 0.  0.
        5    1    3    3  502    0 -0.52363194851E+03 -0.85328538376E+03 -0.78352057054E+03  0.12713036373E+04  0.46999998093E+01 0.  1.
       -5    1    3    3    0  502  0.52363194851E+03  0.85328538376E+03  0.51609059997E+03  0.11263471761E+04  0.46999998093E+01 0. -1.
</event>
<event>
 5   0  0.9519092E-05  0.2339074E+04  0.7818609E-02  0.8462672E-01
       -2   -1    0    0    0  501  0.00000000000E+00  0.00000000000E+00  0.18941988770E+04  0.18941988770E+04  0.25500000920E-02 0. -1.
        2   -1    0    0  501    0  0.00000000000E+00  0.00000000000E+00 -0.72210815613E+03  0.72210815613E+03  0.25500000920E-02 0.  1.
    10030    2    1    2    0    0  0.00000000000E+00  0.00000000000E+00  0.11720907209E+04  0.26163070331E+04  0.23390737127E+04 0.  0.
        4    1    3    3  502    0  0.67851681569E+03 -0.13039662165E+02  0.16514402787E+04  0.17854444010E+04  0.12699999809E+01 0. -1.
       -4    1    3    3    0  502 -0.67851681569E+03  0.13039662165E+02 -0.47934955785E+03  0.83086263213E+03  0.12699999809E+01 0.  1.
</event>
<event>
 5   0  0.9750757E-05  0.2399791E+04  0.7818609E-02  0.8439582E-01
        2   -1    0    0  501    0  0.00000000000E+00  0.00000000000E+00  0.11771865058E+04  0.11771865058E+04  0.25500000920E-02 0.  1.
       -2   -1    0    0    0  501  0.00000000000E+00  0.00000000000E+00 -0.12230422626E+04  0.12230422626E+04  0.25500000920E-02 0. -1.
    10030    2    1    2    0    0  0.00000000000E+00  0.00000000000E+00 -0.45855756844E+02  0.24002287684E+04  0.23997906972E+04 0.  0.
        2    1    3    3  502    0  0.10959168698E+04 -0.44385818293E+03  0.18132736162E+03  0.11962121401E+04  0.25500000920E-02 0.  1.
       -2    1    3    3    0  502 -0.10959168698E+04  0.44385818293E+03 -0.22718311847E+03  0.12040166283E+04  0.25500000920E-02 0. -1.
</event>
<event>
 5   0  0.4260395E-05  0.1940373E+04  0.7818609E-02  0.8635017E-01
       -1   -1    0    0    0  501  0.00000000000E+00  0.00000000000E+00  0.75120235894E+03  0.75120235896E+03  0.50400001928E-02 0. -1.
        1   -1    0    0  501    0  0.00000000000E+00  0.00000000000E+00 -0.12530066018E+04  0.12530066018E+04  0.50400001928E-02 0.  1.
    10030    2    1    2    0    0  0.00000000000E+00  0.00000000000E+00 -0.50180424289E+03  0.20042089608E+04  0.19403726602E+04 0.  0.
        4    1    3    3  502    0 -0.79538727759E+03  0.33359406497E+03 -0.70973950125E+03  0.11169859865E+04  0.12699999809E+01 0.  1.
       -4    1    3    3    0  502  0.79538727759E+03 -0.33359406497E+03  0.20793525835E+03  0.88722297429E+03  0.12699999809E+01 0. -1.
</event>
<event>
 5   0  0.9491680E-05  0.2398215E+04  0.7818609E-02  0.8440172E-01
       -2   -1    0    0    0  501  0.00000000000E+00  0.00000000000E+00  0.89617222947E+03  0.89617222947E+03  0.25500000920E-02 0. -1.
        2   -1    0    0  501    0  0.00000000000E+00  0.00000000000E+00 -0.16044451791E+04  0.16044451791E+04  0.25500000920E-02 0.  1.
    10030    2    1    2    0    0  0.00000000000E+00  0.00000000000E+00 -0.70827294963E+03  0.25006174086E+04  0.23982153475E+04 0.  0.
        5    1    3    3  502    0 -0.35543737090E+03 -0.59029720977E+03  0.66911793755E+03  0.96048291231E+03  0.46999998093E+01 0. -1.
       -5    1    3    3    0  502  0.35543737090E+03  0.59029720977E+03 -0.13773908872E+04  0.15401344963E+04  0.46999998093E+01 0.  1.
</event>
<event>
 5   0  0.4208577E-05  0.2505762E+04  0.7818609E-02  0.8400936E-01
        1   -1    0    0  501    0  0.00000000000E+00  0.00000000000E+00  0.18181676345E+04  0.18181676345E+04  0.50400001928E-02 0. -1.
       -1   -1    0    0    0  501  0.00000000000E+00  0.00000000000E+00 -0.86334759714E+03  0.86334759715E+03  0.50400001928E-02 0.  1.
    10030    2    1    2    0    0  0.00000000000E+00  0.00000000000E+00  0.95482003738E+03  0.26815152317E+04  0.25057618869E+04 0.  0.
        1    1    3    3  502    0  0.29831123826E+03  0.11941551131E+04  0.72772808799E+03  0.14298895758E+04  0.50400001928E-02 0. -1.
       -1    1    3    3    0  502 -0.29831123826E+03 -0.11941551131E+04  0.22709194940E+03  0.12516256559E+04  0.50400001928E-02 0.  1.
</event>
<event>
 5   0  0.9519092E-05  0.2415935E+04  0.7818609E-02  0.8433562E-01
       -2   -1    0    0    0  501  0.00000000000E+00  0.00000000000E+00  0.10075008331E+04  0.10075008331E+04  0.25500000920E-02 0. -1.
        2   -1    0    0  501    0  0.00000000000E+00  0.00000000000E+00 -0.14483216477E+04  0.14483216477E+04  0.25500000920E-02 0.  1.
    10030    2    1    2    0    0  0.00000000000E+00  0.00000000000E+00 -0.44082081456E+03  0.24558224808E+04  0.24159348225E+04 0.  0.
        4    1    3    3  502    0 -0.86234030395E+03  0.20048573142E+03  0.61495961431E+03  0.10779620905E+04  0.12699999809E+01 0. -1.
       -4    1    3    3    0  502  0.86234030395E+03 -0.20048573142E+03 -0.10557804289E+04  0.13778603903E+04  0.12699999809E+01 0.  1.
</event>
<event>
 5   0  0.3934906E-05  0.2147864E+04  0.7818609E-02  0.8540447E-01
       -1   -1    0    0    0  501  0.00000000000E+00  0.00000000000E+00  0.15248501468E+04  0.15248501468E+04  0.50400001928E-02 0. -1.
        1   -1    0    0  501    0  0.00000000000E+00  0.00000000000E+00 -0.75635617345E+03  0.75635617347E+03  0.50400001928E-02 0.  1.
    10030    2    1    2    0    0  0.00000000000E+00  0.00000000000E+00  0.76849397332E+03  0.22812063202E+04  0.21478638897E+04 0.  0.
        2    1    3    3  502    0 -0.25785817402E+03 -0.70651976948E+03 -0.42993994335E+03  0.86631944308E+03  0.25500000920E-02 0.  1.
       -2    1    3    3    0  502  0.25785817402E+03  0.70651976948E+03  0.11984339167E+04  0.14148868772E+04  0.25500000920E-02 0. -1.
</event>
<event>
 5   0  0.3934906E-05  0.2204767E+04  0.7818609E-02  0.8516447E-01
        1   -1    0    0  501    0  0.00000000000E+00  0.00000000000E+00  0.98248400296E+03  0.98248400298E+03  0.50400001928E-02 0. -1.
       -1   -1    0    0    0  501  0.00000000000E+00  0.00000000000E+00 -0.12369149813E+04  0.12369149813E+04  0.50400001928E-02 0.  1.
    10030    2    1    2    0    0  0.00000000000E+00  0.00000000000E+00 -0.25443097834E+03  0.22193989843E+04  0.22047668196E+04 0.  0.
        2    1    3    3  502    0 -0.65044542801E+03  0.83178366080E+03 -0.44602839293E+03  0.11462480711E+04  0.25500000920E-02 0.  1.
       -2    1    3    3    0  502  0.65044542801E+03 -0.83178366080E+03  0.19159741459E+03  0.10731509132E+04  0.25500000920E-02 0. -1.
</event>
<event>
 5   0  0.9750757E-05  0.2460122E+04  0.7818609E-02  0.8417331E-01
        2   -1    0    0  501    0  0.00000000000E+00  0.00000000000E+00  0.12623561175E+04  0.12623561175E+04  0.25500000920E-02 0. -1.
       -2   -1    0    0    0  501  0.00000000000E+00  0.00000000000E+00 -0.11985923918E+04  0.11985923918E+04  0.25500000920E-02 0.  1.
    10030    2    1    2    0    0  0.00000000000E+00  0.00000000000E+00  0.63763725711E+02  0.24609485092E+04  0.24601223043E+04 0.  0.
        2    1    3    3  502    0 -0.62799115383E+03 -0.99510899570E+03  0.39038139888E+03  0.12397630577E+04  0.25500000920E-02 0. -1.
       -2    1    3    3    0  502  0.62799115383E+03  0.99510899570E+03 -0.32661767317E+03  0.12211854515E+04  0.25500000920E-02 0.  1.
</event>
<event>
 5   0  0.4018942E-05  0.2417483E+04  0.7818609E-02  0.8432987E-01
       -1   -1    0    0    0  501  0.00000000000E+00  0.00000000000E+00  0.11339248927E+04  0.11339248928E+04  0.50400001928E-02 0.  1.
        1   -1    0    0  501    0  0.00000000000E+00  0.00000000000E+00 -0.12884941319E+04  0.12884941320E+04  0.50400001928E-02 0. -1.
    10030    2    1    2    0    0  0.00000000000E+00  0.00000000000E+00 -0.15456923921E+03  0.24224190247E+04  0.24174826331E+04 0.  0.
        5    1    3    3  502    0  0.35142468435E+03 -0.16466819550E+03 -0.12243572647E+04  0.12844016993E+04  0.46999998093E+01 0. -1.
       -5    1    3    3    0  502 -0.35142468435E+03  0.16466819550E+03  0.10697880255E+04  0.11380173254E+04  0.46999998093E+01 0.  1.
</event>
<event>
 5   0  0.4208577E-05  0.2402839E+04  0.7818609E-02  0.8438442E-01
       -1   -1    0    0    0  501  0.00000000000E+00  0.00000000000E+00  0.13033277589E+04  0.13033277589E+04  0.50400001928E-02 0.  1.
        1   -1    0    0  501    0  0.00000000000E+00  0.00000000000E+00 -0.11074791925E+04  0.11074791925E+04  0.50400001928E-02 0. -1.
    10030    2    1    2    0    0  0.00000000000E+00  0.00000000000E+00  0.19584856639E+03  0.24108069514E+04  0.24028386330E+04 0.  0.
        1    1    3    3  502    0 -0.66897466334E+02  0.11954359175E+04  0.19758176911E+03  0.12134994271E+04  0.50400001928E-02 0.  1.
       -1    1    3    3    0  502  0.66897466334E+02 -0.11954359175E+04 -0.17332027142E+01  0.11973075244E+04  0.50400001928E-02 0. -1.
</event>
<event>
 5   0  0.4018942E-05  0.2428806E+04  0.7818609E-02  0.8428797E-01
        1   -1    0    0  501    0  0.00000000000E+00  0.00000000000E+00  0.14975372121E+04  0.14975372121E+04  0.50400001928E-02 0.  1.
       -1   -1    0    0    0  501  0.00000000000E+00  0.00000000000E+00 -0.98479997988E+03  0.98479997989E+03  0.50400001928E-02 0. -1.
    10030    2    1    2    0    0  0.00000000000E+00  0.00000000000E+00  0.51273723220E+03  0.24823371920E+04  0.24288059752E+04 0.  0.
        5    1    3    3  502    0 -0.93024577467E+03 -0.35366698695E+03 -0.45489714957E+03  0.10942536478E+04  0.46999998093E+01 0. -1.
       -5    1    3    3    0  502  0.93024577467E+03  0.35366698695E+03  0.96763438176E+03  0.13880835442E+04  0.46999998093E+01 0.  1.
</event>
<event>
 5   0  0.9750757E-05  0.2389632E+04  0.7818609E-02  0.8443395E-01
       -2   -1    0    0    0  501  0.00000000000E+00  0.00000000000E+00  0.58654463650E+03  0.58654463651E+03  0.25500000920E-02 0. -1.
        2   -1    0    0  501    0  0.00000000000E+00  0.00000000000E+00 -0.24338912597E+04  0.24338912597E+04  0.25500000920E-02 0.  1.
    10030    2    1    2    0    0  0.00000000000E+00  0.00000000000E+00 -0.18473466232E+04  0.30204358963E+04  0.23896324941E+04 0.  0.
        2    1    3    3  502    0  0.47227379744E+03  0.10710008174E+04 -0.62058122565E+03  0.13248420088E+04  0.25500000920E-02 0.  1.
       -2    1    3    3    0  502 -0.47227379744E+03 -0.10710008174E+04 -0.12267653976E+04  0.16955938875E+04  0.25500000920E-02 0. -1.
</event>
<event>
 5   0  0.9750757E-05  0.2368126E+04  0.7818609E-02  0.8451534E-01
       -2   -1    0    0    0  501  0.00000000000E+00  0.00000000000E+00  0.59206354165E+03  0.59206354165E+03  0.25500000920E-02 0.  1.
        2   -1    0    0  501    0  0.00000000000E+00  0.00000000000E+00 -0.23679984634E+04  0.23679984634E+04  0.25500000920E-02 0. -1.
    10030    2    1    2    0    0  0.00000000000E+00  0.00000000000E+00 -0.17759349218E+04  0.29600620051E+04  0.23681263116E+04 0.  0.
        2    1    3    3  502    0 -0.29606849668E+03  0.11082592974E+04 -0.12547626041E+04  0.17000954143E+04  0.25500000920E-02 0. -1.
       -2    1    3    3    0  502  0.29606849668E+03 -0.11082592974E+04 -0.52117231763E+03  0.12599665907E+04  0.25500000920E-02 0.  1.
</event>
<event>
 5   0  0.4208577E-05  0.2315823E+04  0.7818609E-02  0.8471708E-01
       -1   -1    0    0    0  501  0.00000000000E+00  0.00000000000E+00  0.91245657341E+03  0.91245657342E+03  0.50400001928E-02 0.  1.
        1   -1    0    0  501    0  0.00000000000E+00  0.00000000000E+00 -0.14693952466E+04  0.14693952466E+04  0.50400001928E-02 0. -1.
    10030    2    1    2    0    0  0.00000000000E+00  0.00000000000E+00 -0.55693867322E+03  0.23818518201E+04  0.23158232676E+04 0.  0.
        1    1    3    3  502    0  0.84874465408E+03 -0.74771170584E+03 -0.53315652684E+03  0.12504783745E+04  0.50400001928E-02 0.  1.
       -1    1    3    3    0  502 -0.84874465408E+03  0.74771170584E+03 -0.23782146386E+02  0.11313734456E+04  0.50400001928E-02 0. -1.
</event>
<event>
 5   0  0.9182865E-05  0.2346265E+04  0.7818609E-02  0.8459900E-01
        2   -1    0    0  501    0  0.00000000000E+00  0.00000000000E+00  0.18326057361E+04  0.18326057361E+04  0.25500000920E-02 0. -1.
       -2   -1    0    0    0  501  0.00000000000E+00  0.00000000000E+00 -0.75097416467E+03  0.75097416468E+03  0.25500000920E-02 0.  1.
    10030    2    1    2    0    0  0.00000000000E+00  0.00000000000E+00  0.10816315714E+04  0.25835799008E+04  0.23462647437E+04 0.  0.
        3    1    3    3  502    0  0.52910152858E+03 -0.60011770869E+03  0.14855899300E+04  0.16873254405E+04  0.10100000352E+00 0. -1.
       -3    1    3    3    0  502 -0.52910152858E+03  0.60011770869E+03 -0.40395835861E+03  0.89625446025E+03  0.10100000352E+00 0.  1.
</event>
<event>
 5   0  0.9182865E-05  0.2401815E+04  0.7818609E-02  0.8438824E-01
        2   -1    0    0  501    0  0.00000000000E+00  0.00000000000E+00  0.13598319950E+04  0.13598319950E+04  0.25500000920E-02 0. -1.
       -2   -1    0    0    0  501  0.00000000000E+00  0.00000000000E+00 -0.10605564358E+04  0.10605564358E+04  0.25500000920E-02 0.  1.
    10030    2    1    2    0    0  0.00000000000E+00  0.00000000000E+00  0.29927555920E+03  0.24203884308E+04  0.24018147921E+04 0.  0.
        3    1    3    3  502    0  0.72756576459E+03  0.90018077557E+03 -0.17299613200E+03  0.11703012614E+04  0.10100000352E+00 0.  1.
       -3    1    3    3    0  502 -0.72756576459E+03 -0.90018077557E+03  0.47227169120E+03  0.12500871694E+04  0.10100000352E+00 0. -1.
</event>
<event>
 5   0  0.9519092E-05  0.2487822E+04  0.7818609E-02  0.8407337E-01
        2   -1    0    0  501    0  0.00000000000E+00  0.00000000000E+00  0.16994648352E+04  0.16994648352E+04  0.25500000920E-02 0.  1.
       -2   -1    0    0    0  501  0.00000000000E+00  0.00000000000E+00 -0.91047186961E+03  0.91047186962E+03  0.25500000920E-02 0. -1.
    10030    2    1    2    0    0  0.00000000000E+00  0.00000000000E+00  0.78899296563E+03  0.26099367049E+04  0.24878222813E+04 0.  0.
        4    1    3    3  502    0 -0.17564928366E+03 -0.98590404296E+03  0.11685859580E+04  0.15389782997E+04  0.12699999809E+01 0.  1.
       -4    1    3    3    0  502  0.17564928366E+03  0.98590404296E+03 -0.37959299240E+03  0.10709584051E+04  0.12699999809E+01 0. -1.
</event>
<event>
 5   0  0.4260395E-05  0.2163602E+04  0.7818609E-02  0.8533732E-01
        1   -1    0    0  501    0  0.00000000000E+00  0.00000000000E+00  0.16815752020E+04  0.16815752020E+04  0.50400001928E-02 0. -1.
       -1   -1    0    0    0  501  0.00000000000E+00  0.00000000000E+00 -0.69595096777E+03  0.69595096778E+03  0.50400001928E-02 0.  1.
    10030    2    1    2    0    0  0.00000000000E+00  0.00000000000E+00  0.98562423424E+03  0.23775261698E+04  0.21636024489E+04 0.  0.
        4    1    3    3  502    0  0.70232225053E+03 -0.29847310739E+03  0.13354051581E+04  0.15380673876E+04  0.12699999809E+01 0. -1.
       -4    1    3    3    0  502 -0.70232225053E+03  0.29847310739E+03 -0.34978092390E+03  0.83945878222E+03  0.12699999809E+01 0.  1.
</event>
<event>
 5   0  0.4260395E-05  0.2443991E+04  0.7818609E-02  0.8423215E-01
       -1   -1    0    0    0  501  0.00000000000E+00  0.00000000000E+00  0.68813279572E+03  0.68813279574E+03  0.50400001928E-02 0.  1.
        1   -1    0    0  501    0  0.00000000000E+00  0.00000000000E+00 -0.21700365951E+04  0.21700365951E+04  0.50400001928E-02 0. -1.
    10030    2    1    2    0    0  0.00000000000E+00  0.00000000000E+00 -0.14819037994E+04  0.28581693909E+04  0.24439912840E+04 0.  0.
        4    1    3    3  502    0  0.24138485197E+03 -0.11684517366E+04 -0.43214675276E+03  0.12689753884E+04  0.12699999809E+01 0.  1.
       -4    1    3    3    0  502 -0.24138485197E+03  0.11684517366E+04 -0.10497570467E+04  0.15891940025E+04  0.12699999809E+01 0. -1.
</event>
<event>
 5   0  0.9491680E-05  0.2401153E+04  0.7818609E-02  0.8439072E-01
        2   -1    0    0  501    0  0.00000000000E+00  0.00000000000E+00  0.17914805842E+04  0.17914805842E+04  0.25500000920E-02 0.  1.
       -2   -1    0    0    0  501  0.00000000000E+00  0.00000000000E+00 -0.80457700917E+03  0.80457700917E+03  0.25500000920E-02 0. -1.
    10030    2    1    2    0    0  0.00000000000E+00  0.00000000000E+00  0.98690357504E+03  0.25960575934E+04  0.24011531317E+04 0.  0.
        5    1    3    3  502    0  0.71711090340E+02  0.43696762098E+03  0.16999530085E+04  0.17566859433E+04  0.46999998093E+01 0.  1.
       -5    1    3    3    0  502 -0.71711090340E+02 -0.43696762098E+03 -0.71304943351E+03  0.83937165004E+03  0.46999998093E+01 0. -1.
</event>
<event>
 5   0  0.4260395E-05  0.3011078E+04  0.7818609E-02  0.8240574E-01
        1   -1    0    0  501    0  0.00000000000E+00  0.00000000000E+00  0.28620097531E+04  0.28620097531E+04  0.50400001928E-02 0.  1.
       -1   -1    0    0    0  501  0.00000000000E+00  0.00000000000E+00 -0.79197784662E+03  0.79197784664E+03  0.50400001928E-02 0. -1.
    10030    2    1    2    0    0  0.00000000000E+00  0.00000000000E+00  0.20700319065E+04  0.36539875997E+04  0.30110784256E+04 0.  0.
        4    1    3    3  502    0 -0.14609780148E+04  0.28307622579E+03  0.75813830156E+03  0.16701389782E+04  0.12699999809E+01 0.  1.
       -4    1    3    3    0  502  0.14609780148E+04 -0.28307622579E+03  0.13118936049E+04  0.19838486215E+04  0.12699999809E+01 0. -1.
</event>
<event>
 5   0  0.9182865E-05  0.2348667E+04  0.7818609E-02  0.8458976E-01
       -2   -1    0    0    0  501  0.00000000000E+00  0.00000000000E+00  0.12051579489E+04  0.12051579489E+04  0.25500000920E-02 0. -1.
        2   -1    0    0  501    0  0.00000000000E+00  0.00000000000E+00 -0.11442978606E+04  0.11442978606E+04  0.25500000920E-02 0.  1.
    10030    2    1    2    0    0  0.00000000000E+00  0.00000000000E+00  0.60860088282E+02  0.23494558095E+04  0.23486674201E+04 0.  0.
        3    1    3    3  502    0  0.83791592908E+03 -0.68907649329E+03  0.48016981054E+03  0.11863779225E+04  0.10100000352E+00 0. -1.
       -3    1    3    3    0  502 -0.83791592908E+03  0.68907649329E+03 -0.41930972226E+03  0.11630778870E+04  0.10100000352E+00 0.  1.
</event>
<event>
 5   0  0.9491680E-05  0.1481308E+04  0.7818609E-02  0.8896979E-01
        2   -1    0    0  501    0  0.00000000000E+00  0.00000000000E+00  0.13367720237E+04  0.13367720237E+04  0.25500000920E-02 0.  1.
       -2   -1    0    0    0  501  0.00000000000E+00  0.00000000000E+00 -0.41036794134E+03  0.41036794135E+03  0.25500000920E-02 0. -1.
    10030    2    1    2    0    0  0.00000000000E+00  0.00000000000E+00  0.92640408237E+03  0.17471399651E+04  0.14813080482E+04 0.  0.
        5    1    3    3  502    0  0.31560317301E+03 -0.61070153319E+03  0.13808104651E+03  0.70117771702E+03  0.46999998093E+01 0. -1.
       -5    1    3    3    0  502 -0.31560317301E+03  0.61070153319E+03  0.78832303587E+03  0.10459622480E+04  0.46999998093E+01 0.  1.
</event>
<event>
 5   0  0.4260395E-05  0.2479509E+04  0.7818609E-02  0.8410322E-01
       -1   -1    0    0    0  501  0.00000000000E+00  0.00000000000E+00  0.10571076259E+04  0.10571076259E+04  0.50400001928E-02 0.  1.
        1   -1    0    0  501    0  0.00000000000E+00  0.00000000000E+00 -0.14539594977E+04  0.14539594977E+04  0.50400001928E-02 0. -1.
    10030    2    1    2    0    0  0.00000000000E+00  0.00000000000E+00 -0.39685187180E+03  0.25110671236E+04  0.24795093649E+04 0.  0.
        4    1    3    3  502    0  0.45837235914E+03  0.11437204369E+04 -0.33724128683E+03  0.12774720959E+04  0.12699999809E+01 0. -1.
       -4    1    3    3    0  502 -0.45837235914E+03 -0.11437204369E+04 -0.59610584963E+02  0.12335950276E+04  0.12699999809E+01 0.  1.
</event>
<event>
 5   0  0.4061631E-05  0.2003038E+04  0.7818609E-02  0.8605202E-01
        1   -1    0    0  501    0  0.00000000000E+00  0.00000000000E+00  0.13441306536E+04  0.13441306536E+04  0.50400001928E-02 0.  1.
       -1   -1    0    0    0  501  0.00000000000E+00  0.00000000000E+00 -0.74623695122E+03  0.74623695124E+03  0.50400001928E-02 0. -1.
    10030    2    1    2    0    0  0.00000000000E+00  0.00000000000E+00  0.59789370240E+03  0.20903676049E+04  0.20030376542E+04 0.  0.
        3    1    3    3  502    0  0.16563592287E+03  0.44546218326E+03  0.12189536690E+04  0.13083271277E+04  0.10100000352E+00 0.  1.
       -3    1    3    3    0  502 -0.16563592287E+03 -0.44546218326E+03 -0.62105996659E+03  0.78204047719E+03  0.10100000352E+00 0. -1.
</event>
<event>
 5   0  0.4260395E-05  0.2361400E+04  0.7818609E-02  0.8454098E-01
       -1   -1    0    0    0  501  0.00000000000E+00  0.00000000000E+00  0.65474865996E+03  0.65474865998E+03  0.50400001928E-02 0.  1.
        1   -1    0    0  501    0  0.00000000000E+00  0.00000000000E+00 -0.21291413325E+04  0.21291413326E+04  0.50400001928E-02 0. -1.
    10030    2    1    2    0    0  0.00000000000E+00  0.00000000000E+00 -0.14743926726E+04  0.27838899925E+04  0.23613999529E+04 0.  0.
        4    1    3    3  502    0  0.43664655746E+03 -0.34398804845E+03 -0.19652291241E+04  0.20423308050E+04  0.12699999809E+01 0. -1.
       -4    1    3    3    0  502 -0.43664655746E+03  0.34398804845E+03  0.49083645154E+03  0.74155918758E+03  0.12699999809E+01 0.  1.
</event>
<event>
 5   0  0.9491680E-05  0.2406073E+04  0.7818609E-02  0.8437234E-01
       -2   -1    0    0    0  501  0.00000000000E+00  0.00000000000E+00  0.75495122261E+03  0.75495122262E+03  0.25500000920E-02 0.  1.
        2   -1    0    0  501    0  0.00000000000E+00  0.00000000000E+00 -0.19170727556E+04  0.19170727556E+04  0.25500000920E-02 0. -1.
    10030    2    1    2    0    0  0.00000000000E+00  0.00000000000E+00 -0.11621215329E+04  0.26720239782E+04  0.24060726678E+04 0.  0.
        5    1    3    3  502    0 -0.10952431304E+03 -0.79359165021E+03  0.41563352426E+03  0.90252789370E+03  0.46999998093E+01 0.  1.
       -5    1    3    3    0  502  0.10952431304E+03  0.79359165021E+03 -0.15777550572E+04  0.17694960845E+04  0.46999998093E+01 0. -1.
</event>
<event>
 5   0  0.4260395E-05  0.2298898E+04  0.7818609E-02  0.8478356E-01
        1   -1    0    0  501    0  0.00000000000E+00  0.00000000000E+00  0.12939790661E+04  0.12939790661E+04  0.50400001928E-02 0.  1.
       -1   -1    0    0    0  501  0.00000000000E+00  0.00000000000E+00 -0.10210622889E+04  0.10210622889E+04  0.50400001928E-02 0. -1.
    10030    2    1    2    0    0  0.00000000000E+00  0.00000000000E+00  0.27291677723E+03  0.23150413550E+04  0.22988981944E+04 0.  0.
        4    1    3    3  502    0 -0.37457540290E+02  0.27109159936E+03  0.12606929019E+04  0.12900550098E+04  0.12699999809E+01 0.  1.
       -4    1    3    3    0  502  0.37457540290E+02 -0.27109159936E+03 -0.98777612463E+03  0.10249863452E+04  0.12699999809E+01 0. -1.
</event>
<event>
 5   0  0.3934906E-05  0.2384067E+04  0.7818609E-02  0.8445493E-01
       -1   -1    0    0    0  501  0.00000000000E+00  0.00000000000E+00  0.12864100837E+04  0.12864100837E+04  0.50400001928E-02 0. -1.
        1   -1    0    0  501    0  0.00000000000E+00  0.00000000000E+00 -0.11045811371E+04  0.11045811371E+04  0.50400001928E-02 0.  1.
    10030    2    1    2    0    0  0.00000000000E+00  0.00000000000E+00  0.18182894657E+03  0.23909912208E+04  0.23840673757E+04 0.  0.
        2    1    3    3  502    0  0.72440126777E+03  0.22807908278E+03  0.10123684624E+04  0.12655698987E+04  0.25500000920E-02 0. -1.
       -2    1    3    3    0  502 -0.72440126777E+03 -0.22807908278E+03 -0.83053951586E+03  0.11254213221E+04  0.25500000920E-02 0.  1.
</event>
<event>
 5   0  0.4018942E-05  0.2355623E+04  0.7818609E-02  0.8456307E-01
        1   -1    0    0  501    0  0.00000000000E+00  0.00000000000E+00  0.17090818277E+04  0.17090818277E+04  0.50400001928E-02 0.  1.
       -1   -1    0    0    0  501  0.00000000000E+00  0.00000000000E+00 -0.81168697887E+03  0.81168697888E+03  0.50400001928E-02 0. -1.
    10030    2    1    2    0    0  0.00000000000E+00  0.00000000000E+00  0.89739484881E+03  0.25207688066E+04  0.23556226059E+04 0.  0.
        5    1    3    3  502    0 -0.26036436155E+03  0.37050782277E+03  0.16121907954E+04  0.16745885759E+04  0.46999998093E+01 0.  1.
       -5    1    3    3    0  502  0.26036436155E+03 -0.37050782277E+03 -0.71479594664E+03  0.84618023070E+03  0.46999998093E+01 0. -1.
</event>
<event>
 5   0  0.9750757E-05  0.2439103E+04  0.7818609E-02  0.8425007E-01
       -2   -1    0    0    0  501  0.00000000000E+00  0.00000000000E+00  0.91959881640E+03  0.91959881640E+03  0.25500000920E-02 0. -1.
        2   -1    0    0  501    0  0.00000000000E+00  0.00000000000E+00 -0.16173417100E+04  0.16173417100E+04  0.25500000920E-02 0.  1.
    10030    2    1    2    0    0  0.00000000000E+00  0.00000000000E+00 -0.69774289355E+03  0.25369405264E+04  0.24391027221E+04 0.  0.
        2    1    3    3  502    0  0.27449512377E+03  0.82836234082E+03 -0.12349675628E+04  0.15121761213E+04  0.25500000920E-02 0. -1.
       -2    1    3    3    0  502 -0.27449512377E+03 -0.82836234082E+03  0.53722466923E+03  0.10247644051E+04  0.25500000920E-02 0.  1.
</event>
<event>
 5   0  0.9519092E-05  0.2422497E+04  0.7818609E-02  0.8431129E-01
       -2   -1    0    0    0  501  0.00000000000E+00  0.00000000000E+00  0.15900586242E+04  0.15900586242E+04  0.25500000920E-02 0.  1.
        2   -1    0    0  501    0  0.00000000000E+00  0.00000000000E+00 -0.92268442729E+03  0.92268442729E+03  0.25500000920E-02 0. -1.
    10030    2    1    2    0    0  0.00000000000E+00  0.00000000000E+00  0.66737419689E+03  0.25127430515E+04  0.24224965065E+04 0.  0.
        4    1    3    3  502    0 -0.10792961031E+04  0.34485136692E+03 -0.11041996780E+03  0.11384185196E+04  0.12699999809E+01 0. -1.
       -4    1    3    3    0  502  0.10792961031E+04 -0.34485136692E+03  0.77779416469E+03  0.13743245319E+04  0.12699999809E+01 0.  1.
</event>
<event>
 5   0  0.9182865E-05  0.1348649E+04  0.7818609E-02  0.8991851E-01
        2   -1    0    0  501    0  0.00000000000E+00  0.00000000000E+00  0.79011563109E+03  0.79011563109E+03  0.25500000920E-02 0. -1.
       -2   -1    0    0    0  501  0.00000000000E+00  0.00000000000E+00 -0.57550289541E+03  0.57550289541E+03  0.25500000920E-02 0.  1.
    10030    2    1    2    0    0  0.00000000000E+00  0.00000000000E+00  0.21461273568E+03  0.13656185265E+04  0.13486494480E+04 0.  0.
        3    1    3    3  502    0 -0.12894438009E+03  0.40857485801E+03  0.63458252426E+03  0.76567294458E+03  0.10100000352E+00 0. -1.
       -3    1    3    3    0  502  0.12894438009E+03 -0.40857485801E+03 -0.41996978858E+03  0.59994558193E+03  0.10100000352E+00 0.  1.
</event>
<event>
 5   0  0.4208577E-05  0.2464338E+04  0.7818609E-02  0.8415802E-01
       -1   -1    0    0    0  501  0.00000000000E+00  0.00000000000E+00  0.89773778834E+03  0.89773778835E+03  0.50400001928E-02 0. -1.
        1   -1    0    0  501    0  0.00000000000E+00  0.00000000000E+00 -0.16911849574E+04  0.16911849574E+04  0.50400001928E-02 0.  1.
    10030    2    1    2    0    0  0.00000000000E+00  0.00000000000E+00 -0.79344716903E+03  0.25889227457E+04  0.24643381613E+04 0.  0.
        1    1    3    3  502    0  0.63244080418E+03 -0.10460413009E+04 -0.23377959576E+03  0.12445226689E+04  0.50400001928E-02 0. -1.
       -1    1    3    3    0  502 -0.63244080418E+03  0.10460413009E+04 -0.55966757327E+03  0.13444000768E+04  0.50400001928E-02 0.  1.
</event>
<event>
 5   0  0.4061631E-05  0.2451548E+04  0.7818609E-02  0.8420453E-01
       -1   -1    0    0    0  501  0.00000000000E+00  0.00000000000E+00  0.95230863919E+03  0.95230863920E+03  0.50400001928E-02 0. -1.
        1   -1    0    0  501    0  0.00000000000E+00  0.00000000000E+00 -0.15777680851E+04  0.15777680851E+04  0.50400001928E-02 0.  1.
    10030    2    1    2    0    0  0.00000000000E+00  0.00000000000E+00 -0.62545944593E+03  0.25300767243E+04  0.24515482277E+04 0.  0.
        3    1    3    3  502    0 -0.79836325754E+03  0.91749356714E+03 -0.47041070539E+03  0.13040186267E+04  0.10100000352E+00 0.  1.
       -3    1    3    3    0  502  0.79836325754E+03 -0.91749356714E+03 -0.15504874055E+03  0.12260580977E+04  0.10100000352E+00 0. -1.
</event>
<event>
 5   0  0.4018942E-05  0.2402535E+04  0.7818609E-02  0.8438555E-01
       -1   -1    0    0    0  501  0.00000000000E+00  0.00000000000E+00  0.82224070790E+03  0.82224070792E+03  0.50400001928E-02 0. -1.
        1   -1    0    0  501    0  0.00000000000E+00  0.00000000000E+00 -0.17550131859E+04  0.17550131859E+04  0.50400001928E-02 0.  1.
    10030    2    1    2    0    0  0.00000000000E+00  0.00000000000E+00 -0.93277247795E+03  0.25772538938E+04  0.24025347318E+04 0.  0.
        5    1    3    3  502    0  0.33330626268E+03  0.10368435837E+04  0.77309144356E+02  0.10918500243E+04  0.46999998093E+01 0.  1.
       -5    1    3    3    0  502 -0.33330626268E+03 -0.10368435837E+04 -0.10100816223E+04  0.14854038695E+04  0.46999998093E+01 0. -1.
</event>
<event>
 5   0  0.4018942E-05  0.2126913E+04  0.7818609E-02  0.8549480E-01
       -1   -1    0    0    0  501  0.00000000000E+00  0.00000000000E+00  0.49362420076E+03  0.49362420079E+03  0.50400001928E-02 0.  1.
        1   -1    0    0  501    0  0.00000000000E+00  0.00000000000E+00 -0.22910955968E+04  0.22910955969E+04  0.50400001928E-02 0. -1.
    10030    2    1    2    0    0  0.00000000000E+00  0.00000000000E+00 -0.17974713961E+04  0.27847197976E+04  0.21269134754E+04 0.  0.
        5    1    3    3  502    0 -0.24390539418E+03  0.30264483539E+03  0.39727331566E+03  0.55581644006E+03  0.46999998093E+01 0.  1.
       -5    1    3    3    0  502  0.24390539418E+03 -0.30264483539E+03 -0.21947447117E+04  0.22289033576E+04  0.46999998093E+01 0. -1.
</event>
<event>
 5   0  0.9750757E-05  0.2116453E+04  0.7818609E-02  0.8554030E-01
       -2   -1    0    0    0  501  0.00000000000E+00  0.00000000000E+00  0.57252521027E+03  0.57252521027E+03  0.25500000920E-02 0. -1.
        2   -1    0    0  501    0  0.00000000000E+00  0.00000000000E+00 -0.19559714680E+04  0.19559714680E+04  0.25500000920E-02 0.  1.
    10030    2    1    2    0    0  0.00000000000E+00  0.00000000000E+00 -0.13834462577E+04  0.25284966783E+04  0.21164526699E+04 0.  0.
        2    1    3    3  502    0 -0.47549491261E+03 -0.77348414400E+03 -0.13411203223E+04  0.16195606971E+04  0.25500000920E-02 0.  1.
       -2    1    3    3    0  502  0.47549491261E+03  0.77348414400E+03 -0.42325935442E+02  0.90893598111E+03  0.25500000920E-02 0. -1.
</event>
<event>
 5   0  0.9750757E-05  0.2193166E+04  0.7818609E-02  0.8521278E-01
       -2   -1    0    0    0  501  0.00000000000E+00  0.00000000000E+00  0.59914031097E+03  0.59914031098E+03  0.25500000920E-02 0.  1.
        2   -1    0    0  501    0  0.00000000000E+00  0.00000000000E+00 -0.20070323761E+04  0.20070323761E+04  0.25500000920E-02 0. -1.
    10030    2    1    2    0    0  0.00000000000E+00  0.00000000000E+00 -0.14078920651E+04  0.26061726870E+04  0.21931657502E+04 0.  0.
        2    1    3    3  502    0 -0.91658337892E+03 -0.50201893686E+03 -0.30920721893E+03  0.10898427445E+04  0.25500000920E-02 0.  1.
       -2    1    3    3    0  502  0.91658337892E+03  0.50201893686E+03 -0.10986848462E+04  0.15163299426E+04  0.25500000920E-02 0. -1.
</event>
<event>
 5   0  0.4061631E-05  0.2387656E+04  0.7818609E-02  0.8444140E-01
       -1   -1    0    0    0  501  0.00000000000E+00  0.00000000000E+00  0.18150979631E+04  0.18150979631E+04  0.50400001928E-02 0.  1.
        1   -1    0    0  501    0  0.00000000000E+00  0.00000000000E+00 -0.78520539273E+03  0.78520539275E+03  0.50400001928E-02 0. -1.
    10030    2    1    2    0    0  0.00000000000E+00  0.00000000000E+00  0.10298925704E+04  0.26003033559E+04  0.23876555103E+04 0.  0.
        3    1    3    3  502    0 -0.73593851287E+03  0.41959982375E+03  0.14310244051E+04  0.16629793640E+04  0.10100000352E+00 0.  1.
       -3    1    3    3    0  502  0.73593851287E+03 -0.41959982375E+03 -0.40113183469E+03  0.93732399192E+03  0.10100000352E+00 0. -1.
</event>
<event>
 5   0  0.4208577E-05  0.2466721E+04  0.7818609E-02  0.8414938E-01
        1   -1    0    0  501    0  0.00000000000E+00  0.00000000000E+00  0.11218214534E+04  0.11218214534E+04  0.50400001928E-02 0. -1.
       -1   -1    0    0    0  501  0.00000000000E+00  0.00000000000E+00 -0.13559893973E+04  0.13559893973E+04  0.50400001928E-02 0.  1.
    10030    2    1    2    0    0  0.00000000000E+00  0.00000000000E+00 -0.23416794390E+03  0.24778108507E+04  0.24667208975E+04 0.  0.
        1    1    3    3  502    0 -0.60649008188E+03 -0.37380860608E+02 -0.11951988427E+04  0.13407937283E+04  0.50400001928E-02 0.  1.
       -1    1    3    3    0  502  0.60649008188E+03  0.37380860608E+02  0.96103089883E+03  0.11370171224E+04  0.50400001928E-02 0. -1.
</event>
<event>
 5   0  0.9182865E-05  0.2396877E+04  0.7818609E-02  0.8440674E-01
       -2   -1    0    0    0  501  0.00000000000E+00  0.00000000000E+00  0.94069958343E+03  0.94069958343E+03  0.25500000920E-02 0. -1.
        2   -1    0    0  501    0  0.00000000000E+00  0.00000000000E+00 -0.15267939043E+04  0.15267939043E+04  0.25500000920E-02 0.  1.
    10030    2    1    2    0    0  0.00000000000E+00  0.00000000000E+00 -0.58609432089E+03  0.24674934878E+04  0.23968766258E+04 0.  0.
        3    1    3    3  502    0 -0.47867640325E+02 -0.71070513333E+03  0.69912209462E+03  0.99808056334E+03  0.10100000352E+00 0. -1.
       -3    1    3    3    0  502  0.47867640325E+02  0.71070513333E+03 -0.12852164155E+04  0.14694129244E+04  0.10100000352E+00 0.  1.
</event>
<event>
 5   0  0.9491680E-05  0.2558625E+04  0.7818609E-02  0.8382393E-01
        2   -1    0    0  501    0  0.00000000000E+00  0.00000000000E+00  0.90793063005E+03  0.90793063005E+03  0.25500000920E-02 0. -1.
       -2   -1    0    0    0  501  0.00000000000E+00  0.00000000000E+00 -0.18026055765E+04  0.18026055765E+04  0.25500000920E-02 0.  1.
    10030    2    1    2    0    0  0.00000000000E+00  0.00000000000E+00 -0.89467494644E+03  0.27105362065E+04  0.25586252690E+04 0.  0.
        5    1    3    3  502    0  0.97678184132E+03 -0.24438347850E+03 -0.12833644218E+04  0.16312180661E+04  0.46999998093E+01 0.  1.
       -5    1    3    3    0  502 -0.97678184132E+03  0.24438347850E+03  0.38868947532E+03  0.10793181405E+04  0.46999998093E+01 0. -1.
</event>
<event>
 5   0  0.3934906E-05  0.2409672E+04  0.7818609E-02  0.8435891E-01
        1   -1    0    0  501    0  0.00000000000E+00  0.00000000000E+00  0.16369242201E+04  0.16369242201E+04  0.50400001928E-02 0. -1.
       -1   -1    0    0    0  501  0.00000000000E+00  0.00000000000E+00 -0.88680346624E+03  0.88680346625E+03  0.50400001928E-02 0.  1.
    10030    2    1    2    0    0  0.00000000000E+00  0.00000000000E+00  0.75012075387E+03  0.25237276864E+04  0.24096722370E+04 0.  0.
        2    1    3    3  502    0  0.11758596267E+04  0.11183967891E+03  0.12616498552E+03  0.11878853392E+04  0.25500000920E-02 0.  1.
       -2    1    3    3    0  502 -0.11758596267E+04 -0.11183967891E+03  0.62395576835E+03  0.13358423471E+04  0.25500000920E-02 0. -1.
</event>
<event>
 5   0  0.3934906E-05  0.2380172E+04  0.7818609E-02  0.8446964E-01
       -1   -1    0    0    0  501  0.00000000000E+00  0.00000000000E+00  0.11946853422E+04  0.11946853422E+04  0.50400001928E-02 0.  1.
        1   -1    0    0  501    0  0.00000000000E+00  0.00000000000E+00 -0.11855041112E+04  0.11855041112E+04  0.50400001928E-02 0. -1.
    10030    2    1    2    0    0  0.00000000000E+00  0.00000000000E+00  0.91812310493E+01  0.23801894534E+04  0.23801717457E+04 0.  0.
        2    1    3    3  502    0 -0.64573366778E+03 -0.55035193223E+03 -0.82994849586E+03  0.11868756147E+04  0.25500000920E-02 0. -1.
       -2    1    3    3    0  502  0.64573366778E+03  0.55035193223E+03  0.83912972691E+03  0.11933138387E+04  0.25500000920E-02 0.  1.
</event>
<event>
 5   0  0.4061631E-05  0.2412322E+04  0.7818609E-02  0.8434905E-01
       -1   -1    0    0    0  501  0.00000000000E+00  0.00000000000E+00  0.83433127468E+03  0.83433127470E+03  0.50400001928E-02 0. -1.
        1   -1    0    0  501    0  0.00000000000E+00  0.00000000000E+00 -0.17437013631E+04  0.17437013631E+04  0.50400001928E-02 0.  1.
    10030    2    1    2    0    0  0.00000000000E+00  0.00000000000E+00 -0.90937008840E+03  0.25780326378E+04  0.24123221849E+04 0.  0.
        3    1    3    3  502    0 -0.11305489749E+04 -0.37483638255E+03 -0.65796521554E+03  0.13607209609E+04  0.10100000352E+00 0.  1.
       -3    1    3    3    0  502  0.11305489749E+04  0.37483638255E+03 -0.25140487286E+03  0.12173116769E+04  0.10100000352E+00 0. -1.
</event>
<event>
 5   0  0.9182865E-05  0.2032363E+04  0.7818609E-02  0.8591637E-01
        2   -1    0    0  501    0  0.00000000000E+00  0.00000000000E+00  0.14490616382E+04  0.14490616382E+04  0.25500000920E-02 0.  1.
       -2   -1    0    0    0  501  0.00000000000E+00  0.00000000000E+00 -0.71261647310E+03  0.71261647311E+03  0.25500000920E-02 0. -1.
    10030    2    1    2    0    0  0.00000000000E+00  0.00000000000E+00  0.73644516510E+03  0.21616781113E+04  0.20323633474E+04 0.  0.
        3    1    3    3  502    0 -0.60414140330E+02  0.40670554094E+03 -0.62018807150E+03  0.74410518048E+03  0.10100000352E+00 0. -1.
       -3    1    3    3    0  502  0.60414140330E+02 -0.40670554094E+03  0.13566332366E+04  0.14175729308E+04  0.10100000352E+00 0.  1.
</event>
<event>
 5   0  0.4018942E-05  0.2188481E+04  0.7818609E-02  0.8523238E-01
        1   -1    0    0  501    0  0.00000000000E+00  0.00000000000E+00  0.11818468287E+04  0.11818468288E+04  0.50400001928E-02 0. -1.
       -1   -1    0    0    0  501  0.00000000000E+00  0.00000000000E+00 -0.10131277929E+04  0.10131277929E+04  0.50400001928E-02 0.  1.
    10030    2    1    2    0    0  0.00000000000E+00  0.00000000000E+00  0.16871903581E+03  0.21949746217E+04  0.21884806320E+04 0.  0.
        5    1    3    3  502    0 -0.37360883861E+03 -0.60242269943E+03  0.92040551591E+03  0.11617508669E+04  0.46999998093E+01 0. -1.
       -5    1    3    3    0  502  0.37360883861E+03  0.60242269943E+03 -0.75168648009E+03  0.10332237548E+04  0.46999998093E+01 0.  1.
</event>
<event>
 5   0  0.3934906E-05  0.1854279E+04  0.7818609E-02  0.8677955E-01
        1   -1    0    0  501    0  0.00000000000E+00  0.00000000000E+00  0.10639316301E+04  0.10639316301E+04  0.50400001928E-02 0.  1.
       -1   -1    0    0    0  501  0.00000000000E+00  0.00000000000E+00 -0.80793490939E+03  0.80793490940E+03  0.50400001928E-02 0. -1.
    10030    2    1    2    0    0  0.00000000000E+00  0.00000000000E+00  0.25599672072E+03  0.18718665395E+04  0.18542788412E+04 0.  0.
        2    1    3    3  502    0  0.28987148765E+03  0.59083081784E+03  0.78724764525E+03  0.10260922910E+04  0.25500000920E-02 0.  1.
       -2    1    3    3    0  502 -0.28987148765E+03 -0.59083081784E+03 -0.53125092453E+03  0.84577424854E+03  0.25500000920E-02 0. -1.
</event>
<event>
 5   0  0.9182865E-05  0.2302203E+04  0.7818609E-02  0.8477053E-01
        2   -1    0    0  501    0  0.00000000000E+00  0.00000000000E+00  0.16331853194E+04  0.16331853194E+04  0.25500000920E-02 0.  1.
       -2   -1    0    0    0  501  0.00000000000E+00  0.00000000000E+00 -0.81131931422E+03  0.81131931422E+03  0.25500000920E-02 0. -1.
    10030    2    1    2    0    0  0.00000000000E+00  0.00000000000E+00  0.82186600522E+03  0.24445046337E+04  0.23022031130E+04 0.  0.
        3    1    3    3  502    0  0.51441666794E+03 -0.39529989374E+03  0.14205741822E+04  0.15617034071E+04  0.10100000352E+00 0.  1.
       -3    1    3    3    0  502 -0.51441666794E+03  0.39529989374E+03 -0.59870817701E+03  0.88280122659E+03  0.10100000352E+00 0. -1.
</event>
<event>
 5   0  0.9491680E-05  0.2292183E+04  0.7818609E-02  0.8481010E-01
       -2   -1    0    0    0  501  0.00000000000E+00  0.00000000000E+00  0.13613192037E+04  0.13613192037E+04  0.25500000920E-02 0. -1.
        2   -1    0    0  501    0  0.00000000000E+00  0.00000000000E+00 -0.96489199644E+03  0.96489199644E+03  0.25500000920E-02 0.  1.
    10030    2    1    2    0    0  0.00000000000E+00  0.00000000000E+00  0.39642720724E+03  0.23262112001E+04  0.22921832424E+04 0.  0.
        5    1    3    3  502    0  0.90833951933E+02 -0.58457882065E+03  0.11943764412E+04  0.13328692276E+04  0.46999998093E+01 0. -1.
       -5    1    3    3    0  502 -0.90833951933E+02  0.58457882065E+03 -0.79794923401E+03  0.99334197255E+03  0.46999998093E+01 0.  1.
</event>
<event>
 5   0  0.9491680E-05  0.2148907E+04  0.7818609E-02  0.8540000E-01
       -2   -1    0    0    0  501  0.00000000000E+00  0.00000000000E+00  0.10195061687E+04  0.10195061687E+04  0.25500000920E-02 0.  1.
        2   -1    0    0  501    0  0.00000000000E+00  0.00000000000E+00 -0.11323618301E+04  0.11323618301E+04  0.25500000920E-02 0. -1.
    10030    2    1    2    0    0  0.00000000000E+00  0.00000000000E+00 -0.11285566140E+03  0.21518679989E+04  0.21489065788E+04 0.  0.
        5    1    3    3  502    0  0.82732735976E+03 -0.66501415203E+03  0.11027500398E+03  0.10671911961E+04  0.46999998093E+01 0.  1.
       -5    1    3    3    0  502 -0.82732735976E+03  0.66501415203E+03 -0.22313066538E+03  0.10846768028E+04  0.46999998093E+01 0. -1.
</event>
<event>
 5   0  0.9491680E-05  0.2379321E+04  0.7818609E-02  0.8447286E-01
        2   -1    0    0  501    0  0.00000000000E+00  0.00000000000E+00  0.13477942439E+04  0.13477942439E+04  0.25500000920E-02 0.  1.
       -2   -1    0    0    0  501  0.00000000000E+00  0.00000000000E+00 -0.10500803081E+04  0.10500803081E+04  0.25500000920E-02 0. -1.
    10030    2    1    2    0    0  0.00000000000E+00  0.00000000000E+00  0.29771393576E+03  0.23978745520E+04  0.23793210754E+04 0.  0.
        5    1    3    3  502    0 -0.15830318408E+03  0.91078038429E+03  0.90348779202E+03  0.12926302978E+04  0.46999998093E+01 0.  1.
       -5    1    3    3    0  502  0.15830318408E+03 -0.91078038429E+03 -0.60577385626E+03  0.11052442542E+04  0.46999998093E+01 0. -1.
</event>
<event>
 5   0  0.9750757E-05  0.2413771E+04  0.7818609E-02  0.8434366E-01
       -2   -1    0    0    0  501  0.00000000000E+00  0.00000000000E+00  0.81968477808E+03  0.81968477808E+03  0.25500000920E-02 0. -1.
        2   -1    0    0  501    0  0.00000000000E+00  0.00000000000E+00 -0.17769908293E+04  0.17769908293E+04  0.25500000920E-02 0.  1.
    10030    2    1    2    0    0  0.00000000000E+00  0.00000000000E+00 -0.95730605117E+03  0.25966756073E+04  0.24137707708E+04 0.  0.
        2    1    3    3  502    0  0.48556535500E+03  0.10737090158E+04 -0.75907279992E+03  0.14017190447E+04  0.25500000920E-02 0.  1.
       -2    1    3    3    0  502 -0.48556535500E+03 -0.10737090158E+04 -0.19823325125E+03  0.11949565626E+04  0.25500000920E-02 0. -1.
</event>
<event>
 5   0  0.9519092E-05  0.2363512E+04  0.7818609E-02  0.8453292E-01
       -2   -1    0    0    0  501  0.00000000000E+00  0.00000000000E+00  0.15716705097E+04  0.15716705097E+04  0.25500000920E-02 0. -1.
        2   -1    0    0  501    0  0.00000000000E+00  0.00000000000E+00 -0.88857491698E+03  0.88857491699E+03  0.25500000920E-02 0.  1.
    10030    2    1    2    0    0  0.00000000000E+00  0.00000000000E+00  0.68309559273E+03  0.24602454267E+04  0.23635117877E+04 0.  0.
        4    1    3    3  502    0 -0.10814753111E+04 -0.26225087416E+03  0.75554540560E+03  0.13450705715E+04  0.12699999809E+01 0. -1.
       -4    1    3    3    0  502  0.10814753111E+04  0.26225087416E+03 -0.72449812868E+02  0.11151748552E+04  0.12699999809E+01 0.  1.
</event>
<event>
 5   0  0.9491680E-05  0.2417866E+04  0.7818609E-02  0.8432845E-01
        2   -1    0    0  501    0  0.00000000000E+00  0.00000000000E+00  0.18095173205E+04  0.18095173205E+04  0.25500000920E-02 0. -1.
       -2   -1    0    0    0  501  0.00000000000E+00  0.00000000000E+00 -0.80768466004E+03  0.80768466004E+03  0.25500000920E-02 0.  1.
    10030    2    1    2    0    0  0.00000000000E+00  0.00000000000E+00  0.10018326605E+04  0.26172019806E+04  0.24178663171E+04 0.  0.
        5    1    3    3  502    0 -0.92874325214E+03  0.30408061591E+03  0.12712538738E+04  0.16034767074E+04  0.46999998093E+01 0. -1.
       -5    1    3    3    0  502  0.92874325214E+03 -0.30408061591E+03 -0.26942121333E+03  0.10137252732E+04  0.46999998093E+01 0.  1.
</event>
<event>
 5   0  0.9491680E-05  0.2401581E+04  0.7818609E-02  0.8438912E-01
        2   -1    0    0  501    0  0.00000000000E+00  0.00000000000E+00  0.16052022139E+04  0.16052022139E+04  0.25500000920E-02 0. -1.
       -2   -1    0    0    0  501  0.00000000000E+00  0.00000000000E+00 -0.89826544042E+03  0.89826544043E+03  0.25500000920E-02 0.  1.
    10030    2    1    2    0    0  0.00000000000E+00  0.00000000000E+00  0.70693677345E+03  0.25034676543E+04  0.24015808740E+04 0.  0.
        5    1    3    3  502    0  0.10917210513E+04 -0.48424944545E+03  0.22359042769E+03  0.12150584960E+04  0.46999998093E+01 0.  1.
       -5    1    3    3    0  502 -0.10917210513E+04  0.48424944545E+03  0.48334634576E+03  0.12884091583E+04  0.46999998093E+01 0. -1.
</event>
<event>
 5   0  0.9144244E-05  0.2346849E+04  0.7818609E-02  0.8459675E-01
       -2   -1    0    0    0  501  0.00000000000E+00  0.00000000000E+00  0.12405808206E+04  0.12405808206E+04  0.25500000920E-02 0.  1.
        2   -1    0    0  501    0  0.00000000000E+00  0.00000000000E+00 -0.11099036566E+04  0.11099036566E+04  0.25500000920E-02 0. -1.
    10030    2    1    2    0    0  0.00000000000E+00  0.00000000000E+00  0.13067716403E+03  0.23504844771E+04  0.23468491123E+04 0.  0.
        1    1    3    3  502    0 -0.10090568839E+04  0.47657884339E+03 -0.29799326287E+03  0.11550424987E+04  0.50400001928E-02 0. -1.
       -1    1    3    3    0  502  0.10090568839E+04 -0.47657884339E+03  0.42867042689E+03  0.11954419785E+04  0.50400001928E-02 0.  1.
</event>
<event>
 5   0  0.9144244E-05  0.2295903E+04  0.7818609E-02  0.8479538E-01
       -2   -1    0    0    0  501  0.00000000000E+00  0.00000000000E+00  0.79574873223E+03  0.79574873224E+03  0.25500000920E-02 0.  1.
        2   -1    0    0  501    0  0.00000000000E+00  0.00000000000E+00 -0.16560405125E+04  0.16560405125E+04  0.25500000920E-02 0. -1.
    10030    2    1    2    0    0  0.00000000000E+00  0.00000000000E+00 -0.86029178028E+03  0.24517892447E+04  0.22959025575E+04 0.  0.
        1    1    3    3  502    0 -0.50613535848E+03  0.10029045013E+03 -0.15252285735E+04  0.16101407941E+04  0.50400001928E-02 0. -1.
       -1    1    3    3    0  502  0.50613535848E+03 -0.10029045013E+03  0.66493679320E+03  0.84164845064E+03  0.50400001928E-02 0.  1.
</event>
<event>
 5   0  0.3934906E-05  0.2416012E+04  0.7818609E-02  0.8433533E-01
        1   -1    0    0  501    0  0.00000000000E+00  0.00000000000E+00  0.14887763465E+04  0.14887763465E+04  0.50400001928E-02 0.  1.
       -1   -1    0    0    0  501  0.00000000000E+00  0.00000000000E+00 -0.98018628486E+03  0.98018628488E+03  0.50400001928E-02 0. -1.
    10030    2    1    2    0    0  0.00000000000E+00  0.00000000000E+00  0.50859006166E+03  0.24689626314E+04  0.24160117186E+04 0.  0.
        2    1    3    3  502    0  0.10292163504E+04  0.49568849916E+03  0.65569470160E+03  0.13171670075E+04  0.25500000920E-02 0.  1.
       -2    1    3    3    0  502 -0.10292163504E+04 -0.49568849916E+03 -0.14710463993E+03  0.11517956239E+04  0.25500000920E-02 0. -1.
</event>
<event>
 5   0  0.9182865E-05  0.1868845E+04  0.7818609E-02  0.8670521E-01
        2   -1    0    0  501    0  0.00000000000E+00  0.00000000000E+00  0.11793086349E+04  0.11793086349E+04  0.25500000920E-02 0.  1.
       -2   -1    0    0    0  501  0.00000000000E+00  0.00000000000E+00 -0.74038774098E+03  0.74038774099E+03  0.25500000920E-02 0. -1.
    10030    2    1    2    0    0  0.00000000000E+00  0.00000000000E+00  0.43892089389E+03  0.19196963759E+04  0.18688452650E+04 0.  0.
        3    1    3    3  502    0  0.47340387361E+03  0.79658027477E+03  0.34312851795E+03  0.98812375325E+03  0.10100000352E+00 0.  1.
       -3    1    3    3    0  502 -0.47340387361E+03 -0.79658027477E+03  0.95792375934E+02  0.93157262261E+03  0.10100000352E+00 0. -1.
</event>
<event>
 5   0  0.4260395E-05  0.2378140E+04  0.7818609E-02  0.8447733E-01
       -1   -1    0    0    0  501  0.00000000000E+00  0.00000000000E+00  0.97610495932E+03  0.97610495933E+03  0.50400001928E-02 0.  1.
        1   -1    0    0  501    0  0.00000000000E+00  0.00000000000E+00 -0.14484998159E+04  0.14484998159E+04  0.50400001928E-02 0. -1.
    10030    2    1    2    0    0  0.00000000000E+00  0.00000000000E+00 -0.47239485655E+03  0.24246047752E+04  0.23781403271E+04 0.  0.
        4    1    3    3  502    0 -0.11770793243E+04 -0.45113784365E+01 -0.40786219972E+03  0.12457484799E+04  0.12699999809E+01 0.  1.
       -4    1    3    3    0  502  0.11770793243E+04  0.45113784365E+01 -0.64532656825E+02  0.11788562953E+04  0.12699999809E+01 0. -1.
</event>
<event>
 5   0  0.4208577E-05  0.1564996E+04  0.7818609E-02  0.8842345E-01
        1   -1    0    0  501    0  0.00000000000E+00  0.00000000000E+00  0.79333140990E+03  0.79333140991E+03  0.50400001928E-02 0. -1.
       -1   -1    0    0    0  501  0.00000000000E+00  0.00000000000E+00 -0.77181277300E+03  0.77181277301E+03  0.50400001928E-02 0.  1.
    10030    2    1    2    0    0  0.00000000000E+00  0.00000000000E+00  0.21518636901E+02  0.15651441829E+04  0.15649962497E+04 0.  0.
        1    1    3    3  502    0  0.10156800106E+03 -0.51908021239E+03 -0.56596059683E+03  0.77464296481E+03  0.50400001928E-02 0.  1.
       -1    1    3    3    0  502 -0.10156800106E+03  0.51908021239E+03  0.58747923374E+03  0.79050121811E+03  0.50400001928E-02 0. -1.
</event>
<event>
 5   0  0.4018942E-05  0.2369963E+04  0.7818609E-02  0.8450835E-01
       -1   -1    0    0    0  501  0.00000000000E+00  0.00000000000E+00  0.10987098288E+04  0.10987098288E+04  0.50400001928E-02 0. -1.
        1   -1    0    0  501    0  0.00000000000E+00  0.00000000000E+00 -0.12780274595E+04  0.12780274595E+04  0.50400001928E-02 0.  1.
    10030    2    1    2    0    0  0.00000000000E+00  0.00000000000E+00 -0.17931763066E+03  0.23767372883E+04  0.23699631485E+04 0.  0.
        5    1    3    3  502    0  0.69972467355E+03  0.62753191006E+03  0.63403277740E+03  0.11337683051E+04  0.46999998093E+01 0. -1.
       -5    1    3    3    0  502 -0.69972467355E+03 -0.62753191006E+03 -0.81335040806E+03  0.12429689832E+04  0.46999998093E+01 0.  1.
</event>
<event>
 5   0  0.9519092E-05  0.2412466E+04  0.7818609E-02  0.8434851E-01
        2   -1    0    0  501    0  0.00000000000E+00  0.00000000000E+00  0.11749839799E+04  0.11749839799E+04  0.25500000920E-02 0. -1.
       -2   -1    0    0    0  501  0.00000000000E+00  0.00000000000E+00 -0.12383128872E+04  0.12383128872E+04  0.25500000920E-02 0.  1.
    10030    2    1    2    0    0  0.00000000000E+00  0.00000000000E+00 -0.63328907324E+02  0.24132968670E+04  0.24124657962E+04 0.  0.
        4    1    3    3  502    0 -0.32742911492E+03 -0.10492563002E+04  0.46534428390E+03  0.11936061010E+04  0.12699999809E+01 0. -1.
       -4    1    3    3    0  502  0.32742911492E+03  0.10492563002E+04 -0.52867319123E+03  0.12196907661E+04  0.12699999809E+01 0.  1.
</event>
<event>
 5   0  0.3934906E-05  0.2371541E+04  0.7818609E-02  0.8450236E-01
       -1   -1    0    0    0  501  0.00000000000E+00  0.00000000000E+00  0.15595345087E+04  0.15595345087E+04  0.50400001928E-02 0. -1.
        1   -1    0    0  501    0  0.00000000000E+00  0.00000000000E+00 -0.90158416204E+03  0.90158416205E+03  0.50400001928E-02 0.  1.
    10030    2    1    2    0    0  0.00000000000E+00  0.00000000000E+00  0.65795034664E+03  0.24611186707E+04  0.23715409448E+04 0.  0.
        2    1    3    3  502    0 -0.83337119975E+03  0.47615405410E+02  0.12029719166E+04  0.14642118069E+04  0.25500000920E-02 0. -1.
       -2    1    3    3    0  502  0.83337119975E+03 -0.47615405410E+02 -0.54502156996E+03  0.99690686382E+03  0.25500000920E-02 0.  1.
</event>
<event>
 5   0  0.9750757E-05  0.2420176E+04  0.7818609E-02  0.8431989E-01
        2   -1    0    0  501    0  0.00000000000E+00  0.00000000000E+00  0.18033291593E+04  0.18033291593E+04  0.25500000920E-02 0.  1.
       -2   -1    0    0    0  501  0.00000000000E+00  0.00000000000E+00 -0.81200513843E+03  0.81200513844E+03  0.25500000920E-02 0. -1.
    10030    2    1    2    0    0  0.00000000000E+00  0.00000000000E+00  0.99132402083E+03  0.26153342977E+04  0.24201756495E+04 0.  0.
        2    1    3    3  502    0  0.36040242098E+03 -0.82463594292E+03 -0.37851900430E+03  0.97631500041E+03  0.25500000920E-02 0. -1.
       -2    1    3    3    0  502 -0.36040242098E+03  0.82463594292E+03  0.13698430251E+04  0.16390192973E+04  0.25500000920E-02 0.  1.
</event>
<event>
 5   0  0.9144244E-05  0.2343847E+04  0.7818609E-02  0.8460831E-01
        2   -1    0    0  501    0  0.00000000000E+00  0.00000000000E+00  0.17282961930E+04  0.17282961930E+04  0.25500000920E-02 0.  1.
       -2   -1    0    0    0  501  0.00000000000E+00  0.00000000000E+00 -0.79465833104E+03  0.79465833105E+03  0.25500000920E-02 0. -1.
    10030    2    1    2    0    0  0.00000000000E+00  0.00000000000E+00  0.93363786195E+03  0.25229545240E+04  0.23438472376E+04 0.  0.
        1    1    3    3  502    0  0.10572084214E+04  0.40333730303E+03  0.79514227690E+03  0.13829757289E+04  0.50400001928E-02 0. -1.
       -1    1    3    3    0  502 -0.10572084214E+04 -0.40333730303E+03  0.13849558505E+03  0.11399787951E+04  0.50400001928E-02 0.  1.
</event>
<event>
 5   0  0.9491680E-05  0.1208987E+04  0.7818609E-02  0.9105027E-01
        2   -1    0    0  501    0  0.00000000000E+00  0.00000000000E+00  0.45155957756E+03  0.45155957757E+03  0.25500000920E-02 0. -1.
       -2   -1    0    0    0  501  0.00000000000E+00  0.00000000000E+00 -0.80922270528E+03  0.80922270528E+03  0.25500000920E-02 0.  1.
    10030    2    1    2    0    0  0.00000000000E+00  0.00000000000E+00 -0.35766312772E+03  0.12607822829E+04  0.12089867873E+04 0.  0.
        5    1    3    3  502    0 -0.29874701275E+03  0.47101547771E+03 -0.42180440055E+03  0.69931852556E+03  0.46999998093E+01 0.  1.
       -5    1    3    3    0  502  0.29874701275E+03 -0.47101547771E+03  0.64141272836E+02  0.56146375729E+03  0.46999998093E+01 0. -1.
</event>
<event>
 5   0  0.3934906E-05  0.2410112E+04  0.7818609E-02  0.8435728E-01
        1   -1    0    0  501    0  0.00000000000E+00  0.00000000000E+00  0.21513557877E+04  0.21513557877E+04  0.50400001928E-02 0.  1.
       -1   -1    0    0    0  501  0.00000000000E+00  0.00000000000E+00 -0.67499747726E+03  0.67499747728E+03  0.50400001928E-02 0. -1.
    10030    2    1    2    0    0  0.00000000000E+00  0.00000000000E+00  0.14763583104E+04  0.28263532650E+04  0.24101118061E+04 0.  0.
        2    1    3    3  502    0 -0.67983522051E+03  0.62273283443E+03 -0.17184970235E+03  0.93781897524E+03  0.25500000920E-02 0. -1.
       -2    1    3    3    0  502  0.67983522051E+03 -0.62273283443E+03  0.16482080128E+04  0.18885342897E+04  0.25500000920E-02 0.  1.
</event>
<event>
 5   0  0.4260395E-05  0.2423169E+04  0.7818609E-02  0.8430880E-01
        1   -1    0    0  501    0  0.00000000000E+00  0.00000000000E+00  0.18972746808E+04  0.18972746808E+04  0.50400001928E-02 0.  1.
       -1   -1    0    0    0  501  0.00000000000E+00  0.00000000000E+00 -0.77370802342E+03  0.77370802343E+03  0.50400001928E-02 0. -1.
    10030    2    1    2    0    0  0.00000000000E+00  0.00000000000E+00  0.11235666574E+04  0.26709827042E+04  0.24231687050E+04 0.  0.
        4    1    3    3  502    0 -0.73254950574E+03 -0.31342406297E+03 -0.44428758000E+03  0.91228092617E+03  0.12699999809E+01 0. -1.
       -4    1    3    3    0  502  0.73254950574E+03  0.31342406297E+03  0.15678542374E+04  0.17587017781E+04  0.12699999809E+01 0.  1.
</event>
<event>
 5   0  0.9519092E-05  0.2443236E+04  0.7818609E-02  0.8423492E-01
       -2   -1    0    0    0  501  0.00000000000E+00  0.00000000000E+00  0.63316655966E+03  0.63316655967E+03  0.25500000920E-02 0.  1.
        2   -1    0    0  501    0  0.00000000000E+00  0.00000000000E+00 -0.23569645674E+04  0.23569645674E+04  0.25500000920E-02 0. -1.
    10030    2    1    2    0    0  0.00000000000E+00  0.00000000000E+00 -0.17237980077E+04  0.29901311271E+04  0.24432364981E+04 0.  0.
        4    1    3    3  502    0 -0.91955283606E+03 -0.52909954479E+03 -0.12066615846E+03  0.10677479484E+04  0.12699999809E+01 0.  1.
       -4    1    3    3    0  502  0.91955283606E+03  0.52909954479E+03 -0.16031318493E+04  0.19223831787E+04  0.12699999809E+01 0. -1.
</event>
<event>
 5   0  0.9182865E-05  0.2409344E+04  0.7818609E-02  0.8436014E-01
        2   -1    0    0  501    0  0.00000000000E+00  0.00000000000E+00  0.11753354346E+04  0.11753354346E+04  0.25500000920E-02 0.  1.
       -2   -1    0    0    0  501  0.00000000000E+00  0.00000000000E+00 -0.12347408704E+04  0.12347408704E+04  0.25500000920E-02 0. -1.
    10030    2    1    2    0    0  0.00000000000E+00  0.00000000000E+00 -0.59405435830E+02  0.24100763050E+04  0.24093440581E+04 0.  0.
        3    1    3    3  502    0 -0.58470488315E+03  0.54698382566E+03  0.87066171135E+03  0.11828452696E+04  0.10100000352E+00 0.  1.
       -3    1    3    3    0  502  0.58470488315E+03 -0.54698382566E+03 -0.93006714718E+03  0.12272310355E+04  0.10100000352E+00 0. -1.
</event>
<event>
 5   0  0.4208577E-05  0.2378479E+04  0.7818609E-02  0.8447605E-01
       -1   -1    0    0    0  501  0.00000000000E+00  0.00000000000E+00  0.77255695798E+03  0.77255695800E+03  0.50400001928E-02 0.  1.
        1   -1    0    0  501    0  0.00000000000E+00  0.00000000000E+00 -0.18306611633E+04  0.18306611633E+04  0.50400001928E-02 0. -1.
    10030    2    1    2    0    0  0.00000000000E+00  0.00000000000E+00 -0.10581042053E+04  0.26032181213E+04  0.23784785216E+04 0.  0.
        1    1    3    3  502    0  0.62519316876E+03  0.90255994196E+03 -0.28918532053E+02  0.10983247373E+04  0.50400001928E-02 0. -1.
       -1    1    3    3    0  502 -0.62519316876E+03 -0.90255994196E+03 -0.10291856733E+04  0.15048933840E+04  0.50400001928E-02 0.  1.
</event>
<event>
 5   0  0.4061631E-05  0.1309340E+04  0.7818609E-02  0.9022191E-01
       -1   -1    0    0    0  501  0.00000000000E+00  0.00000000000E+00  0.27753761284E+03  0.27753761289E+03  0.50400001928E-02 0.  1.
        1   -1    0    0  501    0  0.00000000000E+00  0.00000000000E+00 -0.15442694643E+04  0.15442694643E+04  0.50400001928E-02 0. -1.
    10030    2    1    2    0    0  0.00000000000E+00  0.00000000000E+00 -0.12667318514E+04  0.18218070772E+04  0.13093400792E+04 0.  0.
        3    1    3    3  502    0  0.54261719371E+03 -0.35911026146E+03 -0.73369350790E+03  0.98066292503E+03  0.10100000352E+00 0. -1.
       -3    1    3    3    0  502 -0.54261719371E+03  0.35911026146E+03 -0.53303834351E+03  0.84114415212E+03  0.10100000352E+00 0.  1.
</event>
<event>
 5   0  0.3934906E-05  0.1655872E+04  0.7818609E-02  0.8786940E-01
       -1   -1    0    0    0  501  0.00000000000E+00  0.00000000000E+00  0.70785279761E+03  0.70785279763E+03  0.50400001928E-02 0. -1.
        1   -1    0    0  501    0  0.00000000000E+00  0.00000000000E+00 -0.96839111680E+03  0.96839111681E+03  0.50400001928E-02 0.  1.
    10030    2    1    2    0    0  0.00000000000E+00  0.00000000000E+00 -0.26053831919E+03  0.16762439144E+04  0.16558724120E+04 0.  0.
        2    1    3    3  502    0 -0.15061016674E+03  0.58381599184E+03 -0.70465951524E+03  0.92739935685E+03  0.25500000920E-02 0.  1.
       -2    1    3    3    0  502  0.15061016674E+03 -0.58381599184E+03  0.44412119605E+03  0.74884455760E+03  0.25500000920E-02 0. -1.
</event>
<event>
 5   0  0.3934906E-05  0.2412126E+04  0.7818609E-02  0.8434978E-01
       -1   -1    0    0    0  501  0.00000000000E+00  0.00000000000E+00  0.11282259124E+04  0.11282259124E+04  0.50400001928E-02 0.  1.
        1   -1    0    0  501    0  0.00000000000E+00  0.00000000000E+00 -0.12892697227E+04  0.12892697228E+04  0.50400001928E-02 0. -1.
    10030    2    1    2    0    0  0.00000000000E+00  0.00000000000E+00 -0.16104381039E+03  0.24174956351E+04  0.24121256263E+04 0.  0.
        2    1    3    3  502    0 -0.82018662387E+02 -0.69363789762E+03 -0.10659335296E+04  0.12743919662E+04  0.25500000920E-02 0. -1.
       -2    1    3    3    0  502  0.82018662387E+02  0.69363789762E+03  0.90488971920E+03  0.11431036689E+04  0.25500000920E-02 0.  1.
</event>
<event>
 5   0  0.9491680E-05  0.2387073E+04  0.7818609E-02  0.8444359E-01
        2   -1    0    0  501    0  0.00000000000E+00  0.00000000000E+00  0.23756483853E+04  0.23756483853E+04  0.25500000920E-02 0.  1.
       -2   -1    0    0    0  501  0.00000000000E+00  0.00000000000E+00 -0.59963818405E+03  0.59963818405E+03  0.25500000920E-02 0. -1.
    10030    2    1    2    0    0  0.00000000000E+00  0.00000000000E+00  0.17760102012E+04  0.29752865693E+04  0.23870730895E+04 0.  0.
        5    1    3    3  502    0  0.58766416273E+03  0.10388054010E+04  0.87996939263E+03  0.14828466041E+04  0.46999998093E+01 0.  1.
       -5    1    3    3    0  502 -0.58766416273E+03 -0.10388054010E+04  0.89604080861E+03  0.14924399653E+04  0.46999998093E+01 0. -1.
</event>
<event>
 5   0  0.4018942E-05  0.2389639E+04  0.7818609E-02  0.8443393E-01
        1   -1    0    0  501    0  0.00000000000E+00  0.00000000000E+00  0.13480838099E+04  0.13480838099E+04  0.50400001928E-02 0.  1.
       -1   -1    0    0    0  501  0.00000000000E+00  0.00000000000E+00 -0.10589802535E+04  0.10589802535E+04  0.50400001928E-02 0. -1.
    10030    2    1    2    0    0  0.00000000000E+00  0.00000000000E+00  0.28910355640E+03  0.24070640635E+04  0.23896394162E+04 0.  0.
        5    1    3    3  502    0  0.10377129144E+04  0.33819337413E+03 -0.34515074131E+03  0.11447156745E+04  0.46999998093E+01 0. -1.
       -5    1    3    3    0  502 -0.10377129144E+04 -0.33819337413E+03  0.63425429771E+03  0.12623483890E+04  0.46999998093E+01 0.  1.
</event>
<event>
 5   0  0.4061631E-05  0.2280825E+04  0.7818609E-02  0.8485520E-01
       -1   -1    0    0    0  501  0.00000000000E+00  0.00000000000E+00  0.67147947902E+03  0.67147947904E+03  0.50400001928E-02 0. -1.
        1   -1    0    0  501    0  0.00000000000E+00  0.00000000000E+00 -0.19368282844E+04  0.19368282844E+04  0.50400001928E-02 0.  1.
    10030    2    1    2    0    0  0.00000000000E+00  0.00000000000E+00 -0.12653488053E+04  0.26083077634E+04  0.22808248046E+04 0.  0.
        3    1    3    3  502    0  0.96463253319E+03 -0.54020343504E+03 -0.31287068685E+03  0.11490099008E+04  0.10100000352E+00 0. -1.
       -3    1    3    3    0  502 -0.96463253319E+03  0.54020343504E+03 -0.95247811849E+03  0.14592978626E+04  0.10100000352E+00 0.  1.
</event>
<event>
 5   0  0.4018942E-05  0.2426580E+04  0.7818609E-02  0.8429619E-01
       -1   -1    0    0    0  501  0.00000000000E+00  0.00000000000E+00  0.15932861091E+04  0.15932861091E+04  0.50400001928E-02 0.  1.
        1   -1    0    0  501    0  0.00000000000E+00  0.00000000000E+00 -0.92392222306E+03  0.92392222308E+03  0.50400001928E-02 0. -1.
    10030    2    1    2    0    0  0.00000000000E+00  0.00000000000E+00  0.66936388603E+03  0.25172083322E+04  0.24265798515E+04 0.  0.
        5    1    3    3  502    0  0.63762978665E+03 -0.10313140180E+04  0.28982331261E+03  0.12466755757E+04  0.46999998093E+01 0. -1.
       -5    1    3    3    0  502 -0.63762978665E+03  0.10313140180E+04  0.37954057342E+03  0.12705327565E+04  0.46999998093E+01 0.  1.
</event>
<event>
 5   0  0.4208577E-05  0.2331252E+04  0.7818609E-02  0.8465700E-01
       -1   -1    0    0    0  501  0.00000000000E+00  0.00000000000E+00  0.12677310215E+04  0.12677310215E+04  0.50400001928E-02 0.  1.
        1   -1    0    0  501    0  0.00000000000E+00  0.00000000000E+00 -0.10717448011E+04  0.10717448012E+04  0.50400001928E-02 0. -1.
    10030    2    1    2    0    0  0.00000000000E+00  0.00000000000E+00  0.19598622034E+03  0.23394758226E+04  0.23312521370E+04 0.  0.
        1    1    3    3  502    0  0.10623359779E+04  0.42472802096E+03 -0.12580143819E+03  0.11509898451E+04  0.50400001928E-02 0. -1.
       -1    1    3    3    0  502 -0.10623359779E+04 -0.42472802096E+03  0.32178765853E+03  0.11884859776E+04  0.50400001928E-02 0.  1.
</event>
<event>
 5   0  0.9750757E-05  0.3408243E+04  0.7818609E-02  0.8135886E-01
        2   -1    0    0  501    0  0.00000000000E+00  0.00000000000E+00  0.17689856172E+04  0.17689856172E+04  0.25500000920E-02 0.  1.
       -2   -1    0    0    0  501  0.00000000000E+00  0.00000000000E+00 -0.16416357483E+04  0.16416357483E+04  0.25500000920E-02 0. -1.
    10030    2    1    2    0    0  0.00000000000E+00  0.00000000000E+00  0.12734986882E+03  0.34106213655E+04  0.34082429652E+04 0.  0.
        2    1    3    3  502    0  0.17867276614E+03  0.12997532833E+04  0.11519758027E+04  0.17459469651E+04  0.25500000920E-02 0. -1.
       -2    1    3    3    0  502 -0.17867276614E+03 -0.12997532833E+04 -0.10246259339E+04  0.16646744004E+04  0.25500000920E-02 0.  1.
</event>
<event>
 5   0  0.9144244E-05  0.2499693E+04  0.7818609E-02  0.8403095E-01
        2   -1    0    0  501    0  0.00000000000E+00  0.00000000000E+00  0.13607877565E+04  0.13607877565E+04  0.25500000920E-02 0.  1.
       -2   -1    0    0    0  501  0.00000000000E+00  0.00000000000E+00 -0.11479499551E+04  0.11479499551E+04  0.25500000920E-02 0. -1.
    10030    2    1    2    0    0  0.00000000000E+00  0.00000000000E+00  0.21283780142E+03  0.25087377116E+04  0.24996929764E+04 0.  0.
        1    1    3    3  502    0 -0.22491309135E+03  0.81736655402E+03 -0.81529527599E+03  0.11761719132E+04  0.50400001928E-02 0. -1.
       -1    1    3    3    0  502  0.22491309135E+03 -0.81736655402E+03  0.10281330774E+04  0.13325657984E+04  0.50400001928E-02 0.  1.
</event>
<event>
 5   0  0.3234750E-05  0.2366607E+04  0.7818609E-02  0.8452112E-01
        3   -1    0    0  501    0  0.00000000000E+00  0.00000000000E+00  0.10394463945E+04  0.10394463994E+04  0.10100000352E+00 0.  1.
       -3   -1    0    0    0  501  0.00000000000E+00  0.00000000000E+00 -0.13470696225E+04  0.13470696263E+04  0.10100000352E+00 0. -1.
    10030    2    1    2    0    0  0.00000000000E+00  0.00000000000E+00 -0.30762322797E+03  0.23865160257E+04  0.23666065770E+04 0.  0.
        2    1    3    3  502    0  0.96491149771E+03 -0.12370000822E+03 -0.83316357292E+03  0.12808268539E+04  0.25500000920E-02 0. -1.
       -2    1    3    3    0  502 -0.96491149771E+03  0.12370000822E+03  0.52554034495E+03  0.11056891718E+04  0.25500000920E-02 0.  1.
</event>
<event>
 5   0  0.3934906E-05  0.2046653E+04  0.7818609E-02  0.8585114E-01
       -1   -1    0    0    0  501  0.00000000000E+00  0.00000000000E+00  0.11020871329E+04  0.11020871329E+04  0.50400001928E-02 0. -1.
        1   -1    0    0  501    0  0.00000000000E+00  0.00000000000E+00 -0.95019430348E+03  0.95019430349E+03  0.50400001928E-02 0.  1.
    10030    2    1    2    0    0  0.00000000000E+00  0.00000000000E+00  0.15189282940E+03  0.20522814364E+04  0.20466527948E+04 0.  0.
        2    1    3    3  502    0  0.23965535584E+03 -0.12867117827E+03 -0.91327867438E+03  0.95292649181E+03  0.25500000920E-02 0.  1.
       -2    1    3    3    0  502 -0.23965535584E+03  0.12867117827E+03  0.10651715038E+04  0.10993549446E+04  0.25500000920E-02 0. -1.
</event>
<event>
 5   0  0.4061631E-05  0.2379189E+04  0.7818609E-02  0.8447336E-01
        1   -1    0    0  501    0  0.00000000000E+00  0.00000000000E+00  0.20430179059E+04  0.20430179059E+04  0.50400001928E-02 0.  1.
       -1   -1    0    0    0  501  0.00000000000E+00  0.00000000000E+00 -0.69266920312E+03  0.69266920314E+03  0.50400001928E-02 0. -1.
    10030    2    1    2    0    0  0.00000000000E+00  0.00000000000E+00  0.13503487027E+04  0.27356871090E+04  0.23791894291E+04 0.  0.
        3    1    3    3  502    0 -0.11340083790E+04  0.30933477074E+03  0.46480525771E+03  0.12640043282E+04  0.10100000352E+00 0. -1.
       -3    1    3    3    0  502  0.11340083790E+04 -0.30933477074E+03  0.88554344503E+03  0.14716827808E+04  0.10100000352E+00 0.  1.
</event>
<event>
 5   0  0.9750757E-05  0.2471943E+04  0.7818609E-02  0.8413050E-01
        2   -1    0    0  501    0  0.00000000000E+00  0.00000000000E+00  0.57728539000E+03  0.57728539000E+03  0.25500000920E-02 0.  1.
       -2   -1    0    0    0  501  0.00000000000E+00  0.00000000000E+00 -0.26462218945E+04  0.26462218945E+04  0.25500000920E-02 0. -1.
    10030    2    1    2    0    0  0.00000000000E+00  0.00000000000E+00 -0.20689365045E+04  0.32235072845E+04  0.24719427488E+04 0.  0.
        2    1    3    3  502    0 -0.12571758538E+03  0.67555315073E+03  0.30523534521E+03  0.75189466464E+03  0.25500000920E-02 0.  1.
       -2    1    3    3    0  502  0.12571758538E+03 -0.67555315073E+03 -0.23741718497E+04  0.24716126198E+04  0.25500000920E-02 0. -1.
</event>
<event>
 5   0  0.9182865E-05  0.2129417E+04  0.7818609E-02  0.8548395E-01
       -2   -1    0    0    0  501  0.00000000000E+00  0.00000000000E+00  0.43887109813E+03  0.43887109814E+03  0.25500000920E-02 0. -1.
        2   -1    0    0  501    0  0.00000000000E+00  0.00000000000E+00 -0.25830004636E+04  0.25830004636E+04  0.25500000920E-02 0.  1.
    10030    2    1    2    0    0  0.00000000000E+00  0.00000000000E+00 -0.21441293655E+04  0.30218715618E+04  0.21294170563E+04 0.  0.
        3    1    3    3  502    0  0.70636107078E+03 -0.28650825812E+02 -0.22018715407E+04  0.23125754310E+04  0.10100000352E+00 0.  1.
       -3    1    3    3    0  502 -0.70636107078E+03  0.28650825812E+02  0.57742175200E+02  0.70929613077E+03  0.10100000352E+00 0. -1.
</event>
<event>
 5   0  0.4208577E-05  0.2393348E+04  0.7818609E-02  0.8441998E-01
        1   -1    0    0  501    0  0.00000000000E+00  0.00000000000E+00  0.17358465206E+04  0.17358465206E+04  0.50400001928E-02 0.  1.
       -1   -1    0    0    0  501  0.00000000000E+00  0.00000000000E+00 -0.82497402297E+03  0.82497402298E+03  0.50400001928E-02 0. -1.
    10030    2    1    2    0    0  0.00000000000E+00  0.00000000000E+00  0.91087249763E+03  0.25608205436E+04  0.23933476867E+04 0.  0.
        1    1    3    3  502    0 -0.72099409328E+03  0.70455685420E+03  0.11453792512E+04  0.15258199345E+04  0.50400001928E-02 0.  1.
       -1    1    3    3    0  502  0.72099409328E+03 -0.70455685420E+03 -0.23450675357E+03  0.10350006091E+04  0.50400001928E-02 0. -1.
</event>
<event>
 5   0  0.9750757E-05  0.2334274E+04  0.7818609E-02  0.8464529E-01
        2   -1    0    0  501    0  0.00000000000E+00  0.00000000000E+00  0.21211768272E+04  0.21211768272E+04  0.25500000920E-02 0. -1.
       -2   -1    0    0    0  501  0.00000000000E+00  0.00000000000E+00 -0.64219483936E+03  0.64219483937E+03  0.25500000920E-02 0.  1.
    10030    2    1    2    0    0  0.00000000000E+00  0.00000000000E+00  0.14789819879E+04  0.27633716666E+04  0.23342740301E+04 0.  0.
        2    1    3    3  502    0 -0.88861955292E+03 -0.54676819051E+03  0.12026044726E+03  0.10502679368E+04  0.25500000920E-02 0. -1.
       -2    1    3    3    0  502  0.88861955292E+03  0.54676819051E+03  0.13587215406E+04  0.17131037298E+04  0.25500000920E-02 0.  1.
</event>
<event>
 5   0  0.4260395E-05  0.2393863E+04  0.7818609E-02  0.8441805E-01
        1   -1    0    0  501    0  0.00000000000E+00  0.00000000000E+00  0.14645449393E+04  0.14645449393E+04  0.50400001928E-02 0. -1.
       -1   -1    0    0    0  501  0.00000000000E+00  0.00000000000E+00 -0.97821862597E+03  0.97821862598E+03  0.50400001928E-02 0.  1.
    10030    2    1    2    0    0  0.00000000000E+00  0.00000000000E+00  0.48632631334E+03  0.24427635653E+04  0.23938631024E+04 0.  0.
        4    1    3    3  502    0 -0.18479582438E+03  0.30577567385E+03  0.14088626051E+04  0.14534592228E+04  0.12699999809E+01 0. -1.
       -4    1    3    3    0  502  0.18479582438E+03 -0.30577567385E+03 -0.92253629179E+03  0.98930434246E+03  0.12699999809E+01 0.  1.
</event>
<event>
 5   0  0.4061631E-05  0.2355902E+04  0.7818609E-02  0.8456200E-01
       -1   -1    0    0    0  501  0.00000000000E+00  0.00000000000E+00  0.11255574022E+04  0.11255574022E+04  0.50400001928E-02 0. -1.
        1   -1    0    0  501    0  0.00000000000E+00  0.00000000000E+00 -0.12327839745E+04  0.12327839745E+04  0.50400001928E-02 0.  1.
    10030    2    1    2    0    0  0.00000000000E+00  0.00000000000E+00 -0.10722657234E+03  0.23583413767E+04  0.23559024834E+04 0.  0.
        3    1    3    3  502    0  0.10770889525E+04  0.39690414447E+03 -0.31830260998E+03  0.11912053027E+04  0.10100000352E+00 0.  1.
       -3    1    3    3    0  502 -0.10770889525E+04 -0.39690414447E+03  0.21107603764E+03  0.11671360740E+04  0.10100000352E+00 0. -1.
</event>
<event>
 5   0  0.9491680E-05  0.2029028E+04  0.7818609E-02  0.8593168E-01
        2   -1    0    0  501    0  0.00000000000E+00  0.00000000000E+00  0.10454587497E+04  0.10454587497E+04  0.25500000920E-02 0. -1.
       -2   -1    0    0    0  501  0.00000000000E+00  0.00000000000E+00 -0.98448544659E+03  0.98448544659E+03  0.25500000920E-02 0.  1.
    10030    2    1    2    0    0  0.00000000000E+00  0.00000000000E+00  0.60973303155E+02  0.20299441963E+04  0.20290282641E+04 0.  0.
        5    1    3    3  502    0  0.65420173486E+03  0.57114635439E+03  0.55515523836E+03  0.10307315347E+04  0.46999998093E+01 0. -1.
       -5    1    3    3    0  502 -0.65420173486E+03 -0.57114635439E+03 -0.49418193520E+03  0.99921266160E+03  0.46999998093E+01 0.  1.
</event>
<event>
 5   0  0.9750757E-05  0.2236733E+04  0.7818609E-02  0.8503293E-01
        2   -1    0    0  501    0  0.00000000000E+00  0.00000000000E+00  0.22012906886E+04  0.22012906886E+04  0.25500000920E-02 0.  1.
       -2   -1    0    0    0  501  0.00000000000E+00  0.00000000000E+00 -0.56818627945E+03  0.56818627946E+03  0.25500000920E-02 0. -1.
    10030    2    1    2    0    0  0.00000000000E+00  0.00000000000E+00  0.16331044091E+04  0.27694769680E+04  0.22367325869E+04 0.  0.
        2    1    3    3  502    0 -0.86199348176E+03  0.71067957372E+03  0.75287379655E+03  0.13471886181E+04  0.25500000920E-02 0. -1.
       -2    1    3    3    0  502  0.86199348176E+03 -0.71067957372E+03  0.88023061255E+03  0.14222883499E+04  0.25500000920E-02 0.  1.
</event>
<event>
 5   0  0.3234750E-05  0.2360732E+04  0.7818609E-02  0.8454353E-01
       -3   -1    0    0    0  501  0.00000000000E+00  0.00000000000E+00  0.95291524503E+03  0.95291525039E+03  0.10100000352E+00 0.  1.
        3   -1    0    0  501    0  0.00000000000E+00  0.00000000000E+00 -0.14621070350E+04  0.14621070384E+04  0.10100000352E+00 0. -1.
    10030    2    1    2    0    0  0.00000000000E+00  0.00000000000E+00 -0.50919178992E+03  0.24150222888E+04  0.23607321696E+04 0.  0.
        3    1    3    3  502    0  0.10933489885E+03  0.10999131334E+04  0.16905471204E+03  0.11181871610E+04  0.10100000352E+00 0. -1.
       -3    1    3    3    0  502 -0.10933489885E+03 -0.10999131334E+04 -0.67824650196E+03  0.12968351278E+04  0.10100000352E+00 0.  1.
</event>
<event>
 5   0  0.4018942E-05  0.2380670E+04  0.7818609E-02  0.8446776E-01
        1   -1    0    0  501    0  0.00000000000E+00  0.00000000000E+00  0.22685061524E+04  0.22685061524E+04  0.50400001928E-02 0. -1.
       -1   -1    0    0    0  501  0.00000000000E+00  0.00000000000E+00 -0.62459503199E+03  0.62459503201E+03  0.50400001928E-02 0.  1.
    10030    2    1    2    0    0  0.00000000000E+00  0.00000000000E+00  0.16439111204E+04  0.28931011844E+04  0.23806702189E+04 0.  0.
        5    1    3    3  502    0 -0.59926491492E+03  0.74424008556E+03 -0.40667333234E+02  0.95639304953E+03  0.46999998093E+01 0.  1.
       -5    1    3    3    0  502  0.59926491492E+03 -0.74424008556E+03  0.16845784536E+04  0.19367081348E+04  0.46999998093E+01 0. -1.
</event>
<event>
 5   0  0.3934906E-05  0.2301605E+04  0.7818609E-02  0.8477289E-01
        1   -1    0    0  501    0  0.00000000000E+00  0.00000000000E+00  0.79917591782E+03  0.79917591784E+03  0.50400001928E-02 0. -1.
       -1   -1    0    0    0  501  0.00000000000E+00  0.00000000000E+00 -0.16571393017E+04  0.16571393017E+04  0.50400001928E-02 0.  1.
    10030    2    1    2    0    0  0.00000000000E+00  0.00000000000E+00 -0.85796338391E+03  0.24563152196E+04  0.23016045033E+04 0.  0.
        2    1    3    3  502    0 -0.80864915838E+03 -0.62668816849E+03  0.13340739372E+03  0.10317214036E+04  0.25500000920E-02 0. -1.
       -2    1    3    3    0  502  0.80864915838E+03  0.62668816849E+03 -0.99137077763E+03  0.14245938160E+04  0.25500000920E-02 0.  1.
</event>
<event>
 5   0  0.4208577E-05  0.2110125E+04  0.7818609E-02  0.8556796E-01
       -1   -1    0    0    0  501  0.00000000000E+00  0.00000000000E+00  0.58368741353E+03  0.58368741355E+03  0.50400001928E-02 0. -1.
        1   -1    0    0  501    0  0.00000000000E+00  0.00000000000E+00 -0.19071117224E+04  0.19071117224E+04  0.50400001928E-02 0.  1.
    10030    2    1    2    0    0  0.00000000000E+00  0.00000000000E+00 -0.13234243089E+04  0.24907991359E+04  0.21101252177E+04 0.  0.
        1    1    3    3  502    0  0.25600723281E+02 -0.75483647555E+03  0.20788845392E+03  0.78335886486E+03  0.50400001928E-02 0. -1.
       -1    1    3    3    0  502 -0.25600723281E+02  0.75483647555E+03 -0.15313127628E+04  0.17074402711E+04  0.50400001928E-02 0.  1.
</event>
<event>
 5   0  0.9750757E-05  0.2372246E+04  0.7818609E-02  0.8449968E-01
        2   -1    0    0  501    0  0.00000000000E+00  0.00000000000E+00  0.93137394218E+03  0.93137394218E+03  0.25500000920E-02 0.  1.
       -2   -1    0    0    0  501  0.00000000000E+00  0.00000000000E+00 -0.15105510755E+04  0.15105510755E+04  0.25500000920E-02 0. -1.
    10030    2    1    2    0    0  0.00000000000E+00  0.00000000000E+00 -0.57917713333E+03  0.24419250177E+04  0.23722461171E+04 0.  0.
        2    1    3    3  502    0 -0.97617275011E+03  0.28332116108E+03  0.33968042546E+03  0.10717121394E+04  0.25500000920E-02 0.  1.
       -2    1    3    3    0  502  0.97617275011E+03 -0.28332116108E+03 -0.91885755879E+03  0.13702128783E+04  0.25500000920E-02 0. -1.
</event>
<event>
 5   0  0.4208577E-05  0.2576581E+04  0.7818609E-02  0.8376200E-01
        1   -1    0    0  501    0  0.00000000000E+00  0.00000000000E+00  0.16554507554E+04  0.16554507554E+04  0.50400001928E-02 0. -1.
       -1   -1    0    0    0  501  0.00000000000E+00  0.00000000000E+00 -0.10025621057E+04  0.10025621058E+04  0.50400001928E-02 0.  1.
    10030    2    1    2    0    0  0.00000000000E+00  0.00000000000E+00  0.65288864961E+03  0.26580128611E+04  0.25765808315E+04 0.  0.
        1    1    3    3  502    0  0.57349268077E+03 -0.66579176448E+03 -0.64541252322E+03  0.10902888854E+04  0.50400001928E-02 0.  1.
       -1    1    3    3    0  502 -0.57349268077E+03  0.66579176448E+03  0.12983011728E+04  0.15677239757E+04  0.50400001928E-02 0. -1.
</event>
<event>
 5   0  0.3234750E-05  0.2433583E+04  0.7818609E-02  0.8427037E-01
       -4   -1    0    0    0  501  0.00000000000E+00  0.00000000000E+00  0.88844753285E+03  0.88844844056E+03  0.12699999809E+01 0. -1.
        4   -1    0    0  501    0  0.00000000000E+00  0.00000000000E+00 -0.16664793301E+04  0.16664798140E+04  0.12699999809E+01 0.  1.
    10030    2    1    2    0    0  0.00000000000E+00  0.00000000000E+00 -0.77803179726E+03  0.25549282546E+04  0.24335827310E+04 0.  0.
        2    1    3    3  502    0 -0.53142285733E+03 -0.47865912588E+02 -0.15371070360E+04  0.16270831075E+04  0.25500000920E-02 0.  1.
       -2    1    3    3    0  502  0.53142285733E+03  0.47865912588E+02  0.75907523870E+03  0.92784514704E+03  0.25500000920E-02 0. -1.
</event>
<event>
 5   0  0.4061631E-05  0.2015773E+04  0.7818609E-02  0.8599282E-01
       -1   -1    0    0    0  501  0.00000000000E+00  0.00000000000E+00  0.11076838483E+04  0.11076838483E+04  0.50400001928E-02 0.  1.
        1   -1    0    0  501    0  0.00000000000E+00  0.00000000000E+00 -0.91708015468E+03  0.91708015469E+03  0.50400001928E-02 0. -1.
    10030    2    1    2    0    0  0.00000000000E+00  0.00000000000E+00  0.19060369363E+03  0.20247640030E+04  0.20157726806E+04 0.  0.
        3    1    3    3  502    0 -0.76630269290E+03 -0.28675283792E+03 -0.49587060220E+03  0.95673124310E+03  0.10100000352E+00 0.  1.
       -3    1    3    3    0  502  0.76630269290E+03  0.28675283792E+03  0.68647429583E+03  0.10680327599E+04  0.10100000352E+00 0. -1.
</event>
<event>
 5   0  0.3234750E-05  0.2450953E+04  0.7818609E-02  0.8420670E-01
        3   -1    0    0  501    0  0.00000000000E+00  0.00000000000E+00  0.12390254499E+04  0.12390254540E+04  0.10100000352E+00 0. -1.
       -3   -1    0    0    0  501  0.00000000000E+00  0.00000000000E+00 -0.12120761159E+04  0.12120761201E+04  0.10100000352E+00 0.  1.
    10030    2    1    2    0    0  0.00000000000E+00  0.00000000000E+00  0.26949333954E+02  0.24511015741E+04  0.24509534186E+04 0.  0.
        1    1    3    3  502    0 -0.59908906456E+03  0.47021206958E+03 -0.94668027427E+03  0.12149940903E+04  0.50400001928E-02 0.  1.
       -1    1    3    3    0  502  0.59908906456E+03 -0.47021206958E+03  0.97362960822E+03  0.12361074839E+04  0.50400001928E-02 0. -1.
</event>
<event>
 5   0  0.4018942E-05  0.2355138E+04  0.7818609E-02  0.8456493E-01
        1   -1    0    0  501    0  0.00000000000E+00  0.00000000000E+00  0.12945256214E+04  0.12945256214E+04  0.50400001928E-02 0.  1.
       -1   -1    0    0    0  501  0.00000000000E+00  0.00000000000E+00 -0.10711788826E+04  0.10711788826E+04  0.50400001928E-02 0. -1.
    10030    2    1    2    0    0  0.00000000000E+00  0.00000000000E+00  0.22334673884E+03  0.23657045040E+04  0.23551377952E+04 0.  0.
        5    1    3    3  502    0 -0.37092609309E+02 -0.15718704073E+03 -0.10599916646E+04  0.10722350705E+04  0.46999998093E+01 0. -1.
       -5    1    3    3    0  502  0.37092609309E+02  0.15718704073E+03  0.12833384035E+04  0.12934694334E+04  0.46999998093E+01 0.  1.
</event>
<event>
 5   0  0.9750757E-05  0.2301150E+04  0.7818609E-02  0.8477468E-01
        2   -1    0    0  501    0  0.00000000000E+00  0.00000000000E+00  0.11678714082E+04  0.11678714082E+04  0.25500000920E-02 0. -1.
       -2   -1    0    0    0  501  0.00000000000E+00  0.00000000000E+00 -0.11335351945E+04  0.11335351945E+04  0.25500000920E-02 0.  1.
    10030    2    1    2    0    0  0.00000000000E+00  0.00000000000E+00  0.34336213743E+02  0.23014066027E+04  0.23011504461E+04 0.  0.
        2    1    3    3  502    0  0.10453052895E+03  0.51047639052E+03  0.10431041964E+04  0.11660099233E+04  0.25500000920E-02 0. -1.
       -2    1    3    3    0  502 -0.10453052895E+03 -0.51047639052E+03 -0.10087679826E+04  0.11353966794E+04  0.25500000920E-02 0.  1.
</event>
<event>
 5   0  0.3234750E-05  0.2386353E+04  0.7818609E-02  0.8444631E-01
        3   -1    0    0  501    0  0.00000000000E+00  0.00000000000E+00  0.11899241574E+04  0.11899241617E+04  0.10100000352E+00 0.  1.
       -3   -1    0    0    0  501  0.00000000000E+00  0.00000000000E+00 -0.11964376411E+04  0.11964376454E+04  0.10100000352E+00 0. -1.
    10030    2    1    2    0    0  0.00000000000E+00  0.00000000000E+00 -0.65134837309E+01  0.23863618070E+04  0.23863529178E+04 0.  0.
        3    1    3    3  502    0 -0.79759909593E+03  0.44250591837E+03 -0.77247625178E+03  0.11952804589E+04  0.10100000352E+00 0. -1.
       -3    1    3    3    0  502  0.79759909593E+03 -0.44250591837E+03  0.76596276805E+03  0.11910813481E+04  0.10100000352E+00 0.  1.
</event>
<event>
 5   0  0.4208577E-05  0.2476493E+04  0.7818609E-02  0.8411408E-01
        1   -1    0    0  501    0  0.00000000000E+00  0.00000000000E+00  0.16541885779E+04  0.16541885779E+04  0.50400001928E-02 0. -1.
       -1   -1    0    0    0  501  0.00000000000E+00  0.00000000000E+00 -0.92689208337E+03  0.92689208339E+03  0.50400001928E-02 0.  1.
    10030    2    1    2    0    0  0.00000000000E+00  0.00000000000E+00  0.72729649452E+03  0.25810806613E+04  0.24764929213E+04 0.  0.
        1    1    3    3  502    0 -0.54597986069E+03 -0.56444063912E+03 -0.63415889240E+03  0.10093783950E+04  0.50400001928E-02 0.  1.
       -1    1    3    3    0  502  0.54597986069E+03  0.56444063912E+03  0.13614553869E+04  0.15717022663E+04  0.50400001928E-02 0. -1.
</event>
<event>
 5   0  0.9750757E-05  0.2267490E+04  0.7818609E-02  0.8490851E-01
        2   -1    0    0  501    0  0.00000000000E+00  0.00000000000E+00  0.13607267614E+04  0.13607267614E+04  0.25500000920E-02 0. -1.
       -2   -1    0    0    0  501  0.00000000000E+00  0.00000000000E+00 -0.94462559152E+03  0.94462559152E+03  0.25500000920E-02 0.  1.
    10030    2    1    2    0    0  0.00000000000E+00  0.00000000000E+00  0.41610116990E+03  0.23053523529E+04  0.22674896444E+04 0.  0.
        2    1    3    3  502    0  0.10971132985E+04  0.25046550585E+03  0.34814391570E+03  0.11779621154E+04  0.25500000920E-02 0. -1.
       -2    1    3    3    0  502 -0.10971132985E+04 -0.25046550585E+03  0.67957254203E+02  0.11273902375E+04  0.25500000920E-02 0.  1.
</event>
<event>
 5   0  0.3934906E-05  0.2351491E+04  0.7818609E-02  0.8457891E-01
       -1   -1    0    0    0  501  0.00000000000E+00  0.00000000000E+00  0.92956259713E+03  0.92956259714E+03  0.50400001928E-02 0. -1.
        1   -1    0    0  501    0  0.00000000000E+00  0.00000000000E+00 -0.14871269702E+04  0.14871269702E+04  0.50400001928E-02 0.  1.
    10030    2    1    2    0    0  0.00000000000E+00  0.00000000000E+00 -0.55756437310E+03  0.24166895674E+04  0.23514911088E+04 0.  0.
        2    1    3    3  502    0  0.59861050961E+02 -0.14482964405E+03 -0.14763452955E+04  0.14846394858E+04  0.25500000920E-02 0.  1.
       -2    1    3    3    0  502 -0.59861050961E+02  0.14482964405E+03  0.91878092240E+03  0.93205008159E+03  0.25500000920E-02 0. -1.
</event>
<event>
 5   0  0.3934906E-05  0.1295352E+04  0.7818609E-02  0.9033259E-01
       -1   -1    0    0    0  501  0.00000000000E+00  0.00000000000E+00  0.19039889306E+03  0.19039889313E+03  0.50400001928E-02 0.  1.
        1   -1    0    0  501    0  0.00000000000E+00  0.00000000000E+00 -0.22031860687E+04  0.22031860687E+04  0.50400001928E-02 0. -1.
    10030    2    1    2    0    0  0.00000000000E+00  0.00000000000E+00 -0.20127871757E+04  0.23935849619E+04  0.12953519812E+04 0.  0.
        2    1    3    3  502    0 -0.14215406071E+03  0.30345351769E+03 -0.20305499550E+04  0.20580148042E+04  0.25500000920E-02 0. -1.
       -2    1    3    3    0  502  0.14215406071E+03 -0.30345351769E+03  0.17762779376E+02  0.33557015766E+03  0.25500000920E-02 0.  1.
</event>
<event>
 5   0  0.4260395E-05  0.2324399E+04  0.7818609E-02  0.8468363E-01
       -1   -1    0    0    0  501  0.00000000000E+00  0.00000000000E+00  0.81782909809E+03  0.81782909810E+03  0.50400001928E-02 0.  1.
        1   -1    0    0  501    0  0.00000000000E+00  0.00000000000E+00 -0.16515769848E+04  0.16515769848E+04  0.50400001928E-02 0. -1.
    10030    2    1    2    0    0  0.00000000000E+00  0.00000000000E+00 -0.83374788669E+03  0.24694060829E+04  0.23243990328E+04 0.  0.
        4    1    3    3  502    0  0.85145141143E+03  0.38617168395E+03  0.31656253108E+03  0.98707219822E+03  0.12699999809E+01 0. -1.
       -4    1    3    3    0  502 -0.85145141143E+03 -0.38617168395E+03 -0.11503104178E+04  0.14823338847E+04  0.12699999809E+01 0.  1.
</event>
<event>
 5   0  0.4260395E-05  0.2105553E+04  0.7818609E-02  0.8558801E-01
        1   -1    0    0  501    0  0.00000000000E+00  0.00000000000E+00  0.15460344733E+04  0.15460344733E+04  0.50400001928E-02 0. -1.
       -1   -1    0    0    0  501  0.00000000000E+00  0.00000000000E+00 -0.71689114926E+03  0.71689114928E+03  0.50400001928E-02 0.  1.
    10030    2    1    2    0    0  0.00000000000E+00  0.00000000000E+00  0.82914332401E+03  0.22629256226E+04  0.21055530678E+04 0.  0.
        4    1    3    3  502    0  0.71726030597E+03  0.46463028308E+03  0.10753351926E+04  0.13735687226E+04  0.12699999809E+01 0. -1.
       -4    1    3    3    0  502 -0.71726030597E+03 -0.46463028308E+03 -0.24619186855E+03  0.88935689996E+03  0.12699999809E+01 0.  1.
</event>
<event>
 5   0  0.4018942E-05  0.2236370E+04  0.7818609E-02  0.8503441E-01
       -1   -1    0    0    0  501  0.00000000000E+00  0.00000000000E+00  0.11295701058E+04  0.11295701058E+04  0.50400001928E-02 0. -1.
        1   -1    0    0  501    0  0.00000000000E+00  0.00000000000E+00 -0.11069145343E+04  0.11069145343E+04  0.50400001928E-02 0.  1.
    10030    2    1    2    0    0  0.00000000000E+00  0.00000000000E+00  0.22655571530E+02  0.22364846401E+04  0.22363698868E+04 0.  0.
        5    1    3    3  502    0 -0.18736385708E+03 -0.50482722181E+03  0.99135752916E+03  0.11281700135E+04  0.46999998093E+01 0. -1.
       -5    1    3    3    0  502  0.18736385708E+03  0.50482722181E+03 -0.96870195763E+03  0.11083146266E+04  0.46999998093E+01 0.  1.
</event>
<event>
 5   0  0.4061631E-05  0.2411461E+04  0.7818609E-02  0.8435225E-01
        1   -1    0    0  501    0  0.00000000000E+00  0.00000000000E+00  0.18901106905E+04  0.18901106905E+04  0.50400001928E-02 0.  1.
       -1   -1    0    0    0  501  0.00000000000E+00  0.00000000000E+00 -0.76915394120E+03  0.76915394122E+03  0.50400001928E-02 0. -1.
    10030    2    1    2    0    0  0.00000000000E+00  0.00000000000E+00  0.11209567493E+04  0.26592646317E+04  0.24114610401E+04 0.  0.
        3    1    3    3  502    0  0.73490575767E+03 -0.18342084358E+03  0.15949928218E+04  0.17657099961E+04  0.10100000352E+00 0.  1.
       -3    1    3    3    0  502 -0.73490575767E+03  0.18342084358E+03 -0.47403607254E+03  0.89355463559E+03  0.10100000352E+00 0. -1.
</event>
<event>
 5   0  0.9491680E-05  0.2417222E+04  0.7818609E-02  0.8433084E-01
        2   -1    0    0  501    0  0.00000000000E+00  0.00000000000E+00  0.16163261240E+04  0.16163261240E+04  0.25500000920E-02 0.  1.
       -2   -1    0    0    0  501  0.00000000000E+00  0.00000000000E+00 -0.90374138581E+03  0.90374138582E+03  0.25500000920E-02 0. -1.
    10030    2    1    2    0    0  0.00000000000E+00  0.00000000000E+00  0.71258473822E+03  0.25200675099E+04  0.24172222167E+04 0.  0.
        5    1    3    3  502    0 -0.37230833179E+03 -0.10778281041E+04 -0.61236669835E+02  0.11419715126E+04  0.46999998093E+01 0. -1.
       -5    1    3    3    0  502  0.37230833179E+03  0.10778281041E+04  0.77382140806E+03  0.13780959972E+04  0.46999998093E+01 0.  1.
</event>
<event>
 5   0  0.4018942E-05  0.2360066E+04  0.7818609E-02  0.8454607E-01
       -1   -1    0    0    0  501  0.00000000000E+00  0.00000000000E+00  0.11916666332E+04  0.11916666333E+04  0.50400001928E-02 0. -1.
        1   -1    0    0  501    0  0.00000000000E+00  0.00000000000E+00 -0.11685131414E+04  0.11685131414E+04  0.50400001928E-02 0.  1.
    10030    2    1    2    0    0  0.00000000000E+00  0.00000000000E+00  0.23153491871E+02  0.23601797746E+04  0.23600662034E+04 0.  0.
        5    1    3    3  502    0  0.39693918542E+03 -0.51826217176E+03  0.99462945989E+03  0.11897336879E+04  0.46999998093E+01 0. -1.
       -5    1    3    3    0  502 -0.39693918542E+03  0.51826217176E+03 -0.97147596802E+03  0.11704460868E+04  0.46999998093E+01 0.  1.
</event>
<event>
 5   0  0.9144244E-05  0.2345149E+04  0.7818609E-02  0.8460329E-01
       -2   -1    0    0    0  501  0.00000000000E+00  0.00000000000E+00  0.20446873514E+04  0.20446873514E+04  0.25500000920E-02 0.  1.
        2   -1    0    0  501    0  0.00000000000E+00  0.00000000000E+00 -0.67244047976E+03  0.67244047977E+03  0.25500000920E-02 0. -1.
    10030    2    1    2    0    0  0.00000000000E+00  0.00000000000E+00  0.13722468716E+04  0.27171278312E+04  0.23451486465E+04 0.  0.
        1    1    3    3  502    0  0.11086671361E+03  0.11519777593E+04  0.90468886148E+03  0.14689472837E+04  0.50400001928E-02 0.  1.
       -1    1    3    3    0  502 -0.11086671361E+03 -0.11519777593E+04  0.46755801016E+03  0.12481805475E+04  0.50400001928E-02 0. -1.
</event>
<event>
 5   0  0.4061631E-05  0.2404076E+04  0.7818609E-02  0.8437979E-01
        1   -1    0    0  501    0  0.00000000000E+00  0.00000000000E+00  0.11017932665E+04  0.11017932665E+04  0.50400001928E-02 0. -1.
       -1   -1    0    0    0  501  0.00000000000E+00  0.00000000000E+00 -0.13114032981E+04  0.13114032981E+04  0.50400001928E-02 0.  1.
    10030    2    1    2    0    0  0.00000000000E+00  0.00000000000E+00 -0.20961003160E+03  0.24131965645E+04  0.24040759750E+04 0.  0.
        3    1    3    3  502    0  0.37227598544E+03 -0.54762672279E+03 -0.11118112769E+04  0.12940667535E+04  0.10100000352E+00 0.  1.
       -3    1    3    3    0  502 -0.37227598544E+03  0.54762672279E+03  0.90220124528E+03  0.11191298111E+04  0.10100000352E+00 0. -1.
</event>
<event>
 5   0  0.4260395E-05  0.2354784E+04  0.7818609E-02  0.8456628E-01
       -1   -1    0    0    0  501  0.00000000000E+00  0.00000000000E+00  0.83849324970E+03  0.83849324971E+03  0.50400001928E-02 0.  1.
        1   -1    0    0  501    0  0.00000000000E+00  0.00000000000E+00 -0.16532655335E+04  0.16532655335E+04  0.50400001928E-02 0. -1.
    10030    2    1    2    0    0  0.00000000000E+00  0.00000000000E+00 -0.81477228383E+03  0.24917587832E+04  0.23547840579E+04 0.  0.
        4    1    3    3  502    0  0.49213924843E+03  0.10692421075E+04 -0.37801071001E+03  0.12362740125E+04  0.12699999809E+01 0. -1.
       -4    1    3    3    0  502 -0.49213924843E+03 -0.10692421075E+04 -0.43676157381E+03  0.12554847707E+04  0.12699999809E+01 0.  1.
</event>
<event>
 5   0  0.9144244E-05  0.2409023E+04  0.7818609E-02  0.8436133E-01
       -2   -1    0    0    0  501  0.00000000000E+00  0.00000000000E+00  0.72949888019E+03  0.72949888020E+03  0.25500000920E-02 0. -1.
        2   -1    0    0  501    0  0.00000000000E+00  0.00000000000E+00 -0.19888279966E+04  0.19888279966E+04  0.25500000920E-02 0.  1.
    10030    2    1    2    0    0  0.00000000000E+00  0.00000000000E+00 -0.12593291164E+04  0.27183268768E+04  0.24090228695E+04 0.  0.
        1    1    3    3  502    0 -0.40930432161E+03 -0.75728158115E+03  0.32103155246E+03  0.91873101534E+03  0.50400001928E-02 0. -1.
       -1    1    3    3    0  502  0.40930432161E+03  0.75728158115E+03 -0.15803606689E+04  0.17995958614E+04  0.50400001928E-02 0.  1.
</event>
<event>
 5   0  0.9182865E-05  0.2407401E+04  0.7818609E-02  0.8436738E-01
       -2   -1    0    0    0  501  0.00000000000E+00  0.00000000000E+00  0.95109996958E+03  0.95109996959E+03  0.25500000920E-02 0. -1.
        2   -1    0    0  501    0  0.00000000000E+00  0.00000000000E+00 -0.15233889979E+04  0.15233889979E+04  0.25500000920E-02 0.  1.
    10030    2    1    2    0    0  0.00000000000E+00  0.00000000000E+00 -0.57228902835E+03  0.24744889675E+04  0.24074012791E+04 0.  0.
        3    1    3    3  502    0 -0.78560608663E+03  0.79243921318E+03 -0.75011973224E+03  0.13445506509E+04  0.10100000352E+00 0.  1.
       -3    1    3    3    0  502  0.78560608663E+03 -0.79243921318E+03  0.17783070389E+03  0.11299383166E+04  0.10100000352E+00 0. -1.
</event>
<event>
 5   0  0.9144244E-05  0.2400338E+04  0.7818609E-02  0.8439377E-01
        2   -1    0    0  501    0  0.00000000000E+00  0.00000000000E+00  0.79252505434E+03  0.79252505435E+03  0.25500000920E-02 0.  1.
       -2   -1    0    0    0  501  0.00000000000E+00  0.00000000000E+00 -0.18174895898E+04  0.18174895898E+04  0.25500000920E-02 0. -1.
    10030    2    1    2    0    0  0.00000000000E+00  0.00000000000E+00 -0.10249645354E+04  0.26100146441E+04  0.24003383394E+04 0.  0.
        1    1    3    3  502    0  0.16611874792E+03  0.62642313984E+02 -0.18031322858E+04  0.18118514117E+04  0.50400001928E-02 0. -1.
       -1    1    3    3    0  502 -0.16611874792E+03 -0.62642313984E+02  0.77816775036E+03  0.79816323245E+03  0.50400001928E-02 0.  1.
</event>
<event>
 5   0  0.9182865E-05  0.2308907E+04  0.7818609E-02  0.8474417E-01
        2   -1    0    0  501    0  0.00000000000E+00  0.00000000000E+00  0.16875404593E+04  0.16875404593E+04  0.25500000920E-02 0.  1.
       -2   -1    0    0    0  501  0.00000000000E+00  0.00000000000E+00 -0.78976652147E+03  0.78976652147E+03  0.25500000920E-02 0. -1.
    10030    2    1    2    0    0  0.00000000000E+00  0.00000000000E+00  0.89777393783E+03  0.24773069808E+04  0.23089070647E+04 0.  0.
        3    1    3    3  502    0 -0.93765386138E+03  0.62489190549E+03  0.17941516319E+03  0.11409971377E+04  0.10100000352E+00 0. -1.
       -3    1    3    3    0  502  0.93765386138E+03 -0.62489190549E+03  0.71835877464E+03  0.13363098430E+04  0.10100000352E+00 0.  1.
</event>
<event>
 5   0  0.9750757E-05  0.2476196E+04  0.7818609E-02  0.8411515E-01
       -2   -1    0    0    0  501  0.00000000000E+00  0.00000000000E+00  0.15421169304E+04  0.15421169304E+04  0.25500000920E-02 0.  1.
        2   -1    0    0  501    0  0.00000000000E+00  0.00000000000E+00 -0.99401421869E+03  0.99401421869E+03  0.25500000920E-02 0. -1.
    10030    2    1    2    0    0  0.00000000000E+00  0.00000000000E+00  0.54810271175E+03  0.25361311491E+04  0.24761955946E+04 0.  0.
        2    1    3    3  502    0  0.67390674813E+03 -0.73544338378E+03  0.10251914306E+04  0.14304002046E+04  0.25500000920E-02 0.  1.
       -2    1    3    3    0  502 -0.67390674813E+03  0.73544338378E+03 -0.47708871889E+03  0.11057309445E+04  0.25500000920E-02 0. -1.
</event>
<event>
 5   0  0.9144244E-05  0.1711184E+04  0.7818609E-02  0.8755011E-01
       -2   -1    0    0    0  501  0.00000000000E+00  0.00000000000E+00  0.91157321122E+03  0.91157321123E+03  0.25500000920E-02 0. -1.
        2   -1    0    0  501    0  0.00000000000E+00  0.00000000000E+00 -0.80304873403E+03  0.80304873403E+03  0.25500000920E-02 0.  1.
    10030    2    1    2    0    0  0.00000000000E+00  0.00000000000E+00  0.10852447719E+03  0.17146219453E+04  0.17111840500E+04 0.  0.
        1    1    3    3  502    0  0.72756456378E+02 -0.57199712602E+03 -0.57911807141E+03  0.81722209636E+03  0.50400001928E-02 0.  1.
       -1    1    3    3    0  502 -0.72756456378E+02  0.57199712602E+03  0.68764254860E+03  0.89739984890E+03  0.50400001928E-02 0. -1.
</event>
<event>
 5   0  0.4018942E-05  0.2345695E+04  0.7818609E-02  0.8460119E-01
        1   -1    0    0  501    0  0.00000000000E+00  0.00000000000E+00  0.15164850286E+04  0.15164850286E+04  0.50400001928E-02 0. -1.
       -1   -1    0    0    0  501  0.00000000000E+00  0.00000000000E+00 -0.90707870149E+03  0.90707870150E+03  0.50400001928E-02 0.  1.
    10030    2    1    2    0    0  0.00000000000E+00  0.00000000000E+00  0.60940632707E+03  0.24235637301E+04  0.23456950105E+04 0.  0.
        5    1    3    3  502    0  0.22549947956E+03  0.11509316920E+04  0.29701257548E+03  0.12098480628E+04  0.46999998093E+01 0.  1.
       -5    1    3    3    0  502 -0.22549947956E+03 -0.11509316920E+04  0.31239375158E+03  0.12137156673E+04  0.46999998093E+01 0. -1.
</event>
<event>
 5   0  0.4018942E-05  0.2426114E+04  0.7818609E-02  0.8429791E-01
       -1   -1    0    0    0  501  0.00000000000E+00  0.00000000000E+00  0.63965448198E+03  0.63965448200E+03  0.50400001928E-02 0.  1.
        1   -1    0    0  501    0  0.00000000000E+00  0.00000000000E+00 -0.23004714108E+04  0.23004714109E+04  0.50400001928E-02 0. -1.
    10030    2    1    2    0    0  0.00000000000E+00  0.00000000000E+00 -0.16608169289E+04  0.29401258928E+04  0.24261136401E+04 0.  0.
        5    1    3    3  502    0 -0.10866495649E+04  0.31209515504E+03 -0.13631807345E+04  0.17710150953E+04  0.46999998093E+01 0. -1.
       -5    1    3    3    0  502  0.10866495649E+04 -0.31209515504E+03 -0.29763619432E+03  0.11691107975E+04  0.46999998093E+01 0.  1.
</event>
<event>
 5   0  0.9750757E-05  0.2547028E+04  0.7818609E-02  0.8386420E-01
        2   -1    0    0  501    0  0.00000000000E+00  0.00000000000E+00  0.26864492120E+04  0.26864492120E+04  0.25500000920E-02 0. -1.
       -2   -1    0    0    0  501  0.00000000000E+00  0.00000000000E+00 -0.60371080151E+03  0.60371080152E+03  0.25500000920E-02 0.  1.
    10030    2    1    2    0    0  0.00000000000E+00  0.00000000000E+00  0.20827384105E+04  0.32901600135E+04  0.25470283917E+04 0.  0.
        2    1    3    3  502    0 -0.29991619010E+03 -0.10315368281E+04  0.15783607550E+03  0.10857855108E+04  0.25500000920E-02 0.  1.
       -2    1    3    3    0  502  0.29991619010E+03  0.10315368281E+04  0.19249023350E+04  0.22043745027E+04  0.25500000920E-02 0. -1.
</event>
<event>
 5   0  0.4061631E-05  0.1798859E+04  0.7818609E-02  0.8706907E-01
        1   -1    0    0  501    0  0.00000000000E+00  0.00000000000E+00  0.10256941587E+04  0.10256941587E+04  0.50400001928E-02 0.  1.
       -1   -1    0    0    0  501  0.00000000000E+00  0.00000000000E+00 -0.78870813241E+03  0.78870813243E+03  0.50400001928E-02 0. -1.
    10030    2    1    2    0    0  0.00000000000E+00  0.00000000000E+00  0.23698602624E+03  0.18144022911E+04  0.17988588875E+04 0.  0.
        3    1    3    3  502    0 -0.19989149348E+03 -0.25042837607E+03 -0.72918673957E+03  0.79648244931E+03  0.10100000352E+00 0. -1.
       -3    1    3    3    0  502  0.19989149348E+03  0.25042837607E+03  0.96617276581E+03  0.10179198418E+04  0.10100000352E+00 0.  1.
</event>
<event>
 5   0  0.4018942E-05  0.2370689E+04  0.7818609E-02  0.8450559E-01
       -1   -1    0    0    0  501  0.00000000000E+00  0.00000000000E+00  0.98754587610E+03  0.98754587611E+03  0.50400001928E-02 0.  1.
        1   -1    0    0  501    0  0.00000000000E+00  0.00000000000E+00 -0.14227611122E+04  0.14227611122E+04  0.50400001928E-02 0. -1.
    10030    2    1    2    0    0  0.00000000000E+00  0.00000000000E+00 -0.43521523606E+03  0.24103069883E+04  0.23706892407E+04 0.  0.
        5    1    3    3  502    0 -0.69647572298E+03  0.95780439043E+03 -0.16624510869E+03  0.11958792620E+04  0.46999998093E+01 0. -1.
       -5    1    3    3    0  502  0.69647572298E+03 -0.95780439043E+03 -0.26897012737E+03  0.12144277263E+04  0.46999998093E+01 0.  1.
</event>
<event>
 5   0  0.3234750E-05  0.2497292E+04  0.7818609E-02  0.8403951E-01
        4   -1    0    0  501    0  0.00000000000E+00  0.00000000000E+00  0.11334803733E+04  0.11334810847E+04  0.12699999809E+01 0.  1.
       -4   -1    0    0    0  501  0.00000000000E+00  0.00000000000E+00 -0.13755112999E+04  0.13755118862E+04  0.12699999809E+01 0. -1.
    10030    2    1    2    0    0  0.00000000000E+00  0.00000000000E+00 -0.24203092666E+03  0.25089929709E+04  0.24972918850E+04 0.  0.
        3    1    3    3  502    0  0.11985743398E+04  0.20236203091E+03  0.16595522071E+03  0.12268137532E+04  0.10100000352E+00 0.  1.
       -3    1    3    3    0  502 -0.11985743398E+04 -0.20236203091E+03 -0.40798614738E+03  0.12821792177E+04  0.10100000352E+00 0. -1.
</event>
<event>
 5   0  0.9182865E-05  0.2472141E+04  0.7818609E-02  0.8412978E-01
        2   -1    0    0  501    0  0.00000000000E+00  0.00000000000E+00  0.17881634524E+04  0.17881634524E+04  0.25500000920E-02 0.  1.
       -2   -1    0    0    0  501  0.00000000000E+00  0.00000000000E+00 -0.85443579510E+03  0.85443579511E+03  0.25500000920E-02 0. -1.
    10030    2    1    2    0    0  0.00000000000E+00  0.00000000000E+00  0.93372765733E+03  0.26425992475E+04  0.24721414695E+04 0.  0.
        3    1    3    3  502    0  0.81924456812E+03  0.67882892951E+03  0.11394547448E+04  0.15589507701E+04  0.10100000352E+00 0.  1.
       -3    1    3    3    0  502 -0.81924456812E+03 -0.67882892951E+03 -0.20572708748E+03  0.10836484774E+04  0.10100000352E+00 0. -1.
</event>
<event>
 5   0  0.3234750E-05  0.2074829E+04  0.7818609E-02  0.8572413E-01
        3   -1    0    0  501    0  0.00000000000E+00  0.00000000000E+00  0.11323315364E+04  0.11323315409E+04  0.10100000352E+00 0.  1.
       -3   -1    0    0    0  501  0.00000000000E+00  0.00000000000E+00 -0.95045341119E+03  0.95045341656E+03  0.10100000352E+00 0. -1.
    10030    2    1    2    0    0  0.00000000000E+00  0.00000000000E+00  0.18187812517E+03  0.20827849574E+04  0.20748285535E+04 0.  0.
        2    1    3    3  502    0 -0.91324272589E+03  0.48944551433E+03  0.14270418025E+03  0.10459128410E+04  0.25500000920E-02 0. -1.
       -2    1    3    3    0  502  0.91324272589E+03 -0.48944551433E+03  0.39173944925E+02  0.10368721164E+04  0.25500000920E-02 0.  1.
</event>
<event>
 5   0  0.9750757E-05  0.2400594E+04  0.7818609E-02  0.8439281E-01
       -2   -1    0    0    0  501  0.00000000000E+00  0.00000000000E+00  0.67657430800E+03  0.67657430800E+03  0.25500000920E-02 0.  1.
        2   -1    0    0  501    0  0.00000000000E+00  0.00000000000E+00 -0.21294227848E+04  0.21294227848E+04  0.25500000920E-02 0. -1.
    10030    2    1    2    0    0  0.00000000000E+00  0.00000000000E+00 -0.14528484768E+04  0.28059970928E+04  0.24005938824E+04 0.  0.
        2    1    3    3  502    0 -0.34599801512E+03  0.76368920144E+03 -0.17304180951E+04  0.19228319237E+04  0.25500000920E-02 0. -1.
       -2    1    3    3    0  502  0.34599801512E+03 -0.76368920144E+03  0.27756961834E+03  0.88316516909E+03  0.25500000920E-02 0.  1.
</event>
<event>
 5   0  0.4208577E-05  0.1385590E+04  0.7818609E-02  0.8964316E-01
       -1   -1    0    0    0  501  0.00000000000E+00  0.00000000000E+00  0.91872012057E+03  0.91872012058E+03  0.50400001928E-02 0.  1.
        1   -1    0    0  501    0  0.00000000000E+00  0.00000000000E+00 -0.52242783396E+03  0.52242783398E+03  0.50400001928E-02 0. -1.
    10030    2    1    2    0    0  0.00000000000E+00  0.00000000000E+00  0.39629228661E+03  0.14411479546E+04  0.13855900730E+04 0.  0.
        1    1    3    3  502    0 -0.47838475003E+03 -0.49325944117E+03  0.29005280030E+03  0.74584681561E+03  0.50400001928E-02 0. -1.
       -1    1    3    3    0  502  0.47838475003E+03  0.49325944117E+03  0.10623948632E+03  0.69530113896E+03  0.50400001928E-02 0.  1.
</event>
<event>
 5   0  0.9182865E-05  0.2323939E+04  0.7818609E-02  0.8468542E-01
       -2   -1    0    0    0  501  0.00000000000E+00  0.00000000000E+00  0.59673388072E+03  0.59673388073E+03  0.25500000920E-02 0.  1.
        2   -1    0    0  501    0  0.00000000000E+00  0.00000000000E+00 -0.22626044038E+04  0.22626044038E+04  0.25500000920E-02 0. -1.
    10030    2    1    2    0    0  0.00000000000E+00  0.00000000000E+00 -0.16658705230E+04  0.28593382845E+04  0.23239386450E+04 0.  0.
        3    1    3    3  502    0  0.45938285150E+03 -0.96416370958E+03 -0.13961348955E+04  0.17577931959E+04  0.10100000352E+00 0. -1.
       -3    1    3    3    0  502 -0.45938285150E+03  0.96416370958E+03 -0.26973562756E+03  0.11015450885E+04  0.10100000352E+00 0.  1.
</event>
<event>
 5   0  0.3934906E-05  0.1406017E+04  0.7818609E-02  0.8949474E-01
        1   -1    0    0  501    0  0.00000000000E+00  0.00000000000E+00  0.66924402410E+03  0.66924402411E+03  0.50400001928E-02 0.  1.
       -1   -1    0    0    0  501  0.00000000000E+00  0.00000000000E+00 -0.73847696207E+03  0.73847696208E+03  0.50400001928E-02 0. -1.
    10030    2    1    2    0    0  0.00000000000E+00  0.00000000000E+00 -0.69232937970E+02  0.14077209862E+04  0.14060174875E+04 0.  0.
        2    1    3    3  502    0 -0.20868904291E+02 -0.42897672487E+03  0.52262299002E+03  0.67645497363E+03  0.25500000920E-02 0.  1.
       -2    1    3    3    0  502  0.20868904291E+02  0.42897672487E+03 -0.59185592799E+03  0.73126601257E+03  0.25500000920E-02 0. -1.
</event>
<event>
 5   0  0.4061631E-05  0.2274867E+04  0.7818609E-02  0.8487897E-01
       -1   -1    0    0    0  501  0.00000000000E+00  0.00000000000E+00  0.10597312443E+04  0.10597312443E+04  0.50400001928E-02 0.  1.
        1   -1    0    0  501    0  0.00000000000E+00  0.00000000000E+00 -0.12208326710E+04  0.12208326710E+04  0.50400001928E-02 0. -1.
    10030    2    1    2    0    0  0.00000000000E+00  0.00000000000E+00 -0.16110142665E+03  0.22805639153E+04  0.22748666119E+04 0.  0.
        3    1    3    3  502    0  0.46622642608E+03 -0.10308103076E+04 -0.19839316006E+03  0.11486064717E+04  0.10100000352E+00 0. -1.
       -3    1    3    3    0  502 -0.46622642608E+03  0.10308103076E+04  0.37291733418E+02  0.11319574436E+04  0.10100000352E+00 0.  1.
</event>
<event>
 5   0  0.4018942E-05  0.1776779E+04  0.7818609E-02  0.8718747E-01
       -1   -1    0    0    0  501  0.00000000000E+00  0.00000000000E+00  0.82417355116E+03  0.82417355117E+03  0.50400001928E-02 0.  1.
        1   -1    0    0  501    0  0.00000000000E+00  0.00000000000E+00 -0.95760883770E+03  0.95760883771E+03  0.50400001928E-02 0. -1.
    10030    2    1    2    0    0  0.00000000000E+00  0.00000000000E+00 -0.13343528654E+03  0.17817823889E+04  0.17767789693E+04 0.  0.
        5    1    3    3  502    0 -0.98331403259E+02  0.42888493147E+01  0.81867651187E+03  0.82458521705E+03  0.46999998093E+01 0.  1.
       -5    1    3    3    0  502  0.98331403259E+02 -0.42888493147E+01 -0.95211179841E+03  0.95719717183E+03  0.46999998093E+01 0. -1.
</event>
<event>
 5   0  0.3934906E-05  0.2386443E+04  0.7818609E-02  0.8444597E-01
        1   -1    0    0  501    0  0.00000000000E+00  0.00000000000E+00  0.13967090435E+04  0.13967090435E+04  0.50400001928E-02 0. -1.
       -1   -1    0    0    0  501  0.00000000000E+00  0.00000000000E+00 -0.10193802977E+04  0.10193802977E+04  0.50400001928E-02 0.  1.
    10030    2    1    2    0    0  0.00000000000E+00  0.00000000000E+00  0.37732874586E+03  0.24160893412E+04  0.23864431110E+04 0.  0.
        2    1    3    3  502    0  0.96213615194E+02 -0.10255556475E+04 -0.42111024981E+03  0.11128141302E+04  0.25500000920E-02 0.  1.
       -2    1    3    3    0  502 -0.96213615194E+02  0.10255556475E+04  0.79843899568E+03  0.13032752110E+04  0.25500000920E-02 0. -1.
</event>
<event>
 5   0  0.9519092E-05  0.2173529E+04  0.7818609E-02  0.8529527E-01
       -2   -1    0    0    0  501  0.00000000000E+00  0.00000000000E+00  0.77165437431E+03  0.77165437431E+03  0.25500000920E-02 0.  1.
        2   -1    0    0  501    0  0.00000000000E+00  0.00000000000E+00 -0.15305524535E+04  0.15305524535E+04  0.25500000920E-02 0. -1.
    10030    2    1    2    0    0  0.00000000000E+00  0.00000000000E+00 -0.75889807923E+03  0.23022068279E+04  0.21735293841E+04 0.  0.
        4    1    3    3  502    0  0.11638019577E+03  0.10640512316E+04 -0.18042468942E+03  0.10854971464E+04  0.12699999809E+01 0. -1.
       -4    1    3    3    0  502 -0.11638019577E+03 -0.10640512316E+04 -0.57847338982E+03  0.12167096815E+04  0.12699999809E+01 0.  1.
</event>
<event>
 5   0  0.4260395E-05  0.2402834E+04  0.7818609E-02  0.8438443E-01
        1   -1    0    0  501    0  0.00000000000E+00  0.00000000000E+00  0.24007837666E+04  0.24007837666E+04  0.50400001928E-02 0. -1.
       -1   -1    0    0    0  501  0.00000000000E+00  0.00000000000E+00 -0.60122153561E+03  0.60122153564E+03  0.50400001928E-02 0.  1.
    10030    2    1    2    0    0  0.00000000000E+00  0.00000000000E+00  0.17995622310E+04  0.30020053022E+04  0.24028340791E+04 0.  0.
        4    1    3    3  502    0  0.95608115288E+03  0.72564555492E+03  0.83428022392E+03  0.14617379201E+04  0.12699999809E+01 0.  1.
       -4    1    3    3    0  502 -0.95608115288E+03 -0.72564555492E+03  0.96528200706E+03  0.15402673821E+04  0.12699999809E+01 0. -1.
</event>
<event>
 5   0  0.4018942E-05  0.2399475E+04  0.7818609E-02  0.8439700E-01
        1   -1    0    0  501    0  0.00000000000E+00  0.00000000000E+00  0.17716863209E+04  0.17716863209E+04  0.50400001928E-02 0.  1.
       -1   -1    0    0    0  501  0.00000000000E+00  0.00000000000E+00 -0.81242936632E+03  0.81242936634E+03  0.50400001928E-02 0. -1.
    10030    2    1    2    0    0  0.00000000000E+00  0.00000000000E+00  0.95925695453E+03  0.25841156872E+04  0.23994749384E+04 0.  0.
        5    1    3    3  502    0  0.10919593773E+04 -0.10395168207E+03 -0.43736959502E+02  0.10977778671E+04  0.46999998093E+01 0. -1.
       -5    1    3    3    0  502 -0.10919593773E+04  0.10395168207E+03  0.10029939140E+04  0.14863378201E+04  0.46999998093E+01 0.  1.
</event>
<event>
 5   0  0.3934906E-05  0.2409723E+04  0.7818609E-02  0.8435872E-01
       -1   -1    0    0    0  501  0.00000000000E+00  0.00000000000E+00  0.97409720696E+03  0.97409720698E+03  0.50400001928E-02 0.  1.
        1   -1    0    0  501    0  0.00000000000E+00  0.00000000000E+00 -0.14902941694E+04  0.14902941694E+04  0.50400001928E-02 0. -1.
    10030    2    1    2    0    0  0.00000000000E+00  0.00000000000E+00 -0.51619696239E+03  0.24643913763E+04  0.24097231276E+04 0.  0.
        2    1    3    3  502    0  0.40308950133E+03  0.99002365678E+03 -0.82664541815E+03  0.13512848088E+04  0.25500000920E-02 0. -1.
       -2    1    3    3    0  502 -0.40308950133E+03 -0.99002365678E+03  0.31044845576E+03  0.11131065676E+04  0.25500000920E-02 0.  1.
</event>
<event>
 5   0  0.9144244E-05  0.2422904E+04  0.7818609E-02  0.8430978E-01
       -2   -1    0    0    0  501  0.00000000000E+00  0.00000000000E+00  0.89842086853E+03  0.89842086853E+03  0.25500000920E-02 0. -1.
        2   -1    0    0  501    0  0.00000000000E+00  0.00000000000E+00 -0.16335504303E+04  0.16335504303E+04  0.25500000920E-02 0.  1.
    10030    2    1    2    0    0  0.00000000000E+00  0.00000000000E+00 -0.73512956174E+03  0.25319712988E+04  0.24229038746E+04 0.  0.
        1    1    3    3  502    0 -0.34433138617E+03 -0.11540906658E+04 -0.23080575823E+03  0.12262791960E+04  0.50400001928E-02 0.  1.
       -1    1    3    3    0  502  0.34433138617E+03  0.11540906658E+04 -0.50432380351E+03  0.13056921028E+04  0.50400001928E-02 0. -1.
</event>
<event>
 5   0  0.9182865E-05  0.2378676E+04  0.7818609E-02  0.8447530E-01
       -2   -1    0    0    0  501  0.00000000000E+00  0.00000000000E+00  0.83473209855E+03  0.83473209856E+03  0.25500000920E-02 0.  1.
        2   -1    0    0  501    0  0.00000000000E+00  0.00000000000E+00 -0.16945851369E+04  0.16945851369E+04  0.25500000920E-02 0. -1.
    10030    2    1    2    0    0  0.00000000000E+00  0.00000000000E+00 -0.85985303833E+03  0.25293172354E+04  0.23786757724E+04 0.  0.
        3    1    3    3  502    0  0.20380232357E+03  0.68042633773E+03  0.58443075494E+03  0.91982319262E+03  0.10100000352E+00 0.  1.
       -3    1    3    3    0  502 -0.20380232357E+03 -0.68042633773E+03 -0.14442837933E+04  0.16094940428E+04  0.10100000352E+00 0. -1.
</event>
<event>
 5   0  0.9182865E-05  0.2423819E+04  0.7818609E-02  0.8430640E-01
        2   -1    0    0  501    0  0.00000000000E+00  0.00000000000E+00  0.11328411489E+04  0.11328411489E+04  0.25500000920E-02 0.  1.
       -2   -1    0    0    0  501  0.00000000000E+00  0.00000000000E+00 -0.12964962876E+04  0.12964962876E+04  0.25500000920E-02 0. -1.
    10030    2    1    2    0    0  0.00000000000E+00  0.00000000000E+00 -0.16365513875E+03  0.24293374365E+04  0.24238187589E+04 0.  0.
        3    1    3    3  502    0 -0.45479914012E+03 -0.96170423565E+03  0.50001726962E+03  0.11754720647E+04  0.10100000352E+00 0. -1.
       -3    1    3    3    0  502  0.45479914012E+03  0.96170423565E+03 -0.66367240837E+03  0.12538653718E+04  0.10100000352E+00 0.  1.
</event>
<event>
 5   0  0.4260395E-05  0.2337996E+04  0.7818609E-02  0.8463089E-01
       -1   -1    0    0    0  501  0.00000000000E+00  0.00000000000E+00  0.86705361464E+03  0.86705361466E+03  0.50400001928E-02 0.  1.
        1   -1    0    0  501    0  0.00000000000E+00  0.00000000000E+00 -0.15760922983E+04  0.15760922983E+04  0.50400001928E-02 0. -1.
    10030    2    1    2    0    0  0.00000000000E+00  0.00000000000E+00 -0.70903868361E+03  0.24431459129E+04  0.23379961713E+04 0.  0.
        4    1    3    3  502    0 -0.51899830871E+03  0.96276784757E+03  0.76681346554E+02  0.10964318559E+04  0.12699999809E+01 0. -1.
       -4    1    3    3    0  502  0.51899830871E+03 -0.96276784757E+03 -0.78572003016E+03  0.13467140571E+04  0.12699999809E+01 0.  1.
</event>
<event>
 5   0  0.9144244E-05  0.2384772E+04  0.7818609E-02  0.8445227E-01
       -2   -1    0    0    0  501  0.00000000000E+00  0.00000000000E+00  0.10082118839E+04  0.10082118839E+04  0.25500000920E-02 0.  1.
        2   -1    0    0  501    0  0.00000000000E+00  0.00000000000E+00 -0.14102039384E+04  0.14102039384E+04  0.25500000920E-02 0. -1.
    10030    2    1    2    0    0  0.00000000000E+00  0.00000000000E+00 -0.40199205450E+03  0.24184158224E+04  0.23847719971E+04 0.  0.
        1    1    3    3  502    0 -0.94440614308E+03  0.21844897124E+03  0.50317857299E+03  0.10921591425E+04  0.50400001928E-02 0.  1.
       -1    1    3    3    0  502  0.94440614308E+03 -0.21844897124E+03 -0.90517062750E+03  0.13262566799E+04  0.50400001928E-02 0. -1.
</event>
<event>
 5   0  0.3934906E-05  0.2452809E+04  0.7818609E-02  0.8419993E-01
       -1   -1    0    0    0  501  0.00000000000E+00  0.00000000000E+00  0.13023027013E+04  0.13023027013E+04  0.50400001928E-02 0. -1.
        1   -1    0    0  501    0  0.00000000000E+00  0.00000000000E+00 -0.11549293465E+04  0.11549293465E+04  0.50400001928E-02 0.  1.
    10030    2    1    2    0    0  0.00000000000E+00  0.00000000000E+00  0.14737335480E+03  0.24572320478E+04  0.24528086821E+04 0.  0.
        2    1    3    3  502    0 -0.11406490951E+04  0.43368494502E+03 -0.48617958604E+02  0.12212807604E+04  0.25500000920E-02 0.  1.
       -2    1    3    3    0  502  0.11406490951E+04 -0.43368494502E+03  0.19599131340E+03  0.12359512874E+04  0.25500000920E-02 0. -1.
</event>
<event>
 5   0  0.4061631E-05  0.1305131E+04  0.7818609E-02  0.9025506E-01
       -1   -1    0    0    0  501  0.00000000000E+00  0.00000000000E+00  0.82069736742E+03  0.82069736744E+03  0.50400001928E-02 0.  1.
        1   -1    0    0  501    0  0.00000000000E+00  0.00000000000E+00 -0.51887801151E+03  0.51887801154E+03  0.50400001928E-02 0. -1.
    10030    2    1    2    0    0  0.00000000000E+00  0.00000000000E+00  0.30181935591E+03  0.13395753790E+04  0.13051311322E+04 0.  0.
        3    1    3    3  502    0 -0.90286976737E+02 -0.55618696963E+02 -0.50997531671E+03  0.52088387523E+03  0.10100000352E+00 0. -1.
       -3    1    3    3    0  502  0.90286976737E+02  0.55618696963E+02  0.81179467262E+03  0.81869150375E+03  0.10100000352E+00 0.  1.
</event>
<event>
 5   0  0.4018942E-05  0.2282524E+04  0.7818609E-02  0.8484844E-01
       -1   -1    0    0    0  501  0.00000000000E+00  0.00000000000E+00  0.11185502919E+04  0.11185502919E+04  0.50400001928E-02 0.  1.
        1   -1    0    0  501    0  0.00000000000E+00  0.00000000000E+00 -0.11644343728E+04  0.11644343728E+04  0.50400001928E-02 0. -1.
    10030    2    1    2    0    0  0.00000000000E+00  0.00000000000E+00 -0.45884080889E+02  0.22829846647E+04  0.22825235224E+04 0.  0.
        5    1    3    3  502    0 -0.58160035659E+03  0.23309090146E+03 -0.97700370264E+03  0.11606673374E+04  0.46999998093E+01 0. -1.
       -5    1    3    3    0  502  0.58160035659E+03 -0.23309090146E+03  0.93111962175E+03  0.11223173273E+04  0.46999998093E+01 0.  1.
</event>
<event>
 5   0  0.9750757E-05  0.2399962E+04  0.7818609E-02  0.8439518E-01
        2   -1    0    0  501    0  0.00000000000E+00  0.00000000000E+00  0.19971095945E+04  0.19971095945E+04  0.25500000920E-02 0.  1.
       -2   -1    0    0    0  501  0.00000000000E+00  0.00000000000E+00 -0.72101923162E+03  0.72101923162E+03  0.25500000920E-02 0. -1.
    10030    2    1    2    0    0  0.00000000000E+00  0.00000000000E+00  0.12760903629E+04  0.27181288261E+04  0.23999620208E+04 0.  0.
        2    1    3    3  502    0  0.48786079968E+03  0.66520343151E+03  0.16250413101E+04  0.18224332703E+04  0.25500000920E-02 0.  1.
       -2    1    3    3    0  502 -0.48786079968E+03 -0.66520343151E+03 -0.34895094722E+03  0.89569555583E+03  0.25500000920E-02 0. -1.
</event>
<event>
 5   0  0.9144244E-05  0.2356457E+04  0.7818609E-02  0.8455988E-01
       -2   -1    0    0    0  501  0.00000000000E+00  0.00000000000E+00  0.52487972096E+03  0.52487972097E+03  0.25500000920E-02 0.  1.
        2   -1    0    0  501    0  0.00000000000E+00  0.00000000000E+00 -0.26448394027E+04  0.26448394027E+04  0.25500000920E-02 0. -1.
    10030    2    1    2    0    0  0.00000000000E+00  0.00000000000E+00 -0.21199596817E+04  0.31697191236E+04  0.23564571438E+04 0.  0.
        1    1    3    3  502    0 -0.67398911981E+03 -0.31906782168E+03 -0.22870343593E+04  0.24055335726E+04  0.50400001928E-02 0. -1.
       -1    1    3    3    0  502  0.67398911981E+03  0.31906782168E+03  0.16707467757E+03  0.76418555101E+03  0.50400001928E-02 0.  1.
</event>
<event>
 5   0  0.9491680E-05  0.2399365E+04  0.7818609E-02  0.8439741E-01
       -2   -1    0    0    0  501  0.00000000000E+00  0.00000000000E+00  0.90928803925E+03  0.90928803925E+03  0.25500000920E-02 0.  1.
        2   -1    0    0  501    0  0.00000000000E+00  0.00000000000E+00 -0.15828190941E+04  0.15828190941E+04  0.25500000920E-02 0. -1.
    10030    2    1    2    0    0  0.00000000000E+00  0.00000000000E+00 -0.67353105486E+03  0.24921071334E+04  0.23993653082E+04 0.  0.
        5    1    3    3  502    0  0.33891208944E+03  0.11397625033E+04 -0.50196163078E+03  0.12907004056E+04  0.46999998093E+01 0. -1.
       -5    1    3    3    0  502 -0.33891208944E+03 -0.11397625033E+04 -0.17156942408E+03  0.12014067278E+04  0.46999998093E+01 0.  1.
</event>
<event>
 5   0  0.3934906E-05  0.2343106E+04  0.7818609E-02  0.8461116E-01
        1   -1    0    0  501    0  0.00000000000E+00  0.00000000000E+00  0.16093242103E+04  0.16093242103E+04  0.50400001928E-02 0.  1.
       -1   -1    0    0    0  501  0.00000000000E+00  0.00000000000E+00 -0.85286492019E+03  0.85286492020E+03  0.50400001928E-02 0. -1.
    10030    2    1    2    0    0  0.00000000000E+00  0.00000000000E+00  0.75645929015E+03  0.24621891306E+04  0.23431057716E+04 0.  0.
        2    1    3    3  502    0 -0.44349835156E+03  0.63465769058E+03 -0.54569108285E+03  0.94723805347E+03  0.25500000920E-02 0. -1.
       -2    1    3    3    0  502  0.44349835156E+03 -0.63465769058E+03  0.13021503730E+04  0.15149510771E+04  0.25500000920E-02 0.  1.
</event>
<event>
 5   0  0.9519092E-05  0.2469284E+04  0.7818609E-02  0.8414011E-01
       -2   -1    0    0    0  501  0.00000000000E+00  0.00000000000E+00  0.66976153430E+03  0.66976153431E+03  0.25500000920E-02 0.  1.
        2   -1    0    0  501    0  0.00000000000E+00  0.00000000000E+00 -0.22759465557E+04  0.22759465557E+04  0.25500000920E-02 0. -1.
    10030    2    1    2    0    0  0.00000000000E+00  0.00000000000E+00 -0.16061850214E+04  0.29457080900E+04  0.24692844771E+04 0.  0.
        4    1    3    3  502    0 -0.99690228164E+02 -0.62324996391E+03 -0.20689368125E+04  0.21630718449E+04  0.12699999809E+01 0. -1.
       -4    1    3    3    0  502  0.99690228164E+02  0.62324996391E+03  0.46275179111E+03  0.78263624512E+03  0.12699999809E+01 0.  1.
</event>
<event>
 5   0  0.9144244E-05  0.2435690E+04  0.7818609E-02  0.8426261E-01
        2   -1    0    0  501    0  0.00000000000E+00  0.00000000000E+00  0.11135057001E+04  0.11135057001E+04  0.25500000920E-02 0.  1.
       -2   -1    0    0    0  501  0.00000000000E+00  0.00000000000E+00 -0.13319613894E+04  0.13319613894E+04  0.25500000920E-02 0. -1.
    10030    2    1    2    0    0  0.00000000000E+00  0.00000000000E+00 -0.21845568929E+03  0.24454670896E+04  0.24356901276E+04 0.  0.
        1    1    3    3  502    0 -0.50683497685E+03  0.54083120442E+03  0.86096693732E+03  0.11360652061E+04  0.50400001928E-02 0. -1.
       -1    1    3    3    0  502  0.50683497685E+03 -0.54083120442E+03 -0.10794226266E+04  0.13094018834E+04  0.50400001928E-02 0.  1.
</event>
<event>
 5   0  0.4208577E-05  0.2423160E+04  0.7818609E-02  0.8430883E-01
        1   -1    0    0  501    0  0.00000000000E+00  0.00000000000E+00  0.50725394771E+03  0.50725394773E+03  0.50400001928E-02 0.  1.
       -1   -1    0    0    0  501  0.00000000000E+00  0.00000000000E+00 -0.28938684043E+04  0.28938684043E+04  0.50400001928E-02 0. -1.
    10030    2    1    2    0    0  0.00000000000E+00  0.00000000000E+00 -0.23866144566E+04  0.34011223520E+04  0.24231600626E+04 0.  0.
        1    1    3    3  502    0 -0.66881859822E+03  0.12178932550E+03 -0.26009440461E+04  0.26883193427E+04  0.50400001928E-02 0. -1.
       -1    1    3    3    0  502  0.66881859822E+03 -0.12178932550E+03  0.21432958955E+03  0.71280300933E+03  0.50400001928E-02 0.  1.
</event>
<event>
 5   0  0.4018942E-05  0.2396144E+04  0.7818609E-02  0.8440949E-01
       -1   -1    0    0    0  501  0.00000000000E+00  0.00000000000E+00  0.10930603459E+04  0.10930603459E+04  0.50400001928E-02 0. -1.
        1   -1    0    0  501    0  0.00000000000E+00  0.00000000000E+00 -0.13131724782E+04  0.13131724782E+04  0.50400001928E-02 0.  1.
    10030    2    1    2    0    0  0.00000000000E+00  0.00000000000E+00 -0.22011213237E+03  0.24062328241E+04  0.23961442054E+04 0.  0.
        5    1    3    3  502    0  0.45367326363E+03 -0.10360838206E+04 -0.50677071103E+03  0.12394062114E+04  0.46999998093E+01 0.  1.
       -5    1    3    3    0  502 -0.45367326363E+03  0.10360838206E+04  0.28665857865E+03  0.11668266127E+04  0.46999998093E+01 0. -1.
</event>
<event>
 5   0  0.9491680E-05  0.2405048E+04  0.7818609E-02  0.8437616E-01
        2   -1    0    0  501    0  0.00000000000E+00  0.00000000000E+00  0.11470256310E+04  0.11470256310E+04  0.25500000920E-02 0.  1.
       -2   -1    0    0    0  501  0.00000000000E+00  0.00000000000E+00 -0.12607073082E+04  0.12607073082E+04  0.25500000920E-02 0. -1.
    10030    2    1    2    0    0  0.00000000000E+00  0.00000000000E+00 -0.11368167724E+03  0.24077329392E+04  0.24050476883E+04 0.  0.
        5    1    3    3  502    0  0.33850379872E+03  0.12432427032E+01 -0.12120161302E+04  0.12584083428E+04  0.46999998093E+01 0. -1.
       -5    1    3    3    0  502 -0.33850379872E+03 -0.12432427032E+01  0.10983344530E+04  0.11493245964E+04  0.46999998093E+01 0.  1.
</event>
<event>
 5   0  0.9491680E-05  0.2393130E+04  0.7818609E-02  0.8442080E-01
       -2   -1    0    0    0  501  0.00000000000E+00  0.00000000000E+00  0.74198283532E+03  0.74198283533E+03  0.25500000920E-02 0. -1.
        2   -1    0    0  501    0  0.00000000000E+00  0.00000000000E+00 -0.19296506514E+04  0.19296506514E+04  0.25500000920E-02 0.  1.
    10030    2    1    2    0    0  0.00000000000E+00  0.00000000000E+00 -0.11876678161E+04  0.26716334867E+04  0.23931298849E+04 0.  0.
        5    1    3    3  502    0  0.62618239734E+03  0.80588399253E+03 -0.12911824252E+04  0.16458212386E+04  0.46999998093E+01 0.  1.
       -5    1    3    3    0  502 -0.62618239734E+03 -0.80588399253E+03  0.10351460915E+03  0.10258122482E+04  0.46999998093E+01 0. -1.
</event>
<event>
 5   0  0.9491680E-05  0.2313654E+04  0.7818609E-02  0.8472557E-01
        2   -1    0    0  501    0  0.00000000000E+00  0.00000000000E+00  0.14135405480E+04  0.14135405480E+04  0.25500000920E-02 0.  1.
       -2   -1    0    0    0  501  0.00000000000E+00  0.00000000000E+00 -0.94673488601E+03  0.94673488601E+03  0.25500000920E-02 0. -1.
    10030    2    1    2    0    0  0.00000000000E+00  0.00000000000E+00  0.46680566199E+03  0.23602754340E+04  0.23136535173E+04 0.  0.
        5    1    3    3  502    0 -0.10308394347E+04  0.32736074432E+03 -0.18527065554E+03  0.10973341801E+04  0.46999998093E+01 0. -1.
       -5    1    3    3    0  502  0.10308394347E+04 -0.32736074432E+03  0.65207631754E+03  0.12629412539E+04  0.46999998093E+01 0.  1.
</event>
<event>
 5   0  0.9519092E-05  0.2341081E+04  0.7818609E-02  0.8461897E-01
        2   -1    0    0  501    0  0.00000000000E+00  0.00000000000E+00  0.14925539175E+04  0.14925539175E+04  0.25500000920E-02 0.  1.
       -2   -1    0    0    0  501  0.00000000000E+00  0.00000000000E+00 -0.91800069761E+03  0.91800069762E+03  0.25500000920E-02 0. -1.
    10030    2    1    2    0    0  0.00000000000E+00  0.00000000000E+00  0.57455321993E+03  0.24105546152E+04  0.23410814061E+04 0.  0.
        4    1    3    3  502    0 -0.99018201305E+03 -0.29093850686E+02 -0.35481271630E+03  0.10522359753E+04  0.12699999809E+01 0. -1.
       -4    1    3    3    0  502  0.99018201305E+03  0.29093850686E+02  0.92936593623E+03  0.13583186399E+04  0.12699999809E+01 0.  1.
</event>
<event>
 5   0  0.9519092E-05  0.2428475E+04  0.7818609E-02  0.8428919E-01
       -2   -1    0    0    0  501  0.00000000000E+00  0.00000000000E+00  0.10363694979E+04  0.10363694979E+04  0.25500000920E-02 0. -1.
        2   -1    0    0  501    0  0.00000000000E+00  0.00000000000E+00 -0.14226319415E+04  0.14226319415E+04  0.25500000920E-02 0.  1.
    10030    2    1    2    0    0  0.00000000000E+00  0.00000000000E+00 -0.38626244367E+03  0.24590014394E+04  0.24284747072E+04 0.  0.
        4    1    3    3  502    0  0.99342705855E+03  0.31495641494E+03  0.43781944159E+03  0.11303903486E+04  0.12699999809E+01 0. -1.
       -4    1    3    3    0  502 -0.99342705855E+03 -0.31495641494E+03 -0.82408188526E+03  0.13286110908E+04  0.12699999809E+01 0.  1.
</event>
<event>
 5   0  0.4018942E-05  0.2526170E+04  0.7818609E-02  0.8393721E-01
       -1   -1    0    0    0  501  0.00000000000E+00  0.00000000000E+00  0.11640147691E+04  0.11640147691E+04  0.50400001928E-02 0.  1.
        1   -1    0    0  501    0  0.00000000000E+00  0.00000000000E+00 -0.13705866688E+04  0.13705866689E+04  0.50400001928E-02 0. -1.
    10030    2    1    2    0    0  0.00000000000E+00  0.00000000000E+00 -0.20657189978E+03  0.25346014379E+04  0.25261695310E+04 0.  0.
        5    1    3    3  502    0  0.73628377050E+01 -0.38220660602E+03  0.11045698331E+04  0.11688595755E+04  0.46999998093E+01 0.  1.
       -5    1    3    3    0  502 -0.73628377050E+01  0.38220660602E+03 -0.13111417329E+04  0.13657418624E+04  0.46999998093E+01 0. -1.
</event>
<event>
 5   0  0.9182865E-05  0.1946226E+04  0.7818609E-02  0.8632183E-01
       -2   -1    0    0    0  501  0.00000000000E+00  0.00000000000E+00  0.94623974585E+03  0.94623974586E+03  0.25500000920E-02 0.  1.
        2   -1    0    0  501    0  0.00000000000E+00  0.00000000000E+00 -0.10007492328E+04  0.10007492328E+04  0.25500000920E-02 0. -1.
    10030    2    1    2    0    0  0.00000000000E+00  0.00000000000E+00 -0.54509486972E+02  0.19469889787E+04  0.19462257831E+04 0.  0.
        3    1    3    3  502    0 -0.60809625841E+03  0.23833338311E+03 -0.74890079361E+03  0.99369827909E+03  0.10100000352E+00 0. -1.
       -3    1    3    3    0  502  0.60809625841E+03 -0.23833338311E+03  0.69439130664E+03  0.95329069959E+03  0.10100000352E+00 0.  1.
</event>
<event>
 5   0  0.9519092E-05  0.2405979E+04  0.7818609E-02  0.8437269E-01
        2   -1    0    0  501    0  0.00000000000E+00  0.00000000000E+00  0.20120373210E+04  0.20120373210E+04  0.25500000920E-02 0. -1.
       -2   -1    0    0    0  501  0.00000000000E+00  0.00000000000E+00 -0.71926271319E+03  0.71926271320E+03  0.25500000920E-02 0.  1.
    10030    2    1    2    0    0  0.00000000000E+00  0.00000000000E+00  0.12927746078E+04  0.27313000342E+04  0.24059787385E+04 0.  0.
        4    1    3    3  502    0  0.25037998337E+03 -0.48136697720E+03 -0.57246300547E+03  0.78874571843E+03  0.12699999809E+01 0.  1.
       -4    1    3    3    0  502 -0.25037998337E+03  0.48136697720E+03  0.18652376133E+04  0.19425543158E+04  0.12699999809E+01 0. -1.
</event>
<event>
 5   0  0.4061631E-05  0.2398507E+04  0.7818609E-02  0.8440063E-01
        1   -1    0    0  501    0  0.00000000000E+00  0.00000000000E+00  0.14868682719E+04  0.14868682719E+04  0.50400001928E-02 0. -1.
       -1   -1    0    0    0  501  0.00000000000E+00  0.00000000000E+00 -0.96727435171E+03  0.96727435173E+03  0.50400001928E-02 0.  1.
    10030    2    1    2    0    0  0.00000000000E+00  0.00000000000E+00  0.51959392014E+03  0.24541426236E+04  0.23985074891E+04 0.  0.
        3    1    3    3  502    0  0.94068691885E+03  0.49729491194E+03 -0.30622121713E+03  0.11072332874E+04  0.10100000352E+00 0. -1.
       -3    1    3    3    0  502 -0.94068691885E+03 -0.49729491194E+03  0.82581513727E+03  0.13469093362E+04  0.10100000352E+00 0.  1.
</event>
<event>
 5   0  0.9491680E-05  0.2388076E+04  0.7818609E-02  0.8443981E-01
        2   -1    0    0  501    0  0.00000000000E+00  0.00000000000E+00  0.11800618336E+04  0.11800618336E+04  0.25500000920E-02 0. -1.
       -2   -1    0    0    0  501  0.00000000000E+00  0.00000000000E+00 -0.12081796953E+04  0.12081796953E+04  0.25500000920E-02 0.  1.
    10030    2    1    2    0    0  0.00000000000E+00  0.00000000000E+00 -0.28117861726E+02  0.23882415289E+04  0.23880760009E+04 0.  0.
        5    1    3    3  502    0 -0.31100685335E+02  0.11474242618E+04 -0.34295095150E+03  0.11979929609E+04  0.46999998093E+01 0.  1.
       -5    1    3    3    0  502  0.31100685335E+02 -0.11474242618E+04  0.31483308978E+03  0.11902485680E+04  0.46999998093E+01 0. -1.
</event>
<event>
 5   0  0.9750757E-05  0.2350446E+04  0.7818609E-02  0.8458292E-01
        2   -1    0    0  501    0  0.00000000000E+00  0.00000000000E+00  0.12734163776E+04  0.12734163776E+04  0.25500000920E-02 0. -1.
       -2   -1    0    0    0  501  0.00000000000E+00  0.00000000000E+00 -0.10846011507E+04  0.10846011507E+04  0.25500000920E-02 0.  1.
    10030    2    1    2    0    0  0.00000000000E+00  0.00000000000E+00  0.18881522686E+03  0.23580175283E+04  0.23504458032E+04 0.  0.
        2    1    3    3  502    0 -0.57757581812E+03  0.39523336104E+03 -0.85274477338E+03  0.11031667525E+04  0.25500000920E-02 0.  1.
       -2    1    3    3    0  502  0.57757581812E+03 -0.39523336104E+03  0.10415600002E+04  0.12548507758E+04  0.25500000920E-02 0. -1.
</event>
<event>
 5   0  0.4208577E-05  0.2391205E+04  0.7818609E-02  0.8442803E-01
       -1   -1    0    0    0  501  0.00000000000E+00  0.00000000000E+00  0.12295508815E+04  0.12295508815E+04  0.50400001928E-02 0.  1.
        1   -1    0    0  501    0  0.00000000000E+00  0.00000000000E+00 -0.11625918559E+04  0.11625918559E+04  0.50400001928E-02 0. -1.
    10030    2    1    2    0    0  0.00000000000E+00  0.00000000000E+00  0.66959025641E+02  0.23921427374E+04  0.23912054209E+04 0.  0.
        1    1    3    3  502    0  0.35442022954E+03 -0.10235844916E+04 -0.47280871129E+03  0.11818997369E+04  0.50400001928E-02 0. -1.
       -1    1    3    3    0  502 -0.35442022954E+03  0.10235844916E+04  0.53976773693E+03  0.12102430005E+04  0.50400001928E-02 0.  1.
</event>
<event>
 5   0  0.9491680E-05  0.2633747E+04  0.7818609E-02  0.8356827E-01
       -2   -1    0    0    0  501  0.00000000000E+00  0.00000000000E+00  0.79417608507E+03  0.79417608507E+03  0.25500000920E-02 0. -1.
        2   -1    0    0  501    0  0.00000000000E+00  0.00000000000E+00 -0.21835918954E+04  0.21835918954E+04  0.25500000920E-02 0.  1.
    10030    2    1    2    0    0  0.00000000000E+00  0.00000000000E+00 -0.13894158104E+04  0.29777679805E+04  0.26337474920E+04 0.  0.
        5    1    3    3  502    0 -0.33537252781E+03 -0.10248574235E+04 -0.15493003671E+04  0.18876337537E+04  0.46999998093E+01 0.  1.
       -5    1    3    3    0  502  0.33537252781E+03  0.10248574235E+04  0.15988455672E+03  0.10901342268E+04  0.46999998093E+01 0. -1.
</event>
<event>
 5   0  0.3234750E-05  0.2319326E+04  0.7818609E-02  0.8470340E-01
       -4   -1    0    0    0  501  0.00000000000E+00  0.00000000000E+00  0.10005146324E+04  0.10005154385E+04  0.12699999809E+01 0.  1.
        4   -1    0    0  501    0  0.00000000000E+00  0.00000000000E+00 -0.13441252859E+04  0.13441258858E+04  0.12699999809E+01 0. -1.
    10030    2    1    2    0    0  0.00000000000E+00  0.00000000000E+00 -0.34361065342E+03  0.23446413243E+04  0.23193263372E+04 0.  0.
        1    1    3    3  502    0 -0.35465130661E+03  0.69509572690E+03  0.69539404410E+03  0.10452313119E+04  0.50400001928E-02 0.  1.
       -1    1    3    3    0  502  0.35465130661E+03 -0.69509572690E+03 -0.10390046975E+04  0.12994100124E+04  0.50400001928E-02 0. -1.
</event>
<event>
 5   0  0.9182865E-05  0.2349459E+04  0.7818609E-02  0.8458671E-01
       -2   -1    0    0    0  501  0.00000000000E+00  0.00000000000E+00  0.77070374624E+03  0.77070374625E+03  0.25500000920E-02 0.  1.
        2   -1    0    0  501    0  0.00000000000E+00  0.00000000000E+00 -0.17905576478E+04  0.17905576478E+04  0.25500000920E-02 0. -1.
    10030    2    1    2    0    0  0.00000000000E+00  0.00000000000E+00 -0.10198539015E+04  0.25612613940E+04  0.23494590756E+04 0.  0.
        3    1    3    3  502    0  0.40079266316E+02  0.11248168601E+04 -0.14319226736E+03  0.11346027287E+04  0.10100000352E+00 0. -1.
       -3    1    3    3    0  502 -0.40079266316E+02 -0.11248168601E+04 -0.87666163418E+03  0.14266586653E+04  0.10100000352E+00 0.  1.
</event>
<event>
 5   0  0.3934906E-05  0.1389429E+04  0.7818609E-02  0.8961506E-01
        1   -1    0    0  501    0  0.00000000000E+00  0.00000000000E+00  0.19873692125E+04  0.19873692125E+04  0.50400001928E-02 0. -1.
       -1   -1    0    0    0  501  0.00000000000E+00  0.00000000000E+00 -0.24284796631E+03  0.24284796636E+03  0.50400001928E-02 0.  1.
    10030    2    1    2    0    0  0.00000000000E+00  0.00000000000E+00  0.17445212462E+04  0.22302171789E+04  0.13894294824E+04 0.  0.
        2    1    3    3  502    0 -0.10061043776E+03  0.67489550589E+03  0.10816805856E+04  0.12789211443E+04  0.25500000920E-02 0. -1.
       -2    1    3    3    0  502  0.10061043776E+03 -0.67489550589E+03  0.66284066065E+03  0.95129603461E+03  0.25500000920E-02 0.  1.
</event>
<event>
 5   0  0.4018942E-05  0.2371158E+04  0.7818609E-02  0.8450381E-01
       -1   -1    0    0    0  501  0.00000000000E+00  0.00000000000E+00  0.14144390566E+04  0.14144390567E+04  0.50400001928E-02 0.  1.
        1   -1    0    0  501    0  0.00000000000E+00  0.00000000000E+00 -0.99374877297E+03  0.99374877298E+03  0.50400001928E-02 0. -1.
    10030    2    1    2    0    0  0.00000000000E+00  0.00000000000E+00  0.42069028368E+03  0.24081878296E+04  0.23711575882E+04 0.  0.
        5    1    3    3  502    0  0.11397932559E+04 -0.27392570454E+03  0.30345756144E+02  0.11726495268E+04  0.46999998093E+01 0.  1.
       -5    1    3    3    0  502 -0.11397932559E+04  0.27392570454E+03  0.39034452753E+03  0.12355383029E+04  0.46999998093E+01 0. -1.
</event>
<event>
 5   0  0.9750757E-05  0.2467233E+04  0.7818609E-02  0.8414753E-01
       -2   -1    0    0    0  501  0.00000000000E+00  0.00000000000E+00  0.14243504355E+04  0.14243504355E+04  0.25500000920E-02 0.  1.
        2   -1    0    0  501    0  0.00000000000E+00  0.00000000000E+00 -0.10684240064E+04  0.10684240064E+04  0.25500000920E-02 0. -1.
    10030    2    1    2    0    0  0.00000000000E+00  0.00000000000E+00  0.35592642914E+03  0.24927744419E+04  0.24672334295E+04 0.  0.
        2    1    3    3  502    0 -0.89964275596E+03  0.29287465857E+03 -0.62186148047E+03  0.11321856539E+04  0.25500000920E-02 0. -1.
       -2    1    3    3    0  502  0.89964275596E+03 -0.29287465857E+03  0.97778790962E+03  0.13605887881E+04  0.25500000920E-02 0.  1.
</event>
<event>
 5   0  0.9144244E-05  0.2265394E+04  0.7818609E-02  0.8491692E-01
       -2   -1    0    0    0  501  0.00000000000E+00  0.00000000000E+00  0.16485627673E+04  0.16485627673E+04  0.25500000920E-02 0.  1.
        2   -1    0    0  501    0  0.00000000000E+00  0.00000000000E+00 -0.77825531007E+03  0.77825531008E+03  0.25500000920E-02 0. -1.
    10030    2    1    2    0    0  0.00000000000E+00  0.00000000000E+00  0.87030745726E+03  0.24268180774E+04  0.22653942065E+04 0.  0.
        1    1    3    3  502    0  0.22453942821E+03 -0.79295250787E+03  0.12675765528E+04  0.15119331836E+04  0.50400001928E-02 0.  1.
       -1    1    3    3    0  502 -0.22453942821E+03  0.79295250787E+03 -0.39726909553E+03  0.91488489377E+03  0.50400001928E-02 0. -1.
</event>
<event>
 5   0  0.4260395E-05  0.2263566E+04  0.7818609E-02  0.8492427E-01
       -1   -1    0    0    0  501  0.00000000000E+00  0.00000000000E+00  0.83800117609E+03  0.83800117611E+03  0.50400001928E-02 0.  1.
        1   -1    0    0  501    0  0.00000000000E+00  0.00000000000E+00 -0.15285566113E+04  0.15285566113E+04  0.50400001928E-02 0. -1.
    10030    2    1    2    0    0  0.00000000000E+00  0.00000000000E+00 -0.69055543518E+03  0.23665577874E+04  0.22635655396E+04 0.  0.
        4    1    3    3  502    0  0.54828485761E+03  0.57260833778E+03  0.49920806644E+03  0.93686012835E+03  0.12699999809E+01 0.  1.
       -4    1    3    3    0  502 -0.54828485761E+03 -0.57260833778E+03 -0.11897635016E+04  0.14296976590E+04  0.12699999809E+01 0. -1.
</event>
<event>
 5   0  0.4061631E-05  0.2300728E+04  0.7818609E-02  0.8477634E-01
       -1   -1    0    0    0  501  0.00000000000E+00  0.00000000000E+00  0.13566573657E+04  0.13566573657E+04  0.50400001928E-02 0. -1.
        1   -1    0    0  501    0  0.00000000000E+00  0.00000000000E+00 -0.97543983382E+03  0.97543983384E+03  0.50400001928E-02 0.  1.
    10030    2    1    2    0    0  0.00000000000E+00  0.00000000000E+00  0.38121753187E+03  0.23320971995E+04  0.23007282633E+04 0.  0.
        3    1    3    3  502    0  0.18769198127E+03 -0.95517289694E+03 -0.43073675729E+03  0.10644800173E+04  0.10100000352E+00 0.  1.
       -3    1    3    3    0  502 -0.18769198127E+03  0.95517289694E+03  0.81195428916E+03  0.12676171823E+04  0.10100000352E+00 0. -1.
</event>
<event>
 5   0  0.9750757E-05  0.1277502E+04  0.7818609E-02  0.9047599E-01
        2   -1    0    0  501    0  0.00000000000E+00  0.00000000000E+00  0.14032771979E+04  0.14032771979E+04  0.25500000920E-02 0. -1.
       -2   -1    0    0    0  501  0.00000000000E+00  0.00000000000E+00 -0.29075003173E+03  0.29075003174E+03  0.25500000920E-02 0.  1.
    10030    2    1    2    0    0  0.00000000000E+00  0.00000000000E+00  0.11125271662E+04  0.16940272296E+04  0.12775020780E+04 0.  0.
        2    1    3    3  502    0  0.11889795336E+03 -0.19796159499E+03 -0.23346073850E+03  0.32837392228E+03  0.25500000920E-02 0.  1.
       -2    1    3    3    0  502 -0.11889795336E+03  0.19796159499E+03  0.13459879047E+04  0.13656533074E+04  0.25500000920E-02 0. -1.
</event>
<event>
 5   0  0.4061631E-05  0.1676194E+04  0.7818609E-02  0.8775059E-01
        1   -1    0    0  501    0  0.00000000000E+00  0.00000000000E+00  0.12572919009E+04  0.12572919009E+04  0.50400001928E-02 0.  1.
       -1   -1    0    0    0  501  0.00000000000E+00  0.00000000000E+00 -0.55866639466E+03  0.55866639468E+03  0.50400001928E-02 0. -1.
    10030    2    1    2    0    0  0.00000000000E+00  0.00000000000E+00  0.69862550622E+03  0.18159582956E+04  0.16761941813E+04 0.  0.
        3    1    3    3  502    0 -0.74162991744E+03  0.28285235511E+03  0.57832033764E+02  0.79584228561E+03  0.10100000352E+00 0. -1.
       -3    1    3    3    0  502  0.74162991744E+03 -0.28285235511E+03  0.64079347245E+03  0.10201160100E+04  0.10100000352E+00 0.  1.
</event>
<event>
 5   0  0.4208577E-05  0.2476197E+04  0.7818609E-02  0.8411515E-01
       -1   -1    0    0    0  501  0.00000000000E+00  0.00000000000E+00  0.11141913656E+04  0.11141913656E+04  0.50400001928E-02 0.  1.
        1   -1    0    0  501    0  0.00000000000E+00  0.00000000000E+00 -0.13757855889E+04  0.13757855889E+04  0.50400001928E-02 0. -1.
    10030    2    1    2    0    0  0.00000000000E+00  0.00000000000E+00 -0.26159422333E+03  0.24899769546E+04  0.24761974268E+04 0.  0.
        1    1    3    3  502    0  0.38235172385E+03 -0.30074373670E+03  0.10140677900E+04  0.11247102377E+04  0.50400001928E-02 0.  1.
       -1    1    3    3    0  502 -0.38235172385E+03  0.30074373670E+03 -0.12756620134E+04  0.13652667169E+04  0.50400001928E-02 0. -1.
</event>
<event>
 5   0  0.3934906E-05  0.1674301E+04  0.7818609E-02  0.8776159E-01
        1   -1    0    0  501    0  0.00000000000E+00  0.00000000000E+00  0.57587668215E+03  0.57587668217E+03  0.50400001928E-02 0. -1.
       -1   -1    0    0    0  501  0.00000000000E+00  0.00000000000E+00 -0.12169632310E+04  0.12169632310E+04  0.50400001928E-02 0.  1.
    10030    2    1    2    0    0  0.00000000000E+00  0.00000000000E+00 -0.64108654881E+03  0.17928399131E+04  0.16743007469E+04 0.  0.
        2    1    3    3  502    0  0.62767753441E+03  0.50342787990E+03 -0.73093577850E+02  0.80793650035E+03  0.25500000920E-02 0. -1.
       -2    1    3    3    0  502 -0.62767753441E+03 -0.50342787990E+03 -0.56799297096E+03  0.98490341279E+03  0.25500000920E-02 0.  1.
</event>
<event>
 5   0  0.9519092E-05  0.2344903E+04  0.7818609E-02  0.8460424E-01
       -2   -1    0    0    0  501  0.00000000000E+00  0.00000000000E+00  0.86286854807E+03  0.86286854807E+03  0.25500000920E-02 0.  1.
        2   -1    0    0  501    0  0.00000000000E+00  0.00000000000E+00 -0.15931082298E+04  0.15931082298E+04  0.25500000920E-02 0. -1.
    10030    2    1    2    0    0  0.00000000000E+00  0.00000000000E+00 -0.73023968170E+03  0.24559767778E+04  0.23449033968E+04 0.  0.
        4    1    3    3  502    0 -0.47683822811E+03  0.47599556758E+03 -0.13700992603E+04  0.15268006000E+04  0.12699999809E+01 0. -1.
       -4    1    3    3    0  502  0.47683822811E+03 -0.47599556758E+03  0.63985957864E+03  0.92917617782E+03  0.12699999809E+01 0.  1.
</event>
<event>
 5   0  0.3234750E-05  0.2162824E+04  0.7818609E-02  0.8534063E-01
        4   -1    0    0  501    0  0.00000000000E+00  0.00000000000E+00  0.13172136465E+04  0.13172142588E+04  0.12699999809E+01 0. -1.
       -4   -1    0    0    0  501  0.00000000000E+00  0.00000000000E+00 -0.88782089890E+03  0.88782180724E+03  0.12699999809E+01 0.  1.
    10030    2    1    2    0    0  0.00000000000E+00  0.00000000000E+00  0.42939274764E+03  0.22050360660E+04  0.21628235991E+04 0.  0.
        5    1    3    3  502    0  0.39891371586E+03 -0.10011979995E+04  0.12408082303E+03  0.10848722172E+04  0.46999998093E+01 0.  1.
       -5    1    3    3    0  502 -0.39891371586E+03  0.10011979995E+04  0.30531192461E+03  0.11201638488E+04  0.46999998093E+01 0. -1.
</event>
<event>
 5   0  0.9519092E-05  0.2340861E+04  0.7818609E-02  0.8461982E-01
        2   -1    0    0  501    0  0.00000000000E+00  0.00000000000E+00  0.17422383021E+04  0.17422383021E+04  0.25500000920E-02 0. -1.
       -2   -1    0    0    0  501  0.00000000000E+00  0.00000000000E+00 -0.78629201753E+03  0.78629201754E+03  0.25500000920E-02 0.  1.
    10030    2    1    2    0    0  0.00000000000E+00  0.00000000000E+00  0.95594628458E+03  0.25285303196E+04  0.23408614394E+04 0.  0.
        4    1    3    3  502    0  0.17264301806E+03 -0.97188342600E+03 -0.20137056560E+03  0.10074297608E+04  0.12699999809E+01 0.  1.
       -4    1    3    3    0  502 -0.17264301806E+03  0.97188342600E+03  0.11573168502E+04  0.15211005588E+04  0.12699999809E+01 0. -1.
</event>
<event>
 5   0  0.9144244E-05  0.2355754E+04  0.7818609E-02  0.8456257E-01
        2   -1    0    0  501    0  0.00000000000E+00  0.00000000000E+00  0.28527914971E+04  0.28527914971E+04  0.25500000920E-02 0. -1.
       -2   -1    0    0    0  501  0.00000000000E+00  0.00000000000E+00 -0.48632879385E+03  0.48632879386E+03  0.25500000920E-02 0.  1.
    10030    2    1    2    0    0  0.00000000000E+00  0.00000000000E+00  0.23664627032E+04  0.33391202909E+04  0.23557543572E+04 0.  0.
        1    1    3    3  502    0 -0.53389370659E+03  0.44430985995E+03  0.25316109465E+04  0.26251681329E+04  0.50400001928E-02 0. -1.
       -1    1    3    3    0  502  0.53389370659E+03 -0.44430985995E+03 -0.16514824333E+03  0.71395215798E+03  0.50400001928E-02 0.  1.
</event>
<event>
 5   0  0.3234750E-05  0.2423751E+04  0.7818609E-02  0.8430665E-01
        4   -1    0    0  501    0  0.00000000000E+00  0.00000000000E+00  0.14158105613E+04  0.14158111309E+04  0.12699999809E+01 0. -1.
       -4   -1    0    0    0  501  0.00000000000E+00  0.00000000000E+00 -0.10373141376E+04  0.10373149151E+04  0.12699999809E+01 0.  1.
    10030    2    1    2    0    0  0.00000000000E+00  0.00000000000E+00  0.37849642369E+03  0.24531260460E+04  0.24237507823E+04 0.  0.
        4    1    3    3  502    0 -0.73991297859E+03 -0.30988143586E+03  0.11086310952E+04  0.13684159596E+04  0.12699999809E+01 0. -1.
       -4    1    3    3    0  502  0.73991297859E+03  0.30988143586E+03 -0.73013467153E+03  0.10847100864E+04  0.12699999809E+01 0.  1.
</event>
<event>
 5   0  0.9182865E-05  0.2390201E+04  0.7818609E-02  0.8443181E-01
        2   -1    0    0  501    0  0.00000000000E+00  0.00000000000E+00  0.11063083156E+04  0.11063083156E+04  0.25500000920E-02 0.  1.
       -2   -1    0    0    0  501  0.00000000000E+00  0.00000000000E+00 -0.12910194230E+04  0.12910194230E+04  0.25500000920E-02 0. -1.
    10030    2    1    2    0    0  0.00000000000E+00  0.00000000000E+00 -0.18471110741E+03  0.23973277387E+04  0.23902012663E+04 0.  0.
        3    1    3    3  502    0  0.67053783552E+03  0.27668933532E+03 -0.10449702550E+04  0.12720616420E+04  0.10100000352E+00 0. -1.
       -3    1    3    3    0  502 -0.67053783552E+03 -0.27668933532E+03  0.86025914756E+03  0.11252660967E+04  0.10100000352E+00 0.  1.
</event>
<event>
 5   0  0.9519092E-05  0.2341369E+04  0.7818609E-02  0.8461786E-01
        2   -1    0    0  501    0  0.00000000000E+00  0.00000000000E+00  0.17902336054E+04  0.17902336054E+04  0.25500000920E-02 0.  1.
       -2   -1    0    0    0  501  0.00000000000E+00  0.00000000000E+00 -0.76554398170E+03  0.76554398170E+03  0.25500000920E-02 0. -1.
    10030    2    1    2    0    0  0.00000000000E+00  0.00000000000E+00  0.10246896237E+04  0.25557775871E+04  0.23413693109E+04 0.  0.
        4    1    3    3  502    0 -0.57337658171E+03 -0.48323907060E+02 -0.60052803445E+03  0.83170393621E+03  0.12699999809E+01 0. -1.
       -4    1    3    3    0  502  0.57337658171E+03  0.48323907060E+02  0.16252176582E+04  0.17240736509E+04  0.12699999809E+01 0.  1.
</event>
<event>
 5   0  0.4061631E-05  0.2380025E+04  0.7818609E-02  0.8447020E-01
       -1   -1    0    0    0  501  0.00000000000E+00  0.00000000000E+00  0.11929628858E+04  0.11929628858E+04  0.50400001928E-02 0.  1.
        1   -1    0    0  501    0  0.00000000000E+00  0.00000000000E+00 -0.11870697316E+04  0.11870697316E+04  0.50400001928E-02 0. -1.
    10030    2    1    2    0    0  0.00000000000E+00  0.00000000000E+00  0.58931542166E+01  0.23800326174E+04  0.23800253214E+04 0.  0.
        3    1    3    3  502    0 -0.87705975744E+02  0.72823984572E+03  0.94002175821E+03  0.11923365830E+04  0.10100000352E+00 0.  1.
       -3    1    3    3    0  502  0.87705975744E+02 -0.72823984572E+03 -0.93412860399E+03  0.11876960344E+04  0.10100000352E+00 0. -1.
</event>
<event>
 5   0  0.3934906E-05  0.1733442E+04  0.7818609E-02  0.8742518E-01
       -1   -1    0    0    0  501  0.00000000000E+00  0.00000000000E+00  0.62272864674E+03  0.62272864676E+03  0.50400001928E-02 0.  1.
        1   -1    0    0  501    0  0.00000000000E+00  0.00000000000E+00 -0.12063120520E+04  0.12063120520E+04  0.50400001928E-02 0. -1.
    10030    2    1    2    0    0  0.00000000000E+00  0.00000000000E+00 -0.58358340529E+03  0.18290406988E+04  0.17334417460E+04 0.  0.
        2    1    3    3  502    0 -0.71150273095E+03  0.28908931992E+03  0.13210584686E+03  0.77926935384E+03  0.25500000920E-02 0.  1.
       -2    1    3    3    0  502  0.71150273095E+03 -0.28908931992E+03 -0.71568925215E+03  0.10497713450E+04  0.25500000920E-02 0. -1.
</event>
<event>
 5   0  0.4018942E-05  0.1934910E+04  0.7818609E-02  0.8637672E-01
        1   -1    0    0  501    0  0.00000000000E+00  0.00000000000E+00  0.24449580676E+04  0.24449580676E+04  0.50400001928E-02 0. -1.
       -1   -1    0    0    0  501  0.00000000000E+00  0.00000000000E+00 -0.38281623393E+03  0.38281623396E+03  0.50400001928E-02 0.  1.
    10030    2    1    2    0    0  0.00000000000E+00  0.00000000000E+00  0.20621418337E+04  0.28277743016E+04  0.19349104781E+04 0.  0.
        5    1    3    3  502    0 -0.90693556708E+02  0.90543914604E+03  0.15111347393E+04  0.17639715584E+04  0.46999998093E+01 0. -1.
       -5    1    3    3    0  502  0.90693556708E+02 -0.90543914604E+03  0.55100709440E+03  0.10638027432E+04  0.46999998093E+01 0.  1.
</event>
<event>
 5   0  0.9519092E-05  0.2456364E+04  0.7818609E-02  0.8418698E-01
       -2   -1    0    0    0  501  0.00000000000E+00  0.00000000000E+00  0.88319420781E+03  0.88319420782E+03  0.25500000920E-02 0.  1.
        2   -1    0    0  501    0  0.00000000000E+00  0.00000000000E+00 -0.17079274420E+04  0.17079274420E+04  0.25500000920E-02 0. -1.
    10030    2    1    2    0    0  0.00000000000E+00  0.00000000000E+00 -0.82473323421E+03  0.25911216498E+04  0.24563644877E+04 0.  0.
        4    1    3    3  502    0 -0.31627616183E+03 -0.11815505038E+04 -0.52953595915E+03  0.13328548865E+04  0.12699999809E+01 0. -1.
       -4    1    3    3    0  502  0.31627616183E+03  0.11815505038E+04 -0.29519727506E+03  0.12582667633E+04  0.12699999809E+01 0.  1.
</event>
<event>
 5   0  0.4208577E-05  0.2390990E+04  0.7818609E-02  0.8442884E-01
        1   -1    0    0  501    0  0.00000000000E+00  0.00000000000E+00  0.21793799266E+04  0.21793799266E+04  0.50400001928E-02 0.  1.
       -1   -1    0    0    0  501  0.00000000000E+00  0.00000000000E+00 -0.65578684051E+03  0.65578684053E+03  0.50400001928E-02 0. -1.
    10030    2    1    2    0    0  0.00000000000E+00  0.00000000000E+00  0.15235930861E+04  0.28351667671E+04  0.23909903190E+04 0.  0.
        1    1    3    3  502    0 -0.81284289487E+03  0.52329065066E+03 -0.72182363278E+02  0.96941063043E+03  0.50400001928E-02 0. -1.
       -1    1    3    3    0  502  0.81284289487E+03 -0.52329065066E+03  0.15957754494E+04  0.18657561367E+04  0.50400001928E-02 0.  1.
</event>
<event>
 5   0  0.4018942E-05  0.2391410E+04  0.7818609E-02  0.8442726E-01
        1   -1    0    0  501    0  0.00000000000E+00  0.00000000000E+00  0.21992646584E+04  0.21992646584E+04  0.50400001928E-02 0. -1.
       -1   -1    0    0    0  501  0.00000000000E+00  0.00000000000E+00 -0.65008593991E+03  0.65008593993E+03  0.50400001928E-02 0.  1.
    10030    2    1    2    0    0  0.00000000000E+00  0.00000000000E+00  0.15491787185E+04  0.28493505984E+04  0.23914104898E+04 0.  0.
        5    1    3    3  502    0 -0.22924668344E+03 -0.10919363442E+04  0.12868068462E+04  0.17031655736E+04  0.46999998093E+01 0. -1.
       -5    1    3    3    0  502  0.22924668344E+03  0.10919363442E+04  0.26237187227E+03  0.11461850248E+04  0.46999998093E+01 0.  1.
</event>
<event>
 5   0  0.4208577E-05  0.2317234E+04  0.7818609E-02  0.8471157E-01
       -1   -1    0    0    0  501  0.00000000000E+00  0.00000000000E+00  0.84280809967E+03  0.84280809969E+03  0.50400001928E-02 0. -1.
        1   -1    0    0  501    0  0.00000000000E+00  0.00000000000E+00 -0.15927632725E+04  0.15927632725E+04  0.50400001928E-02 0.  1.
    10030    2    1    2    0    0  0.00000000000E+00  0.00000000000E+00 -0.74995517279E+03  0.24355713722E+04  0.23172343748E+04 0.  0.
        1    1    3    3  502    0 -0.33234775478E+03  0.17009925092E+03 -0.15278058483E+04  0.15727617415E+04  0.50400001928E-02 0.  1.
       -1    1    3    3    0  502  0.33234775478E+03 -0.17009925092E+03  0.77785067555E+03  0.86280963066E+03  0.50400001928E-02 0. -1.
</event>
<event>
 5   0  0.3934906E-05  0.2383892E+04  0.7818609E-02  0.8445559E-01
       -1   -1    0    0    0  501  0.00000000000E+00  0.00000000000E+00  0.75163108975E+03  0.75163108976E+03  0.50400001928E-02 0. -1.
        1   -1    0    0  501    0  0.00000000000E+00  0.00000000000E+00 -0.18902035512E+04  0.18902035512E+04  0.50400001928E-02 0.  1.
    10030    2    1    2    0    0  0.00000000000E+00  0.00000000000E+00 -0.11385724614E+04  0.26418346409E+04  0.23838924095E+04 0.  0.
        2    1    3    3  502    0 -0.10261709756E+04  0.60436142770E+03 -0.62420822410E+03  0.13445874882E+04  0.25500000920E-02 0.  1.
       -2    1    3    3    0  502  0.10261709756E+04 -0.60436142770E+03 -0.51436423733E+03  0.12972471527E+04  0.25500000920E-02 0. -1.
</event>
<event>
 5   0  0.9491680E-05  0.2450942E+04  0.7818609E-02  0.8420674E-01
        2   -1    0    0  501    0  0.00000000000E+00  0.00000000000E+00  0.98871062326E+03  0.98871062326E+03  0.25500000920E-02 0. -1.
       -2   -1    0    0    0  501  0.00000000000E+00  0.00000000000E+00 -0.15189263166E+04  0.15189263166E+04  0.25500000920E-02 0.  1.
    10030    2    1    2    0    0  0.00000000000E+00  0.00000000000E+00 -0.53021569330E+03  0.25076369398E+04  0.24509415212E+04 0.  0.
        5    1    3    3  502    0  0.88038394355E+03 -0.29074554632E+03 -0.10849856956E+04  0.14271737492E+04  0.46999998093E+01 0.  1.
       -5    1    3    3    0  502 -0.88038394355E+03  0.29074554632E+03  0.55477000232E+03  0.10804631906E+04  0.46999998093E+01 0. -1.
</event>
<event>
 5   0  0.9519092E-05  0.2455370E+04  0.7818609E-02  0.8419060E-01
       -2   -1    0    0    0  501  0.00000000000E+00  0.00000000000E+00  0.99546867361E+03  0.99546867361E+03  0.25500000920E-02 0. -1.
        2   -1    0    0  501    0  0.00000000000E+00  0.00000000000E+00 -0.15140714059E+04  0.15140714059E+04  0.25500000920E-02 0.  1.
    10030    2    1    2    0    0  0.00000000000E+00  0.00000000000E+00 -0.51860273225E+03  0.25095400795E+04  0.24553701588E+04 0.  0.
        4    1    3    3  502    0 -0.41043831439E+03  0.81529491888E+03  0.57981301840E+03  0.10813649541E+04  0.12699999809E+01 0. -1.
       -4    1    3    3    0  502  0.41043831439E+03 -0.81529491888E+03 -0.10984157507E+04  0.14281751254E+04  0.12699999809E+01 0.  1.
</event>
<event>
 5   0  0.4061631E-05  0.2398991E+04  0.7818609E-02  0.8439882E-01
       -1   -1    0    0    0  501  0.00000000000E+00  0.00000000000E+00  0.68352124302E+03  0.68352124304E+03  0.50400001928E-02 0. -1.
        1   -1    0    0  501    0  0.00000000000E+00  0.00000000000E+00 -0.21049661048E+04  0.21049661048E+04  0.50400001928E-02 0.  1.
    10030    2    1    2    0    0  0.00000000000E+00  0.00000000000E+00 -0.14214448617E+04  0.27884873478E+04  0.23989906615E+04 0.  0.
        3    1    3    3  502    0 -0.92232525339E+03 -0.84984580931E+02  0.17517690141E+03  0.94265222061E+03  0.10100000352E+00 0. -1.
       -3    1    3    3    0  502  0.92232525339E+03  0.84984580931E+02 -0.15966217631E+04  0.18458351272E+04  0.10100000352E+00 0.  1.
</event>
<event>
 5   0  0.3934906E-05  0.2516391E+04  0.7818609E-02  0.8397169E-01
        1   -1    0    0  501    0  0.00000000000E+00  0.00000000000E+00  0.13646730895E+04  0.13646730895E+04  0.50400001928E-02 0. -1.
       -1   -1    0    0    0  501  0.00000000000E+00  0.00000000000E+00 -0.11600257720E+04  0.11600257720E+04  0.50400001928E-02 0.  1.
    10030    2    1    2    0    0  0.00000000000E+00  0.00000000000E+00  0.20464731750E+03  0.25246988615E+04  0.25163910302E+04 0.  0.
        2    1    3    3  502    0  0.31643218881E+03 -0.40932252514E+03 -0.10483637280E+04  0.11690768862E+04  0.25500000920E-02 0.  1.
       -2    1    3    3    0  502 -0.31643218881E+03  0.40932252514E+03  0.12530110455E+04  0.13556219753E+04  0.25500000920E-02 0. -1.
</event>
<event>
 5   0  0.9519092E-05  0.2417167E+04  0.7818609E-02  0.8433104E-01
       -2   -1    0    0    0  501  0.00000000000E+00  0.00000000000E+00  0.78733057498E+03  0.78733057498E+03  0.25500000920E-02 0. -1.
        2   -1    0    0  501    0  0.00000000000E+00  0.00000000000E+00 -0.18552227096E+04  0.18552227096E+04  0.25500000920E-02 0.  1.
    10030    2    1    2    0    0  0.00000000000E+00  0.00000000000E+00 -0.10678921347E+04  0.26425532846E+04  0.24171665749E+04 0.  0.
        4    1    3    3  502    0  0.24465434807E+03 -0.45786724941E+03  0.65923055580E+03  0.83909755494E+03  0.12699999809E+01 0. -1.
       -4    1    3    3    0  502 -0.24465434807E+03  0.45786724941E+03 -0.17271226905E+04  0.18034557297E+04  0.12699999809E+01 0.  1.
</event>
<event>
 5   0  0.4208577E-05  0.2455535E+04  0.7818609E-02  0.8419000E-01
        1   -1    0    0  501    0  0.00000000000E+00  0.00000000000E+00  0.17389525264E+04  0.17389525264E+04  0.50400001928E-02 0. -1.
       -1   -1    0    0    0  501  0.00000000000E+00  0.00000000000E+00 -0.86685106440E+03  0.86685106441E+03  0.50400001928E-02 0.  1.
    10030    2    1    2    0    0  0.00000000000E+00  0.00000000000E+00  0.87210146199E+03  0.26058035908E+04  0.24555348488E+04 0.  0.
        1    1    3    3  502    0  0.31171600387E+03  0.66290060795E+03  0.14816431377E+04  0.16528370974E+04  0.50400001928E-02 0. -1.
       -1    1    3    3    0  502 -0.31171600387E+03 -0.66290060795E+03 -0.60954167570E+03  0.95296649339E+03  0.50400001928E-02 0.  1.
</event>
<event>
 5   0  0.9144244E-05  0.2469575E+04  0.7818609E-02  0.8413906E-01
        2   -1    0    0  501    0  0.00000000000E+00  0.00000000000E+00  0.90275542741E+03  0.90275542741E+03  0.25500000920E-02 0. -1.
       -2   -1    0    0    0  501  0.00000000000E+00  0.00000000000E+00 -0.16889398800E+04  0.16889398800E+04  0.25500000920E-02 0.  1.
    10030    2    1    2    0    0  0.00000000000E+00  0.00000000000E+00 -0.78618445256E+03  0.25916953074E+04  0.24695745733E+04 0.  0.
        1    1    3    3  502    0  0.90448522376E+03  0.38962569826E+02  0.48812600145E+03  0.10285322529E+04  0.50400001928E-02 0. -1.
       -1    1    3    3    0  502 -0.90448522376E+03 -0.38962569826E+02 -0.12743104540E+04  0.15631630545E+04  0.50400001928E-02 0.  1.
</event>
<event>
 5   0  0.4208577E-05  0.2260658E+04  0.7818609E-02  0.8493597E-01
        1   -1    0    0  501    0  0.00000000000E+00  0.00000000000E+00  0.13101019554E+04  0.13101019554E+04  0.50400001928E-02 0. -1.
       -1   -1    0    0    0  501  0.00000000000E+00  0.00000000000E+00 -0.97522435324E+03  0.97522435326E+03  0.50400001928E-02 0.  1.
    10030    2    1    2    0    0  0.00000000000E+00  0.00000000000E+00  0.33487760215E+03  0.22853263087E+04  0.22606577204E+04 0.  0.
        1    1    3    3  502    0 -0.16000635995E+03 -0.63489669048E+03  0.10988765210E+04  0.12791502849E+04  0.50400001928E-02 0. -1.
       -1    1    3    3    0  502  0.16000635995E+03  0.63489669048E+03 -0.76399891886E+03  0.10061760238E+04  0.50400001928E-02 0.  1.
</event>
<event>
 5   0  0.4208577E-05  0.2396629E+04  0.7818609E-02  0.8440767E-01
       -1   -1    0    0    0  501  0.00000000000E+00  0.00000000000E+00  0.78647651386E+03  0.78647651388E+03  0.50400001928E-02 0. -1.
        1   -1    0    0  501    0  0.00000000000E+00  0.00000000000E+00 -0.18258113854E+04  0.18258113854E+04  0.50400001928E-02 0.  1.
    10030    2    1    2    0    0  0.00000000000E+00  0.00000000000E+00 -0.10393348715E+04  0.26122878993E+04  0.23966291106E+04 0.  0.
        1    1    3    3  502    0 -0.78157470611E+02  0.11511684089E+04 -0.16704368197E+03  0.11658477120E+04  0.50400001928E-02 0. -1.
       -1    1    3    3    0  502  0.78157470611E+02 -0.11511684089E+04 -0.87229118957E+03  0.14464401873E+04  0.50400001928E-02 0.  1.
</event>
<event>
 5   0  0.9182865E-05  0.1606518E+04  0.7818609E-02  0.8816554E-01
       -2   -1    0    0    0  501  0.00000000000E+00  0.00000000000E+00  0.44442456708E+03  0.44442456708E+03  0.25500000920E-02 0. -1.
        2   -1    0    0  501    0  0.00000000000E+00  0.00000000000E+00 -0.14518215150E+04  0.14518215150E+04  0.25500000920E-02 0.  1.
    10030    2    1    2    0    0  0.00000000000E+00  0.00000000000E+00 -0.10073969479E+04  0.18962460821E+04  0.16065181583E+04 0.  0.
        3    1    3    3  502    0  0.26796485133E+03  0.30172997720E+03 -0.13234896757E+04  0.13836441279E+04  0.10100000352E+00 0.  1.
       -3    1    3    3    0  502 -0.26796485133E+03 -0.30172997720E+03  0.31609272779E+03  0.51260195420E+03  0.10100000352E+00 0. -1.
</event>
<event>
 5   0  0.3234750E-05  0.2522698E+04  0.7818609E-02  0.8394944E-01
        3   -1    0    0  501    0  0.00000000000E+00  0.00000000000E+00  0.89234049096E+03  0.89234049667E+03  0.10100000352E+00 0. -1.
       -3   -1    0    0    0  501  0.00000000000E+00  0.00000000000E+00 -0.17829532054E+04  0.17829532082E+04  0.10100000352E+00 0.  1.
    10030    2    1    2    0    0  0.00000000000E+00  0.00000000000E+00 -0.89061271442E+03  0.26752937049E+04  0.25226980399E+04 0.  0.
        2    1    3    3  502    0 -0.11229276712E+04 -0.26799650340E+03 -0.98418996333E+03  0.15170427036E+04  0.25500000920E-02 0.  1.
       -2    1    3    3    0  502  0.11229276712E+04  0.26799650340E+03  0.93577248913E+02  0.11582510013E+04  0.25500000920E-02 0. -1.
</event>
<event>
 5   0  0.9182865E-05  0.2322846E+04  0.7818609E-02  0.8468967E-01
       -2   -1    0    0    0  501  0.00000000000E+00  0.00000000000E+00  0.10156205930E+04  0.10156205930E+04  0.25500000920E-02 0. -1.
        2   -1    0    0  501    0  0.00000000000E+00  0.00000000000E+00 -0.13281571200E+04  0.13281571200E+04  0.25500000920E-02 0.  1.
    10030    2    1    2    0    0  0.00000000000E+00  0.00000000000E+00 -0.31253652697E+03  0.23437777131E+04  0.23228462901E+04 0.  0.
        3    1    3    3  502    0 -0.22377954224E+03 -0.65555500375E+03 -0.10969102133E+04  0.12973209598E+04  0.10100000352E+00 0.  1.
       -3    1    3    3    0  502  0.22377954224E+03  0.65555500375E+03  0.78437368632E+03  0.10464567533E+04  0.10100000352E+00 0. -1.
</event>
<event>
 5   0  0.9519092E-05  0.2396130E+04  0.7818609E-02  0.8440954E-01
        2   -1    0    0  501    0  0.00000000000E+00  0.00000000000E+00  0.12907774306E+04  0.12907774306E+04  0.25500000920E-02 0.  1.
       -2   -1    0    0    0  501  0.00000000000E+00  0.00000000000E+00 -0.11120122594E+04  0.11120122594E+04  0.25500000920E-02 0. -1.
    10030    2    1    2    0    0  0.00000000000E+00  0.00000000000E+00  0.17876517116E+03  0.24027896900E+04  0.23961304864E+04 0.  0.
        4    1    3    3  502    0  0.11249889443E+04 -0.35634715228E+03  0.29677926943E+03  0.12168249527E+04  0.12699999809E+01 0.  1.
       -4    1    3    3    0  502 -0.11249889443E+04  0.35634715228E+03 -0.11801409827E+03  0.11859647373E+04  0.12699999809E+01 0. -1.
</event>
<event>
 5   0  0.9182865E-05  0.1444732E+04  0.7818609E-02  0.8922061E-01
        2   -1    0    0  501    0  0.00000000000E+00  0.00000000000E+00  0.12416125019E+04  0.12416125019E+04  0.25500000920E-02 0.  1.
       -2   -1    0    0    0  501  0.00000000000E+00  0.00000000000E+00 -0.42026984992E+03  0.42026984993E+03  0.25500000920E-02 0. -1.
    10030    2    1    2    0    0  0.00000000000E+00  0.00000000000E+00  0.82134265198E+03  0.16618823518E+04  0.14447315319E+04 0.  0.
        3    1    3    3  502    0  0.16632466716E+03  0.10591446053E+03 -0.38871267403E+03  0.43586617328E+03  0.10100000352E+00 0. -1.
       -3    1    3    3    0  502 -0.16632466716E+03 -0.10591446053E+03  0.12100553260E+04  0.12260161785E+04  0.10100000352E+00 0.  1.
</event>
<event>
 5   0  0.9144244E-05  0.2360196E+04  0.7818609E-02  0.8454558E-01
       -2   -1    0    0    0  501  0.00000000000E+00  0.00000000000E+00  0.87675122074E+03  0.87675122074E+03  0.25500000920E-02 0.  1.
        2   -1    0    0  501    0  0.00000000000E+00  0.00000000000E+00 -0.15883989639E+04  0.15883989639E+04  0.25500000920E-02 0. -1.
    10030    2    1    2    0    0  0.00000000000E+00  0.00000000000E+00 -0.71164774319E+03  0.24651501847E+04  0.23601955264E+04 0.  0.
        1    1    3    3  502    0  0.85699159611E+03 -0.38458370327E+03  0.39028906744E+03  0.10171847309E+04  0.50400001928E-02 0. -1.
       -1    1    3    3    0  502 -0.85699159611E+03  0.38458370327E+03 -0.11019368106E+04  0.14479654538E+04  0.50400001928E-02 0.  1.
</event>
<event>
 5   0  0.3934906E-05  0.2366647E+04  0.7818609E-02  0.8452097E-01
       -1   -1    0    0    0  501  0.00000000000E+00  0.00000000000E+00  0.57773059456E+03  0.57773059459E+03  0.50400001928E-02 0. -1.
        1   -1    0    0  501    0  0.00000000000E+00  0.00000000000E+00 -0.24237156038E+04  0.24237156038E+04  0.50400001928E-02 0.  1.
    10030    2    1    2    0    0  0.00000000000E+00  0.00000000000E+00 -0.18459850093E+04  0.30014461984E+04  0.23666471278E+04 0.  0.
        2    1    3    3  502    0 -0.65964031848E+03 -0.59813524583E+03 -0.19113667300E+04  0.21086047279E+04  0.25500000920E-02 0.  1.
       -2    1    3    3    0  502  0.65964031848E+03  0.59813524583E+03  0.65381720720E+02  0.89284147051E+03  0.25500000920E-02 0. -1.
</event>
<event>
 5   0  0.4260395E-05  0.2444895E+04  0.7818609E-02  0.8422884E-01
        1   -1    0    0  501    0  0.00000000000E+00  0.00000000000E+00  0.11393195767E+04  0.11393195767E+04  0.50400001928E-02 0. -1.
       -1   -1    0    0    0  501  0.00000000000E+00  0.00000000000E+00 -0.13116411367E+04  0.13116411367E+04  0.50400001928E-02 0.  1.
    10030    2    1    2    0    0  0.00000000000E+00  0.00000000000E+00 -0.17232156001E+03  0.24509607134E+04  0.24448954372E+04 0.  0.
        4    1    3    3  502    0 -0.61863609708E+03 -0.31859352916E+03 -0.10937234758E+04  0.12963198339E+04  0.12699999809E+01 0.  1.
       -4    1    3    3    0  502  0.61863609708E+03  0.31859352916E+03  0.92140191577E+03  0.11546408795E+04  0.12699999809E+01 0. -1.
</event>
<event>
 5   0  0.9491680E-05  0.2424302E+04  0.7818609E-02  0.8430461E-01
        2   -1    0    0  501    0  0.00000000000E+00  0.00000000000E+00  0.25850645304E+04  0.25850645304E+04  0.25500000920E-02 0.  1.
       -2   -1    0    0    0  501  0.00000000000E+00  0.00000000000E+00 -0.56838445330E+03  0.56838445330E+03  0.25500000920E-02 0. -1.
    10030    2    1    2    0    0  0.00000000000E+00  0.00000000000E+00  0.20166800771E+04  0.31534489837E+04  0.24243023655E+04 0.  0.
        5    1    3    3  502    0 -0.88955854510E+03  0.80748813835E+03  0.12178275161E+04  0.17106950189E+04  0.46999998093E+01 0.  1.
       -5    1    3    3    0  502  0.88955854510E+03 -0.80748813835E+03  0.79885256104E+03  0.14427539648E+04  0.46999998093E+01 0. -1.
</event>
<event>
 5   0  0.4208577E-05  0.2389834E+04  0.7818609E-02  0.8443319E-01
        1   -1    0    0  501    0  0.00000000000E+00  0.00000000000E+00  0.12859577116E+04  0.12859577116E+04  0.50400001928E-02 0.  1.
       -1   -1    0    0    0  501  0.00000000000E+00  0.00000000000E+00 -0.11103218208E+04  0.11103218208E+04  0.50400001928E-02 0. -1.
    10030    2    1    2    0    0  0.00000000000E+00  0.00000000000E+00  0.17563589083E+03  0.23962795324E+04  0.23898342267E+04 0.  0.
        1    1    3    3  502    0 -0.34630085509E+03  0.86119616289E+03  0.84233911516E+03  0.12534425787E+04  0.50400001928E-02 0.  1.
       -1    1    3    3    0  502  0.34630085509E+03 -0.86119616289E+03 -0.66670322433E+03  0.11428369536E+04  0.50400001928E-02 0. -1.
</event>
<event>
 5   0  0.4260395E-05  0.2404540E+04  0.7818609E-02  0.8437806E-01
       -1   -1    0    0    0  501  0.00000000000E+00  0.00000000000E+00  0.10636739682E+04  0.10636739682E+04  0.50400001928E-02 0.  1.
        1   -1    0    0  501    0  0.00000000000E+00  0.00000000000E+00 -0.13589247567E+04  0.13589247567E+04  0.50400001928E-02 0. -1.
    10030    2    1    2    0    0  0.00000000000E+00  0.00000000000E+00 -0.29525078851E+03  0.24225987248E+04  0.24045397800E+04 0.  0.
        4    1    3    3  502    0 -0.91043248763E+02 -0.11932717723E+04 -0.31587142844E+02  0.11971573649E+04  0.12699999809E+01 0. -1.
       -4    1    3    3    0  502  0.91043248763E+02  0.11932717723E+04 -0.26366364567E+03  0.12254413600E+04  0.12699999809E+01 0.  1.
</event>
<event>
 5   0  0.4018942E-05  0.2193142E+04  0.7818609E-02  0.8521288E-01
        1   -1    0    0  501    0  0.00000000000E+00  0.00000000000E+00  0.75070636563E+03  0.75070636564E+03  0.50400001928E-02 0.  1.
       -1   -1    0    0    0  501  0.00000000000E+00  0.00000000000E+00 -0.16017813427E+04  0.16017813427E+04  0.50400001928E-02 0. -1.
    10030    2    1    2    0    0  0.00000000000E+00  0.00000000000E+00 -0.85107497704E+03  0.23524877083E+04  0.21931415370E+04 0.  0.
        5    1    3    3  502    0 -0.89902186546E+03 -0.60812842651E+03 -0.59303982106E+03  0.12368422765E+04  0.46999998093E+01 0. -1.
       -5    1    3    3    0  502  0.89902186546E+03  0.60812842651E+03 -0.25803515597E+03  0.11156454318E+04  0.46999998093E+01 0.  1.
</event>
<event>
 5   0  0.9519092E-05  0.2398110E+04  0.7818609E-02  0.8440211E-01
       -2   -1    0    0    0  501  0.00000000000E+00  0.00000000000E+00  0.15004382978E+04  0.15004382978E+04  0.25500000920E-02 0.  1.
        2   -1    0    0  501    0  0.00000000000E+00  0.00000000000E+00 -0.95820873041E+03  0.95820873041E+03  0.25500000920E-02 0. -1.
    10030    2    1    2    0    0  0.00000000000E+00  0.00000000000E+00  0.54222956744E+03  0.24586470283E+04  0.23981101530E+04 0.  0.
        4    1    3    3  502    0 -0.30067365886E+03 -0.77972676649E+03 -0.61044743986E+03  0.10349039420E+04  0.12699999809E+01 0. -1.
       -4    1    3    3    0  502  0.30067365886E+03  0.77972676649E+03  0.11526770073E+04  0.14237430862E+04  0.12699999809E+01 0.  1.
</event>
<event>
 5   0  0.4208577E-05  0.1533955E+04  0.7818609E-02  0.8862182E-01
       -1   -1    0    0    0  501  0.00000000000E+00  0.00000000000E+00  0.72004954847E+03  0.72004954849E+03  0.50400001928E-02 0.  1.
        1   -1    0    0  501    0  0.00000000000E+00  0.00000000000E+00 -0.81696401143E+03  0.81696401144E+03  0.50400001928E-02 0. -1.
    10030    2    1    2    0    0  0.00000000000E+00  0.00000000000E+00 -0.96914462955E+02  0.15370135599E+04  0.15339551070E+04 0.  0.
        1    1    3    3  502    0 -0.66951156196E+03  0.31553077268E+03 -0.24997801490E+03  0.78121342030E+03  0.50400001928E-02 0. -1.
       -1    1    3    3    0  502  0.66951156196E+03 -0.31553077268E+03  0.15306355194E+03  0.75580013963E+03  0.50400001928E-02 0.  1.
</event>
<event>
 5   0  0.9750757E-05  0.2272976E+04  0.7818609E-02  0.8488653E-01
        2   -1    0    0  501    0  0.00000000000E+00  0.00000000000E+00  0.21390896183E+04  0.21390896183E+04  0.25500000920E-02 0. -1.
       -2   -1    0    0    0  501  0.00000000000E+00  0.00000000000E+00 -0.60381065676E+03  0.60381065676E+03  0.25500000920E-02 0.  1.
    10030    2    1    2    0    0  0.00000000000E+00  0.00000000000E+00  0.15352789615E+04  0.27429002751E+04  0.22729761172E+04 0.  0.
        2    1    3    3  502    0 -0.74090063004E+03 -0.13383127705E+03 -0.25969631207E+03  0.79642120063E+03  0.25500000920E-02 0.  1.
       -2    1    3    3    0  502  0.74090063004E+03  0.13383127705E+03  0.17949752736E+04  0.19464790744E+04  0.25500000920E-02 0. -1.
</event>
<event>
 5   0  0.9491680E-05  0.2300001E+04  0.7818609E-02  0.8477921E-01
       -2   -1    0    0    0  501  0.00000000000E+00  0.00000000000E+00  0.12625743493E+04  0.12625743493E+04  0.25500000920E-02 0. -1.
        2   -1    0    0  501    0  0.00000000000E+00  0.00000000000E+00 -0.10474636485E+04  0.10474636485E+04  0.25500000920E-02 0.  1.
    10030    2    1    2    0    0  0.00000000000E+00  0.00000000000E+00  0.21511070081E+03  0.23100379978E+04  0.23000006386E+04 0.  0.
        5    1    3    3  502    0 -0.42928534530E+03 -0.38630593903E+03 -0.89124947259E+03  0.10620103100E+04  0.46999998093E+01 0.  1.
       -5    1    3    3    0  502  0.42928534530E+03  0.38630593903E+03  0.11063601734E+04  0.12480276878E+04  0.46999998093E+01 0. -1.
</event>
<event>
 5   0  0.4061631E-05  0.2174636E+04  0.7818609E-02  0.8529060E-01
        1   -1    0    0  501    0  0.00000000000E+00  0.00000000000E+00  0.17513118256E+04  0.17513118256E+04  0.50400001928E-02 0.  1.
       -1   -1    0    0    0  501  0.00000000000E+00  0.00000000000E+00 -0.67507135419E+03  0.67507135421E+03  0.50400001928E-02 0. -1.
    10030    2    1    2    0    0  0.00000000000E+00  0.00000000000E+00  0.10762404714E+04  0.24263831798E+04  0.21746360116E+04 0.  0.
        3    1    3    3  502    0  0.17857718748E+03  0.85470624710E+02  0.17310320778E+04  0.17423165912E+04  0.10100000352E+00 0.  1.
       -3    1    3    3    0  502 -0.17857718748E+03 -0.85470624710E+02 -0.65479160640E+03  0.68406658856E+03  0.10100000352E+00 0. -1.
</event>
<event>
 5   0  0.4018942E-05  0.2410030E+04  0.7818609E-02  0.8435758E-01
        1   -1    0    0  501    0  0.00000000000E+00  0.00000000000E+00  0.18280915828E+04  0.18280915828E+04  0.50400001928E-02 0. -1.
       -1   -1    0    0    0  501  0.00000000000E+00  0.00000000000E+00 -0.79430456902E+03  0.79430456904E+03  0.50400001928E-02 0.  1.
    10030    2    1    2    0    0  0.00000000000E+00  0.00000000000E+00  0.10337870137E+04  0.26223961518E+04  0.24100302876E+04 0.  0.
        5    1    3    3  502    0  0.28327815136E+02 -0.36188145497E+03 -0.73339032690E+03  0.81831785643E+03  0.46999998093E+01 0.  1.
       -5    1    3    3    0  502 -0.28327815136E+02  0.36188145497E+03  0.17671773406E+04  0.18040782954E+04  0.46999998093E+01 0. -1.
</event>
<event>
 5   0  0.9750757E-05  0.2329783E+04  0.7818609E-02  0.8466270E-01
       -2   -1    0    0    0  501  0.00000000000E+00  0.00000000000E+00  0.10045199796E+04  0.10045199796E+04  0.25500000920E-02 0.  1.
        2   -1    0    0  501    0  0.00000000000E+00  0.00000000000E+00 -0.13508668176E+04  0.13508668176E+04  0.25500000920E-02 0. -1.
    10030    2    1    2    0    0  0.00000000000E+00  0.00000000000E+00 -0.34634683797E+03  0.23553867972E+04  0.23297834303E+04 0.  0.
        2    1    3    3  502    0 -0.79574167678E+03 -0.71250222800E+03  0.29681004236E+03  0.11085848828E+04  0.25500000920E-02 0.  1.
       -2    1    3    3    0  502  0.79574167678E+03  0.71250222800E+03 -0.64315688033E+03  0.12468019144E+04  0.25500000920E-02 0. -1.
</event>
<event>
 5   0  0.4260395E-05  0.2410794E+04  0.7818609E-02  0.8435473E-01
       -1   -1    0    0    0  501  0.00000000000E+00  0.00000000000E+00  0.96610318431E+03  0.96610318432E+03  0.50400001928E-02 0. -1.
        1   -1    0    0  501    0  0.00000000000E+00  0.00000000000E+00 -0.15039615390E+04  0.15039615390E+04  0.50400001928E-02 0.  1.
    10030    2    1    2    0    0  0.00000000000E+00  0.00000000000E+00 -0.53785835471E+03  0.24700647233E+04  0.24107940866E+04 0.  0.
        4    1    3    3  502    0  0.41630730685E+03  0.17716467324E+03 -0.14136628350E+04  0.14842989318E+04  0.12699999809E+01 0.  1.
       -4    1    3    3    0  502 -0.41630730685E+03 -0.17716467324E+03  0.87580448026E+03  0.98576579151E+03  0.12699999809E+01 0. -1.
</event>
<event>
 5   0  0.9182865E-05  0.2419492E+04  0.7818609E-02  0.8432242E-01
       -2   -1    0    0    0  501  0.00000000000E+00  0.00000000000E+00  0.69484548434E+03  0.69484548434E+03  0.25500000920E-02 0. -1.
        2   -1    0    0  501    0  0.00000000000E+00  0.00000000000E+00 -0.21062025761E+04  0.21062025761E+04  0.25500000920E-02 0.  1.
    10030    2    1    2    0    0  0.00000000000E+00  0.00000000000E+00 -0.14113570918E+04  0.28010480605E+04  0.24194919708E+04 0.  0.
        3    1    3    3  502    0 -0.48003848840E+02 -0.40567838266E+03 -0.20239364744E+04  0.20647513609E+04  0.10100000352E+00 0.  1.
       -3    1    3    3    0  502  0.48003848840E+02  0.40567838266E+03  0.61257938259E+03  0.73629669960E+03  0.10100000352E+00 0. -1.
</event>
<event>
 5   0  0.9491680E-05  0.2386964E+04  0.7818609E-02  0.8444400E-01
        2   -1    0    0  501    0  0.00000000000E+00  0.00000000000E+00  0.16660953780E+04  0.16660953780E+04  0.25500000920E-02 0.  1.
       -2   -1    0    0    0  501  0.00000000000E+00  0.00000000000E+00 -0.85493226854E+03  0.85493226854E+03  0.25500000920E-02 0. -1.
    10030    2    1    2    0    0  0.00000000000E+00  0.00000000000E+00  0.81116310943E+03  0.25210276465E+04  0.23869635113E+04 0.  0.
        5    1    3    3  502    0 -0.11965110726E+03 -0.92197421681E+03 -0.38479683522E+03  0.10062025335E+04  0.46999998093E+01 0. -1.
       -5    1    3    3    0  502  0.11965110726E+03  0.92197421681E+03  0.11959599446E+04  0.15148251131E+04  0.46999998093E+01 0.  1.
</event>
<event>
 5   0  0.9144244E-05  0.2373069E+04  0.7818609E-02  0.8449656E-01
       -2   -1    0    0    0  501  0.00000000000E+00  0.00000000000E+00  0.12057689345E+04  0.12057689345E+04  0.25500000920E-02 0. -1.
        2   -1    0    0  501    0  0.00000000000E+00  0.00000000000E+00 -0.11676064745E+04  0.11676064745E+04  0.25500000920E-02 0.  1.
    10030    2    1    2    0    0  0.00000000000E+00  0.00000000000E+00  0.38162460006E+02  0.23733754090E+04  0.23730685744E+04 0.  0.
        1    1    3    3  502    0  0.81797423240E+03 -0.13883508123E+03  0.86742824892E+03  0.12003286182E+04  0.50400001928E-02 0.  1.
       -1    1    3    3    0  502 -0.81797423240E+03  0.13883508123E+03 -0.82926578891E+03  0.11730467908E+04  0.50400001928E-02 0. -1.
</event>
<event>
 5   0  0.4208577E-05  0.2393212E+04  0.7818609E-02  0.8442049E-01
       -1   -1    0    0    0  501  0.00000000000E+00  0.00000000000E+00  0.14948321551E+04  0.14948321551E+04  0.50400001928E-02 0. -1.
        1   -1    0    0  501    0  0.00000000000E+00  0.00000000000E+00 -0.95787775439E+03  0.95787775441E+03  0.50400001928E-02 0.  1.
    10030    2    1    2    0    0  0.00000000000E+00  0.00000000000E+00  0.53695440074E+03  0.24527099095E+04  0.23932124586E+04 0.  0.
        1    1    3    3  502    0  0.46437948734E+03 -0.98104882928E+03 -0.24779373053E+03  0.11133314181E+04  0.50400001928E-02 0. -1.
       -1    1    3    3    0  502 -0.46437948734E+03  0.98104882928E+03  0.78474813127E+03  0.13393784914E+04  0.50400001928E-02 0.  1.
</event>
<event>
 5   0  0.9144244E-05  0.2041920E+04  0.7818609E-02  0.8587269E-01
        2   -1    0    0  501    0  0.00000000000E+00  0.00000000000E+00  0.10453344705E+04  0.10453344705E+04  0.25500000920E-02 0. -1.
       -2   -1    0    0    0  501  0.00000000000E+00  0.00000000000E+00 -0.99715387678E+03  0.99715387678E+03  0.25500000920E-02 0.  1.
    10030    2    1    2    0    0  0.00000000000E+00  0.00000000000E+00  0.48180593713E+02  0.20424883473E+04  0.20419199982E+04 0.  0.
        1    1    3    3  502    0 -0.14857843505E+03 -0.99107399232E+03 -0.17104375503E+03  0.10166411244E+04  0.50400001928E-02 0.  1.
       -1    1    3    3    0  502  0.14857843505E+03  0.99107399232E+03  0.21922434874E+03  0.10258472229E+04  0.50400001928E-02 0. -1.
</event>
<event>
 5   0  0.4208577E-05  0.2580428E+04  0.7818609E-02  0.8374880E-01
        1   -1    0    0  501    0  0.00000000000E+00  0.00000000000E+00  0.18798004608E+04  0.18798004608E+04  0.50400001928E-02 0.  1.
       -1   -1    0    0    0  501  0.00000000000E+00  0.00000000000E+00 -0.88554724145E+03  0.88554724147E+03  0.50400001928E-02 0. -1.
    10030    2    1    2    0    0  0.00000000000E+00  0.00000000000E+00  0.99425321933E+03  0.27653477023E+04  0.25804279587E+04 0.  0.
        1    1    3    3  502    0 -0.40941046991E+03  0.48516728726E+03  0.17008510768E+04  0.18154609924E+04  0.50400001928E-02 0.  1.
       -1    1    3    3    0  502  0.40941046991E+03 -0.48516728726E+03 -0.70659785742E+03  0.94988670989E+03  0.50400001928E-02 0. -1.
</event>
<event>
 5   0  0.9519092E-05  0.2376275E+04  0.7818609E-02  0.8448440E-01
       -2   -1    0    0    0  501  0.00000000000E+00  0.00000000000E+00  0.62057129517E+03  0.62057129518E+03  0.25500000920E-02 0.  1.
        2   -1    0    0  501    0  0.00000000000E+00  0.00000000000E+00 -0.22747921458E+04  0.22747921458E+04  0.25500000920E-02 0. -1.
    10030    2    1    2    0    0  0.00000000000E+00  0.00000000000E+00 -0.16542208507E+04  0.28953634410E+04  0.23762749910E+04 0.  0.
        4    1    3    3  502    0  0.89649509831E+03  0.45944982264E+02  0.12128756948E+03  0.90582928308E+03  0.12699999809E+01 0.  1.
       -4    1    3    3    0  502 -0.89649509831E+03 -0.45944982264E+02 -0.17755084201E+04  0.19895341579E+04  0.12699999809E+01 0. -1.
</event>
<event>
 5   0  0.4208577E-05  0.2293755E+04  0.7818609E-02  0.8480388E-01
        1   -1    0    0  501    0  0.00000000000E+00  0.00000000000E+00  0.17698594560E+04  0.17698594560E+04  0.50400001928E-02 0.  1.
       -1   -1    0    0    0  501  0.00000000000E+00  0.00000000000E+00 -0.74318202722E+03  0.74318202723E+03  0.50400001928E-02 0. -1.
    10030    2    1    2    0    0  0.00000000000E+00  0.00000000000E+00  0.10266774288E+04  0.25130414832E+04  0.22937547719E+04 0.  0.
        1    1    3    3  502    0 -0.79712733300E+03 -0.77514798072E+03  0.82139836367E+03  0.13823753647E+04  0.50400001928E-02 0. -1.
       -1    1    3    3    0  502  0.79712733300E+03  0.77514798072E+03  0.20527906510E+03  0.11306661185E+04  0.50400001928E-02 0.  1.
</event>
<event>
 5   0  0.9491680E-05  0.2383230E+04  0.7818609E-02  0.8445809E-01
        2   -1    0    0  501    0  0.00000000000E+00  0.00000000000E+00  0.10934756665E+04  0.10934756665E+04  0.25500000920E-02 0.  1.
       -2   -1    0    0    0  501  0.00000000000E+00  0.00000000000E+00 -0.12985622015E+04  0.12985622015E+04  0.25500000920E-02 0. -1.
    10030    2    1    2    0    0  0.00000000000E+00  0.00000000000E+00 -0.20508653505E+03  0.23920378680E+04  0.23832298830E+04 0.  0.
        5    1    3    3  502    0 -0.45662513702E+03  0.43939319269E+03 -0.11154067219E+04  0.12828589708E+04  0.46999998093E+01 0. -1.
       -5    1    3    3    0  502  0.45662513702E+03 -0.43939319269E+03  0.91032018687E+03  0.11091788973E+04  0.46999998093E+01 0.  1.
</event>
<event>
 5   0  0.9491680E-05  0.2367693E+04  0.7818609E-02  0.8451699E-01
        2   -1    0    0  501    0  0.00000000000E+00  0.00000000000E+00  0.22625435485E+04  0.22625435485E+04  0.25500000920E-02 0. -1.
       -2   -1    0    0    0  501  0.00000000000E+00  0.00000000000E+00 -0.61943238554E+03  0.61943238555E+03  0.25500000920E-02 0.  1.
    10030    2    1    2    0    0  0.00000000000E+00  0.00000000000E+00  0.16431111630E+04  0.28819759341E+04  0.23676931792E+04 0.  0.
        5    1    3    3  502    0 -0.15534868513E+03 -0.30554992971E+03 -0.55769601582E+03  0.65463036103E+03  0.46999998093E+01 0.  1.
       -5    1    3    3    0  502  0.15534868513E+03  0.30554992971E+03  0.22008071788E+04  0.22273455731E+04  0.46999998093E+01 0. -1.
</event>
<event>
 5   0  0.9750757E-05  0.1289715E+04  0.7818609E-02  0.9037762E-01
       -2   -1    0    0    0  501  0.00000000000E+00  0.00000000000E+00  0.50158422055E+03  0.50158422056E+03  0.25500000920E-02 0. -1.
        2   -1    0    0  501    0  0.00000000000E+00  0.00000000000E+00 -0.82905496769E+03  0.82905496770E+03  0.25500000920E-02 0.  1.
    10030    2    1    2    0    0  0.00000000000E+00  0.00000000000E+00 -0.32747074714E+03  0.13306391883E+04  0.12897145262E+04 0.  0.
        2    1    3    3  502    0 -0.60975438873E+03  0.18029850850E+03 -0.27453452006E+03  0.69258730096E+03  0.25500000920E-02 0.  1.
       -2    1    3    3    0  502  0.60975438873E+03 -0.18029850850E+03 -0.52936227076E+02  0.63805188729E+03  0.25500000920E-02 0. -1.
</event>
<event>
 5   0  0.9750757E-05  0.2433368E+04  0.7818609E-02  0.8427116E-01
       -2   -1    0    0    0  501  0.00000000000E+00  0.00000000000E+00  0.11659588455E+04  0.11659588455E+04  0.25500000920E-02 0. -1.
        2   -1    0    0  501    0  0.00000000000E+00  0.00000000000E+00 -0.12696158172E+04  0.12696158172E+04  0.25500000920E-02 0.  1.
    10030    2    1    2    0    0  0.00000000000E+00  0.00000000000E+00 -0.10365697169E+03  0.24355746627E+04  0.24333678657E+04 0.  0.
        2    1    3    3  502    0  0.38442605134E+03 -0.71361702988E+03  0.85634609927E+03  0.11791358259E+04  0.25500000920E-02 0. -1.
       -2    1    3    3    0  502 -0.38442605134E+03  0.71361702988E+03 -0.96000307097E+03  0.12564388368E+04  0.25500000920E-02 0.  1.
</event>
<event>
 5   0  0.9144244E-05  0.2377818E+04  0.7818609E-02  0.8447855E-01
        2   -1    0    0  501    0  0.00000000000E+00  0.00000000000E+00  0.18730174590E+04  0.18730174590E+04  0.25500000920E-02 0.  1.
       -2   -1    0    0    0  501  0.00000000000E+00  0.00000000000E+00 -0.75466681986E+03  0.75466681987E+03  0.25500000920E-02 0. -1.
    10030    2    1    2    0    0  0.00000000000E+00  0.00000000000E+00  0.11183506391E+04  0.26276842789E+04  0.23778175955E+04 0.  0.
        1    1    3    3  502    0  0.55901248519E+02  0.10124205422E+04  0.12452026030E+04  0.16058174947E+04  0.50400001928E-02 0.  1.
       -1    1    3    3    0  502 -0.55901248519E+02 -0.10124205422E+04 -0.12685196385E+03  0.10218667842E+04  0.50400001928E-02 0. -1.
</event>
<event>
 5   0  0.4018942E-05  0.2306083E+04  0.7818609E-02  0.8475526E-01
        1   -1    0    0  501    0  0.00000000000E+00  0.00000000000E+00  0.14354477571E+04  0.14354477571E+04  0.50400001928E-02 0. -1.
       -1   -1    0    0    0  501  0.00000000000E+00  0.00000000000E+00 -0.92619535329E+03  0.92619535330E+03  0.50400001928E-02 0.  1.
    10030    2    1    2    0    0  0.00000000000E+00  0.00000000000E+00  0.50925240380E+03  0.23616431104E+04  0.23060832964E+04 0.  0.
        5    1    3    3  502    0 -0.62958599622E+03 -0.85727879976E+03  0.71052288727E+03  0.12791287388E+04  0.46999998093E+01 0. -1.
       -5    1    3    3    0  502  0.62958599622E+03  0.85727879976E+03 -0.20127048347E+03  0.10825143716E+04  0.46999998093E+01 0.  1.
</event>
<event>
 5   0  0.4061631E-05  0.2263170E+04  0.7818609E-02  0.8492586E-01
        1   -1    0    0  501    0  0.00000000000E+00  0.00000000000E+00  0.11739255584E+04  0.11739255584E+04  0.50400001928E-02 0.  1.
       -1   -1    0    0    0  501  0.00000000000E+00  0.00000000000E+00 -0.10907719451E+04  0.10907719451E+04  0.50400001928E-02 0. -1.
    10030    2    1    2    0    0  0.00000000000E+00  0.00000000000E+00  0.83153613315E+02  0.22646975035E+04  0.22631703999E+04 0.  0.
        3    1    3    3  502    0  0.73214016536E+03 -0.86120952834E+03  0.94280942344E+02  0.11342839061E+04  0.10100000352E+00 0.  1.
       -3    1    3    3    0  502 -0.73214016536E+03  0.86120952834E+03 -0.11127329028E+02  0.11304135974E+04  0.10100000352E+00 0. -1.
</event>
<event>
 5   0  0.9182865E-05  0.2362198E+04  0.7818609E-02  0.8453793E-01
       -2   -1    0    0    0  501  0.00000000000E+00  0.00000000000E+00  0.68449950474E+03  0.68449950474E+03  0.25500000920E-02 0. -1.
        2   -1    0    0  501    0  0.00000000000E+00  0.00000000000E+00 -0.20379783373E+04  0.20379783373E+04  0.25500000920E-02 0.  1.
    10030    2    1    2    0    0  0.00000000000E+00  0.00000000000E+00 -0.13534788326E+04  0.27224778420E+04  0.23621982665E+04 0.  0.
        3    1    3    3  502    0 -0.58293051774E+03 -0.33017367740E+03 -0.17978105483E+04  0.19185790116E+04  0.10100000352E+00 0.  1.
       -3    1    3    3    0  502  0.58293051774E+03  0.33017367740E+03  0.44433171578E+03  0.80389883046E+03  0.10100000352E+00 0. -1.
</event>
<event>
 5   0  0.4208577E-05  0.2454345E+04  0.7818609E-02  0.8419433E-01
       -1   -1    0    0    0  501  0.00000000000E+00  0.00000000000E+00  0.17520459072E+04  0.17520459072E+04  0.50400001928E-02 0. -1.
        1   -1    0    0  501    0  0.00000000000E+00  0.00000000000E+00 -0.85953963944E+03  0.85953963945E+03  0.50400001928E-02 0.  1.
    10030    2    1    2    0    0  0.00000000000E+00  0.00000000000E+00  0.89250626773E+03  0.26115855466E+04  0.24543454585E+04 0.  0.
        1    1    3    3  502    0  0.76101927788E+03  0.95940091055E+03  0.53106165616E+03  0.13347759854E+04  0.50400001928E-02 0.  1.
       -1    1    3    3    0  502 -0.76101927788E+03 -0.95940091055E+03  0.36144461157E+03  0.12768095613E+04  0.50400001928E-02 0. -1.
</event>
<event>
 5   0  0.9750757E-05  0.2408828E+04  0.7818609E-02  0.8436206E-01
        2   -1    0    0  501    0  0.00000000000E+00  0.00000000000E+00  0.90361809586E+03  0.90361809586E+03  0.25500000920E-02 0.  1.
       -2   -1    0    0    0  501  0.00000000000E+00  0.00000000000E+00 -0.16053390959E+04  0.16053390959E+04  0.25500000920E-02 0. -1.
    10030    2    1    2    0    0  0.00000000000E+00  0.00000000000E+00 -0.70172100008E+03  0.25089571918E+04  0.24088283103E+04 0.  0.
        2    1    3    3  502    0 -0.96844146585E+03 -0.70717316866E+03 -0.23375619502E+03  0.12217261240E+04  0.25500000920E-02 0. -1.
       -2    1    3    3    0  502  0.96844146585E+03  0.70717316866E+03 -0.46796480506E+03  0.12872310678E+04  0.25500000920E-02 0.  1.
</event>
<event>
 5   0  0.4260395E-05  0.2410953E+04  0.7818609E-02  0.8435414E-01
       -1   -1    0    0    0  501  0.00000000000E+00  0.00000000000E+00  0.12122719541E+04  0.12122719541E+04  0.50400001928E-02 0. -1.
        1   -1    0    0  501    0  0.00000000000E+00  0.00000000000E+00 -0.11987191893E+04  0.11987191893E+04  0.50400001928E-02 0.  1.
    10030    2    1    2    0    0  0.00000000000E+00  0.00000000000E+00  0.13552764790E+02  0.24109911433E+04  0.24109530514E+04 0.  0.
        4    1    3    3  502    0 -0.10355393653E+04 -0.61355618110E+03  0.72952019759E+02  0.12058675609E+04  0.12699999809E+01 0. -1.
       -4    1    3    3    0  502  0.10355393653E+04  0.61355618110E+03 -0.59399254969E+02  0.12051235824E+04  0.12699999809E+01 0.  1.
</event>
<event>
 5   0  0.4208577E-05  0.1999752E+04  0.7818609E-02  0.8606737E-01
       -1   -1    0    0    0  501  0.00000000000E+00  0.00000000000E+00  0.75544763335E+03  0.75544763336E+03  0.50400001928E-02 0. -1.
        1   -1    0    0  501    0  0.00000000000E+00  0.00000000000E+00 -0.13233897067E+04  0.13233897067E+04  0.50400001928E-02 0.  1.
    10030    2    1    2    0    0  0.00000000000E+00  0.00000000000E+00 -0.56794207339E+03  0.20788373401E+04  0.19997516065E+04 0.  0.
        1    1    3    3  502    0  0.62655340926E+03 -0.17489319793E+03 -0.10733395910E+04  0.12550755686E+04  0.50400001928E-02 0.  1.
       -1    1    3    3    0  502 -0.62655340926E+03  0.17489319793E+03  0.50539751760E+03  0.82376177149E+03  0.50400001928E-02 0. -1.
</event>
<event>
 5   0  0.3934906E-05  0.1795218E+04  0.7818609E-02  0.8708847E-01
        1   -1    0    0  501    0  0.00000000000E+00  0.00000000000E+00  0.78853910582E+03  0.78853910584E+03  0.50400001928E-02 0.  1.
       -1   -1    0    0    0  501  0.00000000000E+00  0.00000000000E+00 -0.10217654508E+04  0.10217654508E+04  0.50400001928E-02 0. -1.
    10030    2    1    2    0    0  0.00000000000E+00  0.00000000000E+00 -0.23322634496E+03  0.18103045566E+04  0.17952181093E+04 0.  0.
        2    1    3    3  502    0 -0.31223794827E+03  0.77839395286E+03 -0.43916419087E+03  0.94670738285E+03  0.25500000920E-02 0.  1.
       -2    1    3    3    0  502  0.31223794827E+03 -0.77839395286E+03  0.20593784591E+03  0.86359717379E+03  0.25500000920E-02 0. -1.
</event>
<event>
 5   0  0.4018942E-05  0.1198089E+04  0.7818609E-02  0.9114531E-01
       -1   -1    0    0    0  501  0.00000000000E+00  0.00000000000E+00  0.44836798837E+03  0.44836798839E+03  0.50400001928E-02 0. -1.
        1   -1    0    0  501    0  0.00000000000E+00  0.00000000000E+00 -0.80035634255E+03  0.80035634256E+03  0.50400001928E-02 0.  1.
    10030    2    1    2    0    0  0.00000000000E+00  0.00000000000E+00 -0.35198835418E+03  0.12487243310E+04  0.11980887502E+04 0.  0.
        5    1    3    3  502    0 -0.25850824147E+02  0.52366440429E+03  0.12597353856E+03  0.53924400400E+03  0.46999998093E+01 0. -1.
       -5    1    3    3    0  502  0.25850824147E+02 -0.52366440429E+03 -0.47796189274E+03  0.70948032696E+03  0.46999998093E+01 0.  1.
</event>
<event>
 5   0  0.9519092E-05  0.2394022E+04  0.7818609E-02  0.8441745E-01
       -2   -1    0    0    0  501  0.00000000000E+00  0.00000000000E+00  0.10641539746E+04  0.10641539746E+04  0.25500000920E-02 0.  1.
        2   -1    0    0  501    0  0.00000000000E+00  0.00000000000E+00 -0.13464548058E+04  0.13464548058E+04  0.25500000920E-02 0. -1.
    10030    2    1    2    0    0  0.00000000000E+00  0.00000000000E+00 -0.28230083117E+03  0.24106087805E+04  0.23940219158E+04 0.  0.
        4    1    3    3  502    0 -0.42970785953E+03 -0.45146335609E+03 -0.11701729713E+04  0.13258108470E+04  0.12699999809E+01 0. -1.
       -4    1    3    3    0  502  0.42970785953E+03  0.45146335609E+03  0.88787214009E+03  0.10847979335E+04  0.12699999809E+01 0.  1.
</event>
<event>
 5   0  0.9519092E-05  0.2184783E+04  0.7818609E-02  0.8524789E-01
        2   -1    0    0  501    0  0.00000000000E+00  0.00000000000E+00  0.79224384749E+03  0.79224384749E+03  0.25500000920E-02 0.  1.
       -2   -1    0    0    0  501  0.00000000000E+00  0.00000000000E+00 -0.15062525384E+04  0.15062525384E+04  0.25500000920E-02 0. -1.
    10030    2    1    2    0    0  0.00000000000E+00  0.00000000000E+00 -0.71400869091E+03  0.22984963859E+04  0.21847831072E+04 0.  0.
        4    1    3    3  502    0  0.72503490398E+03  0.77482662238E+03 -0.84108349693E+02  0.10644753328E+04  0.12699999809E+01 0.  1.
       -4    1    3    3    0  502 -0.72503490398E+03 -0.77482662238E+03 -0.62990034122E+03  0.12340210531E+04  0.12699999809E+01 0. -1.
</event>
<event>
 5   0  0.3934906E-05  0.2292359E+04  0.7818609E-02  0.8480940E-01
        1   -1    0    0  501    0  0.00000000000E+00  0.00000000000E+00  0.21346070629E+04  0.21346070629E+04  0.50400001928E-02 0. -1.
       -1   -1    0    0    0  501  0.00000000000E+00  0.00000000000E+00 -0.61544245367E+03  0.61544245369E+03  0.50400001928E-02 0.  1.
    10030    2    1    2    0    0  0.00000000000E+00  0.00000000000E+00  0.15191646092E+04  0.27500495166E+04  0.22923593160E+04 0.  0.
        2    1    3    3  502    0  0.36591943117E+03  0.16529347283E+03 -0.52831120719E+03  0.66357493466E+03  0.25500000920E-02 0.  1.
       -2    1    3    3    0  502 -0.36591943117E+03 -0.16529347283E+03  0.20474758164E+04  0.20864745819E+04  0.25500000920E-02 0. -1.
</event>
<event>
 5   0  0.9519092E-05  0.2407136E+04  0.7818609E-02  0.8436837E-01
       -2   -1    0    0    0  501  0.00000000000E+00  0.00000000000E+00  0.68419425583E+03  0.68419425583E+03  0.25500000920E-02 0. -1.
        2   -1    0    0  501    0  0.00000000000E+00  0.00000000000E+00 -0.21172001660E+04  0.21172001660E+04  0.25500000920E-02 0.  1.
    10030    2    1    2    0    0  0.00000000000E+00  0.00000000000E+00 -0.14330059102E+04  0.28013944218E+04  0.24071362172E+04 0.  0.
        4    1    3    3  502    0  0.78663206974E+03 -0.74441142690E+03 -0.10550224611E+03  0.10881501378E+04  0.12699999809E+01 0. -1.
       -4    1    3    3    0  502 -0.78663206974E+03  0.74441142690E+03 -0.13275036640E+04  0.17132442840E+04  0.12699999809E+01 0.  1.
</event>
<event>
 5   0  0.9144244E-05  0.2406577E+04  0.7818609E-02  0.8437045E-01
        2   -1    0    0  501    0  0.00000000000E+00  0.00000000000E+00  0.16152057895E+04  0.16152057895E+04  0.25500000920E-02 0.  1.
       -2   -1    0    0    0  501  0.00000000000E+00  0.00000000000E+00 -0.89642059063E+03  0.89642059063E+03  0.25500000920E-02 0. -1.
    10030    2    1    2    0    0  0.00000000000E+00  0.00000000000E+00  0.71878519884E+03  0.25116263801E+04  0.24065774268E+04 0.  0.
        1    1    3    3  502    0 -0.11608185453E+03 -0.22533547278E+03  0.15870261178E+04  0.16071412417E+04  0.50400001928E-02 0.  1.
       -1    1    3    3    0  502  0.11608185453E+03  0.22533547278E+03 -0.86824091894E+03  0.90448513840E+03  0.50400001928E-02 0. -1.
</event>
<event>
 5   0  0.9519092E-05  0.2439546E+04  0.7818609E-02  0.8424845E-01
        2   -1    0    0  501    0  0.00000000000E+00  0.00000000000E+00  0.19003243630E+04  0.19003243630E+04  0.25500000920E-02 0. -1.
       -2   -1    0    0    0  501  0.00000000000E+00  0.00000000000E+00 -0.78294297342E+03  0.78294297342E+03  0.25500000920E-02 0.  1.
    10030    2    1    2    0    0  0.00000000000E+00  0.00000000000E+00  0.11173813895E+04  0.26832673364E+04  0.24395455373E+04 0.  0.
        4    1    3    3  502    0 -0.76077241855E+03 -0.56174666659E+03  0.14060527972E+04  0.16944969966E+04  0.12699999809E+01 0. -1.
       -4    1    3    3    0  502  0.76077241855E+03  0.56174666659E+03 -0.28867140764E+03  0.98877033974E+03  0.12699999809E+01 0.  1.
</event>
<event>
 5   0  0.4018942E-05  0.2407618E+04  0.7818609E-02  0.8436657E-01
        1   -1    0    0  501    0  0.00000000000E+00  0.00000000000E+00  0.13244303293E+04  0.13244303293E+04  0.50400001928E-02 0. -1.
       -1   -1    0    0    0  501  0.00000000000E+00  0.00000000000E+00 -0.10941732194E+04  0.10941732194E+04  0.50400001928E-02 0.  1.
    10030    2    1    2    0    0  0.00000000000E+00  0.00000000000E+00  0.23025710991E+03  0.24186035487E+04  0.24076180738E+04 0.  0.
        5    1    3    3  502    0 -0.34301723905E+03 -0.74438366189E+03 -0.77057814557E+03  0.11249802802E+04  0.46999998093E+01 0.  1.
       -5    1    3    3    0  502  0.34301723905E+03  0.74438366189E+03  0.10008352555E+04  0.12936232686E+04  0.46999998093E+01 0. -1.
</event>
<event>
 5   0  0.9491680E-05  0.2348223E+04  0.7818609E-02  0.8459146E-01
        2   -1    0    0  501    0  0.00000000000E+00  0.00000000000E+00  0.14722052867E+04  0.14722052867E+04  0.25500000920E-02 0. -1.
       -2   -1    0    0    0  501  0.00000000000E+00  0.00000000000E+00 -0.93637645393E+03  0.93637645393E+03  0.25500000920E-02 0.  1.
    10030    2    1    2    0    0  0.00000000000E+00  0.00000000000E+00  0.53582883281E+03  0.24085817407E+04  0.23482234696E+04 0.  0.
        5    1    3    3  502    0 -0.13772187604E+03 -0.38681886078E+03  0.13961513601E+04  0.14552858332E+04  0.46999998093E+01 0. -1.
       -5    1    3    3    0  502  0.13772187604E+03  0.38681886078E+03 -0.86032252727E+03  0.95329590742E+03  0.46999998093E+01 0.  1.
</event>
<event>
 5   0  0.4018942E-05  0.2412550E+04  0.7818609E-02  0.8434820E-01
        1   -1    0    0  501    0  0.00000000000E+00  0.00000000000E+00  0.17367103190E+04  0.17367103190E+04  0.50400001928E-02 0. -1.
       -1   -1    0    0    0  501  0.00000000000E+00  0.00000000000E+00 -0.83784809152E+03  0.83784809153E+03  0.50400001928E-02 0.  1.
    10030    2    1    2    0    0  0.00000000000E+00  0.00000000000E+00  0.89886222749E+03  0.25745584105E+04  0.24125500420E+04 0.  0.
        5    1    3    3  502    0 -0.20236429313E+03 -0.78028638473E+03 -0.50820310527E+03  0.95293789700E+03  0.46999998093E+01 0.  1.
       -5    1    3    3    0  502  0.20236429313E+03  0.78028638473E+03  0.14070653328E+04  0.16216205136E+04  0.46999998093E+01 0. -1.
</event>
<event>
 5   0  0.4061631E-05  0.2371031E+04  0.7818609E-02  0.8450429E-01
        1   -1    0    0  501    0  0.00000000000E+00  0.00000000000E+00  0.18700597531E+04  0.18700597531E+04  0.50400001928E-02 0. -1.
       -1   -1    0    0    0  501  0.00000000000E+00  0.00000000000E+00 -0.75155218561E+03  0.75155218563E+03  0.50400001928E-02 0.  1.
    10030    2    1    2    0    0  0.00000000000E+00  0.00000000000E+00  0.11185075675E+04  0.26216119387E+04  0.23710314167E+04 0.  0.
        3    1    3    3  502    0 -0.83430938924E+03 -0.89506225366E+02 -0.36672880652E+03  0.91573661556E+03  0.10100000352E+00 0.  1.
       -3    1    3    3    0  502  0.83430938924E+03  0.89506225366E+02  0.14852363740E+04  0.17058753232E+04  0.10100000352E+00 0. -1.
</event>
<event>
 5   0  0.9491680E-05  0.2369124E+04  0.7818609E-02  0.8451154E-01
        2   -1    0    0  501    0  0.00000000000E+00  0.00000000000E+00  0.10226283508E+04  0.10226283508E+04  0.25500000920E-02 0.  1.
       -2   -1    0    0    0  501  0.00000000000E+00  0.00000000000E+00 -0.13721381093E+04  0.13721381093E+04  0.25500000920E-02 0. -1.
    10030    2    1    2    0    0  0.00000000000E+00  0.00000000000E+00 -0.34950975851E+03  0.23947664600E+04  0.23691241687E+04 0.  0.
        5    1    3    3  502    0 -0.10759440166E+04 -0.28463673832E+03 -0.58472033288E+03  0.12572165913E+04  0.46999998093E+01 0. -1.
       -5    1    3    3    0  502  0.10759440166E+04  0.28463673832E+03  0.23521057438E+03  0.11375498688E+04  0.46999998093E+01 0.  1.
</event>
<event>
 5   0  0.4208577E-05  0.1271936E+04  0.7818609E-02  0.9052121E-01
       -1   -1    0    0    0  501  0.00000000000E+00  0.00000000000E+00  0.71989842592E+03  0.71989842594E+03  0.50400001928E-02 0. -1.
        1   -1    0    0  501    0  0.00000000000E+00  0.00000000000E+00 -0.56182239091E+03  0.56182239093E+03  0.50400001928E-02 0.  1.
    10030    2    1    2    0    0  0.00000000000E+00  0.00000000000E+00  0.15807603502E+03  0.12817208169E+04  0.12719356193E+04 0.  0.
        1    1    3    3  502    0  0.72199091308E+02  0.64882579935E+01  0.71572168600E+03  0.71938330402E+03  0.50400001928E-02 0. -1.
       -1    1    3    3    0  502 -0.72199091308E+02 -0.64882579935E+01 -0.55764565098E+03  0.56233751285E+03  0.50400001928E-02 0.  1.
</event>
<event>
 5   0  0.4260395E-05  0.2436832E+04  0.7818609E-02  0.8425842E-01
        1   -1    0    0  501    0  0.00000000000E+00  0.00000000000E+00  0.11378310944E+04  0.11378310944E+04  0.50400001928E-02 0. -1.
       -1   -1    0    0    0  501  0.00000000000E+00  0.00000000000E+00 -0.13047082760E+04  0.13047082760E+04  0.50400001928E-02 0.  1.
    10030    2    1    2    0    0  0.00000000000E+00  0.00000000000E+00 -0.16687718162E+03  0.24425393704E+04  0.24368320792E+04 0.  0.
        4    1    3    3  502    0 -0.12028623530E+03 -0.16982822990E+03  0.11198836876E+04  0.11390572825E+04  0.12699999809E+01 0. -1.
       -4    1    3    3    0  502  0.12028623530E+03  0.16982822990E+03 -0.12867608692E+04  0.13034820879E+04  0.12699999809E+01 0.  1.
</event>
<event>
 5   0  0.4018942E-05  0.2471371E+04  0.7818609E-02  0.8413256E-01
       -1   -1    0    0    0  501  0.00000000000E+00  0.00000000000E+00  0.88739451611E+03  0.88739451613E+03  0.50400001928E-02 0. -1.
        1   -1    0    0  501    0  0.00000000000E+00  0.00000000000E+00 -0.17206763192E+04  0.17206763192E+04  0.50400001928E-02 0.  1.
    10030    2    1    2    0    0  0.00000000000E+00  0.00000000000E+00 -0.83328180306E+03  0.26080708353E+04  0.24713710605E+04 0.  0.
        5    1    3    3  502    0 -0.51326278985E+03  0.90472291994E+03  0.28728899652E+03  0.10791289593E+04  0.46999998093E+01 0. -1.
       -5    1    3    3    0  502  0.51326278985E+03 -0.90472291994E+03 -0.11205707996E+04  0.15289418760E+04  0.46999998093E+01 0.  1.
</event>
<event>
 5   0  0.4208577E-05  0.2387013E+04  0.7818609E-02  0.8444382E-01
       -1   -1    0    0    0  501  0.00000000000E+00  0.00000000000E+00  0.98992685329E+03  0.98992685330E+03  0.50400001928E-02 0. -1.
        1   -1    0    0  501    0  0.00000000000E+00  0.00000000000E+00 -0.14389525020E+04  0.14389525020E+04  0.50400001928E-02 0.  1.
    10030    2    1    2    0    0  0.00000000000E+00  0.00000000000E+00 -0.44902564868E+03  0.24288793553E+04  0.23870129638E+04 0.  0.
        1    1    3    3  502    0 -0.76850467274E+03  0.91310118710E+03 -0.23491526179E+03  0.12163627708E+04  0.50400001928E-02 0. -1.
       -1    1    3    3    0  502  0.76850467274E+03 -0.91310118710E+03 -0.21411038689E+03  0.12125165845E+04  0.50400001928E-02 0.  1.
</event>
<event>
 5   0  0.4208577E-05  0.2420443E+04  0.7818609E-02  0.8431889E-01
        1   -1    0    0  501    0  0.00000000000E+00  0.00000000000E+00  0.20131320895E+04  0.20131320895E+04  0.50400001928E-02 0. -1.
       -1   -1    0    0    0  501  0.00000000000E+00  0.00000000000E+00 -0.72754120569E+03  0.72754120570E+03  0.50400001928E-02 0.  1.
    10030    2    1    2    0    0  0.00000000000E+00  0.00000000000E+00  0.12855908838E+04  0.27406732952E+04  0.24204433872E+04 0.  0.
        1    1    3    3  502    0 -0.59440205386E+03 -0.79860180900E+03 -0.13640444417E+03  0.10048307436E+04  0.50400001928E-02 0. -1.
       -1    1    3    3    0  502  0.59440205386E+03  0.79860180900E+03  0.14219953279E+04  0.17358425515E+04  0.50400001928E-02 0.  1.
</event>
<event>
 5   0  0.9519092E-05  0.2366089E+04  0.7818609E-02  0.8452310E-01
        2   -1    0    0  501    0  0.00000000000E+00  0.00000000000E+00  0.11650577244E+04  0.11650577244E+04  0.25500000920E-02 0.  1.
       -2   -1    0    0    0  501  0.00000000000E+00  0.00000000000E+00 -0.12013089968E+04  0.12013089968E+04  0.25500000920E-02 0. -1.
    10030    2    1    2    0    0  0.00000000000E+00  0.00000000000E+00 -0.36251272340E+02  0.23663667212E+04  0.23660890314E+04 0.  0.
        4    1    3    3  502    0 -0.91722770141E+03  0.74666477535E+03 -0.46017442050E+02  0.11836106458E+04  0.12699999809E+01 0. -1.
       -4    1    3    3    0  502  0.91722770141E+03 -0.74666477535E+03  0.97661697098E+01  0.11827560754E+04  0.12699999809E+01 0.  1.
</event>
<event>
 5   0  0.4260395E-05  0.2287636E+04  0.7818609E-02  0.8482812E-01
       -1   -1    0    0    0  501  0.00000000000E+00  0.00000000000E+00  0.79848759509E+03  0.79848759511E+03  0.50400001928E-02 0. -1.
        1   -1    0    0  501    0  0.00000000000E+00  0.00000000000E+00 -0.16384970336E+04  0.16384970336E+04  0.50400001928E-02 0.  1.
    10030    2    1    2    0    0  0.00000000000E+00  0.00000000000E+00 -0.84000943847E+03  0.24369846287E+04  0.22876359465E+04 0.  0.
        4    1    3    3  502    0  0.99132729581E+02 -0.11284450273E+04 -0.58878591752E+03  0.12766698662E+04  0.12699999809E+01 0. -1.
       -4    1    3    3    0  502 -0.99132729581E+02  0.11284450273E+04 -0.25122352095E+03  0.11603147625E+04  0.12699999809E+01 0.  1.
</event>
<event>
 5   0  0.4208577E-05  0.2366545E+04  0.7818609E-02  0.8452136E-01
       -1   -1    0    0    0  501  0.00000000000E+00  0.00000000000E+00  0.73742175355E+03  0.73742175357E+03  0.50400001928E-02 0.  1.
        1   -1    0    0  501    0  0.00000000000E+00  0.00000000000E+00 -0.18986872175E+04  0.18986872175E+04  0.50400001928E-02 0. -1.
    10030    2    1    2    0    0  0.00000000000E+00  0.00000000000E+00 -0.11612654639E+04  0.26361089710E+04  0.23665445336E+04 0.  0.
        1    1    3    3  502    0 -0.15959055865E+03  0.44065528406E+03  0.62962896267E+03  0.78490690941E+03  0.50400001928E-02 0.  1.
       -1    1    3    3    0  502  0.15959055865E+03 -0.44065528406E+03 -0.17908944266E+04  0.18512020616E+04  0.50400001928E-02 0. -1.
</event>
<event>
 5   0  0.4061631E-05  0.2137013E+04  0.7818609E-02  0.8545112E-01
       -1   -1    0    0    0  501  0.00000000000E+00  0.00000000000E+00  0.92414905820E+03  0.92414905821E+03  0.50400001928E-02 0. -1.
        1   -1    0    0  501    0  0.00000000000E+00  0.00000000000E+00 -0.12354135690E+04  0.12354135690E+04  0.50400001928E-02 0.  1.
    10030    2    1    2    0    0  0.00000000000E+00  0.00000000000E+00 -0.31126451080E+03  0.21595626272E+04  0.21370131364E+04 0.  0.
        3    1    3    3  502    0 -0.97562779920E+03 -0.36355653366E+03 -0.39834005719E+03  0.11147635476E+04  0.10100000352E+00 0. -1.
       -3    1    3    3    0  502  0.97562779920E+03  0.36355653366E+03  0.87075546395E+02  0.10447990796E+04  0.10100000352E+00 0.  1.
</event>
<event>
 5   0  0.4018942E-05  0.2077614E+04  0.7818609E-02  0.8571169E-01
       -1   -1    0    0    0  501  0.00000000000E+00  0.00000000000E+00  0.92532729501E+03  0.92532729502E+03  0.50400001928E-02 0. -1.
        1   -1    0    0  501    0  0.00000000000E+00  0.00000000000E+00 -0.11662036240E+04  0.11662036240E+04  0.50400001928E-02 0.  1.
    10030    2    1    2    0    0  0.00000000000E+00  0.00000000000E+00 -0.24087632897E+03  0.20915309190E+04  0.20776140593E+04 0.  0.
        5    1    3    3  502    0  0.76908529970E+03  0.32635150731E+03 -0.74190669862E+03  0.11173384196E+04  0.46999998093E+01 0.  1.
       -5    1    3    3    0  502 -0.76908529970E+03 -0.32635150731E+03  0.50103036965E+03  0.97419249938E+03  0.46999998093E+01 0. -1.
</event>
<event>
 5   0  0.9519092E-05  0.2469655E+04  0.7818609E-02  0.8413877E-01
        2   -1    0    0  501    0  0.00000000000E+00  0.00000000000E+00  0.16898582790E+04  0.16898582790E+04  0.25500000920E-02 0.  1.
       -2   -1    0    0    0  501  0.00000000000E+00  0.00000000000E+00 -0.90232354857E+03  0.90232354858E+03  0.25500000920E-02 0. -1.
    10030    2    1    2    0    0  0.00000000000E+00  0.00000000000E+00  0.78753473045E+03  0.25921818276E+04  0.24696549710E+04 0.  0.
        4    1    3    3  502    0  0.81434102979E+03 -0.80609902013E+03 -0.89340140113E+02  0.11493172828E+04  0.12699999809E+01 0. -1.
       -4    1    3    3    0  502 -0.81434102979E+03  0.80609902013E+03  0.87687487056E+03  0.14428645448E+04  0.12699999809E+01 0.  1.
</event>
<event>
 5   0  0.3934906E-05  0.2646996E+04  0.7818609E-02  0.8352411E-01
        1   -1    0    0  501    0  0.00000000000E+00  0.00000000000E+00  0.16687223531E+04  0.16687223531E+04  0.50400001928E-02 0. -1.
       -1   -1    0    0    0  501  0.00000000000E+00  0.00000000000E+00 -0.10496932951E+04  0.10496932951E+04  0.50400001928E-02 0.  1.
    10030    2    1    2    0    0  0.00000000000E+00  0.00000000000E+00  0.61902905796E+03  0.27184156482E+04  0.26469957804E+04 0.  0.
        2    1    3    3  502    0  0.11543530627E+04  0.61349912433E+03  0.97213593334E+02  0.13108633230E+04  0.25500000920E-02 0. -1.
       -2    1    3    3    0  502 -0.11543530627E+04 -0.61349912433E+03  0.52181546463E+03  0.14075523252E+04  0.25500000920E-02 0.  1.
</event>
<event>
 5   0  0.4260395E-05  0.2481745E+04  0.7818609E-02  0.8409518E-01
       -1   -1    0    0    0  501  0.00000000000E+00  0.00000000000E+00  0.12398184739E+04  0.12398184739E+04  0.50400001928E-02 0.  1.
        1   -1    0    0  501    0  0.00000000000E+00  0.00000000000E+00 -0.12419272688E+04  0.12419272688E+04  0.50400001928E-02 0. -1.
    10030    2    1    2    0    0  0.00000000000E+00  0.00000000000E+00 -0.21087948994E+01  0.24817457428E+04  0.24817448468E+04 0.  0.
        4    1    3    3  502    0  0.11048722266E+04  0.18103954137E+02  0.56347425391E+03  0.12403931787E+04  0.12699999809E+01 0.  1.
       -4    1    3    3    0  502 -0.11048722266E+04 -0.18103954137E+02 -0.56558304880E+03  0.12413525640E+04  0.12699999809E+01 0. -1.
</event>
<event>
 5   0  0.9519092E-05  0.2360975E+04  0.7818609E-02  0.8454260E-01
        2   -1    0    0  501    0  0.00000000000E+00  0.00000000000E+00  0.18134018437E+04  0.18134018437E+04  0.25500000920E-02 0. -1.
       -2   -1    0    0    0  501  0.00000000000E+00  0.00000000000E+00 -0.76847319841E+03  0.76847319842E+03  0.25500000920E-02 0.  1.
    10030    2    1    2    0    0  0.00000000000E+00  0.00000000000E+00  0.10449286453E+04  0.25818750421E+04  0.23609749807E+04 0.  0.
        4    1    3    3  502    0  0.72127525587E+03 -0.93098763673E+03  0.43380388680E+03  0.12550551381E+04  0.12699999809E+01 0.  1.
       -4    1    3    3    0  502 -0.72127525587E+03  0.93098763673E+03  0.61112475848E+03  0.13268199041E+04  0.12699999809E+01 0. -1.
</event>
<event>
 5   0  0.9491680E-05  0.2336673E+04  0.7818609E-02  0.8463600E-01
       -2   -1    0    0    0  501  0.00000000000E+00  0.00000000000E+00  0.72849258633E+03  0.72849258634E+03  0.25500000920E-02 0.  1.
        2   -1    0    0  501    0  0.00000000000E+00  0.00000000000E+00 -0.18737464521E+04  0.18737464521E+04  0.25500000920E-02 0. -1.
    10030    2    1    2    0    0  0.00000000000E+00  0.00000000000E+00 -0.11452538658E+04  0.26022390384E+04  0.23366731898E+04 0.  0.
        5    1    3    3  502    0 -0.44110606417E+02  0.70444460006E+03 -0.16094598005E+04  0.17574330370E+04  0.46999998093E+01 0. -1.
       -5    1    3    3    0  502  0.44110606417E+02 -0.70444460006E+03  0.46420593476E+03  0.84480600141E+03  0.46999998093E+01 0.  1.
</event>
<event>
 5   0  0.4260395E-05  0.2041754E+04  0.7818609E-02  0.8587344E-01
       -1   -1    0    0    0  501  0.00000000000E+00  0.00000000000E+00  0.64704456842E+03  0.64704456844E+03  0.50400001928E-02 0.  1.
        1   -1    0    0  501    0  0.00000000000E+00  0.00000000000E+00 -0.16106932093E+04  0.16106932093E+04  0.50400001928E-02 0. -1.
    10030    2    1    2    0    0  0.00000000000E+00  0.00000000000E+00 -0.96364864084E+03  0.22577377777E+04  0.20417544343E+04 0.  0.
        4    1    3    3  502    0 -0.45832304977E+02  0.97227704767E+03 -0.14142009461E+03  0.98357740604E+03  0.12699999809E+01 0.  1.
       -4    1    3    3    0  502  0.45832304977E+02 -0.97227704767E+03 -0.82222854623E+03  0.12741603717E+04  0.12699999809E+01 0. -1.
</event>
<event>
 5   0  0.9519092E-05  0.2366137E+04  0.7818609E-02  0.8452291E-01
        2   -1    0    0  501    0  0.00000000000E+00  0.00000000000E+00  0.15438333598E+04  0.15438333598E+04  0.25500000920E-02 0.  1.
       -2   -1    0    0    0  501  0.00000000000E+00  0.00000000000E+00 -0.90660789194E+03  0.90660789194E+03  0.25500000920E-02 0. -1.
    10030    2    1    2    0    0  0.00000000000E+00  0.00000000000E+00  0.63722546790E+03  0.24504412518E+04  0.23661373653E+04 0.  0.
        4    1    3    3  502    0 -0.67433514657E+03  0.74377082682E+03  0.96679340109E+03  0.13937768925E+04  0.12699999809E+01 0.  1.
       -4    1    3    3    0  502  0.67433514657E+03 -0.74377082682E+03 -0.32956793319E+03  0.10566643593E+04  0.12699999809E+01 0. -1.
</event>
<event>
 5   0  0.9182865E-05  0.2424830E+04  0.7818609E-02  0.8430266E-01
        2   -1    0    0  501    0  0.00000000000E+00  0.00000000000E+00  0.21757633867E+04  0.21757633867E+04  0.25500000920E-02 0. -1.
       -2   -1    0    0    0  501  0.00000000000E+00  0.00000000000E+00 -0.67560215982E+03  0.67560215982E+03  0.25500000920E-02 0.  1.
    10030    2    1    2    0    0  0.00000000000E+00  0.00000000000E+00  0.15001612269E+04  0.28513655465E+04  0.24248302566E+04 0.  0.
        3    1    3    3  502    0  0.41373914133E+03 -0.55947769559E+03  0.19175783941E+04  0.20399270272E+04  0.10100000352E+00 0. -1.
       -3    1    3    3    0  502 -0.41373914133E+03  0.55947769559E+03 -0.41741716717E+03  0.81143851928E+03  0.10100000352E+00 0.  1.
</event>
<event>
 5   0  0.4018942E-05  0.2378434E+04  0.7818609E-02  0.8447622E-01
       -1   -1    0    0    0  501  0.00000000000E+00  0.00000000000E+00  0.70273004420E+03  0.70273004421E+03  0.50400001928E-02 0. -1.
        1   -1    0    0  501    0  0.00000000000E+00  0.00000000000E+00 -0.20124892738E+04  0.20124892738E+04  0.50400001928E-02 0.  1.
    10030    2    1    2    0    0  0.00000000000E+00  0.00000000000E+00 -0.13097592296E+04  0.27152193180E+04  0.23784336664E+04 0.  0.
        5    1    3    3  502    0  0.71792752255E+03 -0.98818449006E+02 -0.17312753667E+04  0.18768381653E+04  0.46999998093E+01 0.  1.
       -5    1    3    3    0  502 -0.71792752255E+03  0.98818449006E+02  0.42151613704E+03  0.83838115275E+03  0.46999998093E+01 0. -1.
</event>
<event>
 5   0  0.9750757E-05  0.2410415E+04  0.7818609E-02  0.8435614E-01
       -2   -1    0    0    0  501  0.00000000000E+00  0.00000000000E+00  0.17730185225E+04  0.17730185225E+04  0.25500000920E-02 0. -1.
        2   -1    0    0  501    0  0.00000000000E+00  0.00000000000E+00 -0.81923879808E+03  0.81923879809E+03  0.25500000920E-02 0.  1.
    10030    2    1    2    0    0  0.00000000000E+00  0.00000000000E+00  0.95377972440E+03  0.25922573206E+04  0.24104153695E+04 0.  0.
        2    1    3    3  502    0  0.88226665560E+03  0.75613660334E+03  0.82101144806E+03  0.14227427077E+04  0.25500000920E-02 0. -1.
       -2    1    3    3    0  502 -0.88226665560E+03 -0.75613660334E+03  0.13276827635E+03  0.11695146129E+04  0.25500000920E-02 0.  1.
</event>
<event>
 5   0  0.3234750E-05  0.2388255E+04  0.7818609E-02  0.8443914E-01
       -3   -1    0    0    0  501  0.00000000000E+00  0.00000000000E+00  0.70845970532E+03  0.70845971252E+03  0.10100000352E+00 0. -1.
        3   -1    0    0  501    0  0.00000000000E+00  0.00000000000E+00 -0.20127331910E+04  0.20127331935E+04  0.10100000352E+00 0.  1.
    10030    2    1    2    0    0  0.00000000000E+00  0.00000000000E+00 -0.13042734856E+04  0.27211929060E+04  0.23882549082E+04 0.  0.
        4    1    3    3  502    0  0.11013560792E+04  0.36931547595E+03 -0.33686970687E+03  0.12094882993E+04  0.12699999809E+01 0.  1.
       -4    1    3    3    0  502 -0.11013560792E+04 -0.36931547595E+03 -0.96740377878E+03  0.15117046067E+04  0.12699999809E+01 0. -1.
</event>
<event>
 5   0  0.9750757E-05  0.2381957E+04  0.7818609E-02  0.8446290E-01
       -2   -1    0    0    0  501  0.00000000000E+00  0.00000000000E+00  0.14870957041E+04  0.14870957041E+04  0.25500000920E-02 0.  1.
        2   -1    0    0  501    0  0.00000000000E+00  0.00000000000E+00 -0.95382570606E+03  0.95382570606E+03  0.25500000920E-02 0. -1.
    10030    2    1    2    0    0  0.00000000000E+00  0.00000000000E+00  0.53326999802E+03  0.24409214101E+04  0.23819572708E+04 0.  0.
        2    1    3    3  502    0  0.10967182880E+04  0.34169816802E+03 -0.55603394810E+02  0.11500610327E+04  0.25500000920E-02 0.  1.
       -2    1    3    3    0  502 -0.10967182880E+04 -0.34169816802E+03  0.58887339283E+03  0.12908603775E+04  0.25500000920E-02 0. -1.
</event>
<event>
 5   0  0.4061631E-05  0.2353730E+04  0.7818609E-02  0.8457032E-01
        1   -1    0    0  501    0  0.00000000000E+00  0.00000000000E+00  0.11618555936E+04  0.11618555937E+04  0.50400001928E-02 0. -1.
       -1   -1    0    0    0  501  0.00000000000E+00  0.00000000000E+00 -0.11920679128E+04  0.11920679128E+04  0.50400001928E-02 0.  1.
    10030    2    1    2    0    0  0.00000000000E+00  0.00000000000E+00 -0.30212319184E+02  0.23539235065E+04  0.23537296128E+04 0.  0.
        3    1    3    3  502    0 -0.14905032149E+03 -0.36102096137E+03 -0.11253591447E+04  0.11912117140E+04  0.10100000352E+00 0.  1.
       -3    1    3    3    0  502  0.14905032149E+03  0.36102096137E+03  0.10951468255E+04  0.11627117925E+04  0.10100000352E+00 0. -1.
</event>
<event>
 5   0  0.9182865E-05  0.2399289E+04  0.7818609E-02  0.8439770E-01
       -2   -1    0    0    0  501  0.00000000000E+00  0.00000000000E+00  0.14521033134E+04  0.14521033134E+04  0.25500000920E-02 0.  1.
        2   -1    0    0  501    0  0.00000000000E+00  0.00000000000E+00 -0.99107719676E+03  0.99107719677E+03  0.25500000920E-02 0. -1.
    10030    2    1    2    0    0  0.00000000000E+00  0.00000000000E+00  0.46102611662E+03  0.24431805102E+04  0.23992886289E+04 0.  0.
        3    1    3    3  502    0  0.96592363231E+02  0.17856788320E+03  0.14344833096E+04  0.14487784334E+04  0.10100000352E+00 0.  1.
       -3    1    3    3    0  502 -0.96592363231E+02 -0.17856788320E+03 -0.97345719293E+03  0.99440207674E+03  0.10100000352E+00 0. -1.
</event>
<event>
 5   0  0.4260395E-05  0.1741066E+04  0.7818609E-02  0.8738284E-01
        1   -1    0    0  501    0  0.00000000000E+00  0.00000000000E+00  0.13354953295E+04  0.13354953295E+04  0.50400001928E-02 0.  1.
       -1   -1    0    0    0  501  0.00000000000E+00  0.00000000000E+00 -0.56745034885E+03  0.56745034887E+03  0.50400001928E-02 0. -1.
    10030    2    1    2    0    0  0.00000000000E+00  0.00000000000E+00  0.76804498066E+03  0.19029456784E+04  0.17410655251E+04 0.  0.
        4    1    3    3  502    0 -0.64980480169E+03 -0.22914142039E+03 -0.19749256671E+03  0.71676844074E+03  0.12699999809E+01 0. -1.
       -4    1    3    3    0  502  0.64980480169E+03  0.22914142039E+03  0.96553754737E+03  0.11861772376E+04  0.12699999809E+01 0.  1.
</event>
<event>
 5   0  0.4208577E-05  0.2310011E+04  0.7818609E-02  0.8473984E-01
        1   -1    0    0  501    0  0.00000000000E+00  0.00000000000E+00  0.21708753175E+04  0.21708753175E+04  0.50400001928E-02 0. -1.
       -1   -1    0    0    0  501  0.00000000000E+00  0.00000000000E+00 -0.61451591073E+03  0.61451591075E+03  0.50400001928E-02 0.  1.
    10030    2    1    2    0    0  0.00000000000E+00  0.00000000000E+00  0.15563594068E+04  0.27853912283E+04  0.23100107557E+04 0.  0.
        1    1    3    3  502    0  0.75227339988E+03 -0.74389258600E+03  0.13369518095E+04  0.17049139534E+04  0.50400001928E-02 0. -1.
       -1    1    3    3    0  502 -0.75227339988E+03  0.74389258600E+03  0.21940759728E+03  0.10804772748E+04  0.50400001928E-02 0.  1.
</event>
<event>
 5   0  0.9750757E-05  0.2466264E+04  0.7818609E-02  0.8415104E-01
       -2   -1    0    0    0  501  0.00000000000E+00  0.00000000000E+00  0.99991569056E+03  0.99991569056E+03  0.25500000920E-02 0. -1.
        2   -1    0    0  501    0  0.00000000000E+00  0.00000000000E+00 -0.15207429901E+04  0.15207429901E+04  0.25500000920E-02 0.  1.
    10030    2    1    2    0    0  0.00000000000E+00  0.00000000000E+00 -0.52082729949E+03  0.25206586806E+04  0.24662642008E+04 0.  0.
        2    1    3    3  502    0 -0.97769862422E+03  0.54169197771E+03 -0.79275636942E+03  0.13703238521E+04  0.25500000920E-02 0.  1.
       -2    1    3    3    0  502  0.97769862422E+03 -0.54169197771E+03  0.27192906993E+03  0.11503348285E+04  0.25500000920E-02 0. -1.
</event>
<event>
 5   0  0.4018942E-05  0.2504383E+04  0.7818609E-02  0.8401426E-01
       -1   -1    0    0    0  501  0.00000000000E+00  0.00000000000E+00  0.11098295617E+04  0.11098295618E+04  0.50400001928E-02 0.  1.
        1   -1    0    0  501    0  0.00000000000E+00  0.00000000000E+00 -0.14128143950E+04  0.14128143950E+04  0.50400001928E-02 0. -1.
    10030    2    1    2    0    0  0.00000000000E+00  0.00000000000E+00 -0.30298483325E+03  0.25226439568E+04  0.25043827031E+04 0.  0.
        5    1    3    3  502    0 -0.52660140229E+03  0.82335376112E+03  0.63699289168E+03  0.11666201125E+04  0.46999998093E+01 0.  1.
       -5    1    3    3    0  502  0.52660140229E+03 -0.82335376112E+03 -0.93997772493E+03  0.13560238443E+04  0.46999998093E+01 0. -1.
</event>
<event>
 5   0  0.9519092E-05  0.2367338E+04  0.7818609E-02  0.8451834E-01
       -2   -1    0    0    0  501  0.00000000000E+00  0.00000000000E+00  0.82456151894E+03  0.82456151894E+03  0.25500000920E-02 0.  1.
        2   -1    0    0  501    0  0.00000000000E+00  0.00000000000E+00 -0.16991721565E+04  0.16991721565E+04  0.25500000920E-02 0. -1.
    10030    2    1    2    0    0  0.00000000000E+00  0.00000000000E+00 -0.87461063756E+03  0.25237336754E+04  0.23673377235E+04 0.  0.
        4    1    3    3  502    0  0.87650418997E+03 -0.36127573654E+03 -0.11928511840E+04  0.15237044703E+04  0.12699999809E+01 0. -1.
       -4    1    3    3    0  502 -0.87650418997E+03  0.36127573654E+03  0.31824054640E+03  0.10000292051E+04  0.12699999809E+01 0.  1.
</event>
<event>
 5   0  0.9182865E-05  0.2410451E+04  0.7818609E-02  0.8435601E-01
        2   -1    0    0  501    0  0.00000000000E+00  0.00000000000E+00  0.27313778233E+04  0.27313778234E+04  0.25500000920E-02 0.  1.
       -2   -1    0    0    0  501  0.00000000000E+00  0.00000000000E+00 -0.53180812320E+03  0.53180812320E+03  0.25500000920E-02 0. -1.
    10030    2    1    2    0    0  0.00000000000E+00  0.00000000000E+00  0.21995697002E+04  0.32631859466E+04  0.24104513386E+04 0.  0.
        3    1    3    3  502    0 -0.73794284023E+03 -0.89417649205E+03  0.15456192627E+04  0.19321102841E+04  0.10100000352E+00 0.  1.
       -3    1    3    3    0  502  0.73794284023E+03  0.89417649205E+03  0.65395043741E+03  0.13310756625E+04  0.10100000352E+00 0. -1.
</event>
<event>
 5   0  0.9491680E-05  0.2475720E+04  0.7818609E-02  0.8411687E-01
       -2   -1    0    0    0  501  0.00000000000E+00  0.00000000000E+00  0.74021645091E+03  0.74021645092E+03  0.25500000920E-02 0. -1.
        2   -1    0    0  501    0  0.00000000000E+00  0.00000000000E+00 -0.20700665859E+04  0.20700665859E+04  0.25500000920E-02 0.  1.
    10030    2    1    2    0    0  0.00000000000E+00  0.00000000000E+00 -0.13298501350E+04  0.28102830368E+04  0.24757199691E+04 0.  0.
        5    1    3    3  502    0 -0.45484979649E+03 -0.30427955225E+03  0.59543608314E+03  0.80872776778E+03  0.46999998093E+01 0. -1.
       -5    1    3    3    0  502  0.45484979649E+03  0.30427955225E+03 -0.19252862181E+04  0.20015552690E+04  0.46999998093E+01 0.  1.
</event>
<event>
 5   0  0.4260395E-05  0.2344997E+04  0.7818609E-02  0.8460388E-01
        1   -1    0    0  501    0  0.00000000000E+00  0.00000000000E+00  0.12185518945E+04  0.12185518945E+04  0.50400001928E-02 0.  1.
       -1   -1    0    0    0  501  0.00000000000E+00  0.00000000000E+00 -0.11281855621E+04  0.11281855622E+04  0.50400001928E-02 0. -1.
    10030    2    1    2    0    0  0.00000000000E+00  0.00000000000E+00  0.90366332363E+02  0.23467374567E+04  0.23449969332E+04 0.  0.
        4    1    3    3  502    0 -0.30401977745E+03 -0.10744807061E+04  0.40295967952E+03  0.11871457068E+04  0.12699999809E+01 0. -1.
       -4    1    3    3    0  502  0.30401977745E+03  0.10744807061E+04 -0.31259334716E+03  0.11595917499E+04  0.12699999809E+01 0.  1.
</event>
<event>
 5   0  0.4061631E-05  0.2409019E+04  0.7818609E-02  0.8436135E-01
        1   -1    0    0  501    0  0.00000000000E+00  0.00000000000E+00  0.11627273171E+04  0.11627273171E+04  0.50400001928E-02 0.  1.
       -1   -1    0    0    0  501  0.00000000000E+00  0.00000000000E+00 -0.12477926482E+04  0.12477926482E+04  0.50400001928E-02 0. -1.
    10030    2    1    2    0    0  0.00000000000E+00  0.00000000000E+00 -0.85065331058E+02  0.24105199653E+04  0.24090185538E+04 0.  0.
        3    1    3    3  502    0 -0.37185906852E+03  0.36530670299E+03  0.10440144567E+04  0.11669165995E+04  0.10100000352E+00 0.  1.
       -3    1    3    3    0  502  0.37185906852E+03 -0.36530670299E+03 -0.11290797878E+04  0.12436033658E+04  0.10100000352E+00 0. -1.
</event>
<event>
 5   0  0.4018942E-05  0.1887568E+04  0.7818609E-02  0.8661070E-01
        1   -1    0    0  501    0  0.00000000000E+00  0.00000000000E+00  0.11884288686E+04  0.11884288686E+04  0.50400001928E-02 0. -1.
       -1   -1    0    0    0  501  0.00000000000E+00  0.00000000000E+00 -0.74950037676E+03  0.74950037678E+03  0.50400001928E-02 0.  1.
    10030    2    1    2    0    0  0.00000000000E+00  0.00000000000E+00  0.43892849185E+03  0.19379292454E+04  0.18875676251E+04 0.  0.
        5    1    3    3  502    0  0.26818253031E+03 -0.28354676997E+03 -0.66275570543E+03  0.76914748611E+03  0.46999998093E+01 0.  1.
       -5    1    3    3    0  502 -0.26818253031E+03  0.28354676997E+03  0.11016841973E+04  0.11687817593E+04  0.46999998093E+01 0. -1.
</event>
<event>
 5   0  0.9519092E-05  0.2408051E+04  0.7818609E-02  0.8436496E-01
       -2   -1    0    0    0  501  0.00000000000E+00  0.00000000000E+00  0.89116425224E+03  0.89116425224E+03  0.25500000920E-02 0. -1.
        2   -1    0    0  501    0  0.00000000000E+00  0.00000000000E+00 -0.16267225667E+04  0.16267225667E+04  0.25500000920E-02 0.  1.
    10030    2    1    2    0    0  0.00000000000E+00  0.00000000000E+00 -0.73555831447E+03  0.25178868190E+04  0.24080506637E+04 0.  0.
        4    1    3    3  502    0 -0.61244453871E+03  0.11919503589E+03 -0.14444954131E+04  0.15734879666E+04  0.12699999809E+01 0.  1.
       -4    1    3    3    0  502  0.61244453871E+03 -0.11919503589E+03  0.70893709865E+03  0.94439885235E+03  0.12699999809E+01 0. -1.
</event>
<event>
 5   0  0.9144244E-05  0.2433928E+04  0.7818609E-02  0.8426910E-01
        2   -1    0    0  501    0  0.00000000000E+00  0.00000000000E+00  0.12607291225E+04  0.12607291225E+04  0.25500000920E-02 0.  1.
       -2   -1    0    0    0  501  0.00000000000E+00  0.00000000000E+00 -0.11747182207E+04  0.11747182208E+04  0.25500000920E-02 0. -1.
    10030    2    1    2    0    0  0.00000000000E+00  0.00000000000E+00  0.86010901725E+02  0.24354473432E+04  0.24339280775E+04 0.  0.
        1    1    3    3  502    0  0.45529547386E+01 -0.69294948567E+03  0.10440307002E+04  0.12530761438E+04  0.50400001928E-02 0.  1.
       -1    1    3    3    0  502 -0.45529547386E+01  0.69294948567E+03 -0.95801979846E+03  0.11823711995E+04  0.50400001928E-02 0. -1.
</event>
<event>
 5   0  0.9491680E-05  0.2306236E+04  0.7818609E-02  0.8475467E-01
        2   -1    0    0  501    0  0.00000000000E+00  0.00000000000E+00  0.15660235303E+04  0.15660235303E+04  0.25500000920E-02 0. -1.
       -2   -1    0    0    0  501  0.00000000000E+00  0.00000000000E+00 -0.84908089523E+03  0.84908089524E+03  0.25500000920E-02 0.  1.
    10030    2    1    2    0    0  0.00000000000E+00  0.00000000000E+00  0.71694263505E+03  0.24151044255E+04  0.23062356003E+04 0.  0.
        5    1    3    3  502    0 -0.57857978472E+03 -0.16055263443E+03  0.13893855991E+04  0.15135871791E+04  0.46999998093E+01 0. -1.
       -5    1    3    3    0  502  0.57857978472E+03  0.16055263443E+03 -0.67244296406E+03  0.90151724643E+03  0.46999998093E+01 0.  1.
</event>
<event>
 5   0  0.9519092E-05  0.2412971E+04  0.7818609E-02  0.8434663E-01
        2   -1    0    0  501    0  0.00000000000E+00  0.00000000000E+00  0.21937482876E+04  0.21937482876E+04  0.25500000920E-02 0. -1.
       -2   -1    0    0    0  501  0.00000000000E+00  0.00000000000E+00 -0.66352510394E+03  0.66352510394E+03  0.25500000920E-02 0.  1.
    10030    2    1    2    0    0  0.00000000000E+00  0.00000000000E+00  0.15302231837E+04  0.28572733916E+04  0.24129708333E+04 0.  0.
        4    1    3    3  502    0  0.85221388840E+03 -0.14103586160E+03  0.17624885760E+04  0.19627855765E+04  0.12699999809E+01 0. -1.
       -4    1    3    3    0  502 -0.85221388840E+03  0.14103586160E+03 -0.23226539237E+03  0.89448781503E+03  0.12699999809E+01 0.  1.
</event>
<event>
 5   0  0.9750757E-05  0.2360173E+04  0.7818609E-02  0.8454567E-01
       -2   -1    0    0    0  501  0.00000000000E+00  0.00000000000E+00  0.11384489284E+04  0.11384489284E+04  0.25500000920E-02 0.  1.
        2   -1    0    0  501    0  0.00000000000E+00  0.00000000000E+00 -0.12232465796E+04  0.12232465796E+04  0.25500000920E-02 0. -1.
    10030    2    1    2    0    0  0.00000000000E+00  0.00000000000E+00 -0.84797651161E+02  0.23616955080E+04  0.23601726697E+04 0.  0.
        2    1    3    3  502    0 -0.10250187900E+03 -0.11756261456E+04 -0.41861493946E+02  0.11808284609E+04  0.25500000920E-02 0. -1.
       -2    1    3    3    0  502  0.10250187900E+03  0.11756261456E+04 -0.42936157215E+02  0.11808670471E+04  0.25500000920E-02 0.  1.
</event>
<event>
 5   0  0.9491680E-05  0.2039970E+04  0.7818609E-02  0.8588158E-01
       -2   -1    0    0    0  501  0.00000000000E+00  0.00000000000E+00  0.84683312636E+03  0.84683312636E+03  0.25500000920E-02 0. -1.
        2   -1    0    0  501    0  0.00000000000E+00  0.00000000000E+00 -0.12285413773E+04  0.12285413773E+04  0.25500000920E-02 0.  1.
    10030    2    1    2    0    0  0.00000000000E+00  0.00000000000E+00 -0.38170825097E+03  0.20753745037E+04  0.20399701326E+04 0.  0.
        5    1    3    3  502    0  0.79794079987E+03  0.35948191054E+03 -0.72378781385E+03  0.11357057953E+04  0.46999998093E+01 0.  1.
       -5    1    3    3    0  502 -0.79794079987E+03 -0.35948191054E+03  0.34207956289E+03  0.93966870835E+03  0.46999998093E+01 0. -1.
</event>
<event>
 5   0  0.9491680E-05  0.2399399E+04  0.7818609E-02  0.8439729E-01
        2   -1    0    0  501    0  0.00000000000E+00  0.00000000000E+00  0.15637455260E+04  0.15637455260E+04  0.25500000920E-02 0.  1.
       -2   -1    0    0    0  501  0.00000000000E+00  0.00000000000E+00 -0.92040481993E+03  0.92040481993E+03  0.25500000920E-02 0. -1.
    10030    2    1    2    0    0  0.00000000000E+00  0.00000000000E+00  0.64334070604E+03  0.24841503459E+04  0.23993990241E+04 0.  0.
        5    1    3    3  502    0 -0.74566285384E+03 -0.93187247759E+03  0.19547390088E+03  0.12093930469E+04  0.46999998093E+01 0.  1.
       -5    1    3    3    0  502  0.74566285384E+03  0.93187247759E+03  0.44786680516E+03  0.12747572990E+04  0.46999998093E+01 0. -1.
</event>
<event>
 5   0  0.3934906E-05  0.2364832E+04  0.7818609E-02  0.8452788E-01
       -1   -1    0    0    0  501  0.00000000000E+00  0.00000000000E+00  0.16923442045E+04  0.16923442045E+04  0.50400001928E-02 0.  1.
        1   -1    0    0  501    0  0.00000000000E+00  0.00000000000E+00 -0.82613695274E+03  0.82613695275E+03  0.50400001928E-02 0. -1.
    10030    2    1    2    0    0  0.00000000000E+00  0.00000000000E+00  0.86620725178E+03  0.25184811573E+04  0.23648324119E+04 0.  0.
        2    1    3    3  502    0  0.29315587511E+03  0.10997853561E+04  0.91913526471E+02  0.11418915417E+04  0.25500000920E-02 0. -1.
       -2    1    3    3    0  502 -0.29315587511E+03 -0.10997853561E+04  0.77429372530E+03  0.13765896156E+04  0.25500000920E-02 0.  1.
</event>
<event>
 5   0  0.3934906E-05  0.1838277E+04  0.7818609E-02  0.8686205E-01
       -1   -1    0    0    0  501  0.00000000000E+00  0.00000000000E+00  0.18419090522E+04  0.18419090522E+04  0.50400001928E-02 0. -1.
        1   -1    0    0  501    0  0.00000000000E+00  0.00000000000E+00 -0.45866283322E+03  0.45866283325E+03  0.50400001928E-02 0.  1.
    10030    2    1    2    0    0  0.00000000000E+00  0.00000000000E+00  0.13832462189E+04  0.23005718854E+04  0.18382766108E+04 0.  0.
        2    1    3    3  502    0  0.55706324034E+03 -0.56164000154E+03  0.10588591856E+03  0.79810448741E+03  0.25500000920E-02 0.  1.
       -2    1    3    3    0  502 -0.55706324034E+03  0.56164000154E+03  0.12773603004E+04  0.15024673980E+04  0.25500000920E-02 0. -1.
</event>
<event>
 5   0  0.3934906E-05  0.1679145E+04  0.7818609E-02  0.8773349E-01
        1   -1    0    0  501    0  0.00000000000E+00  0.00000000000E+00  0.11260906011E+04  0.11260906011E+04  0.50400001928E-02 0.  1.
       -1   -1    0    0    0  501  0.00000000000E+00  0.00000000000E+00 -0.62595471483E+03  0.62595471485E+03  0.50400001928E-02 0. -1.
    10030    2    1    2    0    0  0.00000000000E+00  0.00000000000E+00  0.50013588627E+03  0.17520453160E+04  0.16791446884E+04 0.  0.
        2    1    3    3  502    0 -0.52336903002E+03 -0.49941298417E+03 -0.19452158551E+03  0.74911088470E+03  0.25500000920E-02 0. -1.
       -2    1    3    3    0  502  0.52336903002E+03  0.49941298417E+03  0.69465747179E+03  0.10029344313E+04  0.25500000920E-02 0.  1.
</event>
<event>
 5   0  0.4018942E-05  0.2403676E+04  0.7818609E-02  0.8438129E-01
       -1   -1    0    0    0  501  0.00000000000E+00  0.00000000000E+00  0.27451846656E+04  0.27451846656E+04  0.50400001928E-02 0. -1.
        1   -1    0    0  501    0  0.00000000000E+00  0.00000000000E+00 -0.52616277657E+03  0.52616277659E+03  0.50400001928E-02 0.  1.
    10030    2    1    2    0    0  0.00000000000E+00  0.00000000000E+00  0.22190218891E+04  0.32713474422E+04  0.24036755071E+04 0.  0.
        5    1    3    3  502    0  0.22228647245E+03  0.64240540535E+03 -0.23936497901E+03  0.72070358944E+03  0.46999998093E+01 0.  1.
       -5    1    3    3    0  502 -0.22228647245E+03 -0.64240540535E+03  0.24583868681E+04  0.25506438528E+04  0.46999998093E+01 0. -1.
</event>
<event>
 5   0  0.9182865E-05  0.2170062E+04  0.7818609E-02  0.8530993E-01
        2   -1    0    0  501    0  0.00000000000E+00  0.00000000000E+00  0.12973136404E+04  0.12973136404E+04  0.25500000920E-02 0. -1.
       -2   -1    0    0    0  501  0.00000000000E+00  0.00000000000E+00 -0.90748448370E+03  0.90748448370E+03  0.25500000920E-02 0.  1.
    10030    2    1    2    0    0  0.00000000000E+00  0.00000000000E+00  0.38982915667E+03  0.22047981241E+04  0.21700617495E+04 0.  0.
        3    1    3    3  502    0  0.38840629005E+02  0.61656930785E+03 -0.71134192414E+03  0.94216434293E+03  0.10100000352E+00 0.  1.
       -3    1    3    3    0  502 -0.38840629005E+02 -0.61656930785E+03  0.11011710808E+04  0.12626337811E+04  0.10100000352E+00 0. -1.
</event>
<event>
 5   0  0.4061631E-05  0.2354076E+04  0.7818609E-02  0.8456900E-01
        1   -1    0    0  501    0  0.00000000000E+00  0.00000000000E+00  0.81520717079E+03  0.81520717081E+03  0.50400001928E-02 0. -1.
       -1   -1    0    0    0  501  0.00000000000E+00  0.00000000000E+00 -0.16994674220E+04  0.16994674221E+04  0.50400001928E-02 0.  1.
    10030    2    1    2    0    0  0.00000000000E+00  0.00000000000E+00 -0.88426025125E+03  0.25146745929E+04  0.23540756394E+04 0.  0.
        3    1    3    3  502    0 -0.34177193968E+03 -0.68755235951E+03  0.51085395025E+03  0.92222994665E+03  0.10100000352E+00 0. -1.
       -3    1    3    3    0  502  0.34177193968E+03  0.68755235951E+03 -0.13951142015E+04  0.15924446462E+04  0.10100000352E+00 0.  1.
</event>
<event>
 5   0  0.3934906E-05  0.2346227E+04  0.7818609E-02  0.8459914E-01
        1   -1    0    0  501    0  0.00000000000E+00  0.00000000000E+00  0.20267536431E+04  0.20267536431E+04  0.50400001928E-02 0. -1.
       -1   -1    0    0    0  501  0.00000000000E+00  0.00000000000E+00 -0.67901433456E+03  0.67901433458E+03  0.50400001928E-02 0.  1.
    10030    2    1    2    0    0  0.00000000000E+00  0.00000000000E+00  0.13477393086E+04  0.27057679777E+04  0.23462265674E+04 0.  0.
        2    1    3    3  502    0 -0.16701697311E+03 -0.49240895722E+03  0.18866034509E+04  0.19569450251E+04  0.25500000920E-02 0. -1.
       -2    1    3    3    0  502  0.16701697311E+03  0.49240895722E+03 -0.53886414232E+03  0.74882295260E+03  0.25500000920E-02 0.  1.
</event>
<event>
 5   0  0.4018942E-05  0.2394359E+04  0.7818609E-02  0.8441618E-01
       -1   -1    0    0    0  501  0.00000000000E+00  0.00000000000E+00  0.14951904117E+04  0.14951904117E+04  0.50400001928E-02 0.  1.
        1   -1    0    0  501    0  0.00000000000E+00  0.00000000000E+00 -0.95856617431E+03  0.95856617432E+03  0.50400001928E-02 0. -1.
    10030    2    1    2    0    0  0.00000000000E+00  0.00000000000E+00  0.53662423737E+03  0.24537565860E+04  0.23943591650E+04 0.  0.
        5    1    3    3  502    0  0.69269046141E+03  0.93296033237E+03 -0.26899619320E+02  0.11623169691E+04  0.46999998093E+01 0.  1.
       -5    1    3    3    0  502 -0.69269046141E+03 -0.93296033237E+03  0.56352385669E+03  0.12914396169E+04  0.46999998093E+01 0. -1.
</event>
<event>
 5   0  0.9750757E-05  0.2275817E+04  0.7818609E-02  0.8487518E-01
        2   -1    0    0  501    0  0.00000000000E+00  0.00000000000E+00  0.11873379398E+04  0.11873379398E+04  0.25500000920E-02 0.  1.
       -2   -1    0    0    0  501  0.00000000000E+00  0.00000000000E+00 -0.10905367242E+04  0.10905367242E+04  0.25500000920E-02 0. -1.
    10030    2    1    2    0    0  0.00000000000E+00  0.00000000000E+00  0.96801215621E+02  0.22778746640E+04  0.22758168884E+04 0.  0.
        2    1    3    3  502    0 -0.61420681782E+03  0.26208996385E+03  0.97058837855E+03  0.11781268882E+04  0.25500000920E-02 0.  1.
       -2    1    3    3    0  502  0.61420681782E+03 -0.26208996385E+03 -0.87378716293E+03  0.10997477758E+04  0.25500000920E-02 0. -1.
</event>
<event>
 5   0  0.9519092E-05  0.2298026E+04  0.7818609E-02  0.8478700E-01
       -2   -1    0    0    0  501  0.00000000000E+00  0.00000000000E+00  0.97522528648E+03  0.97522528648E+03  0.25500000920E-02 0.  1.
        2   -1    0    0  501    0  0.00000000000E+00  0.00000000000E+00 -0.13537700284E+04  0.13537700284E+04  0.25500000920E-02 0. -1.
    10030    2    1    2    0    0  0.00000000000E+00  0.00000000000E+00 -0.37854474191E+03  0.23289953149E+04  0.22980259039E+04 0.  0.
        4    1    3    3  502    0 -0.57550400473E+03  0.98448745511E+03 -0.46632103502E+02  0.11413135304E+04  0.12699999809E+01 0.  1.
       -4    1    3    3    0  502  0.57550400473E+03 -0.98448745511E+03 -0.33191263841E+03  0.11876817845E+04  0.12699999809E+01 0. -1.
</event>
<event>
 5   0  0.4061631E-05  0.2319207E+04  0.7818609E-02  0.8470386E-01
       -1   -1    0    0    0  501  0.00000000000E+00  0.00000000000E+00  0.87171347346E+03  0.87171347347E+03  0.50400001928E-02 0. -1.
        1   -1    0    0  501    0  0.00000000000E+00  0.00000000000E+00 -0.15425713728E+04  0.15425713728E+04  0.50400001928E-02 0.  1.
    10030    2    1    2    0    0  0.00000000000E+00  0.00000000000E+00 -0.67085789932E+03  0.24142848463E+04  0.23192069761E+04 0.  0.
        3    1    3    3  502    0  0.25192096854E+02 -0.56868393768E+02  0.86997573886E+03  0.87219633820E+03  0.10100000352E+00 0. -1.
       -3    1    3    3    0  502 -0.25192096854E+02  0.56868393768E+02 -0.15408336382E+04  0.15420885081E+04  0.10100000352E+00 0.  1.
</event>
<event>
 5   0  0.9750757E-05  0.2406971E+04  0.7818609E-02  0.8436898E-01
       -2   -1    0    0    0  501  0.00000000000E+00  0.00000000000E+00  0.14021824322E+04  0.14021824322E+04  0.25500000920E-02 0.  1.
        2   -1    0    0  501    0  0.00000000000E+00  0.00000000000E+00 -0.10329451836E+04  0.10329451836E+04  0.25500000920E-02 0. -1.
    10030    2    1    2    0    0  0.00000000000E+00  0.00000000000E+00  0.36923724863E+03  0.24351276158E+04  0.24069712004E+04 0.  0.
        2    1    3    3  502    0 -0.10471259366E+04  0.20177883987E+03  0.74898841846E+03  0.13031389329E+04  0.25500000920E-02 0.  1.
       -2    1    3    3    0  502  0.10471259366E+04 -0.20177883987E+03 -0.37975116983E+03  0.11319886830E+04  0.25500000920E-02 0. -1.
</event>
<event>
 5   0  0.4018942E-05  0.2421817E+04  0.7818609E-02  0.8431381E-01
        1   -1    0    0  501    0  0.00000000000E+00  0.00000000000E+00  0.18739338286E+04  0.18739338286E+04  0.50400001928E-02 0. -1.
       -1   -1    0    0    0  501  0.00000000000E+00  0.00000000000E+00 -0.78247128184E+03  0.78247128186E+03  0.50400001928E-02 0.  1.
    10030    2    1    2    0    0  0.00000000000E+00  0.00000000000E+00  0.10914625467E+04  0.26564051104E+04  0.24218170079E+04 0.  0.
        5    1    3    3  502    0  0.23486633235E+03  0.74575595250E+03 -0.46847592387E+03  0.91148555447E+03  0.46999998093E+01 0.  1.
       -5    1    3    3    0  502 -0.23486633235E+03 -0.74575595250E+03  0.15599384706E+04  0.17449195560E+04  0.46999998093E+01 0. -1.
</event>
<event>
 5   0  0.4260395E-05  0.2423988E+04  0.7818609E-02  0.8430577E-01
        1   -1    0    0  501    0  0.00000000000E+00  0.00000000000E+00  0.80853132767E+03  0.80853132768E+03  0.50400001928E-02 0.  1.
       -1   -1    0    0    0  501  0.00000000000E+00  0.00000000000E+00 -0.18167870066E+04  0.18167870066E+04  0.50400001928E-02 0. -1.
    10030    2    1    2    0    0  0.00000000000E+00  0.00000000000E+00 -0.10082556789E+04  0.26253183343E+04  0.24239877975E+04 0.  0.
        4    1    3    3  502    0  0.19971431313E+03  0.15328352713E+03 -0.17881545749E+04  0.18057906975E+04  0.12699999809E+01 0. -1.
       -4    1    3    3    0  502 -0.19971431313E+03 -0.15328352713E+03  0.77989889599E+03  0.81952763676E+03  0.12699999809E+01 0.  1.
</event>
<event>
 5   0  0.3934906E-05  0.1291765E+04  0.7818609E-02  0.9036121E-01
       -1   -1    0    0    0  501  0.00000000000E+00  0.00000000000E+00  0.54356566155E+03  0.54356566158E+03  0.50400001928E-02 0. -1.
        1   -1    0    0  501    0  0.00000000000E+00  0.00000000000E+00 -0.76745902429E+03  0.76745902431E+03  0.50400001928E-02 0.  1.
    10030    2    1    2    0    0  0.00000000000E+00  0.00000000000E+00 -0.22389336274E+03  0.13110246859E+04  0.12917652608E+04 0.  0.
        2    1    3    3  502    0 -0.59547321192E+03 -0.16675076911E+03  0.77301148202E+02  0.62319309418E+03  0.25500000920E-02 0. -1.
       -2    1    3    3    0  502  0.59547321192E+03  0.16675076911E+03 -0.30119451094E+03  0.68783159170E+03  0.25500000920E-02 0.  1.
</event>
<event>
 5   0  0.4018942E-05  0.2094087E+04  0.7818609E-02  0.8563852E-01
        1   -1    0    0  501    0  0.00000000000E+00  0.00000000000E+00  0.62695058376E+03  0.62695058378E+03  0.50400001928E-02 0.  1.
       -1   -1    0    0    0  501  0.00000000000E+00  0.00000000000E+00 -0.17486235447E+04  0.17486235447E+04  0.50400001928E-02 0. -1.
    10030    2    1    2    0    0  0.00000000000E+00  0.00000000000E+00 -0.11216729610E+04  0.23755741285E+04  0.20940874406E+04 0.  0.
        5    1    3    3  502    0  0.28999499648E+03 -0.10038670812E+04 -0.48531234334E+03  0.11521268920E+04  0.46999998093E+01 0. -1.
       -5    1    3    3    0  502 -0.28999499648E+03  0.10038670812E+04 -0.63636061762E+03  0.12234472365E+04  0.46999998093E+01 0.  1.
</event>
<event>
 5   0  0.4208577E-05  0.2379640E+04  0.7818609E-02  0.8447166E-01
        1   -1    0    0  501    0  0.00000000000E+00  0.00000000000E+00  0.96570863978E+03  0.96570863979E+03  0.50400001928E-02 0. -1.
       -1   -1    0    0    0  501  0.00000000000E+00  0.00000000000E+00 -0.14659402685E+04  0.14659402685E+04  0.50400001928E-02 0.  1.
    10030    2    1    2    0    0  0.00000000000E+00  0.00000000000E+00 -0.50023162869E+03  0.24316489083E+04  0.23796396220E+04 0.  0.
        1    1    3    3  502    0 -0.33972508062E+03 -0.42177058306E+03  0.83245731761E+03  0.99312070807E+03  0.50400001928E-02 0. -1.
       -1    1    3    3    0  502  0.33972508062E+03  0.42177058306E+03 -0.13326889463E+04  0.14385282002E+04  0.50400001928E-02 0.  1.
</event>
<event>
 5   0  0.9182865E-05  0.2407908E+04  0.7818609E-02  0.8436549E-01
       -2   -1    0    0    0  501  0.00000000000E+00  0.00000000000E+00  0.81857861897E+03  0.81857861897E+03  0.25500000920E-02 0.  1.
        2   -1    0    0  501    0  0.00000000000E+00  0.00000000000E+00 -0.17707585237E+04  0.17707585237E+04  0.25500000920E-02 0. -1.
    10030    2    1    2    0    0  0.00000000000E+00  0.00000000000E+00 -0.95217990473E+03  0.25893371427E+04  0.24079078611E+04 0.  0.
        3    1    3    3  502    0  0.10921076523E+04  0.46723509243E+03 -0.68708092617E+03  0.13722565231E+04  0.10100000352E+00 0. -1.
       -3    1    3    3    0  502 -0.10921076523E+04 -0.46723509243E+03 -0.26509897856E+03  0.12170806196E+04  0.10100000352E+00 0.  1.
</event>
<event>
 5   0  0.9182865E-05  0.1920751E+04  0.7818609E-02  0.8644595E-01
       -2   -1    0    0    0  501  0.00000000000E+00  0.00000000000E+00  0.93339818261E+03  0.93339818261E+03  0.25500000920E-02 0.  1.
        2   -1    0    0  501    0  0.00000000000E+00  0.00000000000E+00 -0.98813291579E+03  0.98813291579E+03  0.25500000920E-02 0. -1.
    10030    2    1    2    0    0  0.00000000000E+00  0.00000000000E+00 -0.54734733182E+02  0.19215310984E+04  0.19207513819E+04 0.  0.
        3    1    3    3  502    0 -0.57520215756E+03  0.10607110126E+03 -0.78939362588E+03  0.98247183541E+03  0.10100000352E+00 0. -1.
       -3    1    3    3    0  502  0.57520215756E+03 -0.10607110126E+03  0.73465889270E+03  0.93905926300E+03  0.10100000352E+00 0.  1.
</event>
<event>
 5   0  0.4018942E-05  0.2449911E+04  0.7818609E-02  0.8421050E-01
        1   -1    0    0  501    0  0.00000000000E+00  0.00000000000E+00  0.20733382702E+04  0.20733382702E+04  0.50400001928E-02 0.  1.
       -1   -1    0    0    0  501  0.00000000000E+00  0.00000000000E+00 -0.72372000611E+03  0.72372000612E+03  0.50400001928E-02 0. -1.
    10030    2    1    2    0    0  0.00000000000E+00  0.00000000000E+00  0.13496182641E+04  0.27970582763E+04  0.24499113336E+04 0.  0.
        5    1    3    3  502    0  0.95097668300E+03  0.30019200306E+03 -0.13734044309E+03  0.10066560374E+04  0.46999998093E+01 0. -1.
       -5    1    3    3    0  502 -0.95097668300E+03 -0.30019200306E+03  0.14869587072E+04  0.17904022389E+04  0.46999998093E+01 0.  1.
</event>
<event>
 5   0  0.4061631E-05  0.2432977E+04  0.7818609E-02  0.8427259E-01
       -1   -1    0    0    0  501  0.00000000000E+00  0.00000000000E+00  0.14091739263E+04  0.14091739263E+04  0.50400001928E-02 0.  1.
        1   -1    0    0  501    0  0.00000000000E+00  0.00000000000E+00 -0.10501505942E+04  0.10501505943E+04  0.50400001928E-02 0. -1.
    10030    2    1    2    0    0  0.00000000000E+00  0.00000000000E+00  0.35902333204E+03  0.24593245205E+04  0.24329774648E+04 0.  0.
        3    1    3    3  502    0  0.26237785231E+03  0.92085555493E+03  0.93798907189E+03  0.13403882272E+04  0.10100000352E+00 0.  1.
       -3    1    3    3    0  502 -0.26237785231E+03 -0.92085555493E+03 -0.57896573985E+03  0.11189362933E+04  0.10100000352E+00 0. -1.
</event>
<event>
 5   0  0.4061631E-05  0.2079911E+04  0.7818609E-02  0.8570145E-01
        1   -1    0    0  501    0  0.00000000000E+00  0.00000000000E+00  0.15428476060E+04  0.15428476060E+04  0.50400001928E-02 0. -1.
       -1   -1    0    0    0  501  0.00000000000E+00  0.00000000000E+00 -0.70098149377E+03  0.70098149378E+03  0.50400001928E-02 0.  1.
    10030    2    1    2    0    0  0.00000000000E+00  0.00000000000E+00  0.84186611225E+03  0.22438290998E+04  0.20799111707E+04 0.  0.
        3    1    3    3  502    0 -0.36580750147E+03 -0.14196311179E+03  0.14599223393E+04  0.15117347321E+04  0.10100000352E+00 0. -1.
       -3    1    3    3    0  502  0.36580750147E+03  0.14196311179E+03 -0.61805622705E+03  0.73209436771E+03  0.10100000352E+00 0.  1.
</event>
<event>
 5   0  0.9750757E-05  0.2450808E+04  0.7818609E-02  0.8420723E-01
        2   -1    0    0  501    0  0.00000000000E+00  0.00000000000E+00  0.17185559975E+04  0.17185559975E+04  0.25500000920E-02 0. -1.
       -2   -1    0    0    0  501  0.00000000000E+00  0.00000000000E+00 -0.87376548810E+03  0.87376548810E+03  0.25500000920E-02 0.  1.
    10030    2    1    2    0    0  0.00000000000E+00  0.00000000000E+00  0.84479050937E+03  0.25923214856E+04  0.24508079647E+04 0.  0.
        2    1    3    3  502    0  0.37128536670E+02 -0.78016766312E+03 -0.57635860571E+03  0.97068499174E+03  0.25500000920E-02 0.  1.
       -2    1    3    3    0  502 -0.37128536670E+02  0.78016766312E+03  0.14211491151E+04  0.16216364938E+04  0.25500000920E-02 0. -1.
</event>
<event>
 5   0  0.9750757E-05  0.2343136E+04  0.7818609E-02  0.8461105E-01
        2   -1    0    0  501    0  0.00000000000E+00  0.00000000000E+00  0.13564746437E+04  0.13564746437E+04  0.25500000920E-02 0. -1.
       -2   -1    0    0    0  501  0.00000000000E+00  0.00000000000E+00 -0.10118669828E+04  0.10118669828E+04  0.25500000920E-02 0.  1.
    10030    2    1    2    0    0  0.00000000000E+00  0.00000000000E+00  0.34460766089E+03  0.23683416264E+04  0.23431362785E+04 0.  0.
        2    1    3    3  502    0  0.12798342254E+03  0.33156528976E+03 -0.95606358677E+03  0.10199867057E+04  0.25500000920E-02 0.  1.
       -2    1    3    3    0  502 -0.12798342254E+03 -0.33156528976E+03  0.13006712477E+04  0.13483549208E+04  0.25500000920E-02 0. -1.
</event>
<event>
 5   0  0.4260395E-05  0.2433421E+04  0.7818609E-02  0.8427096E-01
       -1   -1    0    0    0  501  0.00000000000E+00  0.00000000000E+00  0.10314942887E+04  0.10314942887E+04  0.50400001928E-02 0. -1.
        1   -1    0    0  501    0  0.00000000000E+00  0.00000000000E+00 -0.14351841875E+04  0.14351841875E+04  0.50400001928E-02 0.  1.
    10030    2    1    2    0    0  0.00000000000E+00  0.00000000000E+00 -0.40368989875E+03  0.24666784762E+04  0.24334208783E+04 0.  0.
        4    1    3    3  502    0  0.74097880214E+03 -0.65520834242E+03 -0.92007300422E+03  0.13508824905E+04  0.12699999809E+01 0.  1.
       -4    1    3    3    0  502 -0.74097880214E+03  0.65520834242E+03  0.51638310547E+03  0.11157959857E+04  0.12699999809E+01 0. -1.
</event>
<event>
 5   0  0.9144244E-05  0.2362520E+04  0.7818609E-02  0.8453670E-01
        2   -1    0    0  501    0  0.00000000000E+00  0.00000000000E+00  0.10831050516E+04  0.10831050516E+04  0.25500000920E-02 0.  1.
       -2   -1    0    0    0  501  0.00000000000E+00  0.00000000000E+00 -0.12883096440E+04  0.12883096440E+04  0.25500000920E-02 0. -1.
    10030    2    1    2    0    0  0.00000000000E+00  0.00000000000E+00 -0.20520459240E+03  0.23714146956E+04  0.23625195732E+04 0.  0.
        1    1    3    3  502    0 -0.13177539281E+03 -0.10998912499E+04 -0.51432854339E+03  0.12213350754E+04  0.50400001928E-02 0. -1.
       -1    1    3    3    0  502  0.13177539281E+03  0.10998912499E+04  0.30912395100E+03  0.11500796202E+04  0.50400001928E-02 0.  1.
</event>
<event>
 5   0  0.9491680E-05  0.2218939E+04  0.7818609E-02  0.8510586E-01
       -2   -1    0    0    0  501  0.00000000000E+00  0.00000000000E+00  0.59254444437E+03  0.59254444438E+03  0.25500000920E-02 0.  1.
        2   -1    0    0  501    0  0.00000000000E+00  0.00000000000E+00 -0.20773504891E+04  0.20773504891E+04  0.25500000920E-02 0. -1.
    10030    2    1    2    0    0  0.00000000000E+00  0.00000000000E+00 -0.14848060447E+04  0.26698949335E+04  0.22189389278E+04 0.  0.
        5    1    3    3  502    0 -0.62975457076E+03  0.89498512743E+03 -0.52279713206E+03  0.12128182589E+04  0.46999998093E+01 0.  1.
       -5    1    3    3    0  502  0.62975457076E+03 -0.89498512743E+03 -0.96200891268E+03  0.14570766746E+04  0.46999998093E+01 0. -1.
</event>
<event>
 5   0  0.9491680E-05  0.2262910E+04  0.7818609E-02  0.8492690E-01
       -2   -1    0    0    0  501  0.00000000000E+00  0.00000000000E+00  0.22267466557E+04  0.22267466557E+04  0.25500000920E-02 0. -1.
        2   -1    0    0  501    0  0.00000000000E+00  0.00000000000E+00 -0.57491520253E+03  0.57491520254E+03  0.25500000920E-02 0.  1.
    10030    2    1    2    0    0  0.00000000000E+00  0.00000000000E+00  0.16518314532E+04  0.28016618583E+04  0.22629100774E+04 0.  0.
        5    1    3    3  502    0 -0.28264534526E+03 -0.55249461674E+03  0.19972130476E+04  0.20914159653E+04  0.46999998093E+01 0. -1.
       -5    1    3    3    0  502  0.28264534526E+03  0.55249461674E+03 -0.34538159435E+03  0.71024589295E+03  0.46999998093E+01 0.  1.
</event>
<event>
 5   0  0.9750757E-05  0.2352780E+04  0.7818609E-02  0.8457396E-01
        2   -1    0    0  501    0  0.00000000000E+00  0.00000000000E+00  0.96008998467E+03  0.96008998467E+03  0.25500000920E-02 0.  1.
       -2   -1    0    0    0  501  0.00000000000E+00  0.00000000000E+00 -0.14414209673E+04  0.14414209673E+04  0.25500000920E-02 0. -1.
    10030    2    1    2    0    0  0.00000000000E+00  0.00000000000E+00 -0.48133098266E+03  0.24015109520E+04  0.23527803420E+04 0.  0.
        2    1    3    3  502    0 -0.65854785271E+03  0.22618659099E+03  0.72715468853E+03  0.10067768319E+04  0.25500000920E-02 0.  1.
       -2    1    3    3    0  502  0.65854785271E+03 -0.22618659099E+03 -0.12084856712E+04  0.13947341201E+04  0.25500000920E-02 0. -1.
</event>
<event>
 5   0  0.4018942E-05  0.2360475E+04  0.7818609E-02  0.8454451E-01
       -1   -1    0    0    0  501  0.00000000000E+00  0.00000000000E+00  0.93454577074E+03  0.93454577075E+03  0.50400001928E-02 0. -1.
        1   -1    0    0  501    0  0.00000000000E+00  0.00000000000E+00 -0.14905218547E+04  0.14905218547E+04  0.50400001928E-02 0.  1.
    10030    2    1    2    0    0  0.00000000000E+00  0.00000000000E+00 -0.55597608394E+03  0.24250676254E+04  0.23604752873E+04 0.  0.
        5    1    3    3  502    0  0.11190945663E+04 -0.28989986335E+03 -0.52224205615E+03  0.12685319997E+04  0.46999998093E+01 0. -1.
       -5    1    3    3    0  502 -0.11190945663E+04  0.28989986335E+03 -0.33734027794E+02  0.11565356258E+04  0.46999998093E+01 0.  1.
</event>
<event>
 5   0  0.9182865E-05  0.2365372E+04  0.7818609E-02  0.8452583E-01
        2   -1    0    0  501    0  0.00000000000E+00  0.00000000000E+00  0.16614728834E+04  0.16614728834E+04  0.25500000920E-02 0.  1.
       -2   -1    0    0    0  501  0.00000000000E+00  0.00000000000E+00 -0.84187154323E+03  0.84187154324E+03  0.25500000920E-02 0. -1.
    10030    2    1    2    0    0  0.00000000000E+00  0.00000000000E+00  0.81960134021E+03  0.25033444267E+04  0.23653724784E+04 0.  0.
        3    1    3    3  502    0 -0.27257713783E+03  0.77078162684E+03 -0.49464989688E+03  0.95555279447E+03  0.10100000352E+00 0. -1.
       -3    1    3    3    0  502  0.27257713783E+03 -0.77078162684E+03  0.13142512371E+04  0.15477916322E+04  0.10100000352E+00 0.  1.
</event>
<event>
 5   0  0.4061631E-05  0.2376704E+04  0.7818609E-02  0.8448277E-01
        1   -1    0    0  501    0  0.00000000000E+00  0.00000000000E+00  0.10965947495E+04  0.10965947496E+04  0.50400001928E-02 0.  1.
       -1   -1    0    0    0  501  0.00000000000E+00  0.00000000000E+00 -0.12877868105E+04  0.12877868105E+04  0.50400001928E-02 0. -1.
    10030    2    1    2    0    0  0.00000000000E+00  0.00000000000E+00 -0.19119206091E+03  0.23843815600E+04  0.23767038140E+04 0.  0.
        3    1    3    3  502    0 -0.59974211281E+03 -0.84354058421E+03  0.49018137527E+03  0.11452201142E+04  0.10100000352E+00 0.  1.
       -3    1    3    3    0  502  0.59974211281E+03  0.84354058421E+03 -0.68137343619E+03  0.12391614458E+04  0.10100000352E+00 0. -1.
</event>
<event>
 5   0  0.9519092E-05  0.2237340E+04  0.7818609E-02  0.8503045E-01
        2   -1    0    0  501    0  0.00000000000E+00  0.00000000000E+00  0.18797323003E+04  0.18797323003E+04  0.25500000920E-02 0. -1.
       -2   -1    0    0    0  501  0.00000000000E+00  0.00000000000E+00 -0.66574499424E+03  0.66574499424E+03  0.25500000920E-02 0.  1.
    10030    2    1    2    0    0  0.00000000000E+00  0.00000000000E+00  0.12139873061E+04  0.25454772946E+04  0.22373398217E+04 0.  0.
        4    1    3    3  502    0  0.14684138730E+03  0.17499143907E+02  0.18685619032E+04  0.18744049221E+04  0.12699999809E+01 0. -1.
       -4    1    3    3    0  502 -0.14684138730E+03 -0.17499143907E+02 -0.65457459708E+03  0.67107237248E+03  0.12699999809E+01 0.  1.
</event>
<event>
 5   0  0.3934906E-05  0.2419435E+04  0.7818609E-02  0.8432263E-01
       -1   -1    0    0    0  501  0.00000000000E+00  0.00000000000E+00  0.14603175635E+04  0.14603175635E+04  0.50400001928E-02 0. -1.
        1   -1    0    0  501    0  0.00000000000E+00  0.00000000000E+00 -0.10021220461E+04  0.10021220461E+04  0.50400001928E-02 0.  1.
    10030    2    1    2    0    0  0.00000000000E+00  0.00000000000E+00  0.45819551737E+03  0.24624396096E+04  0.24194349958E+04 0.  0.
        2    1    3    3  502    0  0.10491725381E+04  0.37798313673E+03 -0.24804446166E+03  0.11424361345E+04  0.25500000920E-02 0.  1.
       -2    1    3    3    0  502 -0.10491725381E+04 -0.37798313673E+03  0.70623997903E+03  0.13200034751E+04  0.25500000920E-02 0. -1.
</event>
<event>
 5   0  0.4208577E-05  0.1260731E+04  0.7818609E-02  0.9061299E-01
        1   -1    0    0  501    0  0.00000000000E+00  0.00000000000E+00  0.22220348551E+04  0.22220348551E+04  0.50400001928E-02 0. -1.
       -1   -1    0    0    0  501  0.00000000000E+00  0.00000000000E+00 -0.17882743761E+03  0.17882743768E+03  0.50400001928E-02 0.  1.
    10030    2    1    2    0    0  0.00000000000E+00  0.00000000000E+00  0.20432074175E+04  0.24008622928E+04  0.12607312156E+04 0.  0.
        1    1    3    3  502    0 -0.36070026853E+03 -0.16942272539E+03  0.19517180197E+04  0.19919869407E+04  0.50400001928E-02 0. -1.
       -1    1    3    3    0  502  0.36070026853E+03  0.16942272539E+03  0.91489397803E+02  0.40887535208E+03  0.50400001928E-02 0.  1.
</event>
<event>
 5   0  0.9491680E-05  0.1499383E+04  0.7818609E-02  0.8884863E-01
        2   -1    0    0  501    0  0.00000000000E+00  0.00000000000E+00  0.63264033861E+03  0.63264033862E+03  0.25500000920E-02 0.  1.
       -2   -1    0    0    0  501  0.00000000000E+00  0.00000000000E+00 -0.88839976587E+03  0.88839976587E+03  0.25500000920E-02 0. -1.
    10030    2    1    2    0    0  0.00000000000E+00  0.00000000000E+00 -0.25575942726E+03  0.15210401045E+04  0.14993832448E+04 0.  0.
        5    1    3    3  502    0  0.67845666611E+02 -0.57103122167E+02  0.62728610158E+03  0.63354064138E+03  0.46999998093E+01 0.  1.
       -5    1    3    3    0  502 -0.67845666611E+02  0.57103122167E+02 -0.88304552884E+03  0.88749946312E+03  0.46999998093E+01 0. -1.
</event>
<event>
 5   0  0.4018942E-05  0.2478850E+04  0.7818609E-02  0.8410559E-01
       -1   -1    0    0    0  501  0.00000000000E+00  0.00000000000E+00  0.15882221265E+04  0.15882221265E+04  0.50400001928E-02 0. -1.
        1   -1    0    0  501    0  0.00000000000E+00  0.00000000000E+00 -0.96722895059E+03  0.96722895060E+03  0.50400001928E-02 0.  1.
    10030    2    1    2    0    0  0.00000000000E+00  0.00000000000E+00  0.62099317587E+03  0.25554510771E+04  0.24788500727E+04 0.  0.
        5    1    3    3  502    0  0.34122549702E+03 -0.55103905361E+03  0.13995864105E+04  0.15423822771E+04  0.46999998093E+01 0. -1.
       -5    1    3    3    0  502 -0.34122549702E+03  0.55103905361E+03 -0.77859323461E+03  0.10130687999E+04  0.46999998093E+01 0.  1.
</event>
<event>
 5   0  0.9182865E-05  0.2227362E+04  0.7818609E-02  0.8507125E-01
       -2   -1    0    0    0  501  0.00000000000E+00  0.00000000000E+00  0.84388108417E+03  0.84388108418E+03  0.25500000920E-02 0. -1.
        2   -1    0    0  501    0  0.00000000000E+00  0.00000000000E+00 -0.14697389754E+04  0.14697389754E+04  0.25500000920E-02 0.  1.
    10030    2    1    2    0    0  0.00000000000E+00  0.00000000000E+00 -0.62585789118E+03  0.23136200595E+04  0.22273615961E+04 0.  0.
        3    1    3    3  502    0  0.40363288867E+03 -0.32321559132E+03 -0.13374827357E+04  0.14339623097E+04  0.10100000352E+00 0.  1.
       -3    1    3    3    0  502 -0.40363288867E+03  0.32321559132E+03  0.71162484450E+03  0.87965774981E+03  0.10100000352E+00 0. -1.
</event>
<event>
 5   0  0.9144244E-05  0.2296654E+04  0.7818609E-02  0.8479241E-01
        2   -1    0    0  501    0  0.00000000000E+00  0.00000000000E+00  0.25506084152E+04  0.25506084152E+04  0.25500000920E-02 0. -1.
       -2   -1    0    0    0  501  0.00000000000E+00  0.00000000000E+00 -0.51699631465E+03  0.51699631466E+03  0.25500000920E-02 0.  1.
    10030    2    1    2    0    0  0.00000000000E+00  0.00000000000E+00  0.20336121005E+04  0.30676047298E+04  0.22966542193E+04 0.  0.
        1    1    3    3  502    0 -0.50524475880E+03  0.34930863776E+03  0.23127407619E+04  0.23929184321E+04  0.50400001928E-02 0. -1.
       -1    1    3    3    0  502  0.50524475880E+03 -0.34930863776E+03 -0.27912866142E+03  0.67468629774E+03  0.50400001928E-02 0.  1.
</event>
<event>
 5   0  0.3934906E-05  0.2389092E+04  0.7818609E-02  0.8443599E-01
        1   -1    0    0  501    0  0.00000000000E+00  0.00000000000E+00  0.83238131857E+03  0.83238131858E+03  0.50400001928E-02 0.  1.
       -1   -1    0    0    0  501  0.00000000000E+00  0.00000000000E+00 -0.17142866443E+04  0.17142866443E+04  0.50400001928E-02 0. -1.
    10030    2    1    2    0    0  0.00000000000E+00  0.00000000000E+00 -0.88190532575E+03  0.25466679629E+04  0.23890920262E+04 0.  0.
        2    1    3    3  502    0  0.94380061300E+02 -0.45279114787E+03 -0.16149635664E+04  0.16798912882E+04  0.25500000920E-02 0. -1.
       -2    1    3    3    0  502 -0.94380061300E+02  0.45279114787E+03  0.73305824063E+03  0.86677667466E+03  0.25500000920E-02 0.  1.
</event>
<event>
 5   0  0.3934906E-05  0.2216205E+04  0.7818609E-02  0.8511713E-01
        1   -1    0    0  501    0  0.00000000000E+00  0.00000000000E+00  0.12198136726E+04  0.12198136726E+04  0.50400001928E-02 0. -1.
       -1   -1    0    0    0  501  0.00000000000E+00  0.00000000000E+00 -0.10066222274E+04  0.10066222274E+04  0.50400001928E-02 0.  1.
    10030    2    1    2    0    0  0.00000000000E+00  0.00000000000E+00  0.21319144520E+03  0.22264359000E+04  0.22162053661E+04 0.  0.
        2    1    3    3  502    0  0.85307222110E+03 -0.18777628238E+03 -0.57838711663E+03  0.10476277026E+04  0.25500000920E-02 0.  1.
       -2    1    3    3    0  502 -0.85307222110E+03  0.18777628238E+03  0.79157856183E+03  0.11788081974E+04  0.25500000920E-02 0. -1.
</event>
<event>
 5   0  0.9182865E-05  0.2355101E+04  0.7818609E-02  0.8456507E-01
        2   -1    0    0  501    0  0.00000000000E+00  0.00000000000E+00  0.14014531723E+04  0.14014531723E+04  0.25500000920E-02 0. -1.
       -2   -1    0    0    0  501  0.00000000000E+00  0.00000000000E+00 -0.98941960355E+03  0.98941960355E+03  0.25500000920E-02 0.  1.
    10030    2    1    2    0    0  0.00000000000E+00  0.00000000000E+00  0.41203356875E+03  0.23908727758E+04  0.23551010527E+04 0.  0.
        3    1    3    3  502    0 -0.65392098777E+03 -0.54285976838E+03  0.10334524297E+04  0.13380333782E+04  0.10100000352E+00 0. -1.
       -3    1    3    3    0  502  0.65392098777E+03  0.54285976838E+03 -0.62141886096E+03  0.10528393977E+04  0.10100000352E+00 0.  1.
</event>
<event>
 5   0  0.9491680E-05  0.2242751E+04  0.7818609E-02  0.8500842E-01
        2   -1    0    0  501    0  0.00000000000E+00  0.00000000000E+00  0.17558044288E+04  0.17558044288E+04  0.25500000920E-02 0. -1.
       -2   -1    0    0    0  501  0.00000000000E+00  0.00000000000E+00 -0.71618616487E+03  0.71618616488E+03  0.25500000920E-02 0.  1.
    10030    2    1    2    0    0  0.00000000000E+00  0.00000000000E+00  0.10396182639E+04  0.24719905937E+04  0.22427508467E+04 0.  0.
        5    1    3    3  502    0  0.91956255282E+03  0.56675552452E+03  0.18794646359E+03  0.10964274150E+04  0.46999998093E+01 0. -1.
       -5    1    3    3    0  502 -0.91956255282E+03 -0.56675552452E+03  0.85167180032E+03  0.13755631787E+04  0.46999998093E+01 0.  1.
</event>
<event>
 5   0  0.4260395E-05  0.2406223E+04  0.7818609E-02  0.8437177E-01
        1   -1    0    0  501    0  0.00000000000E+00  0.00000000000E+00  0.19483015387E+04  0.19483015387E+04  0.50400001928E-02 0.  1.
       -1   -1    0    0    0  501  0.00000000000E+00  0.00000000000E+00 -0.74294338249E+03  0.74294338251E+03  0.50400001928E-02 0. -1.
    10030    2    1    2    0    0  0.00000000000E+00  0.00000000000E+00  0.12053581562E+04  0.26912449213E+04  0.24062233773E+04 0.  0.
        4    1    3    3  502    0  0.47264769584E+03  0.55309077999E+03  0.16743934035E+04  0.18256232190E+04  0.12699999809E+01 0.  1.
       -4    1    3    3    0  502 -0.47264769584E+03 -0.55309077999E+03 -0.46903524725E+03  0.86562170222E+03  0.12699999809E+01 0. -1.
</event>
<event>
 5   0  0.4260395E-05  0.2398288E+04  0.7818609E-02  0.8440145E-01
        1   -1    0    0  501    0  0.00000000000E+00  0.00000000000E+00  0.63927567711E+03  0.63927567713E+03  0.50400001928E-02 0.  1.
       -1   -1    0    0    0  501  0.00000000000E+00  0.00000000000E+00 -0.22493364788E+04  0.22493364788E+04  0.50400001928E-02 0. -1.
    10030    2    1    2    0    0  0.00000000000E+00  0.00000000000E+00 -0.16100608017E+04  0.28886121560E+04  0.23982878064E+04 0.  0.
        4    1    3    3  502    0  0.85691542942E+03 -0.33075014879E+02 -0.18145748973E+04  0.20070081417E+04  0.12699999809E+01 0. -1.
       -4    1    3    3    0  502 -0.85691542942E+03  0.33075014879E+02  0.20451409563E+03  0.88160401429E+03  0.12699999809E+01 0.  1.
</event>
<event>
 5   0  0.4208577E-05  0.2154042E+04  0.7818609E-02  0.8537804E-01
        1   -1    0    0  501    0  0.00000000000E+00  0.00000000000E+00  0.15345741293E+04  0.15345741293E+04  0.50400001928E-02 0.  1.
       -1   -1    0    0    0  501  0.00000000000E+00  0.00000000000E+00 -0.75589302279E+03  0.75589302280E+03  0.50400001928E-02 0. -1.
    10030    2    1    2    0    0  0.00000000000E+00  0.00000000000E+00  0.77868110647E+03  0.22904671521E+04  0.21540416684E+04 0.  0.
        1    1    3    3  502    0 -0.76346029124E+03 -0.73803707699E+03  0.19792987760E+03  0.10801604417E+04  0.50400001928E-02 0. -1.
       -1    1    3    3    0  502  0.76346029124E+03  0.73803707699E+03  0.58075122887E+03  0.12103067104E+04  0.50400001928E-02 0.  1.
</event>
<event>
 5   0  0.4208577E-05  0.2413735E+04  0.7818609E-02  0.8434379E-01
        1   -1    0    0  501    0  0.00000000000E+00  0.00000000000E+00  0.16404898424E+04  0.16404898424E+04  0.50400001928E-02 0.  1.
       -1   -1    0    0    0  501  0.00000000000E+00  0.00000000000E+00 -0.88786261884E+03  0.88786261886E+03  0.50400001928E-02 0. -1.
    10030    2    1    2    0    0  0.00000000000E+00  0.00000000000E+00  0.75262722352E+03  0.25283524612E+04  0.24137353688E+04 0.  0.
        1    1    3    3  502    0  0.92374003237E+03  0.58949293177E+03  0.90602649590E+03  0.14218584934E+04  0.50400001928E-02 0.  1.
       -1    1    3    3    0  502 -0.92374003237E+03 -0.58949293177E+03 -0.15339927238E+03  0.11064939678E+04  0.50400001928E-02 0. -1.
</event>
<event>
 5   0  0.3934906E-05  0.2420014E+04  0.7818609E-02  0.8432049E-01
        1   -1    0    0  501    0  0.00000000000E+00  0.00000000000E+00  0.30305072240E+04  0.30305072240E+04  0.50400001928E-02 0.  1.
       -1   -1    0    0    0  501  0.00000000000E+00  0.00000000000E+00 -0.48312585735E+03  0.48312585738E+03  0.50400001928E-02 0. -1.
    10030    2    1    2    0    0  0.00000000000E+00  0.00000000000E+00  0.25473813666E+04  0.35136330814E+04  0.24200135544E+04 0.  0.
        2    1    3    3  502    0  0.92296767927E+03  0.91512065893E+02  0.14542527505E+03  0.93882496015E+03  0.25500000920E-02 0. -1.
       -2    1    3    3    0  502 -0.92296767927E+03 -0.91512065893E+02  0.24019560916E+04  0.25748081212E+04  0.25500000920E-02 0.  1.
</event>
<event>
 5   0  0.4018942E-05  0.2380049E+04  0.7818609E-02  0.8447011E-01
        1   -1    0    0  501    0  0.00000000000E+00  0.00000000000E+00  0.10145466256E+04  0.10145466256E+04  0.50400001928E-02 0. -1.
       -1   -1    0    0    0  501  0.00000000000E+00  0.00000000000E+00 -0.13958535168E+04  0.13958535168E+04  0.50400001928E-02 0.  1.
    10030    2    1    2    0    0  0.00000000000E+00  0.00000000000E+00 -0.38130689122E+03  0.24104001425E+04  0.23800491385E+04 0.  0.
        5    1    3    3  502    0  0.50303559301E+03 -0.72556626553E+03 -0.99872895691E+03  0.13330314448E+04  0.46999998093E+01 0.  1.
       -5    1    3    3    0  502 -0.50303559301E+03  0.72556626553E+03  0.61742206569E+03  0.10773686977E+04  0.46999998093E+01 0. -1.
</event>
<event>
 5   0  0.3934906E-05  0.2386806E+04  0.7818609E-02  0.8444460E-01
        1   -1    0    0  501    0  0.00000000000E+00  0.00000000000E+00  0.24740978166E+04  0.24740978166E+04  0.50400001928E-02 0. -1.
       -1   -1    0    0    0  501  0.00000000000E+00  0.00000000000E+00 -0.57564846360E+03  0.57564846362E+03  0.50400001928E-02 0.  1.
    10030    2    1    2    0    0  0.00000000000E+00  0.00000000000E+00  0.18984493530E+04  0.30497462802E+04  0.23868059049E+04 0.  0.
        2    1    3    3  502    0 -0.48820186207E+03  0.70616075764E+03 -0.11000525988E+03  0.86550865448E+03  0.25500000920E-02 0.  1.
       -2    1    3    3    0  502  0.48820186207E+03 -0.70616075764E+03  0.20084546129E+04  0.21842376258E+04  0.25500000920E-02 0. -1.
</event>
<event>
 5   0  0.9144244E-05  0.2372358E+04  0.7818609E-02  0.8449925E-01
       -2   -1    0    0    0  501  0.00000000000E+00  0.00000000000E+00  0.10878023435E+04  0.10878023435E+04  0.25500000920E-02 0. -1.
        2   -1    0    0  501    0  0.00000000000E+00  0.00000000000E+00 -0.12934528367E+04  0.12934528367E+04  0.25500000920E-02 0.  1.
    10030    2    1    2    0    0  0.00000000000E+00  0.00000000000E+00 -0.20565049325E+03  0.23812551802E+04  0.23723583430E+04 0.  0.
        1    1    3    3  502    0 -0.89268691712E+03  0.49342437968E+03 -0.71062353699E+03  0.12431184022E+04  0.50400001928E-02 0.  1.
       -1    1    3    3    0  502  0.89268691712E+03 -0.49342437968E+03  0.50497304374E+03  0.11381367780E+04  0.50400001928E-02 0. -1.
</event>
<event>
 5   0  0.9144244E-05  0.2410756E+04  0.7818609E-02  0.8435488E-01
        2   -1    0    0  501    0  0.00000000000E+00  0.00000000000E+00  0.17986862320E+04  0.17986862320E+04  0.25500000920E-02 0. -1.
       -2   -1    0    0    0  501  0.00000000000E+00  0.00000000000E+00 -0.80777646845E+03  0.80777646845E+03  0.25500000920E-02 0.  1.
    10030    2    1    2    0    0  0.00000000000E+00  0.00000000000E+00  0.99090976352E+03  0.26064627004E+04  0.24107562401E+04 0.  0.
        1    1    3    3  502    0 -0.19827806309E+03  0.42398228909E+03  0.16964227159E+04  0.17598082858E+04  0.50400001928E-02 0. -1.
       -1    1    3    3    0  502  0.19827806309E+03 -0.42398228909E+03 -0.70551295238E+03  0.84665441461E+03  0.50400001928E-02 0.  1.
</event>
<event>
 5   0  0.9750757E-05  0.2286646E+04  0.7818609E-02  0.8483205E-01
        2   -1    0    0  501    0  0.00000000000E+00  0.00000000000E+00  0.18634831153E+04  0.18634831153E+04  0.25500000920E-02 0.  1.
       -2   -1    0    0    0  501  0.00000000000E+00  0.00000000000E+00 -0.70147525814E+03  0.70147525814E+03  0.25500000920E-02 0. -1.
    10030    2    1    2    0    0  0.00000000000E+00  0.00000000000E+00  0.11620078572E+04  0.25649583735E+04  0.22866458400E+04 0.  0.
        2    1    3    3  502    0 -0.67237709398E+03 -0.90197563001E+03  0.35239386229E+03  0.11789115437E+04  0.25500000920E-02 0. -1.
       -2    1    3    3    0  502  0.67237709398E+03  0.90197563001E+03  0.80961399490E+03  0.13860468298E+04  0.25500000920E-02 0.  1.
</event>
<event>
 5   0  0.4260395E-05  0.2407864E+04  0.7818609E-02  0.8436565E-01
       -1   -1    0    0    0  501  0.00000000000E+00  0.00000000000E+00  0.12352473421E+04  0.12352473421E+04  0.50400001928E-02 0.  1.
        1   -1    0    0  501    0  0.00000000000E+00  0.00000000000E+00 -0.11734102240E+04  0.11734102240E+04  0.50400001928E-02 0. -1.
    10030    2    1    2    0    0  0.00000000000E+00  0.00000000000E+00  0.61837118032E+02  0.24086575661E+04  0.24078636676E+04 0.  0.
        4    1    3    3  502    0  0.10381424897E+04 -0.41115978817E+03  0.48124256048E+03  0.12158898861E+04  0.12699999809E+01 0.  1.
       -4    1    3    3    0  502 -0.10381424897E+04  0.41115978817E+03 -0.41940544245E+03  0.11927676800E+04  0.12699999809E+01 0. -1.
</event>
<event>
 5   0  0.4260395E-05  0.2276007E+04  0.7818609E-02  0.8487442E-01
        1   -1    0    0  501    0  0.00000000000E+00  0.00000000000E+00  0.22628013987E+04  0.22628013987E+04  0.50400001928E-02 0. -1.
       -1   -1    0    0    0  501  0.00000000000E+00  0.00000000000E+00 -0.57232252788E+03  0.57232252790E+03  0.50400001928E-02 0.  1.
    10030    2    1    2    0    0  0.00000000000E+00  0.00000000000E+00  0.16904788708E+04  0.28351239266E+04  0.22760072202E+04 0.  0.
        4    1    3    3  502    0 -0.50553111690E+03 -0.86035701557E+02  0.21107230122E+04  0.21721227174E+04  0.12699999809E+01 0. -1.
       -4    1    3    3    0  502  0.50553111690E+03  0.86035701557E+02 -0.42024414143E+03  0.66300120920E+03  0.12699999809E+01 0.  1.
</event>
<event>
 5   0  0.4208577E-05  0.2400492E+04  0.7818609E-02  0.8439320E-01
        1   -1    0    0  501    0  0.00000000000E+00  0.00000000000E+00  0.12300011414E+04  0.12300011414E+04  0.50400001928E-02 0.  1.
       -1   -1    0    0    0  501  0.00000000000E+00  0.00000000000E+00 -0.11712102397E+04  0.11712102397E+04  0.50400001928E-02 0. -1.
    10030    2    1    2    0    0  0.00000000000E+00  0.00000000000E+00  0.58790901687E+02  0.24012113812E+04  0.24004915594E+04 0.  0.
        1    1    3    3  502    0  0.68755263767E+02  0.11034157833E+04 -0.43800931662E+03  0.11891618219E+04  0.50400001928E-02 0. -1.
       -1    1    3    3    0  502 -0.68755263767E+02 -0.11034157833E+04  0.49680021830E+03  0.12120495593E+04  0.50400001928E-02 0.  1.
</event>
<event>
 5   0  0.3934906E-05  0.1475189E+04  0.7818609E-02  0.8901121E-01
       -1   -1    0    0    0  501  0.00000000000E+00  0.00000000000E+00  0.80791563080E+03  0.80791563081E+03  0.50400001928E-02 0.  1.
        1   -1    0    0  501    0  0.00000000000E+00  0.00000000000E+00 -0.67339439680E+03  0.67339439682E+03  0.50400001928E-02 0. -1.
    10030    2    1    2    0    0  0.00000000000E+00  0.00000000000E+00  0.13452123400E+03  0.14813100276E+04  0.14751892880E+04 0.  0.
        2    1    3    3  502    0 -0.23340855643E+03  0.53810767352E+03  0.51633698192E+03  0.78143669060E+03  0.25500000920E-02 0.  1.
       -2    1    3    3    0  502  0.23340855643E+03 -0.53810767352E+03 -0.38181574793E+03  0.69987333703E+03  0.25500000920E-02 0. -1.
</event>
<event>
 5   0  0.3934906E-05  0.1857936E+04  0.7818609E-02  0.8676082E-01
       -1   -1    0    0    0  501  0.00000000000E+00  0.00000000000E+00  0.53119148977E+03  0.53119148979E+03  0.50400001928E-02 0.  1.
        1   -1    0    0  501    0  0.00000000000E+00  0.00000000000E+00 -0.16246155497E+04  0.16246155497E+04  0.50400001928E-02 0. -1.
    10030    2    1    2    0    0  0.00000000000E+00  0.00000000000E+00 -0.10934240599E+04  0.21558070395E+04  0.18579364404E+04 0.  0.
        2    1    3    3  502    0  0.79846416804E+03  0.34389403401E+03 -0.16685218384E+03  0.88523882966E+03  0.25500000920E-02 0.  1.
       -2    1    3    3    0  502 -0.79846416804E+03 -0.34389403401E+03 -0.92657187606E+03  0.12705682098E+04  0.25500000920E-02 0. -1.
</event>
<event>
 5   0  0.9182865E-05  0.2373221E+04  0.7818609E-02  0.8449598E-01
       -2   -1    0    0    0  501  0.00000000000E+00  0.00000000000E+00  0.12222340273E+04  0.12222340273E+04  0.25500000920E-02 0.  1.
        2   -1    0    0  501    0  0.00000000000E+00  0.00000000000E+00 -0.11520247938E+04  0.11520247938E+04  0.25500000920E-02 0. -1.
    10030    2    1    2    0    0  0.00000000000E+00  0.00000000000E+00  0.70209233566E+02  0.23742588211E+04  0.23732205150E+04 0.  0.
        3    1    3    3  502    0 -0.35297866564E+03 -0.69518225201E+03  0.93001908718E+03  0.12135929361E+04  0.10100000352E+00 0.  1.
       -3    1    3    3    0  502  0.35297866564E+03  0.69518225201E+03 -0.85980985361E+03  0.11606658849E+04  0.10100000352E+00 0. -1.
</event>
<event>
 5   0  0.9144244E-05  0.2423385E+04  0.7818609E-02  0.8430800E-01
        2   -1    0    0  501    0  0.00000000000E+00  0.00000000000E+00  0.18193115035E+04  0.18193115035E+04  0.25500000920E-02 0.  1.
       -2   -1    0    0    0  501  0.00000000000E+00  0.00000000000E+00 -0.80700793863E+03  0.80700793864E+03  0.25500000920E-02 0. -1.
    10030    2    1    2    0    0  0.00000000000E+00  0.00000000000E+00  0.10123035649E+04  0.26263194421E+04  0.24233850921E+04 0.  0.
        1    1    3    3  502    0  0.87852893300E+03 -0.56546491708E+03 -0.15894607878E+03  0.10568006030E+04  0.50400001928E-02 0. -1.
       -1    1    3    3    0  502 -0.87852893300E+03  0.56546491708E+03  0.11712496436E+04  0.15695188391E+04  0.50400001928E-02 0.  1.
</event>
<event>
 5   0  0.9182865E-05  0.2422829E+04  0.7818609E-02  0.8431006E-01
        2   -1    0    0  501    0  0.00000000000E+00  0.00000000000E+00  0.13817659294E+04  0.13817659294E+04  0.25500000920E-02 0.  1.
       -2   -1    0    0    0  501  0.00000000000E+00  0.00000000000E+00 -0.10620646664E+04  0.10620646664E+04  0.25500000920E-02 0. -1.
    10030    2    1    2    0    0  0.00000000000E+00  0.00000000000E+00  0.31970126304E+03  0.24438305959E+04  0.24228287359E+04 0.  0.
        3    1    3    3  502    0 -0.17206776412E+03 -0.89034211631E+03 -0.65036081609E+03  0.11159236537E+04  0.10100000352E+00 0. -1.
       -3    1    3    3    0  502  0.17206776412E+03  0.89034211631E+03  0.97006207913E+03  0.13279069422E+04  0.10100000352E+00 0.  1.
</event>
<event>
 5   0  0.4208577E-05  0.2408358E+04  0.7818609E-02  0.8436381E-01
       -1   -1    0    0    0  501  0.00000000000E+00  0.00000000000E+00  0.14977775941E+04  0.14977775941E+04  0.50400001928E-02 0. -1.
        1   -1    0    0  501    0  0.00000000000E+00  0.00000000000E+00 -0.96813275530E+03  0.96813275532E+03  0.50400001928E-02 0.  1.
    10030    2    1    2    0    0  0.00000000000E+00  0.00000000000E+00  0.52964483883E+03  0.24659103495E+04  0.24083584028E+04 0.  0.
        1    1    3    3  502    0  0.80878191342E+03 -0.37435586656E+03 -0.56432981040E+03  0.10548642724E+04  0.50400001928E-02 0.  1.
       -1    1    3    3    0  502 -0.80878191342E+03  0.37435586656E+03  0.10939746492E+04  0.14110460770E+04  0.50400001928E-02 0. -1.
</event>
<event>
 5   0  0.9750757E-05  0.2317103E+04  0.7818609E-02  0.8471208E-01
        2   -1    0    0  501    0  0.00000000000E+00  0.00000000000E+00  0.14934518347E+04  0.14934518347E+04  0.25500000920E-02 0.  1.
       -2   -1    0    0    0  501  0.00000000000E+00  0.00000000000E+00 -0.89875110736E+03  0.89875110736E+03  0.25500000920E-02 0. -1.
    10030    2    1    2    0    0  0.00000000000E+00  0.00000000000E+00  0.59470072733E+03  0.23922029420E+04  0.23171029241E+04 0.  0.
        2    1    3    3  502    0 -0.15688767663E+03 -0.35012075311E+03 -0.83126120694E+03  0.91552907054E+03  0.25500000920E-02 0. -1.
       -2    1    3    3    0  502  0.15688767663E+03  0.35012075311E+03  0.14259619343E+04  0.14766738715E+04  0.25500000920E-02 0.  1.
</event>
<event>
 5   0  0.9750757E-05  0.2315123E+04  0.7818609E-02  0.8471982E-01
        2   -1    0    0  501    0  0.00000000000E+00  0.00000000000E+00  0.17207917606E+04  0.17207917606E+04  0.25500000920E-02 0.  1.
       -2   -1    0    0    0  501  0.00000000000E+00  0.00000000000E+00 -0.77868131217E+03  0.77868131217E+03  0.25500000920E-02 0. -1.
    10030    2    1    2    0    0  0.00000000000E+00  0.00000000000E+00  0.94211044847E+03  0.24994730728E+04  0.23151227925E+04 0.  0.
        2    1    3    3  502    0 -0.80377281340E+03  0.65653389274E+03  0.10245804600E+04  0.14583732742E+04  0.25500000920E-02 0.  1.
       -2    1    3    3    0  502  0.80377281340E+03 -0.65653389274E+03 -0.82470011506E+02  0.10410997986E+04  0.25500000920E-02 0. -1.
</event>
<event>
 5   0  0.4208577E-05  0.2422351E+04  0.7818609E-02  0.8431183E-01
        1   -1    0    0  501    0  0.00000000000E+00  0.00000000000E+00  0.20641359367E+04  0.20641359367E+04  0.50400001928E-02 0.  1.
       -1   -1    0    0    0  501  0.00000000000E+00  0.00000000000E+00 -0.71068267906E+03  0.71068267908E+03  0.50400001928E-02 0. -1.
    10030    2    1    2    0    0  0.00000000000E+00  0.00000000000E+00  0.13534532577E+04  0.27748186158E+04  0.24223506414E+04 0.  0.
        1    1    3    3  502    0  0.47251473684E+03 -0.10764934402E+04  0.10103766437E+04  0.15501513686E+04  0.50400001928E-02 0.  1.
       -1    1    3    3    0  502 -0.47251473684E+03  0.10764934402E+04  0.34307661399E+03  0.12246672472E+04  0.50400001928E-02 0. -1.
</event>
<event>
 5   0  0.4260395E-05  0.2329709E+04  0.7818609E-02  0.8466299E-01
       -1   -1    0    0    0  501  0.00000000000E+00  0.00000000000E+00  0.92612724923E+03  0.92612724924E+03  0.50400001928E-02 0.  1.
        1   -1    0    0  501    0  0.00000000000E+00  0.00000000000E+00 -0.14651184270E+04  0.14651184270E+04  0.50400001928E-02 0. -1.
    10030    2    1    2    0    0  0.00000000000E+00  0.00000000000E+00 -0.53899117778E+03  0.23912456762E+04  0.23297090794E+04 0.  0.
        4    1    3    3  502    0  0.15602224406E+02  0.11530836963E+04 -0.10071667601E+03  0.11575797604E+04  0.12699999809E+01 0.  1.
       -4    1    3    3    0  502 -0.15602224406E+02 -0.11530836963E+04 -0.43827450177E+03  0.12336659158E+04  0.12699999809E+01 0. -1.
</event>
<event>
 5   0  0.4018942E-05  0.2364775E+04  0.7818609E-02  0.8452810E-01
        1   -1    0    0  501    0  0.00000000000E+00  0.00000000000E+00  0.10987786998E+04  0.10987786999E+04  0.50400001928E-02 0.  1.
       -1   -1    0    0    0  501  0.00000000000E+00  0.00000000000E+00 -0.12723584012E+04  0.12723584013E+04  0.50400001928E-02 0. -1.
    10030    2    1    2    0    0  0.00000000000E+00  0.00000000000E+00 -0.17357970139E+03  0.23711371011E+04  0.23647750928E+04 0.  0.
        5    1    3    3  502    0 -0.11181679334E+04  0.18253834824E+03 -0.42592818460E+03  0.12103952595E+04  0.46999998093E+01 0. -1.
       -5    1    3    3    0  502  0.11181679334E+04 -0.18253834824E+03  0.25234848320E+03  0.11607418416E+04  0.46999998093E+01 0.  1.
</event>
<event>
 5   0  0.9519092E-05  0.2571276E+04  0.7818609E-02  0.8378024E-01
        2   -1    0    0  501    0  0.00000000000E+00  0.00000000000E+00  0.11791207459E+04  0.11791207459E+04  0.25500000920E-02 0.  1.
       -2   -1    0    0    0  501  0.00000000000E+00  0.00000000000E+00 -0.14017773803E+04  0.14017773803E+04  0.25500000920E-02 0. -1.
    10030    2    1    2    0    0  0.00000000000E+00  0.00000000000E+00 -0.22265663442E+03  0.25808981262E+04  0.25712757847E+04 0.  0.
        4    1    3    3  502    0  0.47899922753E+03 -0.10471951720E+04  0.46247978250E+03  0.12409460707E+04  0.12699999809E+01 0.  1.
       -4    1    3    3    0  502 -0.47899922753E+03  0.10471951720E+04 -0.68513641692E+03  0.13399520555E+04  0.12699999809E+01 0. -1.
</event>
<event>
 5   0  0.4018942E-05  0.2407660E+04  0.7818609E-02  0.8436641E-01
       -1   -1    0    0    0  501  0.00000000000E+00  0.00000000000E+00  0.71556142444E+03  0.71556142446E+03  0.50400001928E-02 0. -1.
        1   -1    0    0  501    0  0.00000000000E+00  0.00000000000E+00 -0.20252729465E+04  0.20252729465E+04  0.50400001928E-02 0.  1.
    10030    2    1    2    0    0  0.00000000000E+00  0.00000000000E+00 -0.13097115221E+04  0.27408343710E+04  0.24076604366E+04 0.  0.
        5    1    3    3  502    0 -0.79521798021E+03 -0.74060659311E+03 -0.12445274933E+04  0.16521926442E+04  0.46999998093E+01 0.  1.
       -5    1    3    3    0  502  0.79521798021E+03  0.74060659311E+03 -0.65184028769E+02  0.10886417268E+04  0.46999998093E+01 0. -1.
</event>
<event>
 5   0  0.9182865E-05  0.1701356E+04  0.7818609E-02  0.8760592E-01
       -2   -1    0    0    0  501  0.00000000000E+00  0.00000000000E+00  0.57783858879E+03  0.57783858880E+03  0.25500000920E-02 0. -1.
        2   -1    0    0  501    0  0.00000000000E+00  0.00000000000E+00 -0.12523440039E+04  0.12523440039E+04  0.25500000920E-02 0.  1.
    10030    2    1    2    0    0  0.00000000000E+00  0.00000000000E+00 -0.67450541508E+03  0.18301825927E+04  0.17013555676E+04 0.  0.
        3    1    3    3  502    0  0.33833510315E+03 -0.30925946222E+03 -0.11081326328E+04  0.11991955634E+04  0.10100000352E+00 0. -1.
       -3    1    3    3    0  502 -0.33833510315E+03  0.30925946222E+03  0.43362721776E+03  0.63098702932E+03  0.10100000352E+00 0.  1.
</event>
<event>
 5   0  0.4018942E-05  0.2399136E+04  0.7818609E-02  0.8439827E-01
       -1   -1    0    0    0  501  0.00000000000E+00  0.00000000000E+00  0.94963538958E+03  0.94963538959E+03  0.50400001928E-02 0.  1.
        1   -1    0    0  501    0  0.00000000000E+00  0.00000000000E+00 -0.15152800542E+04  0.15152800542E+04  0.50400001928E-02 0. -1.
    10030    2    1    2    0    0  0.00000000000E+00  0.00000000000E+00 -0.56564466459E+03  0.24649154438E+04  0.23991361484E+04 0.  0.
        5    1    3    3  502    0  0.11882986896E+04 -0.57238919549E+02 -0.44069539909E+03  0.12686861686E+04  0.46999998093E+01 0. -1.
       -5    1    3    3    0  502 -0.11882986896E+04  0.57238919549E+02 -0.12494926550E+03  0.11962292751E+04  0.46999998093E+01 0.  1.
</event>
<event>
 5   0  0.4061631E-05  0.1915261E+04  0.7818609E-02  0.8647297E-01
        1   -1    0    0  501    0  0.00000000000E+00  0.00000000000E+00  0.11437822069E+04  0.11437822069E+04  0.50400001928E-02 0. -1.
       -1   -1    0    0    0  501  0.00000000000E+00  0.00000000000E+00 -0.80177475247E+03  0.80177475249E+03  0.50400001928E-02 0.  1.
    10030    2    1    2    0    0  0.00000000000E+00  0.00000000000E+00  0.34200745440E+03  0.19455569594E+04  0.19152605001E+04 0.  0.
        3    1    3    3  502    0 -0.12528442380E+02 -0.80523806905E+03 -0.35535334132E+03  0.88025071264E+03  0.10100000352E+00 0.  1.
       -3    1    3    3    0  502  0.12528442380E+02  0.80523806905E+03  0.69736079572E+03  0.10653062467E+04  0.10100000352E+00 0. -1.
</event>
<event>
 5   0  0.4061631E-05  0.2383086E+04  0.7818609E-02  0.8445863E-01
        1   -1    0    0  501    0  0.00000000000E+00  0.00000000000E+00  0.15971286261E+04  0.15971286261E+04  0.50400001928E-02 0. -1.
       -1   -1    0    0    0  501  0.00000000000E+00  0.00000000000E+00 -0.88895443616E+03  0.88895443617E+03  0.50400001928E-02 0.  1.
    10030    2    1    2    0    0  0.00000000000E+00  0.00000000000E+00  0.70817418992E+03  0.24860830623E+04  0.23830858795E+04 0.  0.
        3    1    3    3  502    0  0.18662505233E+03  0.10936700077E+04 -0.99241636341E+02  0.11139083932E+04  0.10100000352E+00 0.  1.
       -3    1    3    3    0  502 -0.18662505233E+03 -0.10936700077E+04  0.80741582626E+03  0.13721746691E+04  0.10100000352E+00 0. -1.
</event>
<event>
 5   0  0.4018942E-05  0.2336507E+04  0.7818609E-02  0.8463665E-01
        1   -1    0    0  501    0  0.00000000000E+00  0.00000000000E+00  0.11055743963E+04  0.11055743963E+04  0.50400001928E-02 0.  1.
       -1   -1    0    0    0  501  0.00000000000E+00  0.00000000000E+00 -0.12344857960E+04  0.12344857961E+04  0.50400001928E-02 0. -1.
    10030    2    1    2    0    0  0.00000000000E+00  0.00000000000E+00 -0.12891139978E+03  0.23400601923E+04  0.23365066990E+04 0.  0.
        5    1    3    3  502    0 -0.49548968575E+03  0.42652348312E+03  0.90519106187E+03  0.11166132987E+04  0.46999998093E+01 0.  1.
       -5    1    3    3    0  502  0.49548968575E+03 -0.42652348312E+03 -0.10341024616E+04  0.12234468936E+04  0.46999998093E+01 0. -1.
</event>
<event>
 5   0  0.9519092E-05  0.2451668E+04  0.7818609E-02  0.8420409E-01
       -2   -1    0    0    0  501  0.00000000000E+00  0.00000000000E+00  0.13399659787E+04  0.13399659787E+04  0.25500000920E-02 0.  1.
        2   -1    0    0  501    0  0.00000000000E+00  0.00000000000E+00 -0.11214235928E+04  0.11214235928E+04  0.25500000920E-02 0. -1.
    10030    2    1    2    0    0  0.00000000000E+00  0.00000000000E+00  0.21854238594E+03  0.24613895715E+04  0.24516683806E+04 0.  0.
        4    1    3    3  502    0 -0.63561585708E+03  0.10149397810E+04 -0.15360202740E+03  0.12073547418E+04  0.12699999809E+01 0. -1.
       -4    1    3    3    0  502  0.63561585708E+03 -0.10149397810E+04  0.37214441334E+03  0.12540348297E+04  0.12699999809E+01 0.  1.
</event>
<event>
 5   0  0.9182865E-05  0.1718515E+04  0.7818609E-02  0.8750874E-01
       -2   -1    0    0    0  501  0.00000000000E+00  0.00000000000E+00  0.11356432901E+04  0.11356432901E+04  0.25500000920E-02 0. -1.
        2   -1    0    0  501    0  0.00000000000E+00  0.00000000000E+00 -0.65013677792E+03  0.65013677792E+03  0.25500000920E-02 0.  1.
    10030    2    1    2    0    0  0.00000000000E+00  0.00000000000E+00  0.48550651223E+03  0.17857800681E+04  0.17185150212E+04 0.  0.
        3    1    3    3  502    0 -0.44512019772E+03  0.64386305588E+03 -0.12556605435E+03  0.79275372554E+03  0.10100000352E+00 0.  1.
       -3    1    3    3    0  502  0.44512019772E+03 -0.64386305588E+03  0.61107256657E+03  0.99302634253E+03  0.10100000352E+00 0. -1.
</event>
<event>
 5   0  0.9750757E-05  0.2336687E+04  0.7818609E-02  0.8463595E-01
        2   -1    0    0  501    0  0.00000000000E+00  0.00000000000E+00  0.96934920237E+03  0.96934920237E+03  0.25500000920E-02 0. -1.
       -2   -1    0    0    0  501  0.00000000000E+00  0.00000000000E+00 -0.14081881880E+04  0.14081881880E+04  0.25500000920E-02 0.  1.
    10030    2    1    2    0    0  0.00000000000E+00  0.00000000000E+00 -0.43883898565E+03  0.23775373904E+04  0.23366866258E+04 0.  0.
        2    1    3    3  502    0 -0.72469720312E+03  0.87956677085E+03  0.42376868599E+02  0.11404470788E+04  0.25500000920E-02 0.  1.
       -2    1    3    3    0  502  0.72469720312E+03 -0.87956677085E+03 -0.48121585425E+03  0.12370903116E+04  0.25500000920E-02 0. -1.
</event>
<event>
 5   0  0.9144244E-05  0.2329342E+04  0.7818609E-02  0.8466441E-01
       -2   -1    0    0    0  501  0.00000000000E+00  0.00000000000E+00  0.10049520728E+04  0.10049520728E+04  0.25500000920E-02 0.  1.
        2   -1    0    0  501    0  0.00000000000E+00  0.00000000000E+00 -0.13497743950E+04  0.13497743950E+04  0.25500000920E-02 0. -1.
    10030    2    1    2    0    0  0.00000000000E+00  0.00000000000E+00 -0.34482232223E+03  0.23547264679E+04  0.23293420325E+04 0.  0.
        1    1    3    3  502    0 -0.62177319282E+03  0.81445109740E+03  0.38727029732E+03  0.10954043895E+04  0.50400001928E-02 0.  1.
       -1    1    3    3    0  502  0.62177319282E+03 -0.81445109740E+03 -0.73209261956E+03  0.12593220783E+04  0.50400001928E-02 0. -1.
</event>
<event>
 5   0  0.9491680E-05  0.2381331E+04  0.7818609E-02  0.8446526E-01
       -2   -1    0    0    0  501  0.00000000000E+00  0.00000000000E+00  0.13435301256E+04  0.13435301256E+04  0.25500000920E-02 0. -1.
        2   -1    0    0  501    0  0.00000000000E+00  0.00000000000E+00 -0.10551938283E+04  0.10551938283E+04  0.25500000920E-02 0.  1.
    10030    2    1    2    0    0  0.00000000000E+00  0.00000000000E+00  0.28833629731E+03  0.23987239539E+04  0.23813313055E+04 0.  0.
        5    1    3    3  502    0  0.64100320026E+03 -0.10356289658E+03  0.11494816308E+04  0.13202047136E+04  0.46999998093E+01 0. -1.
       -5    1    3    3    0  502 -0.64100320026E+03  0.10356289658E+03 -0.86114533346E+03  0.10785192403E+04  0.46999998093E+01 0.  1.
</event>
<event>
 5   0  0.9182865E-05  0.1226342E+04  0.7818609E-02  0.9090107E-01
        2   -1    0    0  501    0  0.00000000000E+00  0.00000000000E+00  0.24192562057E+04  0.24192562057E+04  0.25500000920E-02 0.  1.
       -2   -1    0    0    0  501  0.00000000000E+00  0.00000000000E+00 -0.15541082334E+03  0.15541082336E+03  0.25500000920E-02 0. -1.
    10030    2    1    2    0    0  0.00000000000E+00  0.00000000000E+00  0.22638453823E+04  0.25746670290E+04  0.12263418754E+04 0.  0.
        3    1    3    3  502    0 -0.10135866569E+03 -0.56222331807E+03  0.66430179645E+03  0.87616523868E+03  0.10100000352E+00 0. -1.
       -3    1    3    3    0  502  0.10135866569E+03  0.56222331807E+03  0.15995435859E+04  0.16985017904E+04  0.10100000352E+00 0.  1.
</event>
<event>
 5   0  0.4061631E-05  0.2421151E+04  0.7818609E-02  0.8431627E-01
       -1   -1    0    0    0  501  0.00000000000E+00  0.00000000000E+00  0.23130094698E+04  0.23130094698E+04  0.50400001928E-02 0.  1.
        1   -1    0    0  501    0  0.00000000000E+00  0.00000000000E+00 -0.63358712011E+03  0.63358712013E+03  0.50400001928E-02 0. -1.
    10030    2    1    2    0    0  0.00000000000E+00  0.00000000000E+00  0.16794223497E+04  0.29465965899E+04  0.24211509732E+04 0.  0.
        3    1    3    3  502    0  0.76899080192E+03 -0.56606979981E+03 -0.65897212630E+02  0.95714383691E+03  0.10100000352E+00 0. -1.
       -3    1    3    3    0  502 -0.76899080192E+03  0.56606979981E+03  0.17453195623E+04  0.19894527530E+04  0.10100000352E+00 0.  1.
</event>
<event>
 5   0  0.4061631E-05  0.1384010E+04  0.7818609E-02  0.8965475E-01
        1   -1    0    0  501    0  0.00000000000E+00  0.00000000000E+00  0.12354137176E+04  0.12354137176E+04  0.50400001928E-02 0.  1.
       -1   -1    0    0    0  501  0.00000000000E+00  0.00000000000E+00 -0.38761997341E+03  0.38761997344E+03  0.50400001928E-02 0. -1.
    10030    2    1    2    0    0  0.00000000000E+00  0.00000000000E+00  0.84779374416E+03  0.16230336910E+04  0.13840101624E+04 0.  0.
        3    1    3    3  502    0  0.16438318873E+03 -0.58538439689E+03  0.81137612943E+03  0.10139171359E+04  0.10100000352E+00 0.  1.
       -3    1    3    3    0  502 -0.16438318873E+03  0.58538439689E+03  0.36417614728E+02  0.60911655512E+03  0.10100000352E+00 0. -1.
</event>
<event>
 5   0  0.4018942E-05  0.2125624E+04  0.7818609E-02  0.8550039E-01
       -1   -1    0    0    0  501  0.00000000000E+00  0.00000000000E+00  0.85483868556E+03  0.85483868558E+03  0.50400001928E-02 0.  1.
        1   -1    0    0  501    0  0.00000000000E+00  0.00000000000E+00 -0.13213824610E+04  0.13213824610E+04  0.50400001928E-02 0. -1.
    10030    2    1    2    0    0  0.00000000000E+00  0.00000000000E+00 -0.46654377539E+03  0.21762211465E+04  0.21256235284E+04 0.  0.
        5    1    3    3  502    0  0.94382863419E+03  0.45664342221E+03 -0.41122254216E+03  0.11262600832E+04  0.46999998093E+01 0. -1.
       -5    1    3    3    0  502 -0.94382863419E+03 -0.45664342221E+03 -0.55321233232E+02  0.10499610634E+04  0.46999998093E+01 0.  1.
</event>
<event>
 5   0  0.4061631E-05  0.1301480E+04  0.7818609E-02  0.9028392E-01
        1   -1    0    0  501    0  0.00000000000E+00  0.00000000000E+00  0.69167321649E+03  0.69167321651E+03  0.50400001928E-02 0.  1.
       -1   -1    0    0    0  501  0.00000000000E+00  0.00000000000E+00 -0.61222911085E+03  0.61222911088E+03  0.50400001928E-02 0. -1.
    10030    2    1    2    0    0  0.00000000000E+00  0.00000000000E+00  0.79444105634E+02  0.13039023274E+04  0.13014798936E+04 0.  0.
        3    1    3    3  502    0  0.33013730568E+03 -0.14223922028E+03 -0.50372636560E+03  0.61883996153E+03  0.10100000352E+00 0. -1.
       -3    1    3    3    0  502 -0.33013730568E+03  0.14223922028E+03  0.58317047123E+03  0.68506236585E+03  0.10100000352E+00 0.  1.
</event>
<event>
 5   0  0.9750757E-05  0.2401557E+04  0.7818609E-02  0.8438921E-01
       -2   -1    0    0    0  501  0.00000000000E+00  0.00000000000E+00  0.62144252280E+03  0.62144252281E+03  0.25500000920E-02 0.  1.
        2   -1    0    0  501    0  0.00000000000E+00  0.00000000000E+00 -0.23201969870E+04  0.23201969870E+04  0.25500000920E-02 0. -1.
    10030    2    1    2    0    0  0.00000000000E+00  0.00000000000E+00 -0.16987544642E+04  0.29416395098E+04  0.24015570524E+04 0.  0.
        2    1    3    3  502    0  0.11080807326E+04 -0.45460869444E+03 -0.74431425785E+03  0.14101473999E+04  0.25500000920E-02 0. -1.
       -2    1    3    3    0  502 -0.11080807326E+04  0.45460869444E+03 -0.95444020630E+03  0.15314921098E+04  0.25500000920E-02 0.  1.
</event>
<event>
 5   0  0.9182865E-05  0.2185705E+04  0.7818609E-02  0.8524402E-01
        2   -1    0    0  501    0  0.00000000000E+00  0.00000000000E+00  0.15094167799E+04  0.15094167799E+04  0.25500000920E-02 0. -1.
       -2   -1    0    0    0  501  0.00000000000E+00  0.00000000000E+00 -0.79125042438E+03  0.79125042439E+03  0.25500000920E-02 0.  1.
    10030    2    1    2    0    0  0.00000000000E+00  0.00000000000E+00  0.71816635552E+03  0.23006672043E+04  0.21857050740E+04 0.  0.
        3    1    3    3  502    0 -0.93666989841E+03  0.56011730269E+03  0.41904211692E+03  0.11690501261E+04  0.10100000352E+00 0. -1.
       -3    1    3    3    0  502  0.93666989841E+03 -0.56011730269E+03  0.29912423860E+03  0.11316170782E+04  0.10100000352E+00 0.  1.
</event>
<event>
 5   0  0.4061631E-05  0.2398543E+04  0.7818609E-02  0.8440049E-01
        1   -1    0    0  501    0  0.00000000000E+00  0.00000000000E+00  0.70300080205E+03  0.70300080207E+03  0.50400001928E-02 0.  1.
       -1   -1    0    0    0  501  0.00000000000E+00  0.00000000000E+00 -0.20458755497E+04  0.20458755497E+04  0.50400001928E-02 0. -1.
    10030    2    1    2    0    0  0.00000000000E+00  0.00000000000E+00 -0.13428747476E+04  0.27488763517E+04  0.23985430180E+04 0.  0.
        3    1    3    3  502    0 -0.90416256410E+03 -0.39528506867E+03 -0.14525196305E+04  0.17560106819E+04  0.10100000352E+00 0. -1.
       -3    1    3    3    0  502  0.90416256410E+03  0.39528506867E+03  0.10964488285E+03  0.99286566985E+03  0.10100000352E+00 0.  1.
</event>
<event>
 5   0  0.3934906E-05  0.2367106E+04  0.7818609E-02  0.8451922E-01
        1   -1    0    0  501    0  0.00000000000E+00  0.00000000000E+00  0.93784228775E+03  0.93784228777E+03  0.50400001928E-02 0.  1.
       -1   -1    0    0    0  501  0.00000000000E+00  0.00000000000E+00 -0.14936389611E+04  0.14936389611E+04  0.50400001928E-02 0. -1.
    10030    2    1    2    0    0  0.00000000000E+00  0.00000000000E+00 -0.55579667337E+03  0.24314812489E+04  0.23671060647E+04 0.  0.
        2    1    3    3  502    0  0.11661349146E+04 -0.55193447552E+02 -0.77975263485E+02  0.11700414939E+04  0.25500000920E-02 0. -1.
       -2    1    3    3    0  502 -0.11661349146E+04  0.55193447552E+02 -0.47782140989E+03  0.12614397550E+04  0.25500000920E-02 0.  1.
</event>
<event>
 5   0  0.9750757E-05  0.2442801E+04  0.7818609E-02  0.8423651E-01
        2   -1    0    0  501    0  0.00000000000E+00  0.00000000000E+00  0.82363591518E+03  0.82363591519E+03  0.25500000920E-02 0. -1.
       -2   -1    0    0    0  501  0.00000000000E+00  0.00000000000E+00 -0.18112607044E+04  0.18112607044E+04  0.25500000920E-02 0.  1.
    10030    2    1    2    0    0  0.00000000000E+00  0.00000000000E+00 -0.98762478922E+03  0.26348966196E+04  0.24428011527E+04 0.  0.
        2    1    3    3  502    0 -0.10536812355E+04  0.96671940178E+02 -0.11518959051E+04  0.15641143777E+04  0.25500000920E-02 0.  1.
       -2    1    3    3    0  502  0.10536812355E+04 -0.96671940178E+02  0.16427111591E+03  0.10707822419E+04  0.25500000920E-02 0. -1.
</event>
<event>
 5   0  0.4260395E-05  0.2397163E+04  0.7818609E-02  0.8440566E-01
        1   -1    0    0  501    0  0.00000000000E+00  0.00000000000E+00  0.13964934204E+04  0.13964934204E+04  0.50400001928E-02 0.  1.
       -1   -1    0    0    0  501  0.00000000000E+00  0.00000000000E+00 -0.10287177006E+04  0.10287177006E+04  0.50400001928E-02 0. -1.
    10030    2    1    2    0    0  0.00000000000E+00  0.00000000000E+00  0.36777571975E+03  0.24252111210E+04  0.23971629067E+04 0.  0.
        4    1    3    3  502    0  0.10931444271E+04 -0.22782474448E+02  0.68066489583E+03  0.12879402521E+04  0.12699999809E+01 0.  1.
       -4    1    3    3    0  502 -0.10931444271E+04  0.22782474448E+02 -0.31288917608E+03  0.11372708688E+04  0.12699999809E+01 0. -1.
</event>
<event>
 5   0  0.9144244E-05  0.2233687E+04  0.7818609E-02  0.8504536E-01
        2   -1    0    0  501    0  0.00000000000E+00  0.00000000000E+00  0.10561925975E+04  0.10561925975E+04  0.25500000920E-02 0.  1.
       -2   -1    0    0    0  501  0.00000000000E+00  0.00000000000E+00 -0.11809774067E+04  0.11809774067E+04  0.25500000920E-02 0. -1.
    10030    2    1    2    0    0  0.00000000000E+00  0.00000000000E+00 -0.12478480924E+03  0.22371700042E+04  0.22336871713E+04 0.  0.
        1    1    3    3  502    0  0.40183499347E+03  0.10149611740E+04 -0.29881564923E+03  0.11317722116E+04  0.50400001928E-02 0.  1.
       -1    1    3    3    0  502 -0.40183499347E+03 -0.10149611740E+04  0.17403083999E+03  0.11053977926E+04  0.50400001928E-02 0. -1.
</event>
<event>
 5   0  0.4260395E-05  0.2472962E+04  0.7818609E-02  0.8412682E-01
        1   -1    0    0  501    0  0.00000000000E+00  0.00000000000E+00  0.13923067797E+04  0.13923067797E+04  0.50400001928E-02 0.  1.
       -1   -1    0    0    0  501  0.00000000000E+00  0.00000000000E+00 -0.10980949189E+04  0.10980949189E+04  0.50400001928E-02 0. -1.
    10030    2    1    2    0    0  0.00000000000E+00  0.00000000000E+00  0.29421186079E+03  0.24904016987E+04  0.24729617874E+04 0.  0.
        4    1    3    3  502    0  0.95373032870E+03 -0.37153960973E+03 -0.55150106856E+03  0.11626685955E+04  0.12699999809E+01 0. -1.
       -4    1    3    3    0  502 -0.95373032870E+03  0.37153960973E+03  0.84571292935E+03  0.13277331032E+04  0.12699999809E+01 0.  1.
</event>
<event>
 5   0  0.4061631E-05  0.2436351E+04  0.7818609E-02  0.8426018E-01
       -1   -1    0    0    0  501  0.00000000000E+00  0.00000000000E+00  0.78764067343E+03  0.78764067345E+03  0.50400001928E-02 0. -1.
        1   -1    0    0  501    0  0.00000000000E+00  0.00000000000E+00 -0.18840465483E+04  0.18840465483E+04  0.50400001928E-02 0.  1.
    10030    2    1    2    0    0  0.00000000000E+00  0.00000000000E+00 -0.10964058748E+04  0.26716872217E+04  0.24363511176E+04 0.  0.
        3    1    3    3  502    0 -0.57259413577E+03  0.52116083321E+03 -0.15795135925E+04  0.17590724424E+04  0.10100000352E+00 0.  1.
       -3    1    3    3    0  502  0.57259413577E+03 -0.52116083321E+03  0.48310771768E+03  0.91261477934E+03  0.10100000352E+00 0. -1.
</event>
<event>
 5   0  0.3934906E-05  0.2175714E+04  0.7818609E-02  0.8528605E-01
        1   -1    0    0  501    0  0.00000000000E+00  0.00000000000E+00  0.11514222562E+04  0.11514222562E+04  0.50400001928E-02 0. -1.
       -1   -1    0    0    0  501  0.00000000000E+00  0.00000000000E+00 -0.10278010319E+04  0.10278010319E+04  0.50400001928E-02 0.  1.
    10030    2    1    2    0    0  0.00000000000E+00  0.00000000000E+00  0.12362122426E+03  0.21792232881E+04  0.21757141201E+04 0.  0.
        2    1    3    3  502    0 -0.32145503841E+02 -0.61180816091E+03  0.96219899140E+03  0.11406881512E+04  0.25500000920E-02 0. -1.
       -2    1    3    3    0  502  0.32145503841E+02  0.61180816091E+03 -0.83857776714E+03  0.10385351370E+04  0.25500000920E-02 0.  1.
</event>
<event>
 5   0  0.9144244E-05  0.2389634E+04  0.7818609E-02  0.8443395E-01
       -2   -1    0    0    0  501  0.00000000000E+00  0.00000000000E+00  0.57384622366E+03  0.57384622367E+03  0.25500000920E-02 0. -1.
        2   -1    0    0  501    0  0.00000000000E+00  0.00000000000E+00 -0.24877533576E+04  0.24877533576E+04  0.25500000920E-02 0.  1.
    10030    2    1    2    0    0  0.00000000000E+00  0.00000000000E+00 -0.19139071339E+04  0.30615995813E+04  0.23896341726E+04 0.  0.
        1    1    3    3  502    0  0.26692984500E+03 -0.96956454670E+03 -0.13032535912E+03  0.10140471644E+04  0.50400001928E-02 0.  1.
       -1    1    3    3    0  502 -0.26692984500E+03  0.96956454670E+03 -0.17835817748E+04  0.20475524169E+04  0.50400001928E-02 0. -1.
</event>
<event>
 5   0  0.9491680E-05  0.1869561E+04  0.7818609E-02  0.8670158E-01
       -2   -1    0    0    0  501  0.00000000000E+00  0.00000000000E+00  0.42092832261E+03  0.42092832262E+03  0.25500000920E-02 0.  1.
        2   -1    0    0  501    0  0.00000000000E+00  0.00000000000E+00 -0.20759227277E+04  0.20759227277E+04  0.25500000920E-02 0. -1.
    10030    2    1    2    0    0  0.00000000000E+00  0.00000000000E+00 -0.16549944051E+04  0.24968510504E+04  0.18695610947E+04 0.  0.
        5    1    3    3  502    0  0.63369225675E+03  0.21051428321E+02 -0.17448246053E+04  0.18564600809E+04  0.46999998093E+01 0. -1.
       -5    1    3    3    0  502 -0.63369225675E+03 -0.21051428321E+02  0.89830200132E+02  0.64039096945E+03  0.46999998093E+01 0.  1.
</event>
<event>
 5   0  0.4018942E-05  0.2580108E+04  0.7818609E-02  0.8374990E-01
        1   -1    0    0  501    0  0.00000000000E+00  0.00000000000E+00  0.17579604019E+04  0.17579604019E+04  0.50400001928E-02 0.  1.
       -1   -1    0    0    0  501  0.00000000000E+00  0.00000000000E+00 -0.94668727755E+03  0.94668727756E+03  0.50400001928E-02 0. -1.
    10030    2    1    2    0    0  0.00000000000E+00  0.00000000000E+00  0.81127312438E+03  0.27046476795E+04  0.25801075535E+04 0.  0.
        5    1    3    3  502    0 -0.94388572633E+02  0.87810728408E+03  0.13913637904E+04  0.16479978435E+04  0.46999998093E+01 0.  1.
       -5    1    3    3    0  502  0.94388572633E+02 -0.87810728408E+03 -0.58009066605E+03  0.10566498360E+04  0.46999998093E+01 0. -1.
</event>
<event>
 5   0  0.9519092E-05  0.2367859E+04  0.7818609E-02  0.8451635E-01
       -2   -1    0    0    0  501  0.00000000000E+00  0.00000000000E+00  0.86363229051E+03  0.86363229052E+03  0.25500000920E-02 0. -1.
        2   -1    0    0  501    0  0.00000000000E+00  0.00000000000E+00 -0.16230166487E+04  0.16230166487E+04  0.25500000920E-02 0.  1.
    10030    2    1    2    0    0  0.00000000000E+00  0.00000000000E+00 -0.75938435820E+03  0.24866489392E+04  0.23678594434E+04 0.  0.
        4    1    3    3  502    0 -0.65177688908E+03 -0.80197206357E+02  0.65483911752E+03  0.92739451572E+03  0.12699999809E+01 0. -1.
       -4    1    3    3    0  502  0.65177688908E+03  0.80197206357E+02 -0.14142234757E+04  0.15592544235E+04  0.12699999809E+01 0.  1.
</event>
<event>
 5   0  0.4208577E-05  0.2460853E+04  0.7818609E-02  0.8417066E-01
        1   -1    0    0  501    0  0.00000000000E+00  0.00000000000E+00  0.12445381017E+04  0.12445381017E+04  0.50400001928E-02 0.  1.
       -1   -1    0    0    0  501  0.00000000000E+00  0.00000000000E+00 -0.12164744696E+04  0.12164744696E+04  0.50400001928E-02 0. -1.
    10030    2    1    2    0    0  0.00000000000E+00  0.00000000000E+00  0.28063632092E+02  0.24610125713E+04  0.24608525572E+04 0.  0.
        1    1    3    3  502    0  0.27504223587E+03  0.76967515960E+03  0.93382024566E+03  0.12409948969E+04  0.50400001928E-02 0.  1.
       -1    1    3    3    0  502 -0.27504223587E+03 -0.76967515960E+03 -0.90575661356E+03  0.12200176744E+04  0.50400001928E-02 0. -1.
</event>
<event>
 5   0  0.4018942E-05  0.1668596E+04  0.7818609E-02  0.8779480E-01
        1   -1    0    0  501    0  0.00000000000E+00  0.00000000000E+00  0.11751982133E+04  0.11751982133E+04  0.50400001928E-02 0.  1.
       -1   -1    0    0    0  501  0.00000000000E+00  0.00000000000E+00 -0.59228608795E+03  0.59228608797E+03  0.50400001928E-02 0. -1.
    10030    2    1    2    0    0  0.00000000000E+00  0.00000000000E+00  0.58291212530E+03  0.17674843012E+04  0.16685964789E+04 0.  0.
        5    1    3    3  502    0 -0.76420279637E+03 -0.16877684782E+03 -0.14705933069E+02  0.78277065147E+03  0.46999998093E+01 0. -1.
       -5    1    3    3    0  502  0.76420279637E+03  0.16877684782E+03  0.59761805837E+03  0.98471364976E+03  0.46999998093E+01 0.  1.
</event>
<event>
 5   0  0.3934906E-05  0.3080437E+04  0.7818609E-02  0.8221127E-01
       -1   -1    0    0    0  501  0.00000000000E+00  0.00000000000E+00  0.11806904345E+04  0.11806904345E+04  0.50400001928E-02 0. -1.
        1   -1    0    0  501    0  0.00000000000E+00  0.00000000000E+00 -0.20092249382E+04  0.20092249382E+04  0.50400001928E-02 0.  1.
    10030    2    1    2    0    0  0.00000000000E+00  0.00000000000E+00 -0.82853450370E+03  0.31899153727E+04  0.30804367647E+04 0.  0.
        2    1    3    3  502    0  0.49157253599E+02  0.11135678861E+04 -0.15149750148E+04  0.18808506501E+04  0.25500000920E-02 0.  1.
       -2    1    3    3    0  502 -0.49157253599E+02 -0.11135678861E+04  0.68644051115E+03  0.13090647226E+04  0.25500000920E-02 0. -1.
</event>
<event>
 5   0  0.3934906E-05  0.2052848E+04  0.7818609E-02  0.8582303E-01
       -1   -1    0    0    0  501  0.00000000000E+00  0.00000000000E+00  0.78949328935E+03  0.78949328936E+03  0.50400001928E-02 0.  1.
        1   -1    0    0  501    0  0.00000000000E+00  0.00000000000E+00 -0.13344587071E+04  0.13344587071E+04  0.50400001928E-02 0. -1.
    10030    2    1    2    0    0  0.00000000000E+00  0.00000000000E+00 -0.54496541777E+03  0.21239519965E+04  0.20528479673E+04 0.  0.
        2    1    3    3  502    0  0.53735907830E+03 -0.79465586975E+03  0.10528507323E+03  0.96504801798E+03  0.25500000920E-02 0.  1.
       -2    1    3    3    0  502 -0.53735907830E+03  0.79465586975E+03 -0.65025049100E+03  0.11589039785E+04  0.25500000920E-02 0. -1.
</event>
<event>
 5   0  0.4018942E-05  0.1618074E+04  0.7818609E-02  0.8809521E-01
       -1   -1    0    0    0  501  0.00000000000E+00  0.00000000000E+00  0.75279298075E+03  0.75279298077E+03  0.50400001928E-02 0.  1.
        1   -1    0    0  501    0  0.00000000000E+00  0.00000000000E+00 -0.86948339338E+03  0.86948339339E+03  0.50400001928E-02 0. -1.
    10030    2    1    2    0    0  0.00000000000E+00  0.00000000000E+00 -0.11669041263E+03  0.16222763742E+04  0.16180741583E+04 0.  0.
        5    1    3    3  502    0  0.70416986063E+03  0.36062292956E+03  0.11125325058E+03  0.79893896244E+03  0.46999998093E+01 0. -1.
       -5    1    3    3    0  502 -0.70416986063E+03 -0.36062292956E+03 -0.22794366320E+03  0.82333741172E+03  0.46999998093E+01 0.  1.
</event>
<event>
 5   0  0.4018942E-05  0.2478512E+04  0.7818609E-02  0.8410681E-01
        1   -1    0    0  501    0  0.00000000000E+00  0.00000000000E+00  0.10556492513E+04  0.10556492513E+04  0.50400001928E-02 0. -1.
       -1   -1    0    0    0  501  0.00000000000E+00  0.00000000000E+00 -0.14547973968E+04  0.14547973968E+04  0.50400001928E-02 0.  1.
    10030    2    1    2    0    0  0.00000000000E+00  0.00000000000E+00 -0.39914814549E+03  0.25104466482E+04  0.24785122819E+04 0.  0.
        5    1    3    3  502    0 -0.49255846231E+03 -0.81334342946E+03 -0.10045415629E+04  0.13832090278E+04  0.46999998093E+01 0.  1.
       -5    1    3    3    0  502  0.49255846231E+03  0.81334342946E+03  0.60539341737E+03  0.11272376204E+04  0.46999998093E+01 0. -1.
</event>
<event>
 5   0  0.3934906E-05  0.2608345E+04  0.7818609E-02  0.8365372E-01
       -1   -1    0    0    0  501  0.00000000000E+00  0.00000000000E+00  0.73222921273E+03  0.73222921275E+03  0.50400001928E-02 0.  1.
        1   -1    0    0  501    0  0.00000000000E+00  0.00000000000E+00 -0.23228601294E+04  0.23228601294E+04  0.50400001928E-02 0. -1.
    10030    2    1    2    0    0  0.00000000000E+00  0.00000000000E+00 -0.15906309166E+04  0.30550893421E+04  0.26083451028E+04 0.  0.
        2    1    3    3  502    0 -0.20356122079E+03 -0.11515018602E+04 -0.14716923663E+04  0.18797000094E+04  0.25500000920E-02 0.  1.
       -2    1    3    3    0  502  0.20356122079E+03  0.11515018602E+04 -0.11893855039E+03  0.11753893327E+04  0.25500000920E-02 0. -1.
</event>
<event>
 5   0  0.3934906E-05  0.2369046E+04  0.7818609E-02  0.8451184E-01
        1   -1    0    0  501    0  0.00000000000E+00  0.00000000000E+00  0.12088396127E+04  0.12088396127E+04  0.50400001928E-02 0.  1.
       -1   -1    0    0    0  501  0.00000000000E+00  0.00000000000E+00 -0.11606957857E+04  0.11606957857E+04  0.50400001928E-02 0. -1.
    10030    2    1    2    0    0  0.00000000000E+00  0.00000000000E+00  0.48143827074E+02  0.23695353984E+04  0.23690462588E+04 0.  0.
        2    1    3    3  502    0  0.22303864696E+03  0.17648876972E+03 -0.11260352854E+04  0.11614000120E+04  0.25500000920E-02 0. -1.
       -2    1    3    3    0  502 -0.22303864696E+03 -0.17648876972E+03  0.11741791124E+04  0.12081353864E+04  0.25500000920E-02 0.  1.
</event>
<event>
 5   0  0.3934906E-05  0.2279088E+04  0.7818609E-02  0.8486212E-01
       -1   -1    0    0    0  501  0.00000000000E+00  0.00000000000E+00  0.67223199116E+03  0.67223199118E+03  0.50400001928E-02 0. -1.
        1   -1    0    0  501    0  0.00000000000E+00  0.00000000000E+00 -0.19317144161E+04  0.19317144161E+04  0.50400001928E-02 0.  1.
    10030    2    1    2    0    0  0.00000000000E+00  0.00000000000E+00 -0.12594824249E+04  0.26039464072E+04  0.22790877371E+04 0.  0.
        2    1    3    3  502    0  0.80669149185E+02  0.29329831028E+03  0.62498751067E+03  0.69508330360E+03  0.25500000920E-02 0. -1.
       -2    1    3    3    0  502 -0.80669149185E+02 -0.29329831028E+03 -0.18844699356E+04  0.19088631036E+04  0.25500000920E-02 0.  1.
</event>
<event>
 5   0  0.9144244E-05  0.2442515E+04  0.7818609E-02  0.8423756E-01
        2   -1    0    0  501    0  0.00000000000E+00  0.00000000000E+00  0.15656295220E+04  0.15656295220E+04  0.25500000920E-02 0. -1.
       -2   -1    0    0    0  501  0.00000000000E+00  0.00000000000E+00 -0.95263241118E+03  0.95263241118E+03  0.25500000920E-02 0.  1.
    10030    2    1    2    0    0  0.00000000000E+00  0.00000000000E+00  0.61299711082E+03  0.25182619332E+04  0.24425146276E+04 0.  0.
        1    1    3    3  502    0  0.42192496945E+03  0.67942778973E+03 -0.64506835724E+03  0.10274998719E+04  0.50400001928E-02 0.  1.
       -1    1    3    3    0  502 -0.42192496945E+03 -0.67942778973E+03  0.12580654681E+04  0.14907620612E+04  0.50400001928E-02 0. -1.
</event>
<event>
 5   0  0.4018942E-05  0.2363342E+04  0.7818609E-02  0.8453357E-01
       -1   -1    0    0    0  501  0.00000000000E+00  0.00000000000E+00  0.85660595103E+03  0.85660595104E+03  0.50400001928E-02 0.  1.
        1   -1    0    0  501    0  0.00000000000E+00  0.00000000000E+00 -0.16300912947E+04  0.16300912947E+04  0.50400001928E-02 0. -1.
    10030    2    1    2    0    0  0.00000000000E+00  0.00000000000E+00 -0.77348534368E+03  0.24866972458E+04  0.23633416205E+04 0.  0.
        5    1    3    3  502    0  0.53619083840E+03 -0.30829244637E+03  0.67267703719E+03  0.91381690399E+03  0.46999998093E+01 0.  1.
       -5    1    3    3    0  502 -0.53619083840E+03  0.30829244637E+03 -0.14461623809E+04  0.15728803418E+04  0.46999998093E+01 0. -1.
</event>
<event>
 5   0  0.3934906E-05  0.2395034E+04  0.7818609E-02  0.8441365E-01
       -1   -1    0    0    0  501  0.00000000000E+00  0.00000000000E+00  0.65991361340E+03  0.65991361342E+03  0.50400001928E-02 0. -1.
        1   -1    0    0  501    0  0.00000000000E+00  0.00000000000E+00 -0.21730835868E+04  0.21730835868E+04  0.50400001928E-02 0.  1.
    10030    2    1    2    0    0  0.00000000000E+00  0.00000000000E+00 -0.15131699734E+04  0.28329972003E+04  0.23950343981E+04 0.  0.
        2    1    3    3  502    0  0.57800286636E+03 -0.10384728448E+04 -0.58300503664E+03  0.13237854946E+04  0.25500000920E-02 0. -1.
       -2    1    3    3    0  502 -0.57800286636E+03  0.10384728448E+04 -0.93016493680E+03  0.15092117057E+04  0.25500000920E-02 0.  1.
</event>
<event>
 5   0  0.4208577E-05  0.2204723E+04  0.7818609E-02  0.8516465E-01
        1   -1    0    0  501    0  0.00000000000E+00  0.00000000000E+00  0.92094398579E+03  0.92094398580E+03  0.50400001928E-02 0.  1.
       -1   -1    0    0    0  501  0.00000000000E+00  0.00000000000E+00 -0.13195171923E+04  0.13195171923E+04  0.50400001928E-02 0. -1.
    10030    2    1    2    0    0  0.00000000000E+00  0.00000000000E+00 -0.39857320647E+03  0.22404611781E+04  0.22047234950E+04 0.  0.
        1    1    3    3  502    0  0.23651076396E+03  0.38218166479E+03 -0.12221818311E+04  0.13022014417E+04  0.50400001928E-02 0. -1.
       -1    1    3    3    0  502 -0.23651076396E+03 -0.38218166479E+03  0.82360862463E+03  0.93825973641E+03  0.50400001928E-02 0.  1.
</event>
<event>
 5   0  0.9491680E-05  0.2396894E+04  0.7818609E-02  0.8440667E-01
        2   -1    0    0  501    0  0.00000000000E+00  0.00000000000E+00  0.12470240475E+04  0.12470240475E+04  0.25500000920E-02 0.  1.
       -2   -1    0    0    0  501  0.00000000000E+00  0.00000000000E+00 -0.11517618420E+04  0.11517618420E+04  0.25500000920E-02 0. -1.
    10030    2    1    2    0    0  0.00000000000E+00  0.00000000000E+00  0.95262205486E+02  0.23987858895E+04  0.23968935846E+04 0.  0.
        5    1    3    3  502    0 -0.50505067575E+03  0.86754048959E+03  0.70278518388E+03  0.12254108661E+04  0.46999998093E+01 0.  1.
       -5    1    3    3    0  502  0.50505067575E+03 -0.86754048959E+03 -0.60752297839E+03  0.11733750234E+04  0.46999998093E+01 0. -1.
</event>
<event>
 5   0  0.9491680E-05  0.2401813E+04  0.7818609E-02  0.8438825E-01
       -2   -1    0    0    0  501  0.00000000000E+00  0.00000000000E+00  0.12776242638E+04  0.12776242638E+04  0.25500000920E-02 0. -1.
        2   -1    0    0  501    0  0.00000000000E+00  0.00000000000E+00 -0.11287951233E+04  0.11287951233E+04  0.25500000920E-02 0.  1.
    10030    2    1    2    0    0  0.00000000000E+00  0.00000000000E+00  0.14882914046E+03  0.24064193871E+04  0.24018126807E+04 0.  0.
        5    1    3    3  502    0  0.10284442761E+04  0.11906092919E+03  0.68408873154E+03  0.12409160393E+04  0.46999998093E+01 0. -1.
       -5    1    3    3    0  502 -0.10284442761E+04 -0.11906092919E+03 -0.53525959109E+03  0.11655033478E+04  0.46999998093E+01 0.  1.
</event>
<event>
 5   0  0.9519092E-05  0.2415821E+04  0.7818609E-02  0.8433604E-01
       -2   -1    0    0    0  501  0.00000000000E+00  0.00000000000E+00  0.11183358340E+04  0.11183358340E+04  0.25500000920E-02 0. -1.
        2   -1    0    0  501    0  0.00000000000E+00  0.00000000000E+00 -0.13046598254E+04  0.13046598254E+04  0.25500000920E-02 0.  1.
    10030    2    1    2    0    0  0.00000000000E+00  0.00000000000E+00 -0.18632399137E+03  0.24229956594E+04  0.24158210480E+04 0.  0.
        4    1    3    3  502    0 -0.40740050348E+03 -0.51455697774E+03  0.92390193098E+03  0.11332874501E+04  0.12699999809E+01 0. -1.
       -4    1    3    3    0  502  0.40740050348E+03  0.51455697774E+03 -0.11102259224E+04  0.12897082093E+04  0.12699999809E+01 0.  1.
</event>
<event>
 5   0  0.4018942E-05  0.2326283E+04  0.7818609E-02  0.8467630E-01
        1   -1    0    0  501    0  0.00000000000E+00  0.00000000000E+00  0.13086574311E+04  0.13086574311E+04  0.50400001928E-02 0. -1.
       -1   -1    0    0    0  501  0.00000000000E+00  0.00000000000E+00 -0.10338061760E+04  0.10338061760E+04  0.50400001928E-02 0.  1.
    10030    2    1    2    0    0  0.00000000000E+00  0.00000000000E+00  0.27485125512E+03  0.23424636071E+04  0.23262829875E+04 0.  0.
        5    1    3    3  502    0 -0.90346911374E+03  0.50476461017E+03  0.67199698458E+03  0.12339553430E+04  0.46999998093E+01 0. -1.
       -5    1    3    3    0  502  0.90346911374E+03 -0.50476461017E+03 -0.39714572946E+03  0.11085082641E+04  0.46999998093E+01 0.  1.
</event>
<event>
 5   0  0.9750757E-05  0.2464247E+04  0.7818609E-02  0.8415835E-01
        2   -1    0    0  501    0  0.00000000000E+00  0.00000000000E+00  0.11415473788E+04  0.11415473788E+04  0.25500000920E-02 0. -1.
       -2   -1    0    0    0  501  0.00000000000E+00  0.00000000000E+00 -0.13298865202E+04  0.13298865202E+04  0.25500000920E-02 0.  1.
    10030    2    1    2    0    0  0.00000000000E+00  0.00000000000E+00 -0.18833914148E+03  0.24714338990E+04  0.24642471234E+04 0.  0.
        2    1    3    3  502    0  0.69135574474E+03  0.73657653492E+03 -0.80164213429E+03  0.12896309042E+04  0.25500000920E-02 0. -1.
       -2    1    3    3    0  502 -0.69135574474E+03 -0.73657653492E+03  0.61330299281E+03  0.11818029948E+04  0.25500000920E-02 0.  1.
</event>
<event>
 5   0  0.3934906E-05  0.2318810E+04  0.7818609E-02  0.8470541E-01
       -1   -1    0    0    0  501  0.00000000000E+00  0.00000000000E+00  0.73791177477E+03  0.73791177479E+03  0.50400001928E-02 0.  1.
        1   -1    0    0  501    0  0.00000000000E+00  0.00000000000E+00 -0.18216534346E+04  0.18216534347E+04  0.50400001928E-02 0. -1.
    10030    2    1    2    0    0  0.00000000000E+00  0.00000000000E+00 -0.10837416599E+04  0.25595652094E+04  0.23188096248E+04 0.  0.
        2    1    3    3  502    0  0.76218711796E+03 -0.53516723265E+03 -0.13041403415E+04  0.16025339934E+04  0.25500000920E-02 0. -1.
       -2    1    3    3    0  502 -0.76218711796E+03  0.53516723265E+03  0.22039868159E+03  0.95703121607E+03  0.25500000920E-02 0.  1.
</event>
<event>
 5   0  0.9750757E-05  0.2392144E+04  0.7818609E-02  0.8442451E-01
        2   -1    0    0  501    0  0.00000000000E+00  0.00000000000E+00  0.18790198838E+04  0.18790198838E+04  0.25500000920E-02 0.  1.
       -2   -1    0    0    0  501  0.00000000000E+00  0.00000000000E+00 -0.76134796190E+03  0.76134796191E+03  0.25500000920E-02 0. -1.
    10030    2    1    2    0    0  0.00000000000E+00  0.00000000000E+00  0.11176719219E+04  0.26403678457E+04  0.23921437741E+04 0.  0.
        2    1    3    3  502    0  0.25469504655E+03 -0.77958082010E+03 -0.40212064728E+03  0.91340945735E+03  0.25500000920E-02 0. -1.
       -2    1    3    3    0  502 -0.25469504655E+03  0.77958082010E+03  0.15197925692E+04  0.17269583884E+04  0.25500000920E-02 0.  1.
</event>
<event>
 5   0  0.4018942E-05  0.2222207E+04  0.7818609E-02  0.8509242E-01
        1   -1    0    0  501    0  0.00000000000E+00  0.00000000000E+00  0.16472615139E+04  0.16472615139E+04  0.50400001928E-02 0. -1.
       -1   -1    0    0    0  501  0.00000000000E+00  0.00000000000E+00 -0.74945643477E+03  0.74945643479E+03  0.50400001928E-02 0.  1.
    10030    2    1    2    0    0  0.00000000000E+00  0.00000000000E+00  0.89780507911E+03  0.23967179487E+04  0.22222067783E+04 0.  0.
        5    1    3    3  502    0 -0.26975756383E+03 -0.84347538267E+03 -0.27484595112E+03  0.92724443987E+03  0.46999998093E+01 0.  1.
       -5    1    3    3    0  502  0.26975756383E+03  0.84347538267E+03  0.11726510302E+04  0.14694735088E+04  0.46999998093E+01 0. -1.
</event>
<event>
 5   0  0.9519092E-05  0.2111070E+04  0.7818609E-02  0.8556383E-01
        2   -1    0    0  501    0  0.00000000000E+00  0.00000000000E+00  0.89755388696E+03  0.89755388696E+03  0.25500000920E-02 0. -1.
       -2   -1    0    0    0  501  0.00000000000E+00  0.00000000000E+00 -0.12413227750E+04  0.12413227750E+04  0.25500000920E-02 0.  1.
    10030    2    1    2    0    0  0.00000000000E+00  0.00000000000E+00 -0.34376888802E+03  0.21388766619E+04  0.21110699483E+04 0.  0.
        4    1    3    3  502    0 -0.49495248542E+02 -0.90149980323E+03  0.38212770560E+03  0.98039526270E+03  0.12699999809E+01 0. -1.
       -4    1    3    3    0  502  0.49495248542E+02  0.90149980323E+03 -0.72589659362E+03  0.11584813992E+04  0.12699999809E+01 0.  1.
</event>
<event>
 5   0  0.4208577E-05  0.1262826E+04  0.7818609E-02  0.9059575E-01
        1   -1    0    0  501    0  0.00000000000E+00  0.00000000000E+00  0.16813316266E+04  0.16813316266E+04  0.50400001928E-02 0.  1.
       -1   -1    0    0    0  501  0.00000000000E+00  0.00000000000E+00 -0.23712288902E+03  0.23712288907E+03  0.50400001928E-02 0. -1.
    10030    2    1    2    0    0  0.00000000000E+00  0.00000000000E+00  0.14442087376E+04  0.19184545157E+04  0.12628257406E+04 0.  0.
        1    1    3    3  502    0 -0.48170159263E+03  0.14342994540E+03  0.14148167561E+03  0.52213565109E+03  0.50400001928E-02 0. -1.
       -1    1    3    3    0  502  0.48170159263E+03 -0.14342994540E+03  0.13027270620E+04  0.13963188646E+04  0.50400001928E-02 0.  1.
</event>
<event>
 5   0  0.4018942E-05  0.2162285E+04  0.7818609E-02  0.8534292E-01
        1   -1    0    0  501    0  0.00000000000E+00  0.00000000000E+00  0.13261128797E+04  0.13261128797E+04  0.50400001928E-02 0.  1.
       -1   -1    0    0    0  501  0.00000000000E+00  0.00000000000E+00 -0.88142542409E+03  0.88142542411E+03  0.50400001928E-02 0. -1.
    10030    2    1    2    0    0  0.00000000000E+00  0.00000000000E+00  0.44468745561E+03  0.22075383038E+04  0.21622854644E+04 0.  0.
        5    1    3    3  502    0 -0.97254450548E+03 -0.13709745826E+03  0.68369598194E+03  0.11967041464E+04  0.46999998093E+01 0.  1.
       -5    1    3    3    0  502  0.97254450548E+03  0.13709745826E+03 -0.23900852634E+03  0.10108341574E+04  0.46999998093E+01 0. -1.
</event>
<event>
 5   0  0.4208577E-05  0.2377851E+04  0.7818609E-02  0.8447843E-01
        1   -1    0    0  501    0  0.00000000000E+00  0.00000000000E+00  0.11467413818E+04  0.11467413818E+04  0.50400001928E-02 0.  1.
       -1   -1    0    0    0  501  0.00000000000E+00  0.00000000000E+00 -0.12326610135E+04  0.12326610135E+04  0.50400001928E-02 0. -1.
    10030    2    1    2    0    0  0.00000000000E+00  0.00000000000E+00 -0.85919631668E+02  0.23794023954E+04  0.23778506210E+04 0.  0.
        1    1    3    3  502    0  0.74316672133E+03  0.19113356070E+03  0.86577080505E+03  0.11568871598E+04  0.50400001928E-02 0.  1.
       -1    1    3    3    0  502 -0.74316672133E+03 -0.19113356070E+03 -0.95169043672E+03  0.12225152355E+04  0.50400001928E-02 0. -1.
</event>
<event>
 5   0  0.9750757E-05  0.2301440E+04  0.7818609E-02  0.8477353E-01
       -2   -1    0    0    0  501  0.00000000000E+00  0.00000000000E+00  0.65840086797E+03  0.65840086798E+03  0.25500000920E-02 0. -1.
        2   -1    0    0  501    0  0.00000000000E+00  0.00000000000E+00 -0.20111710749E+04  0.20111710749E+04  0.25500000920E-02 0.  1.
    10030    2    1    2    0    0  0.00000000000E+00  0.00000000000E+00 -0.13527702069E+04  0.26695719428E+04  0.23014402285E+04 0.  0.
        2    1    3    3  502    0 -0.88742264417E+03 -0.67590306773E+03 -0.10040455250E+04  0.15008235482E+04  0.25500000920E-02 0. -1.
       -2    1    3    3    0  502  0.88742264417E+03  0.67590306773E+03 -0.34872468185E+03  0.11687483947E+04  0.25500000920E-02 0.  1.
</event>
<event>
 5   0  0.9182865E-05  0.2363642E+04  0.7818609E-02  0.8453242E-01
        2   -1    0    0  501    0  0.00000000000E+00  0.00000000000E+00  0.12415813256E+04  0.12415813256E+04  0.25500000920E-02 0.  1.
       -2   -1    0    0    0  501  0.00000000000E+00  0.00000000000E+00 -0.11249372462E+04  0.11249372462E+04  0.25500000920E-02 0. -1.
    10030    2    1    2    0    0  0.00000000000E+00  0.00000000000E+00  0.11664407934E+03  0.23665185718E+04  0.23636421704E+04 0.  0.
        3    1    3    3  502    0  0.60037446992E+03  0.66298865894E+03 -0.71508003591E+03  0.11451388274E+04  0.10100000352E+00 0. -1.
       -3    1    3    3    0  502 -0.60037446992E+03 -0.66298865894E+03  0.83172411525E+03  0.12213797444E+04  0.10100000352E+00 0.  1.
</event>
<event>
 5   0  0.4018942E-05  0.2320913E+04  0.7818609E-02  0.8469721E-01
       -1   -1    0    0    0  501  0.00000000000E+00  0.00000000000E+00  0.10722707415E+04  0.10722707415E+04  0.50400001928E-02 0. -1.
        1   -1    0    0  501    0  0.00000000000E+00  0.00000000000E+00 -0.12558947311E+04  0.12558947312E+04  0.50400001928E-02 0.  1.
    10030    2    1    2    0    0  0.00000000000E+00  0.00000000000E+00 -0.18362398962E+03  0.23281654727E+04  0.23209129020E+04 0.  0.
        5    1    3    3  502    0 -0.52528441039E+03 -0.96849692476E+03 -0.45726772077E+03  0.11929064773E+04  0.46999998093E+01 0.  1.
       -5    1    3    3    0  502  0.52528441039E+03  0.96849692476E+03  0.27364373115E+03  0.11352589954E+04  0.46999998093E+01 0. -1.
</event>
<event>
 5   0  0.9491680E-05  0.2394279E+04  0.7818609E-02  0.8441649E-01
       -2   -1    0    0    0  501  0.00000000000E+00  0.00000000000E+00  0.90261566600E+03  0.90261566600E+03  0.25500000920E-02 0. -1.
        2   -1    0    0  501    0  0.00000000000E+00  0.00000000000E+00 -0.15877660408E+04  0.15877660408E+04  0.25500000920E-02 0.  1.
    10030    2    1    2    0    0  0.00000000000E+00  0.00000000000E+00 -0.68515037481E+03  0.24903817068E+04  0.23942785990E+04 0.  0.
        5    1    3    3  502    0  0.11265641282E+04  0.14455179359E+03 -0.73601504749E+03  0.13534334842E+04  0.46999998093E+01 0.  1.
       -5    1    3    3    0  502 -0.11265641282E+04 -0.14455179359E+03  0.50864672672E+02  0.11369482226E+04  0.46999998093E+01 0. -1.
</event>
<event>
 5   0  0.9491680E-05  0.2570237E+04  0.7818609E-02  0.8378382E-01
       -2   -1    0    0    0  501  0.00000000000E+00  0.00000000000E+00  0.95047227913E+03  0.95047227914E+03  0.25500000920E-02 0. -1.
        2   -1    0    0  501    0  0.00000000000E+00  0.00000000000E+00 -0.17375882643E+04  0.17375882643E+04  0.25500000920E-02 0.  1.
    10030    2    1    2    0    0  0.00000000000E+00  0.00000000000E+00 -0.78711598517E+03  0.26880605434E+04  0.25702369368E+04 0.  0.
        5    1    3    3  502    0 -0.50193044689E+02  0.97062692113E+03  0.48574003478E+03  0.10865548459E+04  0.46999998093E+01 0. -1.
       -5    1    3    3    0  502  0.50193044689E+02 -0.97062692113E+03 -0.12728560199E+04  0.16015056975E+04  0.46999998093E+01 0.  1.
</event>
<event>
 5   0  0.9491680E-05  0.2422342E+04  0.7818609E-02  0.8431186E-01
       -2   -1    0    0    0  501  0.00000000000E+00  0.00000000000E+00  0.18847377940E+04  0.18847377940E+04  0.25500000920E-02 0. -1.
        2   -1    0    0  501    0  0.00000000000E+00  0.00000000000E+00 -0.77832342241E+03  0.77832342241E+03  0.25500000920E-02 0.  1.
    10030    2    1    2    0    0  0.00000000000E+00  0.00000000000E+00  0.11064143716E+04  0.26630612164E+04  0.24223423129E+04 0.  0.
        5    1    3    3  502    0  0.30487911959E+02  0.16277771336E+03 -0.76580730205E+03  0.78352345888E+03  0.46999998093E+01 0.  1.
       -5    1    3    3    0  502 -0.30487911959E+02 -0.16277771336E+03  0.18722216736E+04  0.18795377575E+04  0.46999998093E+01 0. -1.
</event>
<event>
 5   0  0.4208577E-05  0.1193289E+04  0.7818609E-02  0.9118751E-01
        1   -1    0    0  501    0  0.00000000000E+00  0.00000000000E+00  0.82710088049E+03  0.82710088051E+03  0.50400001928E-02 0.  1.
       -1   -1    0    0    0  501  0.00000000000E+00  0.00000000000E+00 -0.43040028244E+03  0.43040028247E+03  0.50400001928E-02 0. -1.
    10030    2    1    2    0    0  0.00000000000E+00  0.00000000000E+00  0.39670059805E+03  0.12575011630E+04  0.11932886534E+04 0.  0.
        1    1    3    3  502    0 -0.72020242489E+02 -0.47419287420E+03 -0.17562456265E+03  0.51077371144E+03  0.50400001928E-02 0. -1.
       -1    1    3    3    0  502  0.72020242489E+02  0.47419287420E+03  0.57232516071E+03  0.74672745153E+03  0.50400001928E-02 0.  1.
</event>
<event>
 5   0  0.9519092E-05  0.2412258E+04  0.7818609E-02  0.8434928E-01
       -2   -1    0    0    0  501  0.00000000000E+00  0.00000000000E+00  0.87111496394E+03  0.87111496395E+03  0.25500000920E-02 0. -1.
        2   -1    0    0  501    0  0.00000000000E+00  0.00000000000E+00 -0.16699836543E+04  0.16699836543E+04  0.25500000920E-02 0.  1.
    10030    2    1    2    0    0  0.00000000000E+00  0.00000000000E+00 -0.79886869035E+03  0.25410986182E+04  0.24122584860E+04 0.  0.
        4    1    3    3  502    0  0.74467776333E+03  0.67019711928E+03  0.30802869551E+03  0.10481376055E+04  0.12699999809E+01 0. -1.
       -4    1    3    3    0  502 -0.74467776333E+03 -0.67019711928E+03 -0.11068973859E+04  0.14929610128E+04  0.12699999809E+01 0.  1.
</event>
<event>
 5   0  0.4208577E-05  0.2330289E+04  0.7818609E-02  0.8466073E-01
        1   -1    0    0  501    0  0.00000000000E+00  0.00000000000E+00  0.12063729712E+04  0.12063729712E+04  0.50400001928E-02 0.  1.
       -1   -1    0    0    0  501  0.00000000000E+00  0.00000000000E+00 -0.11253251229E+04  0.11253251229E+04  0.50400001928E-02 0. -1.
    10030    2    1    2    0    0  0.00000000000E+00  0.00000000000E+00  0.81047848289E+02  0.23316980941E+04  0.23302890911E+04 0.  0.
        1    1    3    3  502    0 -0.53931387014E+01  0.11474975496E+04 -0.16154396606E+03  0.11588253386E+04  0.50400001928E-02 0. -1.
       -1    1    3    3    0  502  0.53931387014E+01 -0.11474975496E+04  0.24259181435E+03  0.11728727555E+04  0.50400001928E-02 0.  1.
</event>
<event>
 5   0  0.4061631E-05  0.2419814E+04  0.7818609E-02  0.8432122E-01
       -1   -1    0    0    0  501  0.00000000000E+00  0.00000000000E+00  0.11517144133E+04  0.11517144133E+04  0.50400001928E-02 0. -1.
        1   -1    0    0  501    0  0.00000000000E+00  0.00000000000E+00 -0.12710401769E+04  0.12710401769E+04  0.50400001928E-02 0.  1.
    10030    2    1    2    0    0  0.00000000000E+00  0.00000000000E+00 -0.11932576366E+03  0.24227545902E+04  0.24198142835E+04 0.  0.
        3    1    3    3  502    0 -0.21789821107E+02  0.71908352511E+03  0.91430862908E+03  0.11634071479E+04  0.10100000352E+00 0. -1.
       -3    1    3    3    0  502  0.21789821107E+02 -0.71908352511E+03 -0.10336343927E+04  0.12593474423E+04  0.10100000352E+00 0.  1.
</event>
<event>
 5   0  0.3934906E-05  0.2381762E+04  0.7818609E-02  0.8446363E-01
       -1   -1    0    0    0  501  0.00000000000E+00  0.00000000000E+00  0.60519730822E+03  0.60519730824E+03  0.50400001928E-02 0.  1.
        1   -1    0    0  501    0  0.00000000000E+00  0.00000000000E+00 -0.23433629761E+04  0.23433629761E+04  0.50400001928E-02 0. -1.
    10030    2    1    2    0    0  0.00000000000E+00  0.00000000000E+00 -0.17381656679E+04  0.29485602844E+04  0.23817615039E+04 0.  0.
        2    1    3    3  502    0  0.55176142539E+03 -0.43001398551E+03  0.32403460202E+03  0.77094171089E+03  0.25500000920E-02 0.  1.
       -2    1    3    3    0  502 -0.55176142539E+03  0.43001398551E+03 -0.20622002699E+04  0.21776185735E+04  0.25500000920E-02 0. -1.
</event>
<event>
 5   0  0.9519092E-05  0.2357692E+04  0.7818609E-02  0.8455515E-01
       -2   -1    0    0    0  501  0.00000000000E+00  0.00000000000E+00  0.80596570266E+03  0.80596570266E+03  0.25500000920E-02 0.  1.
        2   -1    0    0  501    0  0.00000000000E+00  0.00000000000E+00 -0.17242400551E+04  0.17242400551E+04  0.25500000920E-02 0. -1.
    10030    2    1    2    0    0  0.00000000000E+00  0.00000000000E+00 -0.91827435248E+03  0.25302057578E+04  0.23576923867E+04 0.  0.
        4    1    3    3  502    0 -0.54970346217E+03 -0.45858117226E+03  0.54598656608E+03  0.90031857201E+03  0.12699999809E+01 0.  1.
       -4    1    3    3    0  502  0.54970346217E+03  0.45858117226E+03 -0.14642609186E+04  0.16298871858E+04  0.12699999809E+01 0. -1.
</event>
<event>
 5   0  0.4260395E-05  0.2082630E+04  0.7818609E-02  0.8568934E-01
       -1   -1    0    0    0  501  0.00000000000E+00  0.00000000000E+00  0.65263708332E+03  0.65263708334E+03  0.50400001928E-02 0. -1.
        1   -1    0    0  501    0  0.00000000000E+00  0.00000000000E+00 -0.16614706252E+04  0.16614706252E+04  0.50400001928E-02 0.  1.
    10030    2    1    2    0    0  0.00000000000E+00  0.00000000000E+00 -0.10088335419E+04  0.23141077085E+04  0.20826303973E+04 0.  0.
        4    1    3    3  502    0 -0.10249544138E+04 -0.11317611173E+03 -0.34341416731E+03  0.10868648885E+04  0.12699999809E+01 0. -1.
       -4    1    3    3    0  502  0.10249544138E+04  0.11317611173E+03 -0.66541937457E+03  0.12272428201E+04  0.12699999809E+01 0.  1.
</event>
<event>
 5   0  0.4061631E-05  0.2387845E+04  0.7818609E-02  0.8444068E-01
       -1   -1    0    0    0  501  0.00000000000E+00  0.00000000000E+00  0.11864523568E+04  0.11864523568E+04  0.50400001928E-02 0. -1.
        1   -1    0    0  501    0  0.00000000000E+00  0.00000000000E+00 -0.12014401231E+04  0.12014401231E+04  0.50400001928E-02 0.  1.
    10030    2    1    2    0    0  0.00000000000E+00  0.00000000000E+00 -0.14987766310E+02  0.23878924800E+04  0.23878454437E+04 0.  0.
        3    1    3    3  502    0  0.98507055237E+03 -0.65194429071E+03 -0.18086426206E+03  0.11950344107E+04  0.10100000352E+00 0.  1.
       -3    1    3    3    0  502 -0.98507055237E+03  0.65194429071E+03  0.16587649575E+03  0.11928580693E+04  0.10100000352E+00 0. -1.
</event>
<event>
 5   0  0.9144244E-05  0.2048711E+04  0.7818609E-02  0.8584179E-01
        2   -1    0    0  501    0  0.00000000000E+00  0.00000000000E+00  0.19801001714E+04  0.19801001714E+04  0.25500000920E-02 0.  1.
       -2   -1    0    0    0  501  0.00000000000E+00  0.00000000000E+00 -0.52992484975E+03  0.52992484975E+03  0.25500000920E-02 0. -1.
    10030    2    1    2    0    0  0.00000000000E+00  0.00000000000E+00  0.14501753217E+04  0.25100250212E+04  0.20487110932E+04 0.  0.
        1    1    3    3  502    0 -0.12209687826E+03 -0.95735214466E+03  0.11457226918E+04  0.14980358017E+04  0.50400001928E-02 0.  1.
       -1    1    3    3    0  502  0.12209687826E+03  0.95735214466E+03  0.30445262990E+03  0.10119892195E+04  0.50400001928E-02 0. -1.
</event>
<event>
 5   0  0.9491680E-05  0.2399006E+04  0.7818609E-02  0.8439876E-01
       -2   -1    0    0    0  501  0.00000000000E+00  0.00000000000E+00  0.22889427835E+04  0.22889427835E+04  0.25500000920E-02 0.  1.
        2   -1    0    0  501    0  0.00000000000E+00  0.00000000000E+00 -0.62859064838E+03  0.62859064838E+03  0.25500000920E-02 0. -1.
    10030    2    1    2    0    0  0.00000000000E+00  0.00000000000E+00  0.16603521351E+04  0.29175334319E+04  0.23990064847E+04 0.  0.
        5    1    3    3  502    0 -0.97376689921E+03  0.69769113155E+02  0.16777289164E+04  0.19411043532E+04  0.46999998093E+01 0. -1.
       -5    1    3    3    0  502  0.97376689921E+03 -0.69769113155E+02 -0.17376781267E+02  0.97642907867E+03  0.46999998093E+01 0.  1.
</event>
<event>
 5   0  0.4260395E-05  0.1479564E+04  0.7818609E-02  0.8898158E-01
        1   -1    0    0  501    0  0.00000000000E+00  0.00000000000E+00  0.13172263053E+04  0.13172263053E+04  0.50400001928E-02 0. -1.
       -1   -1    0    0    0  501  0.00000000000E+00  0.00000000000E+00 -0.41547711045E+03  0.41547711048E+03  0.50400001928E-02 0.  1.
    10030    2    1    2    0    0  0.00000000000E+00  0.00000000000E+00  0.90174919481E+03  0.17327034157E+04  0.14795639616E+04 0.  0.
        4    1    3    3  502    0  0.31844176579E+03 -0.35665227363E+03  0.11119650973E+04  0.12104024096E+04  0.12699999809E+01 0. -1.
       -4    1    3    3    0  502 -0.31844176579E+03  0.35665227363E+03 -0.21021590252E+03  0.52230100618E+03  0.12699999809E+01 0.  1.
</event>
<event>
 5   0  0.9519092E-05  0.2333499E+04  0.7818609E-02  0.8464829E-01
        2   -1    0    0  501    0  0.00000000000E+00  0.00000000000E+00  0.16848085913E+04  0.16848085913E+04  0.25500000920E-02 0. -1.
       -2   -1    0    0    0  501  0.00000000000E+00  0.00000000000E+00 -0.80798784446E+03  0.80798784447E+03  0.25500000920E-02 0.  1.
    10030    2    1    2    0    0  0.00000000000E+00  0.00000000000E+00  0.87682074683E+03  0.24927964358E+04  0.23334993996E+04 0.  0.
        4    1    3    3  502    0 -0.51948633521E+02  0.86772023008E+03  0.12697831268E+04  0.15388267805E+04  0.12699999809E+01 0. -1.
       -4    1    3    3    0  502  0.51948633521E+02 -0.86772023008E+03 -0.39296238000E+03  0.95396965529E+03  0.12699999809E+01 0.  1.
</event>
<event>
 5   0  0.9750757E-05  0.2228944E+04  0.7818609E-02  0.8506477E-01
        2   -1    0    0  501    0  0.00000000000E+00  0.00000000000E+00  0.23326221690E+04  0.23326221690E+04  0.25500000920E-02 0. -1.
       -2   -1    0    0    0  501  0.00000000000E+00  0.00000000000E+00 -0.53246861657E+03  0.53246861658E+03  0.25500000920E-02 0.  1.
    10030    2    1    2    0    0  0.00000000000E+00  0.00000000000E+00  0.18001535525E+04  0.28650907856E+04  0.22289442338E+04 0.  0.
        2    1    3    3  502    0 -0.29812576432E+03  0.47427020688E+03 -0.33834505461E+03  0.65443760319E+03  0.25500000920E-02 0.  1.
       -2    1    3    3    0  502  0.29812576432E+03 -0.47427020688E+03  0.21384986071E+04  0.22106531824E+04  0.25500000920E-02 0. -1.
</event>
<event>
 5   0  0.4208577E-05  0.2383845E+04  0.7818609E-02  0.8445577E-01
        1   -1    0    0  501    0  0.00000000000E+00  0.00000000000E+00  0.10391314576E+04  0.10391314576E+04  0.50400001928E-02 0.  1.
       -1   -1    0    0    0  501  0.00000000000E+00  0.00000000000E+00 -0.13671792212E+04  0.13671792212E+04  0.50400001928E-02 0. -1.
    10030    2    1    2    0    0  0.00000000000E+00  0.00000000000E+00 -0.32804776362E+03  0.24063106788E+04  0.23838447407E+04 0.  0.
        1    1    3    3  502    0 -0.10730853362E+04 -0.49532681073E+03 -0.31980963336E+03  0.12243933150E+04  0.50400001928E-02 0. -1.
       -1    1    3    3    0  502  0.10730853362E+04  0.49532681073E+03 -0.82381302533E+01  0.11819173638E+04  0.50400001928E-02 0.  1.
</event>
<event>
 5   0  0.9750757E-05  0.2423449E+04  0.7818609E-02  0.8430777E-01
       -2   -1    0    0    0  501  0.00000000000E+00  0.00000000000E+00  0.12551241333E+04  0.12551241333E+04  0.25500000920E-02 0.  1.
        2   -1    0    0  501    0  0.00000000000E+00  0.00000000000E+00 -0.11698253057E+04  0.11698253057E+04  0.25500000920E-02 0. -1.
    10030    2    1    2    0    0  0.00000000000E+00  0.00000000000E+00  0.85298827558E+02  0.24249494390E+04  0.24234487599E+04 0.  0.
        2    1    3    3  502    0  0.21360771983E+03  0.34551522213E+03 -0.10996646838E+04  0.11722932412E+04  0.25500000920E-02 0. -1.
       -2    1    3    3    0  502 -0.21360771983E+03 -0.34551522213E+03  0.11849635113E+04  0.12526561978E+04  0.25500000920E-02 0.  1.
</event>
<event>
 5   0  0.3934906E-05  0.2384024E+04  0.7818609E-02  0.8445509E-01
       -1   -1    0    0    0  501  0.00000000000E+00  0.00000000000E+00  0.65347467425E+03  0.65347467427E+03  0.50400001928E-02 0. -1.
        1   -1    0    0  501    0  0.00000000000E+00  0.00000000000E+00 -0.21743645590E+04  0.21743645590E+04  0.50400001928E-02 0.  1.
    10030    2    1    2    0    0  0.00000000000E+00  0.00000000000E+00 -0.15208898847E+04  0.28278392332E+04  0.23840236340E+04 0.  0.
        2    1    3    3  502    0 -0.42191917117E+03 -0.32768639766E+03 -0.20244166349E+04  0.20937184323E+04  0.25500000920E-02 0.  1.
       -2    1    3    3    0  502  0.42191917117E+03  0.32768639766E+03  0.50352675016E+03  0.73412080092E+03  0.25500000920E-02 0. -1.
</event>
<event>
 5   0  0.4208577E-05  0.2360484E+04  0.7818609E-02  0.8454448E-01
        1   -1    0    0  501    0  0.00000000000E+00  0.00000000000E+00  0.13729369585E+04  0.13729369585E+04  0.50400001928E-02 0.  1.
       -1   -1    0    0    0  501  0.00000000000E+00  0.00000000000E+00 -0.10145923083E+04  0.10145923083E+04  0.50400001928E-02 0. -1.
    10030    2    1    2    0    0  0.00000000000E+00  0.00000000000E+00  0.35834465020E+03  0.23875292667E+04  0.23604840841E+04 0.  0.
        1    1    3    3  502    0 -0.32391258525E+03 -0.35578544863E+03 -0.91089010000E+03  0.10301569893E+04  0.50400001928E-02 0. -1.
       -1    1    3    3    0  502  0.32391258525E+03  0.35578544863E+03  0.12692347502E+04  0.13573722774E+04  0.50400001928E-02 0.  1.
</event>
<event>
 5   0  0.9144244E-05  0.2411475E+04  0.7818609E-02  0.8435220E-01
        2   -1    0    0  501    0  0.00000000000E+00  0.00000000000E+00  0.12804306441E+04  0.12804306441E+04  0.25500000920E-02 0.  1.
       -2   -1    0    0    0  501  0.00000000000E+00  0.00000000000E+00 -0.11354019049E+04  0.11354019049E+04  0.25500000920E-02 0. -1.
    10030    2    1    2    0    0  0.00000000000E+00  0.00000000000E+00  0.14502873916E+03  0.24158325490E+04  0.24114753927E+04 0.  0.
        1    1    3    3  502    0 -0.37121704643E+03 -0.11467821879E+04  0.10243319804E+03  0.12097123799E+04  0.50400001928E-02 0.  1.
       -1    1    3    3    0  502  0.37121704643E+03  0.11467821879E+04  0.42595541118E+02  0.12061201690E+04  0.50400001928E-02 0. -1.
</event>
<event>
 5   0  0.9750757E-05  0.2423778E+04  0.7818609E-02  0.8430655E-01
        2   -1    0    0  501    0  0.00000000000E+00  0.00000000000E+00  0.23819027729E+04  0.23819027729E+04  0.25500000920E-02 0.  1.
       -2   -1    0    0    0  501  0.00000000000E+00  0.00000000000E+00 -0.61659726603E+03  0.61659726604E+03  0.25500000920E-02 0. -1.
    10030    2    1    2    0    0  0.00000000000E+00  0.00000000000E+00  0.17653055068E+04  0.29985000389E+04  0.24237778262E+04 0.  0.
        2    1    3    3  502    0  0.73980604741E+03  0.39690041105E+03 -0.19855741681E+03  0.86270966835E+03  0.25500000920E-02 0. -1.
       -2    1    3    3    0  502 -0.73980604741E+03 -0.39690041105E+03  0.19638629236E+04  0.21357903705E+04  0.25500000920E-02 0.  1.
</event>
<event>
 5   0  0.4208577E-05  0.2340403E+04  0.7818609E-02  0.8462159E-01
        1   -1    0    0  501    0  0.00000000000E+00  0.00000000000E+00  0.93211993881E+03  0.93211993882E+03  0.50400001928E-02 0.  1.
       -1   -1    0    0    0  501  0.00000000000E+00  0.00000000000E+00 -0.14690934415E+04  0.14690934415E+04  0.50400001928E-02 0. -1.
    10030    2    1    2    0    0  0.00000000000E+00  0.00000000000E+00 -0.53697350273E+03  0.24012133804E+04  0.23404027763E+04 0.  0.
        1    1    3    3  502    0  0.27125153938E+03 -0.74698486267E+03 -0.11497622272E+04  0.13976827114E+04  0.50400001928E-02 0. -1.
       -1    1    3    3    0  502 -0.27125153938E+03  0.74698486267E+03  0.61278872447E+03  0.10035306690E+04  0.50400001928E-02 0.  1.
</event>
<event>
 5   0  0.3934906E-05  0.2360750E+04  0.7818609E-02  0.8454346E-01
       -1   -1    0    0    0  501  0.00000000000E+00  0.00000000000E+00  0.14768305244E+04  0.14768305244E+04  0.50400001928E-02 0. -1.
        1   -1    0    0  501    0  0.00000000000E+00  0.00000000000E+00 -0.94342961925E+03  0.94342961926E+03  0.50400001928E-02 0.  1.
    10030    2    1    2    0    0  0.00000000000E+00  0.00000000000E+00  0.53340090518E+03  0.24202601437E+04  0.23607504395E+04 0.  0.
        2    1    3    3  502    0 -0.11646415295E+02  0.82810805994E+03  0.11289649914E+04  0.14001644724E+04  0.25500000920E-02 0.  1.
       -2    1    3    3    0  502  0.11646415295E+02 -0.82810805994E+03 -0.59556408618E+03  0.10200956713E+04  0.25500000920E-02 0. -1.
</event>
<event>
 5   0  0.9144244E-05  0.2334829E+04  0.7818609E-02  0.8464314E-01
       -2   -1    0    0    0  501  0.00000000000E+00  0.00000000000E+00  0.51649372246E+03  0.51649372246E+03  0.25500000920E-02 0.  1.
        2   -1    0    0  501    0  0.00000000000E+00  0.00000000000E+00 -0.26386712510E+04  0.26386712510E+04  0.25500000920E-02 0. -1.
    10030    2    1    2    0    0  0.00000000000E+00  0.00000000000E+00 -0.21221775285E+04  0.31551649734E+04  0.23348294471E+04 0.  0.
        1    1    3    3  502    0 -0.83379425893E+03 -0.60402107893E+03 -0.18047015666E+04  0.20777396552E+04  0.50400001928E-02 0. -1.
       -1    1    3    3    0  502  0.83379425893E+03  0.60402107893E+03 -0.31747596187E+03  0.10774253183E+04  0.50400001928E-02 0.  1.
</event>
<event>
 5   0  0.3934906E-05  0.2457244E+04  0.7818609E-02  0.8418378E-01
       -1   -1    0    0    0  501  0.00000000000E+00  0.00000000000E+00  0.17547486668E+04  0.17547486668E+04  0.50400001928E-02 0. -1.
        1   -1    0    0  501    0  0.00000000000E+00  0.00000000000E+00 -0.86024390126E+03  0.86024390128E+03  0.50400001928E-02 0.  1.
    10030    2    1    2    0    0  0.00000000000E+00  0.00000000000E+00  0.89450476554E+03  0.26149925681E+04  0.24572438535E+04 0.  0.
        2    1    3    3  502    0  0.72973143244E+03  0.19752795659E+03  0.14779244694E+04  0.16600560215E+04  0.25500000920E-02 0. -1.
       -2    1    3    3    0  502 -0.72973143244E+03 -0.19752795659E+03 -0.58341970389E+03  0.95493654660E+03  0.25500000920E-02 0.  1.
</event>
<event>
 5   0  0.4061631E-05  0.2445196E+04  0.7818609E-02  0.8422774E-01
        1   -1    0    0  501    0  0.00000000000E+00  0.00000000000E+00  0.10984171084E+04  0.10984171084E+04  0.50400001928E-02 0.  1.
       -1   -1    0    0    0  501  0.00000000000E+00  0.00000000000E+00 -0.13608181558E+04  0.13608181558E+04  0.50400001928E-02 0. -1.
    10030    2    1    2    0    0  0.00000000000E+00  0.00000000000E+00 -0.26240104741E+03  0.24592352642E+04  0.24451960606E+04 0.  0.
        3    1    3    3  502    0 -0.27965006933E+03 -0.11948517108E+03  0.10597711924E+04  0.11025406378E+04  0.10100000352E+00 0.  1.
       -3    1    3    3    0  502  0.27965006933E+03  0.11948517108E+03 -0.13221722398E+04  0.13566946264E+04  0.10100000352E+00 0. -1.
</event>
<event>
 5   0  0.9144244E-05  0.2439465E+04  0.7818609E-02  0.8424874E-01
       -2   -1    0    0    0  501  0.00000000000E+00  0.00000000000E+00  0.14499606845E+04  0.14499606845E+04  0.25500000920E-02 0. -1.
        2   -1    0    0  501    0  0.00000000000E+00  0.00000000000E+00 -0.10260606068E+04  0.10260606068E+04  0.25500000920E-02 0.  1.
    10030    2    1    2    0    0  0.00000000000E+00  0.00000000000E+00  0.42390007776E+03  0.24760212913E+04  0.24394651379E+04 0.  0.
        1    1    3    3  502    0 -0.39483802411E+03 -0.32472203257E+03 -0.91207738069E+03  0.10455747760E+04  0.50400001928E-02 0.  1.
       -1    1    3    3    0  502  0.39483802411E+03  0.32472203257E+03  0.13359774585E+04  0.14304465153E+04  0.50400001928E-02 0. -1.
</event>
<event>
 5   0  0.9519092E-05  0.2346476E+04  0.7818609E-02  0.8459818E-01
       -2   -1    0    0    0  501  0.00000000000E+00  0.00000000000E+00  0.72335260051E+03  0.72335260052E+03  0.25500000920E-02 0. -1.
        2   -1    0    0  501    0  0.00000000000E+00  0.00000000000E+00 -0.19029271662E+04  0.19029271662E+04  0.25500000920E-02 0.  1.
    10030    2    1    2    0    0  0.00000000000E+00  0.00000000000E+00 -0.11795745657E+04  0.26262797668E+04  0.23464759230E+04 0.  0.
        4    1    3    3  502    0 -0.58632607487E+03 -0.30950825204E+03  0.49357647810E+03  0.82655488431E+03  0.12699999809E+01 0. -1.
       -4    1    3    3    0  502  0.58632607487E+03  0.30950825204E+03 -0.16731510438E+04  0.17997248824E+04  0.12699999809E+01 0.  1.
</event>
<event>
 5   0  0.9519092E-05  0.2416623E+04  0.7818609E-02  0.8433306E-01
        2   -1    0    0  501    0  0.00000000000E+00  0.00000000000E+00  0.12338535306E+04  0.12338535306E+04  0.25500000920E-02 0.  1.
       -2   -1    0    0    0  501  0.00000000000E+00  0.00000000000E+00 -0.11832986181E+04  0.11832986181E+04  0.25500000920E-02 0. -1.
    10030    2    1    2    0    0  0.00000000000E+00  0.00000000000E+00  0.50554912549E+02  0.24171521487E+04  0.24166234111E+04 0.  0.
        4    1    3    3  502    0 -0.92424352989E+03 -0.50150582570E+03  0.62062308181E+03  0.12210277713E+04  0.12699999809E+01 0.  1.
       -4    1    3    3    0  502  0.92424352989E+03  0.50150582570E+03 -0.57006816926E+03  0.11961243774E+04  0.12699999809E+01 0. -1.
</event>
<event>
 5   0  0.9182865E-05  0.2418169E+04  0.7818609E-02  0.8432733E-01
        2   -1    0    0  501    0  0.00000000000E+00  0.00000000000E+00  0.17816613907E+04  0.17816613907E+04  0.25500000920E-02 0.  1.
       -2   -1    0    0    0  501  0.00000000000E+00  0.00000000000E+00 -0.82051797185E+03  0.82051797185E+03  0.25500000920E-02 0. -1.
    10030    2    1    2    0    0  0.00000000000E+00  0.00000000000E+00  0.96114341880E+03  0.26021793625E+04  0.24181688864E+04 0.  0.
        3    1    3    3  502    0  0.10292828272E+04 -0.48961021153E+03  0.91468485404E+03  0.14614341210E+04  0.10100000352E+00 0.  1.
       -3    1    3    3    0  502 -0.10292828272E+04  0.48961021153E+03  0.46458564760E+02  0.11407452415E+04  0.10100000352E+00 0. -1.
</event>
<event>
 5   0  0.4208577E-05  0.2352442E+04  0.7818609E-02  0.8457526E-01
       -1   -1    0    0    0  501  0.00000000000E+00  0.00000000000E+00  0.89204903356E+03  0.89204903358E+03  0.50400001928E-02 0. -1.
        1   -1    0    0  501    0  0.00000000000E+00  0.00000000000E+00 -0.15509195353E+04  0.15509195353E+04  0.50400001928E-02 0.  1.
    10030    2    1    2    0    0  0.00000000000E+00  0.00000000000E+00 -0.65887050169E+03  0.24429685688E+04  0.23524423671E+04 0.  0.
        1    1    3    3  502    0 -0.45339423472E+03 -0.83443140859E+03 -0.10501552062E+04  0.14158630106E+04  0.50400001928E-02 0.  1.
       -1    1    3    3    0  502  0.45339423472E+03  0.83443140859E+03  0.39128470450E+03  0.10271055582E+04  0.50400001928E-02 0. -1.
</event>
<event>
 5   0  0.9750757E-05  0.2268238E+04  0.7818609E-02  0.8490551E-01
        2   -1    0    0  501    0  0.00000000000E+00  0.00000000000E+00  0.12301066561E+04  0.12301066561E+04  0.25500000920E-02 0.  1.
       -2   -1    0    0    0  501  0.00000000000E+00  0.00000000000E+00 -0.10456218390E+04  0.10456218390E+04  0.25500000920E-02 0. -1.
    10030    2    1    2    0    0  0.00000000000E+00  0.00000000000E+00  0.18448481709E+03  0.22757284951E+04  0.22682384213E+04 0.  0.
        2    1    3    3  502    0  0.24330568301E+03  0.72774992417E+01  0.12035895519E+04  0.12279570134E+04  0.25500000920E-02 0.  1.
       -2    1    3    3    0  502 -0.24330568301E+03 -0.72774992417E+01 -0.10191047348E+04  0.10477714817E+04  0.25500000920E-02 0. -1.
</event>
<event>
 5   0  0.9144244E-05  0.2314476E+04  0.7818609E-02  0.8472235E-01
        2   -1    0    0  501    0  0.00000000000E+00  0.00000000000E+00  0.15944378667E+04  0.15944378667E+04  0.25500000920E-02 0.  1.
       -2   -1    0    0    0  501  0.00000000000E+00  0.00000000000E+00 -0.83991956722E+03  0.83991956723E+03  0.25500000920E-02 0. -1.
    10030    2    1    2    0    0  0.00000000000E+00  0.00000000000E+00  0.75451829943E+03  0.24343574339E+04  0.23144758050E+04 0.  0.
        1    1    3    3  502    0  0.50105353283E+03 -0.77476208150E+03  0.11119287205E+04  0.14448862949E+04  0.50400001928E-02 0.  1.
       -1    1    3    3    0  502 -0.50105353283E+03  0.77476208150E+03 -0.35741042110E+03  0.98947113896E+03  0.50400001928E-02 0. -1.
</event>
<event>
 5   0  0.3934906E-05  0.1841769E+04  0.7818609E-02  0.8684397E-01
       -1   -1    0    0    0  501  0.00000000000E+00  0.00000000000E+00  0.35365742495E+03  0.35365742498E+03  0.50400001928E-02 0.  1.
        1   -1    0    0  501    0  0.00000000000E+00  0.00000000000E+00 -0.23978816809E+04  0.23978816809E+04  0.50400001928E-02 0. -1.
    10030    2    1    2    0    0  0.00000000000E+00  0.00000000000E+00 -0.20442242559E+04  0.27515391059E+04  0.18417694325E+04 0.  0.
        2    1    3    3  502    0 -0.55327126196E+02  0.25260745974E+03  0.29830030378E+03  0.39478435994E+03  0.25500000920E-02 0.  1.
       -2    1    3    3    0  502  0.55327126196E+02 -0.25260745974E+03 -0.23425245597E+04  0.23567547459E+04  0.25500000920E-02 0. -1.
</event>
<event>
 5   0  0.3934906E-05  0.2328322E+04  0.7818609E-02  0.8466837E-01
       -1   -1    0    0    0  501  0.00000000000E+00  0.00000000000E+00  0.94846124748E+03  0.94846124750E+03  0.50400001928E-02 0. -1.
        1   -1    0    0  501    0  0.00000000000E+00  0.00000000000E+00 -0.14289159276E+04  0.14289159276E+04  0.50400001928E-02 0.  1.
    10030    2    1    2    0    0  0.00000000000E+00  0.00000000000E+00 -0.48045468007E+03  0.23773771751E+04  0.23283224718E+04 0.  0.
        2    1    3    3  502    0 -0.97225127354E+03 -0.14489632491E+03  0.39661501008E+03  0.10599862971E+04  0.25500000920E-02 0. -1.
       -2    1    3    3    0  502  0.97225127354E+03  0.14489632491E+03 -0.87706969015E+03  0.13173908779E+04  0.25500000920E-02 0.  1.
</event>
<event>
 5   0  0.9144244E-05  0.2328228E+04  0.7818609E-02  0.8466874E-01
       -2   -1    0    0    0  501  0.00000000000E+00  0.00000000000E+00  0.74820653310E+03  0.74820653310E+03  0.25500000920E-02 0.  1.
        2   -1    0    0  501    0  0.00000000000E+00  0.00000000000E+00 -0.18112129338E+04  0.18112129338E+04  0.25500000920E-02 0. -1.
    10030    2    1    2    0    0  0.00000000000E+00  0.00000000000E+00 -0.10630064007E+04  0.25594194669E+04  0.23282279527E+04 0.  0.
        1    1    3    3  502    0 -0.72152672451E+02 -0.97417307555E+02  0.74124866804E+03  0.75109635057E+03  0.50400001928E-02 0.  1.
       -1    1    3    3    0  502  0.72152672451E+02  0.97417307555E+02 -0.18042550687E+04  0.18083231163E+04  0.50400001928E-02 0. -1.
</event>
<event>
 5   0  0.9519092E-05  0.2378496E+04  0.7818609E-02  0.8447599E-01
        2   -1    0    0  501    0  0.00000000000E+00  0.00000000000E+00  0.22233253070E+04  0.22233253070E+04  0.25500000920E-02 0.  1.
       -2   -1    0    0    0  501  0.00000000000E+00  0.00000000000E+00 -0.63612395506E+03  0.63612395507E+03  0.25500000920E-02 0. -1.
    10030    2    1    2    0    0  0.00000000000E+00  0.00000000000E+00  0.15872013519E+04  0.28594492621E+04  0.23784957328E+04 0.  0.
        4    1    3    3  502    0 -0.11050264991E+04  0.37495258633E+03  0.51778374781E+03  0.12766262680E+04  0.12699999809E+01 0. -1.
       -4    1    3    3    0  502  0.11050264991E+04 -0.37495258633E+03  0.10694176041E+04  0.15828229941E+04  0.12699999809E+01 0.  1.
</event>
<event>
 5   0  0.9519092E-05  0.2348731E+04  0.7818609E-02  0.8458951E-01
       -2   -1    0    0    0  501  0.00000000000E+00  0.00000000000E+00  0.61949677975E+03  0.61949677976E+03  0.25500000920E-02 0. -1.
        2   -1    0    0  501    0  0.00000000000E+00  0.00000000000E+00 -0.22262176285E+04  0.22262176285E+04  0.25500000920E-02 0.  1.
    10030    2    1    2    0    0  0.00000000000E+00  0.00000000000E+00 -0.16067208488E+04  0.28457144083E+04  0.23487312762E+04 0.  0.
        4    1    3    3  502    0  0.40046880892E+03 -0.46915637137E+03 -0.20141387849E+04  0.21064756408E+04  0.12699999809E+01 0.  1.
       -4    1    3    3    0  502 -0.40046880892E+03  0.46915637137E+03  0.40741793612E+03  0.73923876744E+03  0.12699999809E+01 0. -1.
</event>
<event>
 5   0  0.4061631E-05  0.2393930E+04  0.7818609E-02  0.8441780E-01
        1   -1    0    0  501    0  0.00000000000E+00  0.00000000000E+00  0.27840430697E+04  0.27840430697E+04  0.50400001928E-02 0.  1.
       -1   -1    0    0    0  501  0.00000000000E+00  0.00000000000E+00 -0.51462017281E+03  0.51462017284E+03  0.50400001928E-02 0. -1.
    10030    2    1    2    0    0  0.00000000000E+00  0.00000000000E+00  0.22694228969E+04  0.32986632425E+04  0.23939295944E+04 0.  0.
        3    1    3    3  502    0  0.11411924431E+04 -0.47502844399E+02  0.64144391798E+03  0.13099721457E+04  0.10100000352E+00 0. -1.
       -3    1    3    3    0  502 -0.11411924431E+04  0.47502844399E+02  0.16279789789E+04  0.19886910968E+04  0.10100000352E+00 0.  1.
</event>
<event>
 5   0  0.4018942E-05  0.2336064E+04  0.7818609E-02  0.8463836E-01
       -1   -1    0    0    0  501  0.00000000000E+00  0.00000000000E+00  0.13945165484E+04  0.13945165484E+04  0.50400001928E-02 0.  1.
        1   -1    0    0  501    0  0.00000000000E+00  0.00000000000E+00 -0.97833117673E+03  0.97833117675E+03  0.50400001928E-02 0. -1.
    10030    2    1    2    0    0  0.00000000000E+00  0.00000000000E+00  0.41618537170E+03  0.23728477252E+04  0.23360642250E+04 0.  0.
        5    1    3    3  502    0 -0.57785169039E+03  0.16422819391E+03 -0.80937522454E+03  0.10079651878E+04  0.46999998093E+01 0. -1.
       -5    1    3    3    0  502  0.57785169039E+03 -0.16422819391E+03  0.12255605962E+04  0.13648825374E+04  0.46999998093E+01 0.  1.
</event>
<event>
 5   0  0.9750757E-05  0.2413329E+04  0.7818609E-02  0.8434530E-01
        2   -1    0    0  501    0  0.00000000000E+00  0.00000000000E+00  0.10035636230E+04  0.10035636230E+04  0.25500000920E-02 0.  1.
       -2   -1    0    0    0  501  0.00000000000E+00  0.00000000000E+00 -0.14508694659E+04  0.14508694659E+04  0.25500000920E-02 0. -1.
    10030    2    1    2    0    0  0.00000000000E+00  0.00000000000E+00 -0.44730584298E+03  0.24544330889E+04  0.24133294990E+04 0.  0.
        2    1    3    3  502    0 -0.11681321104E+04 -0.60362215158E+02  0.77813576390E+02  0.11722760669E+04  0.25500000920E-02 0.  1.
       -2    1    3    3    0  502  0.11681321104E+04  0.60362215158E+02 -0.52511941937E+03  0.12821570220E+04  0.25500000920E-02 0. -1.
</event>
<event>
 5   0  0.3934906E-05  0.2621875E+04  0.7818609E-02  0.8360809E-01
       -1   -1    0    0    0  501  0.00000000000E+00  0.00000000000E+00  0.12995394654E+04  0.12995394654E+04  0.50400001928E-02 0.  1.
        1   -1    0    0  501    0  0.00000000000E+00  0.00000000000E+00 -0.13224350662E+04  0.13224350662E+04  0.50400001928E-02 0. -1.
    10030    2    1    2    0    0  0.00000000000E+00  0.00000000000E+00 -0.22895600846E+02  0.26219745316E+04  0.26218745652E+04 0.  0.
        2    1    3    3  502    0 -0.97683743401E+03 -0.86186628902E+03  0.13529458681E+03  0.13097058822E+04  0.25500000920E-02 0.  1.
       -2    1    3    3    0  502  0.97683743401E+03  0.86186628902E+03 -0.15819018766E+03  0.13122686494E+04  0.25500000920E-02 0. -1.
</event>
<event>
 5   0  0.3934906E-05  0.1214301E+04  0.7818609E-02  0.9100430E-01
       -1   -1    0    0    0  501  0.00000000000E+00  0.00000000000E+00  0.18097030069E+03  0.18097030076E+03  0.50400001928E-02 0. -1.
        1   -1    0    0  501    0  0.00000000000E+00  0.00000000000E+00 -0.20369736798E+04  0.20369736798E+04  0.50400001928E-02 0.  1.
    10030    2    1    2    0    0  0.00000000000E+00  0.00000000000E+00 -0.18560033791E+04  0.22179439806E+04  0.12143010161E+04 0.  0.
        2    1    3    3  502    0 -0.26699877428E+03 -0.46960651583E+03 -0.42177865730E+03  0.68535819901E+03  0.25500000920E-02 0. -1.
       -2    1    3    3    0  502  0.26699877428E+03  0.46960651583E+03 -0.14342247218E+04  0.15325857816E+04  0.25500000920E-02 0.  1.
</event>
<event>
 5   0  0.4208577E-05  0.2442192E+04  0.7818609E-02  0.8423874E-01
        1   -1    0    0  501    0  0.00000000000E+00  0.00000000000E+00  0.15351609372E+04  0.15351609373E+04  0.50400001928E-02 0.  1.
       -1   -1    0    0    0  501  0.00000000000E+00  0.00000000000E+00 -0.97128320688E+03  0.97128320689E+03  0.50400001928E-02 0. -1.
    10030    2    1    2    0    0  0.00000000000E+00  0.00000000000E+00  0.56387773036E+03  0.25064441441E+04  0.24421924889E+04 0.  0.
        1    1    3    3  502    0  0.20045301540E+03 -0.67972275520E+03 -0.73864357663E+03  0.10236204221E+04  0.50400001928E-02 0. -1.
       -1    1    3    3    0  502 -0.20045301540E+03  0.67972275520E+03  0.13025213070E+04  0.14828237220E+04  0.50400001928E-02 0.  1.
</event>
<event>
 5   0  0.9750757E-05  0.1583242E+04  0.7818609E-02  0.8830909E-01
        2   -1    0    0  501    0  0.00000000000E+00  0.00000000000E+00  0.48302419548E+03  0.48302419549E+03  0.25500000920E-02 0.  1.
       -2   -1    0    0    0  501  0.00000000000E+00  0.00000000000E+00 -0.12973763517E+04  0.12973763517E+04  0.25500000920E-02 0. -1.
    10030    2    1    2    0    0  0.00000000000E+00  0.00000000000E+00 -0.81435215618E+03  0.17804005472E+04  0.15832424559E+04 0.  0.
        2    1    3    3  502    0  0.26389495445E+03 -0.66154033932E+03 -0.79572940513E+03  0.10679238988E+04  0.25500000920E-02 0. -1.
       -2    1    3    3    0  502 -0.26389495445E+03  0.66154033932E+03 -0.18622751052E+02  0.71247664831E+03  0.25500000920E-02 0.  1.
</event>
<event>
 5   0  0.9519092E-05  0.1520263E+04  0.7818609E-02  0.8871089E-01
       -2   -1    0    0    0  501  0.00000000000E+00  0.00000000000E+00  0.77750998597E+03  0.77750998598E+03  0.25500000920E-02 0.  1.
        2   -1    0    0  501    0  0.00000000000E+00  0.00000000000E+00 -0.74314181215E+03  0.74314181215E+03  0.25500000920E-02 0. -1.
    10030    2    1    2    0    0  0.00000000000E+00  0.00000000000E+00  0.34368173830E+02  0.15206517981E+04  0.15202633718E+04 0.  0.
        4    1    3    3  502    0  0.68714704057E+01  0.29709050920E+03 -0.68262927338E+03  0.74450945296E+03  0.12699999809E+01 0. -1.
       -4    1    3    3    0  502 -0.68714704057E+01 -0.29709050920E+03  0.71699744721E+03  0.77614234517E+03  0.12699999809E+01 0.  1.
</event>
<event>
 5   0  0.4061631E-05  0.2420339E+04  0.7818609E-02  0.8431928E-01
        1   -1    0    0  501    0  0.00000000000E+00  0.00000000000E+00  0.15724735820E+04  0.15724735820E+04  0.50400001928E-02 0.  1.
       -1   -1    0    0    0  501  0.00000000000E+00  0.00000000000E+00 -0.93134191056E+03  0.93134191057E+03  0.50400001928E-02 0. -1.
    10030    2    1    2    0    0  0.00000000000E+00  0.00000000000E+00  0.64113167146E+03  0.25038154926E+04  0.24203392739E+04 0.  0.
        3    1    3    3  502    0 -0.67179537410E+03 -0.79604130600E+03  0.95786488054E+03  0.14150957300E+04  0.10100000352E+00 0.  1.
       -3    1    3    3    0  502  0.67179537410E+03  0.79604130600E+03 -0.31673320908E+03  0.10887197626E+04  0.10100000352E+00 0. -1.
</event>
<event>
 5   0  0.9144244E-05  0.2293486E+04  0.7818609E-02  0.8480494E-01
        2   -1    0    0  501    0  0.00000000000E+00  0.00000000000E+00  0.10144021062E+04  0.10144021062E+04  0.25500000920E-02 0. -1.
       -2   -1    0    0    0  501  0.00000000000E+00  0.00000000000E+00 -0.12963493845E+04  0.12963493845E+04  0.25500000920E-02 0.  1.
    10030    2    1    2    0    0  0.00000000000E+00  0.00000000000E+00 -0.28194727826E+03  0.23107514907E+04  0.22934860331E+04 0.  0.
        1    1    3    3  502    0 -0.27182370400E+02  0.62609439779E+03  0.82661344138E+03  0.10373152162E+04  0.50400001928E-02 0. -1.
       -1    1    3    3    0  502  0.27182370400E+02 -0.62609439779E+03 -0.11085607196E+04  0.12734362746E+04  0.50400001928E-02 0.  1.
</event>
<event>
 5   0  0.3934906E-05  0.2382214E+04  0.7818609E-02  0.8446193E-01
        1   -1    0    0  501    0  0.00000000000E+00  0.00000000000E+00  0.19612365307E+04  0.19612365307E+04  0.50400001928E-02 0.  1.
       -1   -1    0    0    0  501  0.00000000000E+00  0.00000000000E+00 -0.72338825605E+03  0.72338825607E+03  0.50400001928E-02 0. -1.
    10030    2    1    2    0    0  0.00000000000E+00  0.00000000000E+00  0.12378482747E+04  0.26846247868E+04  0.23822136543E+04 0.  0.
        2    1    3    3  502    0 -0.52307300623E+03  0.11524999023E+03  0.18178624883E+04  0.18951284802E+04  0.25500000920E-02 0.  1.
       -2    1    3    3    0  502  0.52307300623E+03 -0.11524999023E+03 -0.58001421364E+03  0.78949630659E+03  0.25500000920E-02 0. -1.
</event>
<event>
 5   0  0.4208577E-05  0.2406743E+04  0.7818609E-02  0.8436983E-01
       -1   -1    0    0    0  501  0.00000000000E+00  0.00000000000E+00  0.96313266343E+03  0.96313266344E+03  0.50400001928E-02 0. -1.
        1   -1    0    0  501    0  0.00000000000E+00  0.00000000000E+00 -0.15035344232E+04  0.15035344232E+04  0.50400001928E-02 0.  1.
    10030    2    1    2    0    0  0.00000000000E+00  0.00000000000E+00 -0.54040175979E+03  0.24666670867E+04  0.24067431218E+04 0.  0.
        1    1    3    3  502    0  0.11214902611E+04  0.41852071404E+03 -0.14382995707E+03  0.12056479795E+04  0.50400001928E-02 0.  1.
       -1    1    3    3    0  502 -0.11214902611E+04 -0.41852071404E+03 -0.39657180273E+03  0.12610191072E+04  0.50400001928E-02 0. -1.
</event>
<event>
 5   0  0.4061631E-05  0.1667982E+04  0.7818609E-02  0.8779839E-01
       -1   -1    0    0    0  501  0.00000000000E+00  0.00000000000E+00  0.25667572132E+03  0.25667572137E+03  0.50400001928E-02 0. -1.
        1   -1    0    0  501    0  0.00000000000E+00  0.00000000000E+00 -0.27098050283E+04  0.27098050283E+04  0.50400001928E-02 0.  1.
    10030    2    1    2    0    0  0.00000000000E+00  0.00000000000E+00 -0.24531293070E+04  0.29664807497E+04  0.16679822066E+04 0.  0.
        3    1    3    3  502    0 -0.57380841972E+03  0.59945837555E+03 -0.10784615796E+04  0.13607666352E+04  0.10100000352E+00 0.  1.
       -3    1    3    3    0  502  0.57380841972E+03 -0.59945837555E+03 -0.13746677273E+04  0.16057141145E+04  0.10100000352E+00 0. -1.
</event>
<event>
 5   0  0.4208577E-05  0.2565611E+04  0.7818609E-02  0.8379977E-01
       -1   -1    0    0    0  501  0.00000000000E+00  0.00000000000E+00  0.11183989702E+04  0.11183989703E+04  0.50400001928E-02 0.  1.
        1   -1    0    0  501    0  0.00000000000E+00  0.00000000000E+00 -0.14713798218E+04  0.14713798218E+04  0.50400001928E-02 0. -1.
    10030    2    1    2    0    0  0.00000000000E+00  0.00000000000E+00 -0.35298085159E+03  0.25897787921E+04  0.25656107870E+04 0.  0.
        1    1    3    3  502    0  0.64610780581E+03  0.10662223802E+04 -0.48150269893E+03  0.13364618625E+04  0.50400001928E-02 0. -1.
       -1    1    3    3    0  502 -0.64610780581E+03 -0.10662223802E+04  0.12852184734E+03  0.12533169296E+04  0.50400001928E-02 0.  1.
</event>
<event>
 5   0  0.4208577E-05  0.2331555E+04  0.7818609E-02  0.8465582E-01
        1   -1    0    0  501    0  0.00000000000E+00  0.00000000000E+00  0.14083451098E+04  0.14083451098E+04  0.50400001928E-02 0. -1.
       -1   -1    0    0    0  501  0.00000000000E+00  0.00000000000E+00 -0.96498877813E+03  0.96498877815E+03  0.50400001928E-02 0.  1.
    10030    2    1    2    0    0  0.00000000000E+00  0.00000000000E+00  0.44335633167E+03  0.23733338880E+04  0.23315550405E+04 0.  0.
        1    1    3    3  502    0  0.90920800714E+03  0.52228646108E+03  0.74031245763E+03  0.12835516673E+04  0.50400001928E-02 0. -1.
       -1    1    3    3    0  502 -0.90920800714E+03 -0.52228646108E+03 -0.29695612597E+03  0.10897822207E+04  0.50400001928E-02 0.  1.
</event>
<event>
 5   0  0.3934906E-05  0.2334963E+04  0.7818609E-02  0.8464262E-01
        1   -1    0    0  501    0  0.00000000000E+00  0.00000000000E+00  0.17924311150E+04  0.17924311150E+04  0.50400001928E-02 0.  1.
       -1   -1    0    0    0  501  0.00000000000E+00  0.00000000000E+00 -0.76042722287E+03  0.76042722289E+03  0.50400001928E-02 0. -1.
    10030    2    1    2    0    0  0.00000000000E+00  0.00000000000E+00  0.10320038921E+04  0.25528583379E+04  0.23349633102E+04 0.  0.
        2    1    3    3  502    0 -0.67375640997E+03 -0.94499477187E+03  0.65451548917E+03  0.13324238606E+04  0.25500000920E-02 0.  1.
       -2    1    3    3    0  502  0.67375640997E+03  0.94499477187E+03  0.37748840293E+03  0.12204344772E+04  0.25500000920E-02 0. -1.
</event>
<event>
 5   0  0.4208577E-05  0.2384917E+04  0.7818609E-02  0.8445172E-01
       -1   -1    0    0    0  501  0.00000000000E+00  0.00000000000E+00  0.10056349119E+04  0.10056349119E+04  0.50400001928E-02 0.  1.
        1   -1    0    0  501    0  0.00000000000E+00  0.00000000000E+00 -0.14139892620E+04  0.14139892620E+04  0.50400001928E-02 0. -1.
    10030    2    1    2    0    0  0.00000000000E+00  0.00000000000E+00 -0.40835435013E+03  0.24196241740E+04  0.23849167423E+04 0.  0.
        1    1    3    3  502    0  0.54017171470E+03 -0.81489535452E+03 -0.89684048763E+03  0.13267112649E+04  0.50400001928E-02 0.  1.
       -1    1    3    3    0  502 -0.54017171470E+03  0.81489535452E+03  0.48848613750E+03  0.10929129090E+04  0.50400001928E-02 0. -1.
</event>
<event>
 5   0  0.9750757E-05  0.2367191E+04  0.7818609E-02  0.8451890E-01
       -2   -1    0    0    0  501  0.00000000000E+00  0.00000000000E+00  0.10946777181E+04  0.10946777181E+04  0.25500000920E-02 0.  1.
        2   -1    0    0  501    0  0.00000000000E+00  0.00000000000E+00 -0.12797357130E+04  0.12797357130E+04  0.25500000920E-02 0. -1.
    10030    2    1    2    0    0  0.00000000000E+00  0.00000000000E+00 -0.18505799489E+03  0.23744134311E+04  0.23671908838E+04 0.  0.
        2    1    3    3  502    0  0.47528690845E+03  0.34932202054E+03  0.93674741102E+03  0.11069865543E+04  0.25500000920E-02 0.  1.
       -2    1    3    3    0  502 -0.47528690845E+03 -0.34932202054E+03 -0.11218054059E+04  0.12674268768E+04  0.25500000920E-02 0. -1.
</event>
<event>
 5   0  0.3934906E-05  0.2316579E+04  0.7818609E-02  0.8471413E-01
        1   -1    0    0  501    0  0.00000000000E+00  0.00000000000E+00  0.10272414837E+04  0.10272414838E+04  0.50400001928E-02 0. -1.
       -1   -1    0    0    0  501  0.00000000000E+00  0.00000000000E+00 -0.13060558029E+04  0.13060558029E+04  0.50400001928E-02 0.  1.
    10030    2    1    2    0    0  0.00000000000E+00  0.00000000000E+00 -0.27881431917E+03  0.23332972867E+04  0.23165791166E+04 0.  0.
        2    1    3    3  502    0  0.91468139189E+03 -0.59514186388E+03 -0.53053785672E+03  0.12133862964E+04  0.25500000920E-02 0.  1.
       -2    1    3    3    0  502 -0.91468139189E+03  0.59514186388E+03  0.25172353756E+03  0.11199109903E+04  0.25500000920E-02 0. -1.
</event>
<event>
 5   0  0.4018942E-05  0.2165058E+04  0.7818609E-02  0.8533114E-01
        1   -1    0    0  501    0  0.00000000000E+00  0.00000000000E+00  0.19472089632E+04  0.19472089632E+04  0.50400001928E-02 0.  1.
       -1   -1    0    0    0  501  0.00000000000E+00  0.00000000000E+00 -0.60181983138E+03  0.60181983140E+03  0.50400001928E-02 0. -1.
    10030    2    1    2    0    0  0.00000000000E+00  0.00000000000E+00  0.13453891318E+04  0.25490287946E+04  0.21650579391E+04 0.  0.
        5    1    3    3  502    0  0.15344102056E+03  0.59576927286E+03  0.17213693750E+04  0.18280097890E+04  0.46999998093E+01 0.  1.
       -5    1    3    3    0  502 -0.15344102056E+03 -0.59576927286E+03 -0.37598024318E+03  0.72101900566E+03  0.46999998093E+01 0. -1.
</event>
<event>
 5   0  0.9144244E-05  0.2262316E+04  0.7818609E-02  0.8492929E-01
       -2   -1    0    0    0  501  0.00000000000E+00  0.00000000000E+00  0.46781971562E+03  0.46781971562E+03  0.25500000920E-02 0.  1.
        2   -1    0    0  501    0  0.00000000000E+00  0.00000000000E+00 -0.27350663626E+04  0.27350663626E+04  0.25500000920E-02 0. -1.
    10030    2    1    2    0    0  0.00000000000E+00  0.00000000000E+00 -0.22672466470E+04  0.32028860782E+04  0.22623155995E+04 0.  0.
        1    1    3    3  502    0  0.32752166141E+03 -0.19522955337E+03 -0.26413419002E+04  0.26687210515E+04  0.50400001928E-02 0. -1.
       -1    1    3    3    0  502 -0.32752166141E+03  0.19522955337E+03  0.37409525323E+03  0.53416502667E+03  0.50400001928E-02 0.  1.
</event>
<event>
 5   0  0.9144244E-05  0.2425111E+04  0.7818609E-02  0.8430162E-01
       -2   -1    0    0    0  501  0.00000000000E+00  0.00000000000E+00  0.10444603939E+04  0.10444603939E+04  0.25500000920E-02 0. -1.
        2   -1    0    0  501    0  0.00000000000E+00  0.00000000000E+00 -0.14077037529E+04  0.14077037529E+04  0.25500000920E-02 0.  1.
    10030    2    1    2    0    0  0.00000000000E+00  0.00000000000E+00 -0.36324335898E+03  0.24521641468E+04  0.24251109800E+04 0.  0.
        1    1    3    3  502    0 -0.79759814401E+03 -0.24570928739E+03 -0.10710677980E+04  0.13578372808E+04  0.50400001928E-02 0.  1.
       -1    1    3    3    0  502  0.79759814401E+03  0.24570928739E+03  0.70782443899E+03  0.10943268660E+04  0.50400001928E-02 0. -1.
</event>
<event>
 5   0  0.9750757E-05  0.2149413E+04  0.7818609E-02  0.8539784E-01
        2   -1    0    0  501    0  0.00000000000E+00  0.00000000000E+00  0.22213507227E+04  0.22213507227E+04  0.25500000920E-02 0.  1.
       -2   -1    0    0    0  501  0.00000000000E+00  0.00000000000E+00 -0.51995118715E+03  0.51995118716E+03  0.25500000920E-02 0. -1.
    10030    2    1    2    0    0  0.00000000000E+00  0.00000000000E+00  0.17013995355E+04  0.27413019098E+04  0.21494128923E+04 0.  0.
        2    1    3    3  502    0  0.70096977148E+03  0.75624889243E+03  0.12369564419E+04  0.16103826399E+04  0.25500000920E-02 0. -1.
       -2    1    3    3    0  502 -0.70096977148E+03 -0.75624889243E+03  0.46444309363E+03  0.11309192699E+04  0.25500000920E-02 0.  1.
</event>
<event>
 5   0  0.9491680E-05  0.2397215E+04  0.7818609E-02  0.8440547E-01
        2   -1    0    0  501    0  0.00000000000E+00  0.00000000000E+00  0.21375926145E+04  0.21375926145E+04  0.25500000920E-02 0.  1.
       -2   -1    0    0    0  501  0.00000000000E+00  0.00000000000E+00 -0.67209242329E+03  0.67209242329E+03  0.25500000920E-02 0. -1.
    10030    2    1    2    0    0  0.00000000000E+00  0.00000000000E+00  0.14655001912E+04  0.28096850378E+04  0.23972148842E+04 0.  0.
        5    1    3    3  502    0 -0.69955452667E+03 -0.65227787604E+03  0.15793934904E+04  0.18464422143E+04  0.46999998093E+01 0.  1.
       -5    1    3    3    0  502  0.69955452667E+03  0.65227787604E+03 -0.11389329919E+03  0.96324282346E+03  0.46999998093E+01 0. -1.
</event>
<event>
 5   0  0.4260395E-05  0.1944936E+04  0.7818609E-02  0.8632807E-01
       -1   -1    0    0    0  501  0.00000000000E+00  0.00000000000E+00  0.67589300459E+03  0.67589300461E+03  0.50400001928E-02 0. -1.
        1   -1    0    0  501    0  0.00000000000E+00  0.00000000000E+00 -0.13991773101E+04  0.13991773101E+04  0.50400001928E-02 0.  1.
    10030    2    1    2    0    0  0.00000000000E+00  0.00000000000E+00 -0.72328430551E+03  0.20750703147E+04  0.19449361492E+04 0.  0.
        4    1    3    3  502    0  0.50731921546E+03 -0.56063347736E+03  0.29084053874E+03  0.81010648324E+03  0.12699999809E+01 0.  1.
       -4    1    3    3    0  502 -0.50731921546E+03  0.56063347736E+03 -0.10141248442E+04  0.12649638315E+04  0.12699999809E+01 0. -1.
</event>
<event>
 5   0  0.9144244E-05  0.2427901E+04  0.7818609E-02  0.8429131E-01
       -2   -1    0    0    0  501  0.00000000000E+00  0.00000000000E+00  0.17635241178E+04  0.17635241178E+04  0.25500000920E-02 0. -1.
        2   -1    0    0  501    0  0.00000000000E+00  0.00000000000E+00 -0.83564250730E+03  0.83564250730E+03  0.25500000920E-02 0.  1.
    10030    2    1    2    0    0  0.00000000000E+00  0.00000000000E+00  0.92788161049E+03  0.25991666251E+04  0.24279009168E+04 0.  0.
        1    1    3    3  502    0  0.86718345806E+03  0.57130272131E+03  0.11370051015E+04  0.15398618607E+04  0.50400001928E-02 0. -1.
       -1    1    3    3    0  502 -0.86718345806E+03 -0.57130272131E+03 -0.20912349098E+03  0.10593047644E+04  0.50400001928E-02 0.  1.
</event>
<event>
 5   0  0.4208577E-05  0.2339877E+04  0.7818609E-02  0.8462362E-01
       -1   -1    0    0    0  501  0.00000000000E+00  0.00000000000E+00  0.94712068848E+03  0.94712068850E+03  0.50400001928E-02 0. -1.
        1   -1    0    0  501    0  0.00000000000E+00  0.00000000000E+00 -0.14451759697E+04  0.14451759698E+04  0.50400001928E-02 0.  1.
    10030    2    1    2    0    0  0.00000000000E+00  0.00000000000E+00 -0.49805528126E+03  0.23922966582E+04  0.23398769707E+04 0.  0.
        1    1    3    3  502    0  0.27574811982E+03  0.10747732238E+04 -0.62825713878E+03  0.12751006002E+04  0.50400001928E-02 0. -1.
       -1    1    3    3    0  502 -0.27574811982E+03 -0.10747732238E+04  0.13020185752E+03  0.11171960580E+04  0.50400001928E-02 0.  1.
</event>
<event>
 5   0  0.3934906E-05  0.2428685E+04  0.7818609E-02  0.8428842E-01
       -1   -1    0    0    0  501  0.00000000000E+00  0.00000000000E+00  0.19886941564E+04  0.19886941564E+04  0.50400001928E-02 0.  1.
        1   -1    0    0  501    0  0.00000000000E+00  0.00000000000E+00 -0.74150562485E+03  0.74150562487E+03  0.50400001928E-02 0. -1.
    10030    2    1    2    0    0  0.00000000000E+00  0.00000000000E+00  0.12471885315E+04  0.27301997812E+04  0.24286851612E+04 0.  0.
        2    1    3    3  502    0 -0.76573819330E+03 -0.52452777659E+03  0.15038407203E+04  0.17672071981E+04  0.25500000920E-02 0.  1.
       -2    1    3    3    0  502  0.76573819330E+03  0.52452777659E+03 -0.25665218880E+03  0.96299258310E+03  0.25500000920E-02 0. -1.
</event>
<event>
 5   0  0.4061631E-05  0.2396753E+04  0.7818609E-02  0.8440720E-01
       -1   -1    0    0    0  501  0.00000000000E+00  0.00000000000E+00  0.12031026264E+04  0.12031026264E+04  0.50400001928E-02 0. -1.
        1   -1    0    0  501    0  0.00000000000E+00  0.00000000000E+00 -0.11936685347E+04  0.11936685348E+04  0.50400001928E-02 0.  1.
    10030    2    1    2    0    0  0.00000000000E+00  0.00000000000E+00  0.94340916249E+01  0.23967711611E+04  0.23967525940E+04 0.  0.
        3    1    3    3  502    0 -0.15180536513E+03 -0.18666121397E+03  0.11787016347E+04  0.12030065800E+04  0.10100000352E+00 0. -1.
       -3    1    3    3    0  502  0.15180536513E+03  0.18666121397E+03 -0.11692675431E+04  0.11937645811E+04  0.10100000352E+00 0.  1.
</event>
<event>
 5   0  0.4018942E-05  0.2402266E+04  0.7818609E-02  0.8438656E-01
       -1   -1    0    0    0  501  0.00000000000E+00  0.00000000000E+00  0.12065851253E+04  0.12065851253E+04  0.50400001928E-02 0. -1.
        1   -1    0    0  501    0  0.00000000000E+00  0.00000000000E+00 -0.11957057360E+04  0.11957057360E+04  0.50400001928E-02 0.  1.
    10030    2    1    2    0    0  0.00000000000E+00  0.00000000000E+00  0.10879389231E+02  0.24022908613E+04  0.24022662261E+04 0.  0.
        5    1    3    3  502    0  0.10787553247E+04  0.37770737008E+03 -0.36378321013E+03  0.11994733102E+04  0.46999998093E+01 0.  1.
       -5    1    3    3    0  502 -0.10787553247E+04 -0.37770737008E+03  0.37466259936E+03  0.12028175511E+04  0.46999998093E+01 0. -1.
</event>
<event>
 5   0  0.3934906E-05  0.2401256E+04  0.7818609E-02  0.8439033E-01
       -1   -1    0    0    0  501  0.00000000000E+00  0.00000000000E+00  0.17164976549E+04  0.17164976549E+04  0.50400001928E-02 0. -1.
        1   -1    0    0  501    0  0.00000000000E+00  0.00000000000E+00 -0.83979606520E+03  0.83979606521E+03  0.50400001928E-02 0.  1.
    10030    2    1    2    0    0  0.00000000000E+00  0.00000000000E+00  0.87670158966E+03  0.25562937201E+04  0.24012563183E+04 0.  0.
        2    1    3    3  502    0 -0.67563248717E+03  0.61351799986E+03  0.12688646959E+04  0.15629783141E+04  0.25500000920E-02 0. -1.
       -2    1    3    3    0  502  0.67563248717E+03 -0.61351799986E+03 -0.39216310623E+03  0.99331540598E+03  0.25500000920E-02 0.  1.
</event>
<event>
 5   0  0.9144244E-05  0.2462087E+04  0.7818609E-02  0.8416618E-01
        2   -1    0    0  501    0  0.00000000000E+00  0.00000000000E+00  0.13049457141E+04  0.13049457141E+04  0.25500000920E-02 0. -1.
       -2   -1    0    0    0  501  0.00000000000E+00  0.00000000000E+00 -0.11613267569E+04  0.11613267569E+04  0.25500000920E-02 0.  1.
    10030    2    1    2    0    0  0.00000000000E+00  0.00000000000E+00  0.14361895714E+03  0.24662724710E+04  0.24620872235E+04 0.  0.
        1    1    3    3  502    0 -0.74029494545E+03 -0.97765903595E+03 -0.36144666703E+02  0.12268497193E+04  0.50400001928E-02 0.  1.
       -1    1    3    3    0  502  0.74029494545E+03  0.97765903595E+03  0.17976362385E+03  0.12394227517E+04  0.50400001928E-02 0. -1.
</event>
<event>
 5   0  0.9182865E-05  0.2286632E+04  0.7818609E-02  0.8483211E-01
       -2   -1    0    0    0  501  0.00000000000E+00  0.00000000000E+00  0.12168851547E+04  0.12168851547E+04  0.25500000920E-02 0. -1.
        2   -1    0    0  501    0  0.00000000000E+00  0.00000000000E+00 -0.10741943786E+04  0.10741943786E+04  0.25500000920E-02 0.  1.
    10030    2    1    2    0    0  0.00000000000E+00  0.00000000000E+00  0.14269077617E+03  0.22910795333E+04  0.22866317522E+04 0.  0.
        3    1    3    3  502    0 -0.42481774567E+03  0.94091151370E+02  0.11306852082E+04  0.12115165339E+04  0.10100000352E+00 0. -1.
       -3    1    3    3    0  502  0.42481774567E+03 -0.94091151370E+02 -0.98799443198E+03  0.10795629994E+04  0.10100000352E+00 0.  1.
</event>
<event>
 5   0  0.4208577E-05  0.2767242E+04  0.7818609E-02  0.8313511E-01
       -1   -1    0    0    0  501  0.00000000000E+00  0.00000000000E+00  0.14349645264E+04  0.14349645264E+04  0.50400001928E-02 0. -1.
        1   -1    0    0  501    0  0.00000000000E+00  0.00000000000E+00 -0.13341150230E+04  0.13341150230E+04  0.50400001928E-02 0.  1.
    10030    2    1    2    0    0  0.00000000000E+00  0.00000000000E+00  0.10084950343E+03  0.27690795494E+04  0.27672424774E+04 0.  0.
        1    1    3    3  502    0 -0.18419058092E+03 -0.61649270360E+03 -0.11753040586E+04  0.13398988969E+04  0.50400001928E-02 0.  1.
       -1    1    3    3    0  502  0.18419058092E+03  0.61649270360E+03  0.12761535620E+04  0.14291806525E+04  0.50400001928E-02 0. -1.
</event>
<event>
 5   0  0.3934906E-05  0.2595667E+04  0.7818609E-02  0.8369675E-01
        1   -1    0    0  501    0  0.00000000000E+00  0.00000000000E+00  0.18412550870E+04  0.18412550870E+04  0.50400001928E-02 0.  1.
       -1   -1    0    0    0  501  0.00000000000E+00  0.00000000000E+00 -0.91479522038E+03  0.91479522039E+03  0.50400001928E-02 0. -1.
    10030    2    1    2    0    0  0.00000000000E+00  0.00000000000E+00  0.92645986663E+03  0.27560503074E+04  0.25956666605E+04 0.  0.
        2    1    3    3  502    0  0.13061488657E+03  0.84141191458E+03 -0.57674732033E+03  0.10284316847E+04  0.25500000920E-02 0. -1.
       -2    1    3    3    0  502 -0.13061488657E+03 -0.84141191458E+03  0.15032071870E+04  0.17276186227E+04  0.25500000920E-02 0.  1.
</event>
<event>
 5   0  0.4208577E-05  0.1661784E+04  0.7818609E-02  0.8783466E-01
        1   -1    0    0  501    0  0.00000000000E+00  0.00000000000E+00  0.13675001028E+04  0.13675001028E+04  0.50400001928E-02 0.  1.
       -1   -1    0    0    0  501  0.00000000000E+00  0.00000000000E+00 -0.50484918547E+03  0.50484918549E+03  0.50400001928E-02 0. -1.
    10030    2    1    2    0    0  0.00000000000E+00  0.00000000000E+00  0.86265091733E+03  0.18723492883E+04  0.16617837562E+04 0.  0.
        1    1    3    3  502    0  0.19443745551E+03 -0.73731186065E+03  0.80321949942E+03  0.11075180668E+04  0.50400001928E-02 0.  1.
       -1    1    3    3    0  502 -0.19443745551E+03  0.73731186065E+03  0.59431417911E+02  0.76483122152E+03  0.50400001928E-02 0. -1.
</event>
<event>
 5   0  0.3934906E-05  0.2471459E+04  0.7818609E-02  0.8413224E-01
       -1   -1    0    0    0  501  0.00000000000E+00  0.00000000000E+00  0.93781729617E+03  0.93781729619E+03  0.50400001928E-02 0.  1.
        1   -1    0    0  501    0  0.00000000000E+00  0.00000000000E+00 -0.16282787424E+04  0.16282787424E+04  0.50400001928E-02 0. -1.
    10030    2    1    2    0    0  0.00000000000E+00  0.00000000000E+00 -0.69046144621E+03  0.25660960386E+04  0.24714594616E+04 0.  0.
        2    1    3    3  502    0  0.90976073963E+03  0.32723727247E+03  0.45383523732E+03  0.10680427232E+04  0.25500000920E-02 0.  1.
       -2    1    3    3    0  502 -0.90976073963E+03 -0.32723727247E+03 -0.11442966835E+04  0.14980533154E+04  0.25500000920E-02 0. -1.
</event>
<event>
 5   0  0.4061631E-05  0.1427118E+04  0.7818609E-02  0.8934420E-01
       -1   -1    0    0    0  501  0.00000000000E+00  0.00000000000E+00  0.22066480548E+03  0.22066480553E+03  0.50400001928E-02 0.  1.
        1   -1    0    0  501    0  0.00000000000E+00  0.00000000000E+00 -0.23074190671E+04  0.23074190671E+04  0.50400001928E-02 0. -1.
    10030    2    1    2    0    0  0.00000000000E+00  0.00000000000E+00 -0.20867542617E+04  0.25280838727E+04  0.14271176261E+04 0.  0.
        3    1    3    3  502    0 -0.32034329819E+03  0.14286296901E+03  0.57406957336E+02  0.35542260137E+03  0.10100000352E+00 0.  1.
       -3    1    3    3    0  502  0.32034329819E+03 -0.14286296901E+03 -0.21441612190E+04  0.21726612713E+04  0.10100000352E+00 0. -1.
</event>
<event>
 5   0  0.9144244E-05  0.2393218E+04  0.7818609E-02  0.8442047E-01
       -2   -1    0    0    0  501  0.00000000000E+00  0.00000000000E+00  0.87403861893E+03  0.87403861893E+03  0.25500000920E-02 0. -1.
        2   -1    0    0  501    0  0.00000000000E+00  0.00000000000E+00 -0.16382259219E+04  0.16382259219E+04  0.25500000920E-02 0.  1.
    10030    2    1    2    0    0  0.00000000000E+00  0.00000000000E+00 -0.76418730293E+03  0.25122645408E+04  0.23932176852E+04 0.  0.
        1    1    3    3  502    0  0.33326744408E+03 -0.94684049986E+03  0.30169039642E+03  0.10481370219E+04  0.50400001928E-02 0. -1.
       -1    1    3    3    0  502 -0.33326744408E+03  0.94684049986E+03 -0.10658776993E+04  0.14641275188E+04  0.50400001928E-02 0.  1.
</event>
<event>
 5   0  0.4018942E-05  0.2395982E+04  0.7818609E-02  0.8441009E-01
        1   -1    0    0  501    0  0.00000000000E+00  0.00000000000E+00  0.14904176598E+04  0.14904176598E+04  0.50400001928E-02 0.  1.
       -1   -1    0    0    0  501  0.00000000000E+00  0.00000000000E+00 -0.96294015858E+03  0.96294015859E+03  0.50400001928E-02 0. -1.
    10030    2    1    2    0    0  0.00000000000E+00  0.00000000000E+00  0.52747750120E+03  0.24533578184E+04  0.23959824855E+04 0.  0.
        5    1    3    3  502    0 -0.82278314816E+03  0.29081270805E+03  0.11041342267E+04  0.14073658446E+04  0.46999998093E+01 0.  1.
       -5    1    3    3    0  502  0.82278314816E+03 -0.29081270805E+03 -0.57665672551E+03  0.10459919737E+04  0.46999998093E+01 0. -1.
</event>
<event>
 5   0  0.9750757E-05  0.2494388E+04  0.7818609E-02  0.8404988E-01
       -2   -1    0    0    0  501  0.00000000000E+00  0.00000000000E+00  0.10898063353E+04  0.10898063353E+04  0.25500000920E-02 0.  1.
        2   -1    0    0  501    0  0.00000000000E+00  0.00000000000E+00 -0.14273111943E+04  0.14273111943E+04  0.25500000920E-02 0. -1.
    10030    2    1    2    0    0  0.00000000000E+00  0.00000000000E+00 -0.33750485903E+03  0.25171175295E+04  0.24943879265E+04 0.  0.
        2    1    3    3  502    0  0.24217980970E+03  0.22623091775E+03 -0.13820652177E+04  0.14212444387E+04  0.25500000920E-02 0. -1.
       -2    1    3    3    0  502 -0.24217980970E+03 -0.22623091775E+03  0.10445603587E+04  0.10958730909E+04  0.25500000920E-02 0.  1.
</event>
<event>
 5   0  0.4260395E-05  0.2398232E+04  0.7818609E-02  0.8440166E-01
        1   -1    0    0  501    0  0.00000000000E+00  0.00000000000E+00  0.12160010789E+04  0.12160010789E+04  0.50400001928E-02 0.  1.
       -1   -1    0    0    0  501  0.00000000000E+00  0.00000000000E+00 -0.11824650296E+04  0.11824650296E+04  0.50400001928E-02 0. -1.
    10030    2    1    2    0    0  0.00000000000E+00  0.00000000000E+00  0.33536049307E+02  0.23984661085E+04  0.23982316416E+04 0.  0.
        4    1    3    3  502    0  0.78801556714E+03 -0.16648557321E+03 -0.87168314408E+03  0.11868104721E+04  0.12699999809E+01 0. -1.
       -4    1    3    3    0  502 -0.78801556714E+03  0.16648557321E+03  0.90521919339E+03  0.12116556364E+04  0.12699999809E+01 0.  1.
</event>
<event>
 5   0  0.9182865E-05  0.2463729E+04  0.7818609E-02  0.8416023E-01
       -2   -1    0    0    0  501  0.00000000000E+00  0.00000000000E+00  0.83261287700E+03  0.83261287700E+03  0.25500000920E-02 0.  1.
        2   -1    0    0  501    0  0.00000000000E+00  0.00000000000E+00 -0.18225632760E+04  0.18225632760E+04  0.25500000920E-02 0. -1.
    10030    2    1    2    0    0  0.00000000000E+00  0.00000000000E+00 -0.98995039902E+03  0.26551761530E+04  0.24637285993E+04 0.  0.
        3    1    3    3  502    0 -0.29804964087E+03 -0.66611447192E+03  0.57458942242E+03  0.92881380948E+03  0.10100000352E+00 0.  1.
       -3    1    3    3    0  502  0.29804964087E+03  0.66611447192E+03 -0.15645398214E+04  0.17263623435E+04  0.10100000352E+00 0. -1.
</event>
<event>
 5   0  0.4208577E-05  0.2354185E+04  0.7818609E-02  0.8456858E-01
        1   -1    0    0  501    0  0.00000000000E+00  0.00000000000E+00  0.10135887025E+04  0.10135887025E+04  0.50400001928E-02 0. -1.
       -1   -1    0    0    0  501  0.00000000000E+00  0.00000000000E+00 -0.13669716523E+04  0.13669716523E+04  0.50400001928E-02 0.  1.
    10030    2    1    2    0    0  0.00000000000E+00  0.00000000000E+00 -0.35338294973E+03  0.23805603548E+04  0.23541852293E+04 0.  0.
        1    1    3    3  502    0 -0.31200635481E+03  0.10539193706E+04 -0.60266269842E+03  0.12535135952E+04  0.50400001928E-02 0.  1.
       -1    1    3    3    0  502  0.31200635481E+03 -0.10539193706E+04  0.24927974869E+03  0.11270467596E+04  0.50400001928E-02 0. -1.
</event>
<event>
 5   0  0.9182865E-05  0.2415240E+04  0.7818609E-02  0.8433820E-01
       -2   -1    0    0    0  501  0.00000000000E+00  0.00000000000E+00  0.70966797778E+03  0.70966797778E+03  0.25500000920E-02 0. -1.
        2   -1    0    0  501    0  0.00000000000E+00  0.00000000000E+00 -0.20549691606E+04  0.20549691606E+04  0.25500000920E-02 0.  1.
    10030    2    1    2    0    0  0.00000000000E+00  0.00000000000E+00 -0.13453011829E+04  0.27646371384E+04  0.24152397882E+04 0.  0.
        3    1    3    3  502    0  0.96447046113E+03  0.14854547285E+03  0.14165250233E+03  0.98607021531E+03  0.10100000352E+00 0. -1.
       -3    1    3    3    0  502 -0.96447046113E+03 -0.14854547285E+03 -0.14869536852E+04  0.17785669231E+04  0.10100000352E+00 0.  1.
</event>
<event>
 5   0  0.4018942E-05  0.2455062E+04  0.7818609E-02  0.8419172E-01
        1   -1    0    0  501    0  0.00000000000E+00  0.00000000000E+00  0.78805802822E+03  0.78805802823E+03  0.50400001928E-02 0.  1.
       -1   -1    0    0    0  501  0.00000000000E+00  0.00000000000E+00 -0.19120823466E+04  0.19120823466E+04  0.50400001928E-02 0. -1.
    10030    2    1    2    0    0  0.00000000000E+00  0.00000000000E+00 -0.11240243184E+04  0.27001403749E+04  0.24550615828E+04 0.  0.
        5    1    3    3  502    0  0.11599437257E+04  0.21574110167E+03 -0.18937385977E+03  0.11949469522E+04  0.46999998093E+01 0. -1.
       -5    1    3    3    0  502 -0.11599437257E+04 -0.21574110167E+03 -0.93465045864E+03  0.15051934227E+04  0.46999998093E+01 0.  1.
</event>
<event>
 5   0  0.4018942E-05  0.2397162E+04  0.7818609E-02  0.8440567E-01
       -1   -1    0    0    0  501  0.00000000000E+00  0.00000000000E+00  0.97101138677E+03  0.97101138678E+03  0.50400001928E-02 0.  1.
        1   -1    0    0  501    0  0.00000000000E+00  0.00000000000E+00 -0.14794844141E+04  0.14794844141E+04  0.50400001928E-02 0. -1.
    10030    2    1    2    0    0  0.00000000000E+00  0.00000000000E+00 -0.50847302734E+03  0.24504958009E+04  0.23971618324E+04 0.  0.
        5    1    3    3  502    0  0.56774764786E+03 -0.47274598630E+03  0.71055622784E+03  0.10250553166E+04  0.46999998093E+01 0.  1.
       -5    1    3    3    0  502 -0.56774764786E+03  0.47274598630E+03 -0.12190292552E+04  0.14254404843E+04  0.46999998093E+01 0. -1.
</event>
<event>
 5   0  0.4061631E-05  0.2278982E+04  0.7818609E-02  0.8486255E-01
        1   -1    0    0  501    0  0.00000000000E+00  0.00000000000E+00  0.25844030316E+04  0.25844030316E+04  0.50400001928E-02 0.  1.
       -1   -1    0    0    0  501  0.00000000000E+00  0.00000000000E+00 -0.50241374907E+03  0.50241374910E+03  0.50400001928E-02 0. -1.
    10030    2    1    2    0    0  0.00000000000E+00  0.00000000000E+00  0.20819892826E+04  0.30868167807E+04  0.22789818922E+04 0.  0.
        3    1    3    3  502    0  0.27588872191E+03  0.49779396075E+03  0.23781034072E+04  0.24452585221E+04  0.10100000352E+00 0.  1.
       -3    1    3    3    0  502 -0.27588872191E+03 -0.49779396075E+03 -0.29611412464E+03  0.64155825866E+03  0.10100000352E+00 0. -1.
</event>
<event>
 5   0  0.9491680E-05  0.2386971E+04  0.7818609E-02  0.8444398E-01
       -2   -1    0    0    0  501  0.00000000000E+00  0.00000000000E+00  0.55034350413E+03  0.55034350414E+03  0.25500000920E-02 0. -1.
        2   -1    0    0  501    0  0.00000000000E+00  0.00000000000E+00 -0.25882154534E+04  0.25882154534E+04  0.25500000920E-02 0.  1.
    10030    2    1    2    0    0  0.00000000000E+00  0.00000000000E+00 -0.20378719493E+04  0.31385589576E+04  0.23869709358E+04 0.  0.
        5    1    3    3  502    0 -0.99283079250E+03 -0.14079923683E+03 -0.18699004234E+04  0.21218122186E+04  0.46999998093E+01 0.  1.
       -5    1    3    3    0  502  0.99283079250E+03  0.14079923683E+03 -0.16797152587E+03  0.10167467389E+04  0.46999998093E+01 0. -1.
</event>
<event>
 5   0  0.9144244E-05  0.1492697E+04  0.7818609E-02  0.8889324E-01
        2   -1    0    0  501    0  0.00000000000E+00  0.00000000000E+00  0.16314910493E+04  0.16314910493E+04  0.25500000920E-02 0. -1.
       -2   -1    0    0    0  501  0.00000000000E+00  0.00000000000E+00 -0.34142765880E+03  0.34142765881E+03  0.25500000920E-02 0.  1.
    10030    2    1    2    0    0  0.00000000000E+00  0.00000000000E+00  0.12900633905E+04  0.19729187081E+04  0.14926971151E+04 0.  0.
        1    1    3    3  502    0  0.17640642350E+03 -0.15150998888E+03  0.15823885089E+04  0.15993835988E+04  0.50400001928E-02 0. -1.
       -1    1    3    3    0  502 -0.17640642350E+03  0.15150998888E+03 -0.29232511842E+03  0.37353510929E+03  0.50400001928E-02 0.  1.
</event>
<event>
 5   0  0.9144244E-05  0.1902142E+04  0.7818609E-02  0.8653791E-01
        2   -1    0    0  501    0  0.00000000000E+00  0.00000000000E+00  0.94009760690E+03  0.94009760690E+03  0.25500000920E-02 0. -1.
       -2   -1    0    0    0  501  0.00000000000E+00  0.00000000000E+00 -0.96217258472E+03  0.96217258473E+03  0.25500000920E-02 0.  1.
    10030    2    1    2    0    0  0.00000000000E+00  0.00000000000E+00 -0.22074977827E+02  0.19022701916E+04  0.19021421023E+04 0.  0.
        1    1    3    3  502    0  0.55542809884E+03  0.75609565954E+03  0.14503430602E+03  0.94932395383E+03  0.50400001928E-02 0.  1.
       -1    1    3    3    0  502 -0.55542809884E+03 -0.75609565954E+03 -0.16710928385E+03  0.95294623780E+03  0.50400001928E-02 0. -1.
</event>
<event>
 5   0  0.3934906E-05  0.2396906E+04  0.7818609E-02  0.8440663E-01
        1   -1    0    0  501    0  0.00000000000E+00  0.00000000000E+00  0.15086801523E+04  0.15086801524E+04  0.50400001928E-02 0. -1.
       -1   -1    0    0    0  501  0.00000000000E+00  0.00000000000E+00 -0.95201693092E+03  0.95201693093E+03  0.50400001928E-02 0.  1.
    10030    2    1    2    0    0  0.00000000000E+00  0.00000000000E+00  0.55666322143E+03  0.24606970833E+04  0.23969055454E+04 0.  0.
        2    1    3    3  502    0  0.54716851253E+03  0.21132544141E+03  0.13512476093E+04  0.14730654856E+04  0.25500000920E-02 0. -1.
       -2    1    3    3    0  502 -0.54716851253E+03 -0.21132544141E+03 -0.79458438786E+03  0.98763159767E+03  0.25500000920E-02 0.  1.
</event>
<event>
 5   0  0.3934906E-05  0.2267117E+04  0.7818609E-02  0.8491001E-01
       -1   -1    0    0    0  501  0.00000000000E+00  0.00000000000E+00  0.13579249705E+04  0.13579249705E+04  0.50400001928E-02 0.  1.
        1   -1    0    0  501    0  0.00000000000E+00  0.00000000000E+00 -0.94626315530E+03  0.94626315532E+03  0.50400001928E-02 0. -1.
    10030    2    1    2    0    0  0.00000000000E+00  0.00000000000E+00  0.41166181522E+03  0.23041881258E+04  0.22671165539E+04 0.  0.
        2    1    3    3  502    0  0.70773582056E+02 -0.11218769794E+04  0.57368684107E+02  0.11255700878E+04  0.25500000920E-02 0. -1.
       -2    1    3    3    0  502 -0.70773582056E+02  0.11218769794E+04  0.35429313111E+03  0.11786180380E+04  0.25500000920E-02 0.  1.
</event>
<event>
 5   0  0.9750757E-05  0.2215498E+04  0.7818609E-02  0.8512005E-01
        2   -1    0    0  501    0  0.00000000000E+00  0.00000000000E+00  0.13777786724E+04  0.13777786724E+04  0.25500000920E-02 0.  1.
       -2   -1    0    0    0  501  0.00000000000E+00  0.00000000000E+00 -0.89064231086E+03  0.89064231087E+03  0.25500000920E-02 0. -1.
    10030    2    1    2    0    0  0.00000000000E+00  0.00000000000E+00  0.48713636151E+03  0.22684209832E+04  0.22154981206E+04 0.  0.
        2    1    3    3  502    0  0.99289100619E+03  0.38464007093E+03  0.55636113446E+03  0.12013818070E+04  0.25500000920E-02 0.  1.
       -2    1    3    3    0  502 -0.99289100619E+03 -0.38464007093E+03 -0.69224772951E+02  0.10670391762E+04  0.25500000920E-02 0. -1.
</event>
<event>
 5   0  0.4018942E-05  0.2428629E+04  0.7818609E-02  0.8428862E-01
        1   -1    0    0  501    0  0.00000000000E+00  0.00000000000E+00  0.16994758572E+04  0.16994758572E+04  0.50400001928E-02 0.  1.
       -1   -1    0    0    0  501  0.00000000000E+00  0.00000000000E+00 -0.86765573257E+03  0.86765573259E+03  0.50400001928E-02 0. -1.
    10030    2    1    2    0    0  0.00000000000E+00  0.00000000000E+00  0.83182012462E+03  0.25671315898E+04  0.24286292182E+04 0.  0.
        5    1    3    3  502    0 -0.51302215175E+03 -0.30028788827E+03 -0.70333012549E+03  0.92090167740E+03  0.46999998093E+01 0. -1.
       -5    1    3    3    0  502  0.51302215175E+03  0.30028788827E+03  0.15351502501E+04  0.16462299124E+04  0.46999998093E+01 0.  1.
</event>
<event>
 5   0  0.4260395E-05  0.2370801E+04  0.7818609E-02  0.8450517E-01
        1   -1    0    0  501    0  0.00000000000E+00  0.00000000000E+00  0.27556860645E+04  0.27556860645E+04  0.50400001928E-02 0.  1.
       -1   -1    0    0    0  501  0.00000000000E+00  0.00000000000E+00 -0.50991798312E+03  0.50991798314E+03  0.50400001928E-02 0. -1.
    10030    2    1    2    0    0  0.00000000000E+00  0.00000000000E+00  0.22457680814E+04  0.32656040476E+04  0.23708006075E+04 0.  0.
        4    1    3    3  502    0 -0.33627125040E+03 -0.71968733004E+03 -0.89051129504E+02  0.79934968783E+03  0.12699999809E+01 0. -1.
       -4    1    3    3    0  502  0.33627125040E+03  0.71968733004E+03  0.23348192109E+04  0.24662543598E+04  0.12699999809E+01 0.  1.
</event>
<event>
 5   0  0.4061631E-05  0.2272750E+04  0.7818609E-02  0.8488744E-01
        1   -1    0    0  501    0  0.00000000000E+00  0.00000000000E+00  0.18344057878E+04  0.18344057878E+04  0.50400001928E-02 0. -1.
       -1   -1    0    0    0  501  0.00000000000E+00  0.00000000000E+00 -0.70395976267E+03  0.70395976268E+03  0.50400001928E-02 0.  1.
    10030    2    1    2    0    0  0.00000000000E+00  0.00000000000E+00  0.11304460251E+04  0.25383655505E+04  0.22727497557E+04 0.  0.
        3    1    3    3  502    0  0.22755928490E+02 -0.31214325507E+03  0.17853216582E+04  0.18125464621E+04  0.10100000352E+00 0. -1.
       -3    1    3    3    0  502 -0.22755928490E+02  0.31214325507E+03 -0.65487563309E+03  0.72581908833E+03  0.10100000352E+00 0.  1.
</event>
<event>
 5   0  0.4018942E-05  0.2517491E+04  0.7818609E-02  0.8396781E-01
       -1   -1    0    0    0  501  0.00000000000E+00  0.00000000000E+00  0.11108104935E+04  0.11108104935E+04  0.50400001928E-02 0. -1.
        1   -1    0    0  501    0  0.00000000000E+00  0.00000000000E+00 -0.14263818339E+04  0.14263818339E+04  0.50400001928E-02 0.  1.
    10030    2    1    2    0    0  0.00000000000E+00  0.00000000000E+00 -0.31557134037E+03  0.25371923274E+04  0.25174907418E+04 0.  0.
        5    1    3    3  502    0 -0.59065774694E+03  0.47328843849E+03  0.85583833522E+03  0.11425234641E+04  0.46999998093E+01 0. -1.
       -5    1    3    3    0  502  0.59065774694E+03 -0.47328843849E+03 -0.11714096756E+04  0.13946688632E+04  0.46999998093E+01 0.  1.
</event>
<event>
 5   0  0.9750757E-05  0.2286642E+04  0.7818609E-02  0.8483207E-01
        2   -1    0    0  501    0  0.00000000000E+00  0.00000000000E+00  0.14532737162E+04  0.14532737162E+04  0.25500000920E-02 0.  1.
       -2   -1    0    0    0  501  0.00000000000E+00  0.00000000000E+00 -0.89947433446E+03  0.89947433446E+03  0.25500000920E-02 0. -1.
    10030    2    1    2    0    0  0.00000000000E+00  0.00000000000E+00  0.55379938172E+03  0.23527480506E+04  0.22866415623E+04 0.  0.
        2    1    3    3  502    0 -0.84260357327E+02  0.27543696583E+03  0.14153302529E+04  0.14443424298E+04  0.25500000920E-02 0.  1.
       -2    1    3    3    0  502  0.84260357327E+02 -0.27543696583E+03 -0.86153087114E+03  0.90840562080E+03  0.25500000920E-02 0. -1.
</event>
<event>
 5   0  0.9750757E-05  0.2187957E+04  0.7818609E-02  0.8523457E-01
       -2   -1    0    0    0  501  0.00000000000E+00  0.00000000000E+00  0.11056955379E+04  0.11056955379E+04  0.25500000920E-02 0.  1.
        2   -1    0    0  501    0  0.00000000000E+00  0.00000000000E+00 -0.10823859079E+04  0.10823859079E+04  0.25500000920E-02 0. -1.
    10030    2    1    2    0    0  0.00000000000E+00  0.00000000000E+00  0.23309630032E+02  0.21880814459E+04  0.21879572836E+04 0.  0.
        2    1    3    3  502    0 -0.49283001544E+03  0.82328055151E+03  0.53715297598E+03  0.10996388545E+04  0.25500000920E-02 0.  1.
       -2    1    3    3    0  502  0.49283001544E+03 -0.82328055151E+03 -0.51384334595E+03  0.10884425914E+04  0.25500000920E-02 0. -1.
</event>
<event>
 5   0  0.4260395E-05  0.2410202E+04  0.7818609E-02  0.8435694E-01
        1   -1    0    0  501    0  0.00000000000E+00  0.00000000000E+00  0.11308993962E+04  0.11308993963E+04  0.50400001928E-02 0. -1.
       -1   -1    0    0    0  501  0.00000000000E+00  0.00000000000E+00 -0.12841707833E+04  0.12841707833E+04  0.50400001928E-02 0.  1.
    10030    2    1    2    0    0  0.00000000000E+00  0.00000000000E+00 -0.15327138705E+03  0.24150701796E+04  0.24102016210E+04 0.  0.
        4    1    3    3  502    0  0.93866253567E+03 -0.62107814040E+03  0.35486270603E+03  0.11801502300E+04  0.12699999809E+01 0. -1.
       -4    1    3    3    0  502 -0.93866253567E+03  0.62107814040E+03 -0.50813409308E+03  0.12349199496E+04  0.12699999809E+01 0.  1.
</event>
<event>
 5   0  0.4208577E-05  0.2368389E+04  0.7818609E-02  0.8451434E-01
       -1   -1    0    0    0  501  0.00000000000E+00  0.00000000000E+00  0.74132957715E+03  0.74132957717E+03  0.50400001928E-02 0. -1.
        1   -1    0    0  501    0  0.00000000000E+00  0.00000000000E+00 -0.18916229301E+04  0.18916229301E+04  0.50400001928E-02 0.  1.
    10030    2    1    2    0    0  0.00000000000E+00  0.00000000000E+00 -0.11502933530E+04  0.26329525073E+04  0.23683885044E+04 0.  0.
        1    1    3    3  502    0 -0.23522609445E+03  0.26469539205E+03 -0.18313851965E+04  0.18653060617E+04  0.50400001928E-02 0.  1.
       -1    1    3    3    0  502  0.23522609445E+03 -0.26469539205E+03  0.68109184349E+03  0.76764644556E+03  0.50400001928E-02 0. -1.
</event>
<event>
 5   0  0.4208577E-05  0.2316890E+04  0.7818609E-02  0.8471291E-01
        1   -1    0    0  501    0  0.00000000000E+00  0.00000000000E+00  0.20866129487E+04  0.20866129487E+04  0.50400001928E-02 0. -1.
       -1   -1    0    0    0  501  0.00000000000E+00  0.00000000000E+00 -0.64314511113E+03  0.64314511115E+03  0.50400001928E-02 0.  1.
    10030    2    1    2    0    0  0.00000000000E+00  0.00000000000E+00  0.14434678375E+04  0.27297580598E+04  0.23168900853E+04 0.  0.
        1    1    3    3  502    0  0.71918597690E+03 -0.90470542450E+03  0.81506144412E+03  0.14142296603E+04  0.50400001928E-02 0.  1.
       -1    1    3    3    0  502 -0.71918597690E+03  0.90470542450E+03  0.62840639342E+03  0.13155283995E+04  0.50400001928E-02 0. -1.
</event>
<event>
 5   0  0.4018942E-05  0.2358065E+04  0.7818609E-02  0.8455372E-01
        1   -1    0    0  501    0  0.00000000000E+00  0.00000000000E+00  0.18293238410E+04  0.18293238410E+04  0.50400001928E-02 0. -1.
       -1   -1    0    0    0  501  0.00000000000E+00  0.00000000000E+00 -0.75990782449E+03  0.75990782451E+03  0.50400001928E-02 0.  1.
    10030    2    1    2    0    0  0.00000000000E+00  0.00000000000E+00  0.10694160165E+04  0.25892316655E+04  0.23580648849E+04 0.  0.
        5    1    3    3  502    0  0.76333413027E+03 -0.17100574028E+02  0.15211811958E+04  0.17020533906E+04  0.46999998093E+01 0. -1.
       -5    1    3    3    0  502 -0.76333413027E+03  0.17100574028E+02 -0.45176517936E+03  0.88717827483E+03  0.46999998093E+01 0.  1.
</event>
<event>
 5   0  0.9144244E-05  0.2374857E+04  0.7818609E-02  0.8448977E-01
        2   -1    0    0  501    0  0.00000000000E+00  0.00000000000E+00  0.15632767016E+04  0.15632767016E+04  0.25500000920E-02 0.  1.
       -2   -1    0    0    0  501  0.00000000000E+00  0.00000000000E+00 -0.90194294018E+03  0.90194294019E+03  0.25500000920E-02 0. -1.
    10030    2    1    2    0    0  0.00000000000E+00  0.00000000000E+00  0.66133376141E+03  0.24652196418E+04  0.23748569511E+04 0.  0.
        1    1    3    3  502    0  0.14833495972E+03 -0.22821878676E+03 -0.86912253652E+03  0.91074752727E+03  0.50400001928E-02 0. -1.
       -1    1    3    3    0  502 -0.14833495972E+03  0.22821878676E+03  0.15304562979E+04  0.15544721145E+04  0.50400001928E-02 0.  1.
</event>
<event>
 5   0  0.9182865E-05  0.1966848E+04  0.7818609E-02  0.8622279E-01
        2   -1    0    0  501    0  0.00000000000E+00  0.00000000000E+00  0.12187466860E+04  0.12187466861E+04  0.25500000920E-02 0.  1.
       -2   -1    0    0    0  501  0.00000000000E+00  0.00000000000E+00 -0.79353855147E+03  0.79353855148E+03  0.25500000920E-02 0. -1.
    10030    2    1    2    0    0  0.00000000000E+00  0.00000000000E+00  0.42520813458E+03  0.20122852375E+04  0.19668477113E+04 0.  0.
        3    1    3    3  502    0  0.73221387338E+03 -0.56757334659E+03 -0.12493547977E+03  0.93481845533E+03  0.10100000352E+00 0. -1.
       -3    1    3    3    0  502 -0.73221387338E+03  0.56757334659E+03  0.55014361435E+03  0.10774667822E+04  0.10100000352E+00 0.  1.
</event>
<event>
 5   0  0.9144244E-05  0.2407743E+04  0.7818609E-02  0.8436610E-01
        2   -1    0    0  501    0  0.00000000000E+00  0.00000000000E+00  0.20471576209E+04  0.20471576209E+04  0.25500000920E-02 0. -1.
       -2   -1    0    0    0  501  0.00000000000E+00  0.00000000000E+00 -0.70796059794E+03  0.70796059794E+03  0.25500000920E-02 0.  1.
    10030    2    1    2    0    0  0.00000000000E+00  0.00000000000E+00  0.13391970230E+04  0.27551182189E+04  0.24077432865E+04 0.  0.
        1    1    3    3  502    0  0.84487450653E+03  0.10834702465E+03 -0.30387877692E+03  0.90437509952E+03  0.50400001928E-02 0.  1.
       -1    1    3    3    0  502 -0.84487450653E+03 -0.10834702465E+03  0.16430757999E+04  0.18507431193E+04  0.50400001928E-02 0. -1.
</event>
<event>
 5   0  0.9182865E-05  0.2411934E+04  0.7818609E-02  0.8435049E-01
        2   -1    0    0  501    0  0.00000000000E+00  0.00000000000E+00  0.13234696497E+04  0.13234696497E+04  0.25500000920E-02 0. -1.
       -2   -1    0    0    0  501  0.00000000000E+00  0.00000000000E+00 -0.10988962890E+04  0.10988962890E+04  0.25500000920E-02 0.  1.
    10030    2    1    2    0    0  0.00000000000E+00  0.00000000000E+00  0.22457336064E+03  0.24223659387E+04  0.24119335702E+04 0.  0.
        3    1    3    3  502    0 -0.39417995392E+03 -0.40444220677E+03 -0.95787580468E+03  0.11119700545E+04  0.10100000352E+00 0.  1.
       -3    1    3    3    0  502  0.39417995392E+03  0.40444220677E+03  0.11824491653E+04  0.13103958842E+04  0.10100000352E+00 0. -1.
</event>
<event>
 5   0  0.9491680E-05  0.2381543E+04  0.7818609E-02  0.8446446E-01
        2   -1    0    0  501    0  0.00000000000E+00  0.00000000000E+00  0.20646372220E+04  0.20646372220E+04  0.25500000920E-02 0. -1.
       -2   -1    0    0    0  501  0.00000000000E+00  0.00000000000E+00 -0.68677275115E+03  0.68677275115E+03  0.25500000920E-02 0.  1.
    10030    2    1    2    0    0  0.00000000000E+00  0.00000000000E+00  0.13778644708E+04  0.27514099731E+04  0.23815428487E+04 0.  0.
        5    1    3    3  502    0 -0.86875818240E+03  0.66052314426E+03  0.13863442907E+03  0.11001241741E+04  0.46999998093E+01 0.  1.
       -5    1    3    3    0  502  0.86875818240E+03 -0.66052314426E+03  0.12392300417E+04  0.16512857990E+04  0.46999998093E+01 0. -1.
</event>
<event>
 5   0  0.3934906E-05  0.2383907E+04  0.7818609E-02  0.8445553E-01
       -1   -1    0    0    0  501  0.00000000000E+00  0.00000000000E+00  0.76058808306E+03  0.76058808308E+03  0.50400001928E-02 0. -1.
        1   -1    0    0  501    0  0.00000000000E+00  0.00000000000E+00 -0.18679670979E+04  0.18679670979E+04  0.50400001928E-02 0.  1.
    10030    2    1    2    0    0  0.00000000000E+00  0.00000000000E+00 -0.11073790149E+04  0.26285551810E+04  0.23839073088E+04 0.  0.
        2    1    3    3  502    0 -0.24660918733E+02  0.89855531314E+03  0.30942250637E+03  0.95065877114E+03  0.25500000920E-02 0. -1.
       -2    1    3    3    0  502  0.24660918733E+02 -0.89855531314E+03 -0.14168015212E+04  0.16778964099E+04  0.25500000920E-02 0.  1.
</event>
<event>
 5   0  0.4061631E-05  0.2543463E+04  0.7818609E-02  0.8387663E-01
        1   -1    0    0  501    0  0.00000000000E+00  0.00000000000E+00  0.13606484917E+04  0.13606484918E+04  0.50400001928E-02 0. -1.
       -1   -1    0    0    0  501  0.00000000000E+00  0.00000000000E+00 -0.11886249986E+04  0.11886249986E+04  0.50400001928E-02 0.  1.
    10030    2    1    2    0    0  0.00000000000E+00  0.00000000000E+00  0.17202349312E+03  0.25492734904E+04  0.25434628455E+04 0.  0.
        3    1    3    3  502    0  0.48201079617E+03 -0.11129828126E+04  0.46929307749E+03  0.13005003466E+04  0.10100000352E+00 0.  1.
       -3    1    3    3    0  502 -0.48201079617E+03  0.11129828126E+04 -0.29726958437E+03  0.12487731438E+04  0.10100000352E+00 0. -1.
</event>
<event>
 5   0  0.9144244E-05  0.2296073E+04  0.7818609E-02  0.8479471E-01
       -2   -1    0    0    0  501  0.00000000000E+00  0.00000000000E+00  0.91630048570E+03  0.91630048571E+03  0.25500000920E-02 0. -1.
        2   -1    0    0  501    0  0.00000000000E+00  0.00000000000E+00 -0.14383796767E+04  0.14383796767E+04  0.25500000920E-02 0.  1.
    10030    2    1    2    0    0  0.00000000000E+00  0.00000000000E+00 -0.52207919095E+03  0.23546801624E+04  0.22960731664E+04 0.  0.
        1    1    3    3  502    0  0.53867503373E+02  0.22862814866E+03 -0.14134738181E+04  0.14328575549E+04  0.50400001928E-02 0.  1.
       -1    1    3    3    0  502 -0.53867503373E+02 -0.22862814866E+03  0.89139462713E+03  0.92182260744E+03  0.50400001928E-02 0. -1.
</event>
<event>
 5   0  0.4061631E-05  0.2203924E+04  0.7818609E-02  0.8516796E-01
        1   -1    0    0  501    0  0.00000000000E+00  0.00000000000E+00  0.14352241214E+04  0.14352241214E+04  0.50400001928E-02 0.  1.
       -1   -1    0    0    0  501  0.00000000000E+00  0.00000000000E+00 -0.84608439179E+03  0.84608439181E+03  0.50400001928E-02 0. -1.
    10030    2    1    2    0    0  0.00000000000E+00  0.00000000000E+00  0.58913972958E+03  0.22813085132E+04  0.22039244341E+04 0.  0.
        3    1    3    3  502    0 -0.92501646424E+03 -0.59749138599E+03  0.25227819782E+03  0.11297325855E+04  0.10100000352E+00 0.  1.
       -3    1    3    3    0  502  0.92501646424E+03  0.59749138599E+03  0.33686153175E+03  0.11515759277E+04  0.10100000352E+00 0. -1.
</event>
<event>
 5   0  0.3934906E-05  0.2356241E+04  0.7818609E-02  0.8456070E-01
       -1   -1    0    0    0  501  0.00000000000E+00  0.00000000000E+00  0.84093682327E+03  0.84093682329E+03  0.50400001928E-02 0. -1.
        1   -1    0    0  501    0  0.00000000000E+00  0.00000000000E+00 -0.16505018340E+04  0.16505018340E+04  0.50400001928E-02 0.  1.
    10030    2    1    2    0    0  0.00000000000E+00  0.00000000000E+00 -0.80956501076E+03  0.24914386573E+04  0.23562408783E+04 0.  0.
        2    1    3    3  502    0 -0.65333227725E+03 -0.31192395285E+03 -0.13875350777E+04  0.15650537399E+04  0.25500000920E-02 0.  1.
       -2    1    3    3    0  502  0.65333227725E+03  0.31192395285E+03  0.57797006699E+03  0.92638491741E+03  0.25500000920E-02 0. -1.
</event>
<event>
 5   0  0.4260395E-05  0.1999890E+04  0.7818609E-02  0.8606672E-01
        1   -1    0    0  501    0  0.00000000000E+00  0.00000000000E+00  0.15361160962E+04  0.15361160962E+04  0.50400001928E-02 0.  1.
       -1   -1    0    0    0  501  0.00000000000E+00  0.00000000000E+00 -0.65092091041E+03  0.65092091043E+03  0.50400001928E-02 0. -1.
    10030    2    1    2    0    0  0.00000000000E+00  0.00000000000E+00  0.88519518581E+03  0.21870370067E+04  0.19998900849E+04 0.  0.
        4    1    3    3  502    0  0.11659454837E+03 -0.97933136051E+03  0.26222582436E+03  0.10205136933E+04  0.12699999809E+01 0. -1.
       -4    1    3    3    0  502 -0.11659454837E+03  0.97933136051E+03  0.62296936145E+03  0.11665233133E+04  0.12699999809E+01 0.  1.
</event>
<event>
 5   0  0.9519092E-05  0.2139589E+04  0.7818609E-02  0.8544002E-01
        2   -1    0    0  501    0  0.00000000000E+00  0.00000000000E+00  0.17233110805E+04  0.17233110805E+04  0.25500000920E-02 0.  1.
       -2   -1    0    0    0  501  0.00000000000E+00  0.00000000000E+00 -0.66410515892E+03  0.66410515893E+03  0.25500000920E-02 0. -1.
    10030    2    1    2    0    0  0.00000000000E+00  0.00000000000E+00  0.10592059215E+04  0.23874162394E+04  0.21395885389E+04 0.  0.
        4    1    3    3  502    0  0.75686419329E+03 -0.63851604958E+03  0.98135827829E+03  0.13941347983E+04  0.12699999809E+01 0.  1.
       -4    1    3    3    0  502 -0.75686419329E+03  0.63851604958E+03  0.77847643246E+02  0.99328144105E+03  0.12699999809E+01 0. -1.
</event>
<event>
 5   0  0.4018942E-05  0.2438832E+04  0.7818609E-02  0.8425107E-01
        1   -1    0    0  501    0  0.00000000000E+00  0.00000000000E+00  0.10900233272E+04  0.10900233272E+04  0.50400001928E-02 0.  1.
       -1   -1    0    0    0  501  0.00000000000E+00  0.00000000000E+00 -0.13641681564E+04  0.13641681565E+04  0.50400001928E-02 0. -1.
    10030    2    1    2    0    0  0.00000000000E+00  0.00000000000E+00 -0.27414482923E+03  0.24541914837E+04  0.24388317800E+04 0.  0.
        5    1    3    3  502    0  0.58379003301E+02 -0.10581498834E+04  0.46993778430E+03  0.11592898235E+04  0.46999998093E+01 0.  1.
       -5    1    3    3    0  502 -0.58379003301E+02  0.10581498834E+04 -0.74408261353E+03  0.12949016602E+04  0.46999998093E+01 0. -1.
</event>
<event>
 5   0  0.4018942E-05  0.2364816E+04  0.7818609E-02  0.8452794E-01
        1   -1    0    0  501    0  0.00000000000E+00  0.00000000000E+00  0.19782065922E+04  0.19782065922E+04  0.50400001928E-02 0.  1.
       -1   -1    0    0    0  501  0.00000000000E+00  0.00000000000E+00 -0.70674570358E+03  0.70674570359E+03  0.50400001928E-02 0. -1.
    10030    2    1    2    0    0  0.00000000000E+00  0.00000000000E+00  0.12714608886E+04  0.26849522958E+04  0.23648162803E+04 0.  0.
        5    1    3    3  502    0  0.37606749696E+03  0.46528728429E+03 -0.52221131342E+03  0.79413208288E+03  0.46999998093E+01 0. -1.
       -5    1    3    3    0  502 -0.37606749696E+03 -0.46528728429E+03  0.17936722020E+04  0.18908202129E+04  0.46999998093E+01 0.  1.
</event>
<event>
 5   0  0.4018942E-05  0.2391398E+04  0.7818609E-02  0.8442731E-01
        1   -1    0    0  501    0  0.00000000000E+00  0.00000000000E+00  0.91759509243E+03  0.91759509244E+03  0.50400001928E-02 0. -1.
       -1   -1    0    0    0  501  0.00000000000E+00  0.00000000000E+00 -0.15580909370E+04  0.15580909370E+04  0.50400001928E-02 0.  1.
    10030    2    1    2    0    0  0.00000000000E+00  0.00000000000E+00 -0.64049584459E+03  0.24756860295E+04  0.23913984172E+04 0.  0.
        5    1    3    3  502    0  0.19734044776E+03  0.10270212952E+04  0.27980071595E+03  0.10826017383E+04  0.46999998093E+01 0. -1.
       -5    1    3    3    0  502 -0.19734044776E+03 -0.10270212952E+04 -0.92029656053E+03  0.13930842912E+04  0.46999998093E+01 0.  1.
</event>
<event>
 5   0  0.9491680E-05  0.2425239E+04  0.7818609E-02  0.8430115E-01
       -2   -1    0    0    0  501  0.00000000000E+00  0.00000000000E+00  0.90598858662E+03  0.90598858662E+03  0.25500000920E-02 0.  1.
        2   -1    0    0  501    0  0.00000000000E+00  0.00000000000E+00 -0.16230289098E+04  0.16230289098E+04  0.25500000920E-02 0. -1.
    10030    2    1    2    0    0  0.00000000000E+00  0.00000000000E+00 -0.71704032315E+03  0.25290174964E+04  0.24252386835E+04 0.  0.
        5    1    3    3  502    0  0.17241209330E+03  0.40590793170E+03  0.81938916519E+03  0.93054170941E+03  0.46999998093E+01 0.  1.
       -5    1    3    3    0  502 -0.17241209330E+03 -0.40590793170E+03 -0.15364294883E+04  0.15984757870E+04  0.46999998093E+01 0. -1.
</event>
<event>
 5   0  0.9144244E-05  0.2272728E+04  0.7818609E-02  0.8488752E-01
       -2   -1    0    0    0  501  0.00000000000E+00  0.00000000000E+00  0.10228226150E+04  0.10228226150E+04  0.25500000920E-02 0.  1.
        2   -1    0    0  501    0  0.00000000000E+00  0.00000000000E+00 -0.12625094561E+04  0.12625094561E+04  0.25500000920E-02 0. -1.
    10030    2    1    2    0    0  0.00000000000E+00  0.00000000000E+00 -0.23968684111E+03  0.22853320712E+04  0.22727280730E+04 0.  0.
        1    1    3    3  502    0  0.45361345152E+03 -0.34062265180E+03 -0.11099533594E+04  0.12465092917E+04  0.50400001928E-02 0. -1.
       -1    1    3    3    0  502 -0.45361345152E+03  0.34062265180E+03  0.87026651825E+03  0.10388227795E+04  0.50400001928E-02 0.  1.
</event>
<event>
 5   0  0.3934906E-05  0.2324013E+04  0.7818609E-02  0.8468513E-01
       -1   -1    0    0    0  501  0.00000000000E+00  0.00000000000E+00  0.99863992491E+03  0.99863992492E+03  0.50400001928E-02 0.  1.
        1   -1    0    0  501    0  0.00000000000E+00  0.00000000000E+00 -0.13520977765E+04  0.13520977765E+04  0.50400001928E-02 0. -1.
    10030    2    1    2    0    0  0.00000000000E+00  0.00000000000E+00 -0.35345785163E+03  0.23507377015E+04  0.23240127556E+04 0.  0.
        2    1    3    3  502    0  0.59415968817E+03 -0.44785571921E+03  0.72609221315E+03  0.10396203068E+04  0.25500000920E-02 0.  1.
       -2    1    3    3    0  502 -0.59415968817E+03  0.44785571921E+03 -0.10795500648E+04  0.13111173947E+04  0.25500000920E-02 0. -1.
</event>
<event>
 5   0  0.3234750E-05  0.1366833E+04  0.7818609E-02  0.8978183E-01
        4   -1    0    0  501    0  0.00000000000E+00  0.00000000000E+00  0.79689591803E+03  0.79689693001E+03  0.12699999809E+01 0.  1.
       -4   -1    0    0    0  501  0.00000000000E+00  0.00000000000E+00 -0.58609476422E+03  0.58609614019E+03  0.12699999809E+01 0. -1.
    10030    2    1    2    0    0  0.00000000000E+00  0.00000000000E+00  0.21080115381E+03  0.13829930702E+04  0.13668330936E+04 0.  0.
        5    1    3    3  502    0  0.48672611105E+03  0.44536110767E+03  0.28579831445E+03  0.71899345612E+03  0.46999998093E+01 0.  1.
       -5    1    3    3    0  502 -0.48672611105E+03 -0.44536110767E+03 -0.74997160648E+02  0.66399961408E+03  0.46999998093E+01 0. -1.
</event>
<event>
 5   0  0.9144244E-05  0.2155907E+04  0.7818609E-02  0.8537008E-01
       -2   -1    0    0    0  501  0.00000000000E+00  0.00000000000E+00  0.48433481892E+03  0.48433481892E+03  0.25500000920E-02 0.  1.
        2   -1    0    0  501    0  0.00000000000E+00  0.00000000000E+00 -0.23991322413E+04  0.23991322413E+04  0.25500000920E-02 0. -1.
    10030    2    1    2    0    0  0.00000000000E+00  0.00000000000E+00 -0.19147974224E+04  0.28834670603E+04  0.21559065654E+04 0.  0.
        1    1    3    3  502    0 -0.38168902247E+03 -0.97473192348E+03 -0.13015075587E+04  0.16702427243E+04  0.50400001928E-02 0. -1.
       -1    1    3    3    0  502  0.38168902247E+03  0.97473192348E+03 -0.61328986369E+03  0.12132243360E+04  0.50400001928E-02 0.  1.
</event>
<event>
 5   0  0.9144244E-05  0.2446066E+04  0.7818609E-02  0.8422456E-01
       -2   -1    0    0    0  501  0.00000000000E+00  0.00000000000E+00  0.12245201971E+04  0.12245201971E+04  0.25500000920E-02 0. -1.
        2   -1    0    0  501    0  0.00000000000E+00  0.00000000000E+00 -0.12215478281E+04  0.12215478282E+04  0.25500000920E-02 0.  1.
    10030    2    1    2    0    0  0.00000000000E+00  0.00000000000E+00  0.29723689707E+01  0.24460680253E+04  0.24460662193E+04 0.  0.
        1    1    3    3  502    0 -0.16044626349E+03  0.35626849137E+03 -0.11574537316E+04  0.12216257129E+04  0.50400001928E-02 0.  1.
       -1    1    3    3    0  502  0.16044626349E+03 -0.35626849137E+03  0.11604261006E+04  0.12244423124E+04  0.50400001928E-02 0. -1.
</event>
<event>
 5   0  0.9182865E-05  0.2311200E+04  0.7818609E-02  0.8473518E-01
       -2   -1    0    0    0  501  0.00000000000E+00  0.00000000000E+00  0.15673555226E+04  0.15673555226E+04  0.25500000920E-02 0.  1.
        2   -1    0    0  501    0  0.00000000000E+00  0.00000000000E+00 -0.85201541460E+03  0.85201541461E+03  0.25500000920E-02 0. -1.
    10030    2    1    2    0    0  0.00000000000E+00  0.00000000000E+00  0.71534010799E+03  0.24193709372E+04  0.23111997451E+04 0.  0.
        3    1    3    3  502    0  0.52814679910E+03 -0.92763892560E+03 -0.10571979847E+03  0.10726740901E+04  0.10100000352E+00 0.  1.
       -3    1    3    3    0  502 -0.52814679910E+03  0.92763892560E+03  0.82105990645E+03  0.13466968471E+04  0.10100000352E+00 0. -1.
</event>
<event>
 5   0  0.4260395E-05  0.2447940E+04  0.7818609E-02  0.8421770E-01
       -1   -1    0    0    0  501  0.00000000000E+00  0.00000000000E+00  0.18071641267E+04  0.18071641267E+04  0.50400001928E-02 0.  1.
        1   -1    0    0  501    0  0.00000000000E+00  0.00000000000E+00 -0.82898004733E+03  0.82898004735E+03  0.50400001928E-02 0. -1.
    10030    2    1    2    0    0  0.00000000000E+00  0.00000000000E+00  0.97818407939E+03  0.26361441741E+04  0.24479403615E+04 0.  0.
        4    1    3    3  502    0  0.11791907594E+04 -0.18965021658E+03  0.20085072239E+03  0.12111154682E+04  0.12699999809E+01 0. -1.
       -4    1    3    3    0  502 -0.11791907594E+04  0.18965021658E+03  0.77733335700E+03  0.14250287059E+04  0.12699999809E+01 0.  1.
</event>
<event>
 5   0  0.4260395E-05  0.2404046E+04  0.7818609E-02  0.8437991E-01
        1   -1    0    0  501    0  0.00000000000E+00  0.00000000000E+00  0.17668059475E+04  0.17668059475E+04  0.50400001928E-02 0.  1.
       -1   -1    0    0    0  501  0.00000000000E+00  0.00000000000E+00 -0.81778007020E+03  0.81778007022E+03  0.50400001928E-02 0. -1.
    10030    2    1    2    0    0  0.00000000000E+00  0.00000000000E+00  0.94902587733E+03  0.25845860178E+04  0.24040455003E+04 0.  0.
        4    1    3    3  502    0  0.11964260706E+04 -0.26259875254E+01  0.34999237822E+03  0.12465707024E+04  0.12699999809E+01 0.  1.
       -4    1    3    3    0  502 -0.11964260706E+04  0.26259875254E+01  0.59903349910E+03  0.13380153154E+04  0.12699999809E+01 0. -1.
</event>
<event>
 5   0  0.4208577E-05  0.2391923E+04  0.7818609E-02  0.8442534E-01
       -1   -1    0    0    0  501  0.00000000000E+00  0.00000000000E+00  0.15259924403E+04  0.15259924404E+04  0.50400001928E-02 0.  1.
        1   -1    0    0  501    0  0.00000000000E+00  0.00000000000E+00 -0.93730765150E+03  0.93730765152E+03  0.50400001928E-02 0. -1.
    10030    2    1    2    0    0  0.00000000000E+00  0.00000000000E+00  0.58868478885E+03  0.24633000919E+04  0.23919234022E+04 0.  0.
        1    1    3    3  502    0 -0.80143904229E+03  0.37851402374E+03 -0.53257992743E+03  0.10340303592E+04  0.50400001928E-02 0. -1.
       -1    1    3    3    0  502  0.80143904229E+03 -0.37851402374E+03  0.11212647163E+04  0.14292697326E+04  0.50400001928E-02 0.  1.
</event>
<event>
 5   0  0.9491680E-05  0.2461189E+04  0.7818609E-02  0.8416944E-01
        2   -1    0    0  501    0  0.00000000000E+00  0.00000000000E+00  0.19748924951E+04  0.19748924951E+04  0.25500000920E-02 0. -1.
       -2   -1    0    0    0  501  0.00000000000E+00  0.00000000000E+00 -0.76680757573E+03  0.76680757573E+03  0.25500000920E-02 0.  1.
    10030    2    1    2    0    0  0.00000000000E+00  0.00000000000E+00  0.12080849194E+04  0.27417000709E+04  0.24611887587E+04 0.  0.
        5    1    3    3  502    0  0.68893650305E+03  0.97061950090E+03  0.95206744275E+03  0.15242015045E+04  0.46999998093E+01 0. -1.
       -5    1    3    3    0  502 -0.68893650305E+03 -0.97061950090E+03  0.25601747665E+03  0.12174985664E+04  0.46999998093E+01 0.  1.
</event>
<event>
 5   0  0.4061631E-05  0.2352525E+04  0.7818609E-02  0.8457494E-01
        1   -1    0    0  501    0  0.00000000000E+00  0.00000000000E+00  0.15348850313E+04  0.15348850313E+04  0.50400001928E-02 0. -1.
       -1   -1    0    0    0  501  0.00000000000E+00  0.00000000000E+00 -0.90143129780E+03  0.90143129781E+03  0.50400001928E-02 0.  1.
    10030    2    1    2    0    0  0.00000000000E+00  0.00000000000E+00  0.63345373345E+03  0.24363163291E+04  0.23525249463E+04 0.  0.
        3    1    3    3  502    0  0.30196359279E+03  0.13050911409E+03  0.14862774984E+04  0.15222468435E+04  0.10100000352E+00 0. -1.
       -3    1    3    3    0  502 -0.30196359279E+03 -0.13050911409E+03 -0.85282376492E+03  0.91406948556E+03  0.10100000352E+00 0.  1.
</event>
<event>
 5   0  0.9491680E-05  0.2415416E+04  0.7818609E-02  0.8433754E-01
       -2   -1    0    0    0  501  0.00000000000E+00  0.00000000000E+00  0.90852252945E+03  0.90852252945E+03  0.25500000920E-02 0. -1.
        2   -1    0    0  501    0  0.00000000000E+00  0.00000000000E+00 -0.16054188361E+04  0.16054188361E+04  0.25500000920E-02 0.  1.
    10030    2    1    2    0    0  0.00000000000E+00  0.00000000000E+00 -0.69689630668E+03  0.25139413656E+04  0.24154164708E+04 0.  0.
        5    1    3    3  502    0  0.55714414381E+03 -0.10366065335E+04 -0.66138028433E+02  0.11787107496E+04  0.46999998093E+01 0. -1.
       -5    1    3    3    0  502 -0.55714414381E+03  0.10366065335E+04 -0.63075827825E+03  0.13352306160E+04  0.46999998093E+01 0.  1.
</event>
<event>
 5   0  0.9144244E-05  0.2425358E+04  0.7818609E-02  0.8430070E-01
       -2   -1    0    0    0  501  0.00000000000E+00  0.00000000000E+00  0.12401662222E+04  0.12401662222E+04  0.25500000920E-02 0. -1.
        2   -1    0    0  501    0  0.00000000000E+00  0.00000000000E+00 -0.11858014463E+04  0.11858014463E+04  0.25500000920E-02 0.  1.
    10030    2    1    2    0    0  0.00000000000E+00  0.00000000000E+00  0.54364775938E+02  0.24259676685E+04  0.24253584477E+04 0.  0.
        1    1    3    3  502    0 -0.45550286452E+03  0.10399961603E+04  0.45333638322E+03  0.12225337416E+04  0.50400001928E-02 0. -1.
       -1    1    3    3    0  502  0.45550286452E+03 -0.10399961603E+04 -0.39897160728E+03  0.12034339269E+04  0.50400001928E-02 0.  1.
</event>
<event>
 5   0  0.9144244E-05  0.2426848E+04  0.7818609E-02  0.8429520E-01
        2   -1    0    0  501    0  0.00000000000E+00  0.00000000000E+00  0.12432561445E+04  0.12432561445E+04  0.25500000920E-02 0. -1.
       -2   -1    0    0    0  501  0.00000000000E+00  0.00000000000E+00 -0.11843080338E+04  0.11843080338E+04  0.25500000920E-02 0.  1.
    10030    2    1    2    0    0  0.00000000000E+00  0.00000000000E+00  0.58948110643E+02  0.24275641783E+04  0.24268483595E+04 0.  0.
        1    1    3    3  502    0 -0.25453842340E+03 -0.58263886313E+03  0.10632876713E+04  0.12388860019E+04  0.50400001928E-02 0. -1.
       -1    1    3    3    0  502  0.25453842340E+03  0.58263886313E+03 -0.10043395607E+04  0.11886781764E+04  0.50400001928E-02 0.  1.
</event>
<event>
 5   0  0.9491680E-05  0.2350355E+04  0.7818609E-02  0.8458327E-01
        2   -1    0    0  501    0  0.00000000000E+00  0.00000000000E+00  0.24885402642E+04  0.24885402642E+04  0.25500000920E-02 0. -1.
       -2   -1    0    0    0  501  0.00000000000E+00  0.00000000000E+00 -0.55496087050E+03  0.55496087051E+03  0.25500000920E-02 0.  1.
    10030    2    1    2    0    0  0.00000000000E+00  0.00000000000E+00  0.19335793937E+04  0.30435011347E+04  0.23503552679E+04 0.  0.
        5    1    3    3  502    0  0.95041875423E+02 -0.96494854716E+03  0.10700214587E+03  0.97551535404E+03  0.46999998093E+01 0.  1.
       -5    1    3    3    0  502 -0.95041875423E+02  0.96494854716E+03  0.18265772478E+04  0.20679857806E+04  0.46999998093E+01 0. -1.
</event>
<event>
 5   0  0.4260395E-05  0.2210748E+04  0.7818609E-02  0.8513968E-01
       -1   -1    0    0    0  501  0.00000000000E+00  0.00000000000E+00  0.13284156257E+04  0.13284156257E+04  0.50400001928E-02 0. -1.
        1   -1    0    0  501    0  0.00000000000E+00  0.00000000000E+00 -0.91978130755E+03  0.91978130757E+03  0.50400001928E-02 0.  1.
    10030    2    1    2    0    0  0.00000000000E+00  0.00000000000E+00  0.40863431817E+03  0.22481969333E+04  0.22107481641E+04 0.  0.
        4    1    3    3  502    0 -0.11240553269E+03  0.94999793200E+03 -0.35888659484E+03  0.10217300404E+04  0.12699999809E+01 0.  1.
       -4    1    3    3    0  502  0.11240553269E+03 -0.94999793200E+03  0.76752091302E+03  0.12264668929E+04  0.12699999809E+01 0. -1.
</event>
<event>
 5   0  0.9144244E-05  0.2396297E+04  0.7818609E-02  0.8440891E-01
       -2   -1    0    0    0  501  0.00000000000E+00  0.00000000000E+00  0.80297289138E+03  0.80297289139E+03  0.25500000920E-02 0. -1.
        2   -1    0    0  501    0  0.00000000000E+00  0.00000000000E+00 -0.17878060234E+04  0.17878060234E+04  0.25500000920E-02 0.  1.
    10030    2    1    2    0    0  0.00000000000E+00  0.00000000000E+00 -0.98483313201E+03  0.25907789148E+04  0.23962969531E+04 0.  0.
        1    1    3    3  502    0  0.36658269222E+03 -0.10445193252E+04  0.32172223014E+01  0.11069841198E+04  0.50400001928E-02 0. -1.
       -1    1    3    3    0  502 -0.36658269222E+03  0.10445193252E+04 -0.98805035431E+03  0.14837947950E+04  0.50400001928E-02 0.  1.
</event>
<event>
 5   0  0.4260395E-05  0.2477215E+04  0.7818609E-02  0.8411148E-01
       -1   -1    0    0    0  501  0.00000000000E+00  0.00000000000E+00  0.16078779602E+04  0.16078779602E+04  0.50400001928E-02 0. -1.
        1   -1    0    0  501    0  0.00000000000E+00  0.00000000000E+00 -0.95414478349E+03  0.95414478350E+03  0.50400001928E-02 0.  1.
    10030    2    1    2    0    0  0.00000000000E+00  0.00000000000E+00  0.65373317672E+03  0.25620227437E+04  0.24772148621E+04 0.  0.
        4    1    3    3  502    0  0.11929267311E+04  0.45961276648E+02 -0.14525231976E+02  0.11939008418E+04  0.12699999809E+01 0.  1.
       -4    1    3    3    0  502 -0.11929267311E+04 -0.45961276648E+02  0.66825840870E+03  0.13681219019E+04  0.12699999809E+01 0. -1.
</event>
<event>
 5   0  0.3934906E-05  0.2386285E+04  0.7818609E-02  0.8444656E-01
       -1   -1    0    0    0  501  0.00000000000E+00  0.00000000000E+00  0.18487566163E+04  0.18487566163E+04  0.50400001928E-02 0. -1.
        1   -1    0    0  501    0  0.00000000000E+00  0.00000000000E+00 -0.77002483297E+03  0.77002483299E+03  0.50400001928E-02 0.  1.
    10030    2    1    2    0    0  0.00000000000E+00  0.00000000000E+00  0.10787317833E+04  0.26187814493E+04  0.23862845636E+04 0.  0.
        2    1    3    3  502    0  0.53584945945E+03 -0.16730348808E+03 -0.61604831638E+03  0.83345103542E+03  0.25500000920E-02 0.  1.
       -2    1    3    3    0  502 -0.53584945945E+03  0.16730348808E+03  0.16947800997E+04  0.17853304138E+04  0.25500000920E-02 0. -1.
</event>
<event>
 5   0  0.3934906E-05  0.2363361E+04  0.7818609E-02  0.8453349E-01
        1   -1    0    0  501    0  0.00000000000E+00  0.00000000000E+00  0.14207005378E+04  0.14207005379E+04  0.50400001928E-02 0. -1.
       -1   -1    0    0    0  501  0.00000000000E+00  0.00000000000E+00 -0.98287331845E+03  0.98287331847E+03  0.50400001928E-02 0.  1.
    10030    2    1    2    0    0  0.00000000000E+00  0.00000000000E+00  0.43782721939E+03  0.24035738563E+04  0.23633608715E+04 0.  0.
        2    1    3    3  502    0 -0.50652984730E+02  0.74094657051E+03 -0.71585617895E+03  0.10315122947E+04  0.25500000920E-02 0.  1.
       -2    1    3    3    0  502  0.50652984730E+02 -0.74094657051E+03  0.11536833983E+04  0.13720615616E+04  0.25500000920E-02 0. -1.
</event>
<event>
 5   0  0.4208577E-05  0.2345180E+04  0.7818609E-02  0.8460317E-01
       -1   -1    0    0    0  501  0.00000000000E+00  0.00000000000E+00  0.11024763280E+04  0.11024763280E+04  0.50400001928E-02 0.  1.
        1   -1    0    0  501    0  0.00000000000E+00  0.00000000000E+00 -0.12471624520E+04  0.12471624520E+04  0.50400001928E-02 0. -1.
    10030    2    1    2    0    0  0.00000000000E+00  0.00000000000E+00 -0.14468612401E+03  0.23496387801E+04  0.23451798060E+04 0.  0.
        1    1    3    3  502    0 -0.66043441188E+03 -0.91034445853E+03  0.26005034852E+03  0.11543512591E+04  0.50400001928E-02 0.  1.
       -1    1    3    3    0  502  0.66043441188E+03  0.91034445853E+03 -0.40473647253E+03  0.11952875210E+04  0.50400001928E-02 0. -1.
</event>
<event>
 5   0  0.4260395E-05  0.2354809E+04  0.7818609E-02  0.8456619E-01
       -1   -1    0    0    0  501  0.00000000000E+00  0.00000000000E+00  0.14294242961E+04  0.14294242961E+04  0.50400001928E-02 0.  1.
        1   -1    0    0  501    0  0.00000000000E+00  0.00000000000E+00 -0.96981791283E+03  0.96981791284E+03  0.50400001928E-02 0. -1.
    10030    2    1    2    0    0  0.00000000000E+00  0.00000000000E+00  0.45960638327E+03  0.23992422089E+04  0.23548089412E+04 0.  0.
        4    1    3    3  502    0 -0.39216124180E+03  0.11953531238E+03  0.13543507102E+04  0.14150429639E+04  0.12699999809E+01 0.  1.
       -4    1    3    3    0  502  0.39216124180E+03 -0.11953531238E+03 -0.89474432695E+03  0.98419924506E+03  0.12699999809E+01 0. -1.
</event>
<event>
 5   0  0.9519092E-05  0.2432854E+04  0.7818609E-02  0.8427305E-01
       -2   -1    0    0    0  501  0.00000000000E+00  0.00000000000E+00  0.70618888775E+03  0.70618888775E+03  0.25500000920E-02 0.  1.
        2   -1    0    0  501    0  0.00000000000E+00  0.00000000000E+00 -0.20953241905E+04  0.20953241905E+04  0.25500000920E-02 0. -1.
    10030    2    1    2    0    0  0.00000000000E+00  0.00000000000E+00 -0.13891353027E+04  0.28015130782E+04  0.24328540109E+04 0.  0.
        4    1    3    3  502    0 -0.32654600074E+03 -0.13527828267E+03  0.64575042557E+03  0.73615740802E+03  0.12699999809E+01 0.  1.
       -4    1    3    3    0  502  0.32654600074E+03  0.13527828267E+03 -0.20348857283E+04  0.20653556702E+04  0.12699999809E+01 0. -1.
</event>
<event>
 5   0  0.9519092E-05  0.2387996E+04  0.7818609E-02  0.8444011E-01
        2   -1    0    0  501    0  0.00000000000E+00  0.00000000000E+00  0.97714035118E+03  0.97714035118E+03  0.25500000920E-02 0. -1.
       -2   -1    0    0    0  501  0.00000000000E+00  0.00000000000E+00 -0.14589833571E+04  0.14589833572E+04  0.25500000920E-02 0.  1.
    10030    2    1    2    0    0  0.00000000000E+00  0.00000000000E+00 -0.48184300597E+03  0.24361237083E+04  0.23879962395E+04 0.  0.
        4    1    3    3  502    0  0.99651806546E+03 -0.34228111763E+03  0.33202483452E+03  0.11047383047E+04  0.12699999809E+01 0. -1.
       -4    1    3    3    0  502 -0.99651806546E+03  0.34228111763E+03 -0.81386784050E+03  0.13313854036E+04  0.12699999809E+01 0.  1.
</event>
<event>
 5   0  0.4018942E-05  0.2469610E+04  0.7818609E-02  0.8413893E-01
        1   -1    0    0  501    0  0.00000000000E+00  0.00000000000E+00  0.22291836342E+04  0.22291836342E+04  0.50400001928E-02 0. -1.
       -1   -1    0    0    0  501  0.00000000000E+00  0.00000000000E+00 -0.68399160353E+03  0.68399160355E+03  0.50400001928E-02 0.  1.
    10030    2    1    2    0    0  0.00000000000E+00  0.00000000000E+00  0.15451920307E+04  0.29131752378E+04  0.24696095955E+04 0.  0.
        5    1    3    3  502    0  0.44089770526E+03 -0.26557803994E+03 -0.55140652302E+03  0.75431672753E+03  0.46999998093E+01 0.  1.
       -5    1    3    3    0  502 -0.44089770526E+03  0.26557803994E+03  0.20965985537E+04  0.21588585102E+04  0.46999998093E+01 0. -1.
</event>
<event>
 5   0  0.9750757E-05  0.2367298E+04  0.7818609E-02  0.8451849E-01
        2   -1    0    0  501    0  0.00000000000E+00  0.00000000000E+00  0.13686339965E+04  0.13686339965E+04  0.25500000920E-02 0.  1.
       -2   -1    0    0    0  501  0.00000000000E+00  0.00000000000E+00 -0.10236668337E+04  0.10236668337E+04  0.25500000920E-02 0. -1.
    10030    2    1    2    0    0  0.00000000000E+00  0.00000000000E+00  0.34496716280E+03  0.23923008301E+04  0.23672982318E+04 0.  0.
        2    1    3    3  502    0  0.12061274260E+03 -0.11750560462E+04  0.96046871729E+02  0.11851283252E+04  0.25500000920E-02 0. -1.
       -2    1    3    3    0  502 -0.12061274260E+03  0.11750560462E+04  0.24892029107E+03  0.12071725050E+04  0.25500000920E-02 0.  1.
</event>
<event>
 5   0  0.4018942E-05  0.2389442E+04  0.7818609E-02  0.8443467E-01
        1   -1    0    0  501    0  0.00000000000E+00  0.00000000000E+00  0.10250943222E+04  0.10250943222E+04  0.50400001928E-02 0. -1.
       -1   -1    0    0    0  501  0.00000000000E+00  0.00000000000E+00 -0.13924161437E+04  0.13924161437E+04  0.50400001928E-02 0.  1.
    10030    2    1    2    0    0  0.00000000000E+00  0.00000000000E+00 -0.36732182153E+03  0.24175104660E+04  0.23894416780E+04 0.  0.
        5    1    3    3  502    0  0.10019903515E+04  0.40637475455E+03 -0.69777444296E+03  0.12868707662E+04  0.46999998093E+01 0.  1.
       -5    1    3    3    0  502 -0.10019903515E+04 -0.40637475455E+03  0.33045262142E+03  0.11306396998E+04  0.46999998093E+01 0. -1.
</event>
<event>
 5   0  0.9144244E-05  0.2384909E+04  0.7818609E-02  0.8445175E-01
        2   -1    0    0  501    0  0.00000000000E+00  0.00000000000E+00  0.17854799319E+04  0.17854799319E+04  0.25500000920E-02 0.  1.
       -2   -1    0    0    0  501  0.00000000000E+00  0.00000000000E+00 -0.79639543982E+03  0.79639543982E+03  0.25500000920E-02 0. -1.
    10030    2    1    2    0    0  0.00000000000E+00  0.00000000000E+00  0.98908449205E+03  0.25818753717E+04  0.23849092860E+04 0.  0.
        1    1    3    3  502    0  0.14262860846E+03  0.10925708385E+04  0.93160691505E+00  0.11018415608E+04  0.50400001928E-02 0. -1.
       -1    1    3    3    0  502 -0.14262860846E+03 -0.10925708385E+04  0.98815288514E+03  0.14800338109E+04  0.50400001928E-02 0.  1.
</event>
<event>
 5   0  0.9519092E-05  0.2106159E+04  0.7818609E-02  0.8558535E-01
       -2   -1    0    0    0  501  0.00000000000E+00  0.00000000000E+00  0.47936600601E+03  0.47936600601E+03  0.25500000920E-02 0. -1.
        2   -1    0    0  501    0  0.00000000000E+00  0.00000000000E+00 -0.23134231969E+04  0.23134231969E+04  0.25500000920E-02 0.  1.
    10030    2    1    2    0    0  0.00000000000E+00  0.00000000000E+00 -0.18340571909E+04  0.27927892029E+04  0.21061590045E+04 0.  0.
        4    1    3    3  502    0  0.10281379276E+03 -0.57976056777E+03 -0.20747519292E+04  0.21566849961E+04  0.12699999809E+01 0.  1.
       -4    1    3    3    0  502 -0.10281379276E+03  0.57976056777E+03  0.24069473831E+03  0.63610420678E+03  0.12699999809E+01 0. -1.
</event>
<event>
 5   0  0.4018942E-05  0.2479862E+04  0.7818609E-02  0.8410195E-01
        1   -1    0    0  501    0  0.00000000000E+00  0.00000000000E+00  0.26036973099E+04  0.26036973099E+04  0.50400001928E-02 0. -1.
       -1   -1    0    0    0  501  0.00000000000E+00  0.00000000000E+00 -0.59047889648E+03  0.59047889650E+03  0.50400001928E-02 0.  1.
    10030    2    1    2    0    0  0.00000000000E+00  0.00000000000E+00  0.20132184134E+04  0.31941762064E+04  0.24798615400E+04 0.  0.
        5    1    3    3  502    0 -0.63349892849E+03  0.56341020122E+03  0.21720271614E+04  0.23316251901E+04  0.46999998093E+01 0. -1.
       -5    1    3    3    0  502  0.63349892849E+03 -0.56341020122E+03 -0.15880874802E+03  0.86255101628E+03  0.46999998093E+01 0.  1.
</event>
<event>
 5   0  0.9519092E-05  0.2391139E+04  0.7818609E-02  0.8442828E-01
        2   -1    0    0  501    0  0.00000000000E+00  0.00000000000E+00  0.15157585170E+04  0.15157585170E+04  0.25500000920E-02 0.  1.
       -2   -1    0    0    0  501  0.00000000000E+00  0.00000000000E+00 -0.94301757602E+03  0.94301757603E+03  0.25500000920E-02 0. -1.
    10030    2    1    2    0    0  0.00000000000E+00  0.00000000000E+00  0.57274094098E+03  0.24587760930E+04  0.23911394125E+04 0.  0.
        4    1    3    3  502    0  0.95143014056E+03  0.72279696252E+03  0.32914703870E+03  0.12393523096E+04  0.12699999809E+01 0. -1.
       -4    1    3    3    0  502 -0.95143014056E+03 -0.72279696252E+03  0.24359390228E+03  0.12194237834E+04  0.12699999809E+01 0.  1.
</event>
<event>
 5   0  0.9491680E-05  0.2414633E+04  0.7818609E-02  0.8434045E-01
        2   -1    0    0  501    0  0.00000000000E+00  0.00000000000E+00  0.22365527161E+04  0.22365527161E+04  0.25500000920E-02 0.  1.
       -2   -1    0    0    0  501  0.00000000000E+00  0.00000000000E+00 -0.65172312094E+03  0.65172312094E+03  0.25500000920E-02 0. -1.
    10030    2    1    2    0    0  0.00000000000E+00  0.00000000000E+00  0.15848295952E+04  0.28882758371E+04  0.24146329877E+04 0.  0.
        5    1    3    3  502    0  0.11469435619E+04  0.24323812568E+02  0.34243169207E+03  0.11972271028E+04  0.46999998093E+01 0. -1.
       -5    1    3    3    0  502 -0.11469435619E+04 -0.24323812568E+02  0.12423979031E+04  0.16910487343E+04  0.46999998093E+01 0.  1.
</event>
<event>
 5   0  0.9144244E-05  0.2120605E+04  0.7818609E-02  0.8552220E-01
       -2   -1    0    0    0  501  0.00000000000E+00  0.00000000000E+00  0.60120934944E+03  0.60120934944E+03  0.25500000920E-02 0.  1.
        2   -1    0    0  501    0  0.00000000000E+00  0.00000000000E+00 -0.18699672680E+04  0.18699672680E+04  0.25500000920E-02 0. -1.
    10030    2    1    2    0    0  0.00000000000E+00  0.00000000000E+00 -0.12687579185E+04  0.24711766174E+04  0.21206053897E+04 0.  0.
        1    1    3    3  502    0 -0.46436241879E+03 -0.87855463238E+03 -0.10653115594E+04  0.14568388437E+04  0.50400001928E-02 0. -1.
       -1    1    3    3    0  502  0.46436241879E+03  0.87855463238E+03 -0.20344635918E+03  0.10143377737E+04  0.50400001928E-02 0.  1.
</event>
<event>
 5   0  0.4260395E-05  0.2363432E+04  0.7818609E-02  0.8453322E-01
        1   -1    0    0  501    0  0.00000000000E+00  0.00000000000E+00  0.16766960011E+04  0.16766960011E+04  0.50400001928E-02 0. -1.
       -1   -1    0    0    0  501  0.00000000000E+00  0.00000000000E+00 -0.83286003315E+03  0.83286003316E+03  0.50400001928E-02 0.  1.
    10030    2    1    2    0    0  0.00000000000E+00  0.00000000000E+00  0.84383596799E+03  0.25095560343E+04  0.23634323236E+04 0.  0.
        4    1    3    3  502    0 -0.85923578959E+03  0.75789237661E+03  0.72923292018E+03  0.13581123891E+04  0.12699999809E+01 0. -1.
       -4    1    3    3    0  502  0.85923578959E+03 -0.75789237661E+03  0.11460304781E+03  0.11514436452E+04  0.12699999809E+01 0.  1.
</event>
<event>
 5   0  0.9144244E-05  0.2365639E+04  0.7818609E-02  0.8452481E-01
       -2   -1    0    0    0  501  0.00000000000E+00  0.00000000000E+00  0.13206638049E+04  0.13206638049E+04  0.25500000920E-02 0.  1.
        2   -1    0    0  501    0  0.00000000000E+00  0.00000000000E+00 -0.10593624964E+04  0.10593624964E+04  0.25500000920E-02 0. -1.
    10030    2    1    2    0    0  0.00000000000E+00  0.00000000000E+00  0.26130130852E+03  0.23800263013E+04  0.23656387766E+04 0.  0.
        1    1    3    3  502    0 -0.24879594799E+03 -0.10038224449E+04  0.70816512139E+03  0.12534180323E+04  0.50400001928E-02 0.  1.
       -1    1    3    3    0  502  0.24879594799E+03  0.10038224449E+04 -0.44686381287E+03  0.11266082690E+04  0.50400001928E-02 0. -1.
</event>
<event>
 5   0  0.3934906E-05  0.2423380E+04  0.7818609E-02  0.8430802E-01
        1   -1    0    0  501    0  0.00000000000E+00  0.00000000000E+00  0.12720769700E+04  0.12720769700E+04  0.50400001928E-02 0.  1.
       -1   -1    0    0    0  501  0.00000000000E+00  0.00000000000E+00 -0.11541695602E+04  0.11541695602E+04  0.50400001928E-02 0. -1.
    10030    2    1    2    0    0  0.00000000000E+00  0.00000000000E+00  0.11790740984E+03  0.24262465302E+04  0.24233798852E+04 0.  0.
        2    1    3    3  502    0  0.64780779548E+03 -0.78734871142E+03 -0.59651118503E+03  0.11812698790E+04  0.25500000920E-02 0. -1.
       -2    1    3    3    0  502 -0.64780779548E+03  0.78734871142E+03  0.71441859487E+03  0.12449766512E+04  0.25500000920E-02 0.  1.
</event>
<event>
 5   0  0.9182865E-05  0.2382698E+04  0.7818609E-02  0.8446010E-01
        2   -1    0    0  501    0  0.00000000000E+00  0.00000000000E+00  0.17267903134E+04  0.17267903134E+04  0.25500000920E-02 0.  1.
       -2   -1    0    0    0  501  0.00000000000E+00  0.00000000000E+00 -0.82193672833E+03  0.82193672833E+03  0.25500000920E-02 0. -1.
    10030    2    1    2    0    0  0.00000000000E+00  0.00000000000E+00  0.90485358506E+03  0.25487270417E+04  0.23826979504E+04 0.  0.
        3    1    3    3  502    0 -0.85884353382E+03 -0.52757754467E+03  0.11317897678E+04  0.15155521667E+04  0.10100000352E+00 0.  1.
       -3    1    3    3    0  502  0.85884353382E+03  0.52757754467E+03 -0.22693618272E+03  0.10331748751E+04  0.10100000352E+00 0. -1.
</event>
<event>
 5   0  0.4260395E-05  0.2415745E+04  0.7818609E-02  0.8433632E-01
        1   -1    0    0  501    0  0.00000000000E+00  0.00000000000E+00  0.14081340637E+04  0.14081340637E+04  0.50400001928E-02 0.  1.
       -1   -1    0    0    0  501  0.00000000000E+00  0.00000000000E+00 -0.10360918948E+04  0.10360918949E+04  0.50400001928E-02 0. -1.
    10030    2    1    2    0    0  0.00000000000E+00  0.00000000000E+00  0.37204216881E+03  0.24442259585E+04  0.24157452599E+04 0.  0.
        4    1    3    3  502    0 -0.34046967390E+03  0.84838293891E+03 -0.61276837058E+03  0.11005271004E+04  0.12699999809E+01 0. -1.
       -4    1    3    3    0  502  0.34046967390E+03 -0.84838293891E+03  0.98481053938E+03  0.13436988581E+04  0.12699999809E+01 0.  1.
</event>
<event>
 5   0  0.4208577E-05  0.2409041E+04  0.7818609E-02  0.8436127E-01
        1   -1    0    0  501    0  0.00000000000E+00  0.00000000000E+00  0.13970421519E+04  0.13970421519E+04  0.50400001928E-02 0. -1.
       -1   -1    0    0    0  501  0.00000000000E+00  0.00000000000E+00 -0.10385294393E+04  0.10385294393E+04  0.50400001928E-02 0.  1.
    10030    2    1    2    0    0  0.00000000000E+00  0.00000000000E+00  0.35851271254E+03  0.24355715912E+04  0.24090408073E+04 0.  0.
        1    1    3    3  502    0 -0.95937342184E+02  0.19627143373E+03 -0.10183323806E+04  0.10415024180E+04  0.50400001928E-02 0.  1.
       -1    1    3    3    0  502  0.95937342184E+02 -0.19627143373E+03  0.13768450931E+04  0.13940691732E+04  0.50400001928E-02 0. -1.
</event>
<event>
 5   0  0.9144244E-05  0.2358477E+04  0.7818609E-02  0.8455215E-01
        2   -1    0    0  501    0  0.00000000000E+00  0.00000000000E+00  0.12962793338E+04  0.12962793338E+04  0.25500000920E-02 0. -1.
       -2   -1    0    0    0  501  0.00000000000E+00  0.00000000000E+00 -0.10727653866E+04  0.10727653866E+04  0.25500000920E-02 0.  1.
    10030    2    1    2    0    0  0.00000000000E+00  0.00000000000E+00  0.22351394726E+03  0.23690447204E+04  0.23584771363E+04 0.  0.
        1    1    3    3  502    0 -0.10245553894E+04  0.16253607897E+03  0.67504756264E+03  0.12376675381E+04  0.50400001928E-02 0. -1.
       -1    1    3    3    0  502  0.10245553894E+04 -0.16253607897E+03 -0.45153361538E+03  0.11313771823E+04  0.50400001928E-02 0.  1.
</event>
<event>
 5   0  0.9519092E-05  0.2555835E+04  0.7818609E-02  0.8383360E-01
        2   -1    0    0  501    0  0.00000000000E+00  0.00000000000E+00  0.15000911645E+04  0.15000911645E+04  0.25500000920E-02 0.  1.
       -2   -1    0    0    0  501  0.00000000000E+00  0.00000000000E+00 -0.10886495320E+04  0.10886495320E+04  0.25500000920E-02 0. -1.
    10030    2    1    2    0    0  0.00000000000E+00  0.00000000000E+00  0.41144163253E+03  0.25887406965E+04  0.25558353188E+04 0.  0.
        4    1    3    3  502    0 -0.39800499689E+03 -0.12121577228E+04  0.27972036243E+03  0.13061314698E+04  0.12699999809E+01 0.  1.
       -4    1    3    3    0  502  0.39800499689E+03  0.12121577228E+04  0.13172127011E+03  0.12826092267E+04  0.12699999809E+01 0. -1.
</event>
<event>
 5   0  0.4018942E-05  0.2415330E+04  0.7818609E-02  0.8433786E-01
        1   -1    0    0  501    0  0.00000000000E+00  0.00000000000E+00  0.15956565614E+04  0.15956565614E+04  0.50400001928E-02 0.  1.
       -1   -1    0    0    0  501  0.00000000000E+00  0.00000000000E+00 -0.91401569842E+03  0.91401569843E+03  0.50400001928E-02 0. -1.
    10030    2    1    2    0    0  0.00000000000E+00  0.00000000000E+00  0.68164086300E+03  0.25096722599E+04  0.24153303264E+04 0.  0.
        5    1    3    3  502    0 -0.34426486943E+03  0.27509800608E+03 -0.82747996898E+03  0.93751928104E+03  0.46999998093E+01 0. -1.
       -5    1    3    3    0  502  0.34426486943E+03 -0.27509800608E+03  0.15091208320E+04  0.15721529788E+04  0.46999998093E+01 0.  1.
</event>
<event>
 5   0  0.9144244E-05  0.2281984E+04  0.7818609E-02  0.8485059E-01
       -2   -1    0    0    0  501  0.00000000000E+00  0.00000000000E+00  0.11664311627E+04  0.11664311627E+04  0.25500000920E-02 0.  1.
        2   -1    0    0  501    0  0.00000000000E+00  0.00000000000E+00 -0.11161072924E+04  0.11161072924E+04  0.25500000920E-02 0. -1.
    10030    2    1    2    0    0  0.00000000000E+00  0.00000000000E+00  0.50323870272E+02  0.22825384552E+04  0.22819836343E+04 0.  0.
        1    1    3    3  502    0  0.48788445070E+03 -0.31508876206E+03  0.10075158645E+04  0.11629275053E+04  0.50400001928E-02 0.  1.
       -1    1    3    3    0  502 -0.48788445070E+03  0.31508876206E+03 -0.95719199425E+03  0.11196109499E+04  0.50400001928E-02 0. -1.
</event>
<event>
 5   0  0.9182865E-05  0.2313615E+04  0.7818609E-02  0.8472572E-01
        2   -1    0    0  501    0  0.00000000000E+00  0.00000000000E+00  0.30853966391E+04  0.30853966391E+04  0.25500000920E-02 0.  1.
       -2   -1    0    0    0  501  0.00000000000E+00  0.00000000000E+00 -0.43372168049E+03  0.43372168050E+03  0.25500000920E-02 0. -1.
    10030    2    1    2    0    0  0.00000000000E+00  0.00000000000E+00  0.26516749586E+04  0.35191183196E+04  0.23136148472E+04 0.  0.
        3    1    3    3  502    0  0.47227919606E+03  0.68794659772E+03  0.25444664614E+04  0.26778027829E+04  0.10100000352E+00 0.  1.
       -3    1    3    3    0  502 -0.47227919606E+03 -0.68794659772E+03  0.10720849720E+03  0.84131553677E+03  0.10100000352E+00 0. -1.
</event>
<event>
 5   0  0.4208577E-05  0.2352331E+04  0.7818609E-02  0.8457569E-01
        1   -1    0    0  501    0  0.00000000000E+00  0.00000000000E+00  0.11413753371E+04  0.11413753371E+04  0.50400001928E-02 0. -1.
       -1   -1    0    0    0  501  0.00000000000E+00  0.00000000000E+00 -0.12120160863E+04  0.12120160863E+04  0.50400001928E-02 0.  1.
    10030    2    1    2    0    0  0.00000000000E+00  0.00000000000E+00 -0.70640749202E+02  0.23533914234E+04  0.23523309878E+04 0.  0.
        1    1    3    3  502    0 -0.11322656660E+04 -0.14313613289E+03 -0.31979302838E+03  0.11852346063E+04  0.50400001928E-02 0.  1.
       -1    1    3    3    0  502  0.11322656660E+04  0.14313613289E+03  0.24915227918E+03  0.11681568171E+04  0.50400001928E-02 0. -1.
</event>
<event>
 5   0  0.4208577E-05  0.2431121E+04  0.7818609E-02  0.8427943E-01
        1   -1    0    0  501    0  0.00000000000E+00  0.00000000000E+00  0.14051666403E+04  0.14051666403E+04  0.50400001928E-02 0.  1.
       -1   -1    0    0    0  501  0.00000000000E+00  0.00000000000E+00 -0.10515389212E+04  0.10515389212E+04  0.50400001928E-02 0. -1.
    10030    2    1    2    0    0  0.00000000000E+00  0.00000000000E+00  0.35362771908E+03  0.24567055616E+04  0.24311210691E+04 0.  0.
        1    1    3    3  502    0  0.61859368810E+00 -0.56206970374E+03 -0.91233418009E+03  0.10715765911E+04  0.50400001928E-02 0. -1.
       -1    1    3    3    0  502 -0.61859368810E+00  0.56206970374E+03  0.12659618992E+04  0.13851289704E+04  0.50400001928E-02 0.  1.
</event>
<event>
 5   0  0.4061631E-05  0.2423824E+04  0.7818609E-02  0.8430638E-01
       -1   -1    0    0    0  501  0.00000000000E+00  0.00000000000E+00  0.60200833833E+03  0.60200833835E+03  0.50400001928E-02 0.  1.
        1   -1    0    0  501    0  0.00000000000E+00  0.00000000000E+00 -0.24397189140E+04  0.24397189140E+04  0.50400001928E-02 0. -1.
    10030    2    1    2    0    0  0.00000000000E+00  0.00000000000E+00 -0.18377105757E+04  0.30417272524E+04  0.24238243579E+04 0.  0.
        3    1    3    3  502    0  0.86744289399E+03 -0.84490828095E+03 -0.85732611299E+03  0.14836897424E+04  0.10100000352E+00 0.  1.
       -3    1    3    3    0  502 -0.86744289399E+03  0.84490828095E+03 -0.98038446273E+03  0.15580375100E+04  0.10100000352E+00 0. -1.
</event>
<event>
 5   0  0.4018942E-05  0.2402135E+04  0.7818609E-02  0.8438705E-01
       -1   -1    0    0    0  501  0.00000000000E+00  0.00000000000E+00  0.97746892409E+03  0.97746892410E+03  0.50400001928E-02 0. -1.
        1   -1    0    0  501    0  0.00000000000E+00  0.00000000000E+00 -0.14758149847E+04  0.14758149847E+04  0.50400001928E-02 0.  1.
    10030    2    1    2    0    0  0.00000000000E+00  0.00000000000E+00 -0.49834606057E+03  0.24532839088E+04  0.24021351213E+04 0.  0.
        5    1    3    3  502    0 -0.22846293143E+03  0.79655761223E+03  0.63873062906E+03  0.10462782838E+04  0.46999998093E+01 0. -1.
       -5    1    3    3    0  502  0.22846293143E+03 -0.79655761223E+03 -0.11370766896E+04  0.14070056250E+04  0.46999998093E+01 0.  1.
</event>
<event>
 5   0  0.4018942E-05  0.2390828E+04  0.7818609E-02  0.8442945E-01
        1   -1    0    0  501    0  0.00000000000E+00  0.00000000000E+00  0.15094223883E+04  0.15094223883E+04  0.50400001928E-02 0. -1.
       -1   -1    0    0    0  501  0.00000000000E+00  0.00000000000E+00 -0.94672971056E+03  0.94672971057E+03  0.50400001928E-02 0.  1.
    10030    2    1    2    0    0  0.00000000000E+00  0.00000000000E+00  0.56269267779E+03  0.24561520989E+04  0.23908283258E+04 0.  0.
        5    1    3    3  502    0 -0.17998796088E+03 -0.10204655910E+04  0.89365756579E+03  0.13683536178E+04  0.46999998093E+01 0. -1.
       -5    1    3    3    0  502  0.17998796088E+03  0.10204655910E+04 -0.33096488800E+03  0.10877984811E+04  0.46999998093E+01 0.  1.
</event>
<event>
 5   0  0.9519092E-05  0.1271168E+04  0.7818609E-02  0.9052747E-01
        2   -1    0    0  501    0  0.00000000000E+00  0.00000000000E+00  0.12078418244E+04  0.12078418244E+04  0.25500000920E-02 0.  1.
       -2   -1    0    0    0  501  0.00000000000E+00  0.00000000000E+00 -0.33445366833E+03  0.33445366834E+03  0.25500000920E-02 0. -1.
    10030    2    1    2    0    0  0.00000000000E+00  0.00000000000E+00  0.87338815611E+03  0.15422954928E+04  0.12711681698E+04 0.  0.
        4    1    3    3  502    0 -0.88636702915E+02 -0.46256030553E+03 -0.81122092658E+02  0.47791307596E+03  0.12699999809E+01 0. -1.
       -4    1    3    3    0  502  0.88636702915E+02  0.46256030553E+03  0.95451024877E+03  0.10643824168E+04  0.12699999809E+01 0.  1.
</event>
<event>
 5   0  0.9144244E-05  0.2363809E+04  0.7818609E-02  0.8453179E-01
       -2   -1    0    0    0  501  0.00000000000E+00  0.00000000000E+00  0.50581599053E+03  0.50581599053E+03  0.25500000920E-02 0. -1.
        2   -1    0    0  501    0  0.00000000000E+00  0.00000000000E+00 -0.27616718408E+04  0.27616718408E+04  0.25500000920E-02 0.  1.
    10030    2    1    2    0    0  0.00000000000E+00  0.00000000000E+00 -0.22558558503E+04  0.32674878313E+04  0.23638086028E+04 0.  0.
        1    1    3    3  502    0  0.61710235140E+03 -0.64900060890E+03 -0.21940737254E+04  0.23698051851E+04  0.50400001928E-02 0.  1.
       -1    1    3    3    0  502 -0.61710235140E+03  0.64900060890E+03 -0.61782124838E+02  0.89768264628E+03  0.50400001928E-02 0. -1.
</event>
<event>
 5   0  0.3934906E-05  0.2259046E+04  0.7818609E-02  0.8494246E-01
        1   -1    0    0  501    0  0.00000000000E+00  0.00000000000E+00  0.12213251369E+04  0.12213251370E+04  0.50400001928E-02 0. -1.
       -1   -1    0    0    0  501  0.00000000000E+00  0.00000000000E+00 -0.10446208717E+04  0.10446208718E+04  0.50400001928E-02 0.  1.
    10030    2    1    2    0    0  0.00000000000E+00  0.00000000000E+00  0.17670426520E+03  0.22659460087E+04  0.22590455766E+04 0.  0.
        2    1    3    3  502    0  0.27314528615E+03  0.92123577622E+03  0.68391491355E+03  0.11794165132E+04  0.25500000920E-02 0. -1.
       -2    1    3    3    0  502 -0.27314528615E+03 -0.92123577622E+03 -0.50721064835E+03  0.10865294955E+04  0.25500000920E-02 0.  1.
</event>
<event>
 5   0  0.9491680E-05  0.2391522E+04  0.7818609E-02  0.8442685E-01
        2   -1    0    0  501    0  0.00000000000E+00  0.00000000000E+00  0.12400783628E+04  0.12400783628E+04  0.25500000920E-02 0. -1.
       -2   -1    0    0    0  501  0.00000000000E+00  0.00000000000E+00 -0.11530271329E+04  0.11530271329E+04  0.25500000920E-02 0.  1.
    10030    2    1    2    0    0  0.00000000000E+00  0.00000000000E+00  0.87051229829E+02  0.23931054957E+04  0.23915216907E+04 0.  0.
        5    1    3    3  502    0  0.22870957357E+03  0.84016657998E+02 -0.11279140262E+04  0.11539406434E+04  0.46999998093E+01 0.  1.
       -5    1    3    3    0  502 -0.22870957357E+03 -0.84016657998E+02  0.12149652561E+04  0.12391648523E+04  0.46999998093E+01 0. -1.
</event>
<event>
 5   0  0.3934906E-05  0.1331434E+04  0.7818609E-02  0.9005002E-01
       -1   -1    0    0    0  501  0.00000000000E+00  0.00000000000E+00  0.17998289802E+03  0.17998289809E+03  0.50400001928E-02 0. -1.
        1   -1    0    0  501    0  0.00000000000E+00  0.00000000000E+00 -0.24623416302E+04  0.24623416302E+04  0.50400001928E-02 0.  1.
    10030    2    1    2    0    0  0.00000000000E+00  0.00000000000E+00 -0.22823587322E+04  0.26423245283E+04  0.13314343883E+04 0.  0.
        2    1    3    3  502    0 -0.13725452548E+03  0.96876217756E+02 -0.24195806234E+04  0.24254059865E+04  0.25500000920E-02 0.  1.
       -2    1    3    3    0  502  0.13725452548E+03 -0.96876217756E+02  0.13722189121E+03  0.21691854178E+03  0.25500000920E-02 0. -1.
</event>
<event>
 5   0  0.9750757E-05  0.2236873E+04  0.7818609E-02  0.8503235E-01
       -2   -1    0    0    0  501  0.00000000000E+00  0.00000000000E+00  0.96548716736E+03  0.96548716736E+03  0.25500000920E-02 0.  1.
        2   -1    0    0  501    0  0.00000000000E+00  0.00000000000E+00 -0.12956159750E+04  0.12956159751E+04  0.25500000920E-02 0. -1.
    10030    2    1    2    0    0  0.00000000000E+00  0.00000000000E+00 -0.33012880769E+03  0.22611031424E+04  0.22368733516E+04 0.  0.
        2    1    3    3  502    0 -0.94184323521E+03 -0.16523661791E+03  0.42133035804E+03  0.10449359264E+04  0.25500000920E-02 0.  1.
       -2    1    3    3    0  502  0.94184323521E+03  0.16523661791E+03 -0.75145916573E+03  0.12161672160E+04  0.25500000920E-02 0. -1.
</event>
<event>
 5   0  0.9182865E-05  0.2168088E+04  0.7818609E-02  0.8531829E-01
       -2   -1    0    0    0  501  0.00000000000E+00  0.00000000000E+00  0.99394628999E+03  0.99394628999E+03  0.25500000920E-02 0. -1.
        2   -1    0    0  501    0  0.00000000000E+00  0.00000000000E+00 -0.11823089050E+04  0.11823089050E+04  0.25500000920E-02 0.  1.
    10030    2    1    2    0    0  0.00000000000E+00  0.00000000000E+00 -0.18836261500E+03  0.21762551950E+04  0.21680881437E+04 0.  0.
        3    1    3    3  502    0  0.10066124675E+04 -0.28827322156E+03  0.18755629506E+03  0.10637422075E+04  0.10100000352E+00 0. -1.
       -3    1    3    3    0  502 -0.10066124675E+04  0.28827322156E+03 -0.37591891006E+03  0.11125129874E+04  0.10100000352E+00 0.  1.
</event>
<event>
 5   0  0.9144244E-05  0.2264116E+04  0.7818609E-02  0.8492206E-01
       -2   -1    0    0    0  501  0.00000000000E+00  0.00000000000E+00  0.15222396953E+04  0.15222396953E+04  0.25500000920E-02 0. -1.
        2   -1    0    0  501    0  0.00000000000E+00  0.00000000000E+00 -0.84188791292E+03  0.84188791292E+03  0.25500000920E-02 0.  1.
    10030    2    1    2    0    0  0.00000000000E+00  0.00000000000E+00  0.68035178236E+03  0.23641276082E+04  0.22641158981E+04 0.  0.
        1    1    3    3  502    0  0.26253466194E+03 -0.10829741840E+04  0.13187022968E+03  0.11221173242E+04  0.50400001928E-02 0. -1.
       -1    1    3    3    0  502 -0.26253466194E+03  0.10829741840E+04  0.54848155268E+03  0.12420102840E+04  0.50400001928E-02 0.  1.
</event>
<event>
 5   0  0.9519092E-05  0.2421549E+04  0.7818609E-02  0.8431480E-01
       -2   -1    0    0    0  501  0.00000000000E+00  0.00000000000E+00  0.74534062958E+03  0.74534062958E+03  0.25500000920E-02 0. -1.
        2   -1    0    0  501    0  0.00000000000E+00  0.00000000000E+00 -0.19668528484E+04  0.19668528484E+04  0.25500000920E-02 0.  1.
    10030    2    1    2    0    0  0.00000000000E+00  0.00000000000E+00 -0.12215122188E+04  0.27121934780E+04  0.24215493721E+04 0.  0.
        4    1    3    3  502    0 -0.52170905461E+02  0.77262361373E+03 -0.16532239552E+04  0.18256013011E+04  0.12699999809E+01 0.  1.
       -4    1    3    3    0  502  0.52170905461E+02 -0.77262361373E+03  0.43171173634E+03  0.88659217686E+03  0.12699999809E+01 0. -1.
</event>
<event>
 5   0  0.4018942E-05  0.2351703E+04  0.7818609E-02  0.8457810E-01
       -1   -1    0    0    0  501  0.00000000000E+00  0.00000000000E+00  0.57207164642E+03  0.57207164644E+03  0.50400001928E-02 0. -1.
        1   -1    0    0  501    0  0.00000000000E+00  0.00000000000E+00 -0.24168760781E+04  0.24168760781E+04  0.50400001928E-02 0.  1.
    10030    2    1    2    0    0  0.00000000000E+00  0.00000000000E+00 -0.18448044317E+04  0.29889477245E+04  0.23517025979E+04 0.  0.
        5    1    3    3  502    0  0.92034528208E+03 -0.67574635871E+03 -0.56531656498E+03  0.12740775048E+04  0.46999998093E+01 0.  1.
       -5    1    3    3    0  502 -0.92034528208E+03  0.67574635871E+03 -0.12794878667E+04  0.17148702198E+04  0.46999998093E+01 0. -1.
</event>
<event>
 5   0  0.4260395E-05  0.2357749E+04  0.7818609E-02  0.8455493E-01
        1   -1    0    0  501    0  0.00000000000E+00  0.00000000000E+00  0.11908667596E+04  0.11908667596E+04  0.50400001928E-02 0.  1.
       -1   -1    0    0    0  501  0.00000000000E+00  0.00000000000E+00 -0.11670026458E+04  0.11670026458E+04  0.50400001928E-02 0. -1.
    10030    2    1    2    0    0  0.00000000000E+00  0.00000000000E+00  0.23864113827E+02  0.23578694054E+04  0.23577486374E+04 0.  0.
        4    1    3    3  502    0  0.60735169623E+03  0.78552809844E+03  0.64742709155E+03  0.11853665796E+04  0.12699999809E+01 0.  1.
       -4    1    3    3    0  502 -0.60735169623E+03 -0.78552809844E+03 -0.62356297773E+03  0.11725028258E+04  0.12699999809E+01 0. -1.
</event>
<event>
 5   0  0.3234750E-05  0.2633773E+04  0.7818609E-02  0.8356819E-01
        3   -1    0    0  501    0  0.00000000000E+00  0.00000000000E+00  0.18793516706E+04  0.18793516733E+04  0.10100000352E+00 0.  1.
       -3   -1    0    0    0  501  0.00000000000E+00  0.00000000000E+00 -0.92275952867E+03  0.92275953420E+03  0.10100000352E+00 0. -1.
    10030    2    1    2    0    0  0.00000000000E+00  0.00000000000E+00  0.95659214191E+03  0.28021112075E+04  0.26337727110E+04 0.  0.
        2    1    3    3  502    0 -0.83400592274E+03 -0.52771807076E+03  0.14058798241E+04  0.17177166009E+04  0.25500000920E-02 0.  1.
       -2    1    3    3    0  502  0.83400592274E+03  0.52771807076E+03 -0.44928768218E+03  0.10843946066E+04  0.25500000920E-02 0. -1.
</event>
<event>
 5   0  0.9182865E-05  0.2367633E+04  0.7818609E-02  0.8451722E-01
       -2   -1    0    0    0  501  0.00000000000E+00  0.00000000000E+00  0.52715497403E+03  0.52715497403E+03  0.25500000920E-02 0.  1.
        2   -1    0    0  501    0  0.00000000000E+00  0.00000000000E+00 -0.26584621140E+04  0.26584621140E+04  0.25500000920E-02 0. -1.
    10030    2    1    2    0    0  0.00000000000E+00  0.00000000000E+00 -0.21313071400E+04  0.31856170880E+04  0.23676330177E+04 0.  0.
        3    1    3    3  502    0 -0.89679724718E+03  0.64267146267E+03 -0.48826978880E+03  0.12065153577E+04  0.10100000352E+00 0.  1.
       -3    1    3    3    0  502  0.89679724718E+03 -0.64267146267E+03 -0.16430373512E+04  0.19791017303E+04  0.10100000352E+00 0. -1.
</event>
<event>
 5   0  0.9750757E-05  0.1478970E+04  0.7818609E-02  0.8898559E-01
        2   -1    0    0  501    0  0.00000000000E+00  0.00000000000E+00  0.43832908509E+03  0.43832908509E+03  0.25500000920E-02 0. -1.
       -2   -1    0    0    0  501  0.00000000000E+00  0.00000000000E+00 -0.12475520914E+04  0.12475520914E+04  0.25500000920E-02 0.  1.
    10030    2    1    2    0    0  0.00000000000E+00  0.00000000000E+00 -0.80922300631E+03  0.16858811765E+04  0.14789704079E+04 0.  0.
        2    1    3    3  502    0  0.96054674555E+02  0.29591341665E+03 -0.11693209737E+04  0.12100011530E+04  0.25500000920E-02 0.  1.
       -2    1    3    3    0  502 -0.96054674555E+02 -0.29591341665E+03  0.36009796739E+03  0.47588002352E+03  0.25500000920E-02 0. -1.
</event>
<event>
 5   0  0.9491680E-05  0.2376076E+04  0.7818609E-02  0.8448515E-01
       -2   -1    0    0    0  501  0.00000000000E+00  0.00000000000E+00  0.68435976244E+03  0.68435976244E+03  0.25500000920E-02 0. -1.
        2   -1    0    0  501    0  0.00000000000E+00  0.00000000000E+00 -0.20624162822E+04  0.20624162822E+04  0.25500000920E-02 0.  1.
    10030    2    1    2    0    0  0.00000000000E+00  0.00000000000E+00 -0.13780565198E+04  0.27467760447E+04  0.23760763598E+04 0.  0.
        5    1    3    3  502    0  0.10091360028E+03 -0.11184066150E+04 -0.11373404937E+04  0.15983061033E+04  0.46999998093E+01 0. -1.
       -5    1    3    3    0  502 -0.10091360028E+03  0.11184066150E+04 -0.24071602610E+03  0.11484699414E+04  0.46999998093E+01 0.  1.
</event>
<event>
 5   0  0.4260395E-05  0.2477350E+04  0.7818609E-02  0.8411099E-01
        1   -1    0    0  501    0  0.00000000000E+00  0.00000000000E+00  0.28672124143E+04  0.28672124143E+04  0.50400001928E-02 0. -1.
       -1   -1    0    0    0  501  0.00000000000E+00  0.00000000000E+00 -0.53512444909E+03  0.53512444911E+03  0.50400001928E-02 0.  1.
    10030    2    1    2    0    0  0.00000000000E+00  0.00000000000E+00  0.23320879652E+04  0.34023368634E+04  0.24773497643E+04 0.  0.
        4    1    3    3  502    0  0.85922810652E+03  0.86779562029E+03  0.14507398191E+04  0.18963095246E+04  0.12699999809E+01 0.  1.
       -4    1    3    3    0  502 -0.85922810652E+03 -0.86779562029E+03  0.88134814617E+03  0.15060273388E+04  0.12699999809E+01 0. -1.
</event>
<event>
 5   0  0.4208577E-05  0.2353620E+04  0.7818609E-02  0.8457074E-01
        1   -1    0    0  501    0  0.00000000000E+00  0.00000000000E+00  0.23434722063E+04  0.23434722063E+04  0.50400001928E-02 0.  1.
       -1   -1    0    0    0  501  0.00000000000E+00  0.00000000000E+00 -0.59095300816E+03  0.59095300818E+03  0.50400001928E-02 0. -1.
    10030    2    1    2    0    0  0.00000000000E+00  0.00000000000E+00  0.17525191982E+04  0.29344252145E+04  0.23536201477E+04 0.  0.
        1    1    3    3  502    0  0.54551626876E+02 -0.62482841431E+03  0.21177176559E+04  0.22086453988E+04  0.50400001928E-02 0.  1.
       -1    1    3    3    0  502 -0.54551626876E+02  0.62482841431E+03 -0.36519845777E+03  0.72577981572E+03  0.50400001928E-02 0. -1.
</event>
<event>
 5   0  0.9750757E-05  0.2329805E+04  0.7818609E-02  0.8466261E-01
        2   -1    0    0  501    0  0.00000000000E+00  0.00000000000E+00  0.53322598408E+03  0.53322598409E+03  0.25500000920E-02 0.  1.
       -2   -1    0    0    0  501  0.00000000000E+00  0.00000000000E+00 -0.25448841700E+04  0.25448841700E+04  0.25500000920E-02 0. -1.
    10030    2    1    2    0    0  0.00000000000E+00  0.00000000000E+00 -0.20116581859E+04  0.30781101540E+04  0.23298054562E+04 0.  0.
        2    1    3    3  502    0  0.91880499668E+03  0.55680400054E+03 -0.16007524884E+04  0.19278593948E+04  0.25500000920E-02 0. -1.
       -2    1    3    3    0  502 -0.91880499668E+03 -0.55680400054E+03 -0.41090569749E+03  0.11502507593E+04  0.25500000920E-02 0.  1.
</event>
<event>
 5   0  0.4260395E-05  0.2369897E+04  0.7818609E-02  0.8450860E-01
       -1   -1    0    0    0  501  0.00000000000E+00  0.00000000000E+00  0.14126165778E+04  0.14126165778E+04  0.50400001928E-02 0. -1.
        1   -1    0    0  501    0  0.00000000000E+00  0.00000000000E+00 -0.99397326842E+03  0.99397326843E+03  0.50400001928E-02 0.  1.
    10030    2    1    2    0    0  0.00000000000E+00  0.00000000000E+00  0.41864330934E+03  0.24065898462E+04  0.23698971428E+04 0.  0.
        4    1    3    3  502    0  0.27783933562E+02 -0.11325941831E+04  0.56191503496E+03  0.12646310331E+04  0.12699999809E+01 0. -1.
       -4    1    3    3    0  502 -0.27783933562E+02  0.11325941831E+04 -0.14327172563E+03  0.11419588131E+04  0.12699999809E+01 0.  1.
</event>
<event>
 5   0  0.9519092E-05  0.2419680E+04  0.7818609E-02  0.8432172E-01
        2   -1    0    0  501    0  0.00000000000E+00  0.00000000000E+00  0.11733929928E+04  0.11733929928E+04  0.25500000920E-02 0.  1.
       -2   -1    0    0    0  501  0.00000000000E+00  0.00000000000E+00 -0.12474192482E+04  0.12474192482E+04  0.25500000920E-02 0. -1.
    10030    2    1    2    0    0  0.00000000000E+00  0.00000000000E+00 -0.74026255413E+02  0.24208122410E+04  0.24196801482E+04 0.  0.
        4    1    3    3  502    0 -0.16786889880E+03  0.65330698584E+03 -0.10418342692E+04  0.12411326449E+04  0.12699999809E+01 0. -1.
       -4    1    3    3    0  502  0.16786889880E+03 -0.65330698584E+03  0.96780801377E+03  0.11796795961E+04  0.12699999809E+01 0.  1.
</event>
<event>
 5   0  0.4018942E-05  0.1352780E+04  0.7818609E-02  0.8988727E-01
       -1   -1    0    0    0  501  0.00000000000E+00  0.00000000000E+00  0.21884179361E+03  0.21884179366E+03  0.50400001928E-02 0. -1.
        1   -1    0    0  501    0  0.00000000000E+00  0.00000000000E+00 -0.20905657984E+04  0.20905657984E+04  0.50400001928E-02 0.  1.
    10030    2    1    2    0    0  0.00000000000E+00  0.00000000000E+00 -0.18717240048E+04  0.23094075920E+04  0.13527796111E+04 0.  0.
        5    1    3    3  502    0  0.14715726373E+02  0.14344967539E+03  0.19226639420E+03  0.24038056974E+03  0.46999998093E+01 0. -1.
       -5    1    3    3    0  502 -0.14715726373E+02 -0.14344967539E+03 -0.20639903990E+04  0.20690270223E+04  0.46999998093E+01 0.  1.
</event>
<event>
 5   0  0.9491680E-05  0.2395614E+04  0.7818609E-02  0.8441147E-01
        2   -1    0    0  501    0  0.00000000000E+00  0.00000000000E+00  0.15475510062E+04  0.15475510062E+04  0.25500000920E-02 0.  1.
       -2   -1    0    0    0  501  0.00000000000E+00  0.00000000000E+00 -0.92710450996E+03  0.92710450996E+03  0.25500000920E-02 0. -1.
    10030    2    1    2    0    0  0.00000000000E+00  0.00000000000E+00  0.62044649620E+03  0.24746555161E+04  0.23956139232E+04 0.  0.
        5    1    3    3  502    0  0.13460757050E+03 -0.10472137299E+04 -0.27407510088E+03  0.10908322717E+04  0.46999998093E+01 0. -1.
       -5    1    3    3    0  502 -0.13460757050E+03  0.10472137299E+04  0.89452159709E+03  0.13838232444E+04  0.46999998093E+01 0.  1.
</event>
<event>
 5   0  0.9144244E-05  0.2057515E+04  0.7818609E-02  0.8580193E-01
       -2   -1    0    0    0  501  0.00000000000E+00  0.00000000000E+00  0.64335626784E+03  0.64335626784E+03  0.25500000920E-02 0. -1.
        2   -1    0    0  501    0  0.00000000000E+00  0.00000000000E+00 -0.16450330470E+04  0.16450330470E+04  0.25500000920E-02 0.  1.
    10030    2    1    2    0    0  0.00000000000E+00  0.00000000000E+00 -0.10016767792E+04  0.22883893149E+04  0.20575153186E+04 0.  0.
        1    1    3    3  502    0  0.52231732098E+03  0.52961804111E+03 -0.12912369485E+04  0.14901689537E+04  0.50400001928E-02 0.  1.
       -1    1    3    3    0  502 -0.52231732098E+03 -0.52961804111E+03  0.28956016936E+03  0.79822036116E+03  0.50400001928E-02 0. -1.
</event>
<event>
 5   0  0.4061631E-05  0.2422723E+04  0.7818609E-02  0.8431045E-01
       -1   -1    0    0    0  501  0.00000000000E+00  0.00000000000E+00  0.10117405712E+04  0.10117405713E+04  0.50400001928E-02 0. -1.
        1   -1    0    0  501    0  0.00000000000E+00  0.00000000000E+00 -0.14503687612E+04  0.14503687613E+04  0.50400001928E-02 0.  1.
    10030    2    1    2    0    0  0.00000000000E+00  0.00000000000E+00 -0.43862819000E+03  0.24621093325E+04  0.24227231943E+04 0.  0.
        3    1    3    3  502    0 -0.49305679118E+03  0.75800903078E+03  0.59983833296E+03  0.10851215259E+04  0.10100000352E+00 0. -1.
       -3    1    3    3    0  502  0.49305679118E+03 -0.75800903078E+03 -0.10384665230E+04  0.13769878066E+04  0.10100000352E+00 0.  1.
</event>
<event>
 5   0  0.4260395E-05  0.2309520E+04  0.7818609E-02  0.8474177E-01
       -1   -1    0    0    0  501  0.00000000000E+00  0.00000000000E+00  0.76513909536E+03  0.76513909538E+03  0.50400001928E-02 0. -1.
        1   -1    0    0  501    0  0.00000000000E+00  0.00000000000E+00 -0.17427825989E+04  0.17427825989E+04  0.50400001928E-02 0.  1.
    10030    2    1    2    0    0  0.00000000000E+00  0.00000000000E+00 -0.97764350356E+03  0.25079216943E+04  0.23095203841E+04 0.  0.
        4    1    3    3  502    0  0.20829374299E+03  0.10431459201E+04 -0.97679091046E+03  0.14441820486E+04  0.12699999809E+01 0.  1.
       -4    1    3    3    0  502 -0.20829374299E+03 -0.10431459201E+04 -0.85259310211E+00  0.10637396457E+04  0.12699999809E+01 0. -1.
</event>
<event>
 5   0  0.4260395E-05  0.2361376E+04  0.7818609E-02  0.8454107E-01
       -1   -1    0    0    0  501  0.00000000000E+00  0.00000000000E+00  0.87432523116E+03  0.87432523117E+03  0.50400001928E-02 0.  1.
        1   -1    0    0  501    0  0.00000000000E+00  0.00000000000E+00 -0.15944006691E+04  0.15944006691E+04  0.50400001928E-02 0. -1.
    10030    2    1    2    0    0  0.00000000000E+00  0.00000000000E+00 -0.72007543795E+03  0.24687259003E+04  0.23613764915E+04 0.  0.
        4    1    3    3  502    0  0.17454881566E+03 -0.10674145095E+04 -0.85504102700E+03  0.13787450072E+04  0.12699999809E+01 0.  1.
       -4    1    3    3    0  502 -0.17454881566E+03  0.10674145095E+04  0.13496558905E+03  0.10899808931E+04  0.12699999809E+01 0. -1.
</event>
<event>
 5   0  0.4260395E-05  0.2406742E+04  0.7818609E-02  0.8436984E-01
        1   -1    0    0  501    0  0.00000000000E+00  0.00000000000E+00  0.19727370103E+04  0.19727370103E+04  0.50400001928E-02 0. -1.
       -1   -1    0    0    0  501  0.00000000000E+00  0.00000000000E+00 -0.73405729980E+03  0.73405729982E+03  0.50400001928E-02 0.  1.
    10030    2    1    2    0    0  0.00000000000E+00  0.00000000000E+00  0.12386797105E+04  0.27067943101E+04  0.24067421989E+04 0.  0.
        4    1    3    3  502    0  0.71517106784E+03 -0.89578154274E+03  0.20732591568E+03  0.11648518690E+04  0.12699999809E+01 0.  1.
       -4    1    3    3    0  502 -0.71517106784E+03  0.89578154274E+03  0.10313537948E+04  0.15419424411E+04  0.12699999809E+01 0. -1.
</event>
<event>
 5   0  0.4061631E-05  0.2341959E+04  0.7818609E-02  0.8461559E-01
       -1   -1    0    0    0  501  0.00000000000E+00  0.00000000000E+00  0.98615284448E+03  0.98615284449E+03  0.50400001928E-02 0.  1.
        1   -1    0    0  501    0  0.00000000000E+00  0.00000000000E+00 -0.13904466584E+04  0.13904466584E+04  0.50400001928E-02 0. -1.
    10030    2    1    2    0    0  0.00000000000E+00  0.00000000000E+00 -0.40429381391E+03  0.23765995029E+04  0.23419589469E+04 0.  0.
        3    1    3    3  502    0 -0.16913717359E+03 -0.13371147981E+03 -0.13701301246E+04  0.13869905233E+04  0.10100000352E+00 0. -1.
       -3    1    3    3    0  502  0.16913717359E+03  0.13371147981E+03  0.96583631064E+03  0.98960897959E+03  0.10100000352E+00 0.  1.
</event>
<event>
 5   0  0.9491680E-05  0.2133733E+04  0.7818609E-02  0.8546527E-01
       -2   -1    0    0    0  501  0.00000000000E+00  0.00000000000E+00  0.89289953873E+03  0.89289953874E+03  0.25500000920E-02 0. -1.
        2   -1    0    0  501    0  0.00000000000E+00  0.00000000000E+00 -0.12747284450E+04  0.12747284450E+04  0.25500000920E-02 0.  1.
    10030    2    1    2    0    0  0.00000000000E+00  0.00000000000E+00 -0.38182890631E+03  0.21676279838E+04  0.21337332922E+04 0.  0.
        5    1    3    3  502    0 -0.33685445188E+03 -0.58521949027E+03 -0.10300070461E+04  0.12316206310E+04  0.46999998093E+01 0.  1.
       -5    1    3    3    0  502  0.33685445188E+03  0.58521949027E+03  0.64817813984E+03  0.93600735280E+03  0.46999998093E+01 0. -1.
</event>
<event>
 5   0  0.9750757E-05  0.2354354E+04  0.7818609E-02  0.8456793E-01
        2   -1    0    0  501    0  0.00000000000E+00  0.00000000000E+00  0.15747155364E+04  0.15747155365E+04  0.25500000920E-02 0.  1.
       -2   -1    0    0    0  501  0.00000000000E+00  0.00000000000E+00 -0.87999741288E+03  0.87999741289E+03  0.25500000920E-02 0. -1.
    10030    2    1    2    0    0  0.00000000000E+00  0.00000000000E+00  0.69471812357E+03  0.24547129493E+04  0.23543539225E+04 0.  0.
        2    1    3    3  502    0 -0.37164908350E+03  0.49047324111E+03  0.13936593045E+04  0.15234740885E+04  0.25500000920E-02 0.  1.
       -2    1    3    3    0  502  0.37164908350E+03 -0.49047324111E+03 -0.69894118090E+03  0.93123886080E+03  0.25500000920E-02 0. -1.
</event>
<event>
 5   0  0.3934906E-05  0.2300524E+04  0.7818609E-02  0.8477715E-01
       -1   -1    0    0    0  501  0.00000000000E+00  0.00000000000E+00  0.98938424080E+03  0.98938424082E+03  0.50400001928E-02 0. -1.
        1   -1    0    0  501    0  0.00000000000E+00  0.00000000000E+00 -0.13372988732E+04  0.13372988732E+04  0.50400001928E-02 0.  1.
    10030    2    1    2    0    0  0.00000000000E+00  0.00000000000E+00 -0.34791463237E+03  0.23266831140E+04  0.23005237929E+04 0.  0.
        2    1    3    3  502    0 -0.16405483466E+03 -0.58837307176E+03 -0.11597227479E+04  0.13107454797E+04  0.25500000920E-02 0.  1.
       -2    1    3    3    0  502  0.16405483466E+03  0.58837307176E+03  0.81180811557E+03  0.10159376343E+04  0.25500000920E-02 0. -1.
</event>
<event>
 5   0  0.4208577E-05  0.2355673E+04  0.7818609E-02  0.8456288E-01
        1   -1    0    0  501    0  0.00000000000E+00  0.00000000000E+00  0.10728675865E+04  0.10728675865E+04  0.50400001928E-02 0. -1.
       -1   -1    0    0    0  501  0.00000000000E+00  0.00000000000E+00 -0.12930759408E+04  0.12930759408E+04  0.50400001928E-02 0.  1.
    10030    2    1    2    0    0  0.00000000000E+00  0.00000000000E+00 -0.22020835431E+03  0.23659435273E+04  0.23556733762E+04 0.  0.
        1    1    3    3  502    0 -0.10629965012E+04 -0.23707614426E+03  0.34032917368E+03  0.11410480297E+04  0.50400001928E-02 0. -1.
       -1    1    3    3    0  502  0.10629965012E+04  0.23707614426E+03 -0.56053752799E+03  0.12248954976E+04  0.50400001928E-02 0.  1.
</event>
<event>
 5   0  0.4061631E-05  0.2469019E+04  0.7818609E-02  0.8414107E-01
       -1   -1    0    0    0  501  0.00000000000E+00  0.00000000000E+00  0.45947032833E+03  0.45947032836E+03  0.50400001928E-02 0. -1.
        1   -1    0    0  501    0  0.00000000000E+00  0.00000000000E+00 -0.33168922063E+04  0.33168922063E+04  0.50400001928E-02 0.  1.
    10030    2    1    2    0    0  0.00000000000E+00  0.00000000000E+00 -0.28574218780E+04  0.37763625347E+04  0.24690188749E+04 0.  0.
        3    1    3    3  502    0  0.10897863178E+04 -0.54401207998E+03 -0.11211705888E+04  0.16554778346E+04  0.10100000352E+00 0. -1.
       -3    1    3    3    0  502 -0.10897863178E+04  0.54401207998E+03 -0.17362512892E+04  0.21208847001E+04  0.10100000352E+00 0.  1.
</event>
<event>
 5   0  0.4208577E-05  0.2315781E+04  0.7818609E-02  0.8471725E-01
        1   -1    0    0  501    0  0.00000000000E+00  0.00000000000E+00  0.20455077624E+04  0.20455077624E+04  0.50400001928E-02 0. -1.
       -1   -1    0    0    0  501  0.00000000000E+00  0.00000000000E+00 -0.65544138456E+03  0.65544138458E+03  0.50400001928E-02 0.  1.
    10030    2    1    2    0    0  0.00000000000E+00  0.00000000000E+00  0.13900663778E+04  0.27009491470E+04  0.23157810259E+04 0.  0.
        1    1    3    3  502    0 -0.86884865544E+02 -0.10186945728E+04  0.61103719386E+02  0.10242173974E+04  0.50400001928E-02 0.  1.
       -1    1    3    3    0  502  0.86884865544E+02  0.10186945728E+04  0.13289626584E+04  0.16767317496E+04  0.50400001928E-02 0. -1.
</event>
<event>
 5   0  0.4260395E-05  0.2340026E+04  0.7818609E-02  0.8462305E-01
        1   -1    0    0  501    0  0.00000000000E+00  0.00000000000E+00  0.13472270951E+04  0.13472270951E+04  0.50400001928E-02 0.  1.
       -1   -1    0    0    0  501  0.00000000000E+00  0.00000000000E+00 -0.10161092121E+04  0.10161092122E+04  0.50400001928E-02 0. -1.
    10030    2    1    2    0    0  0.00000000000E+00  0.00000000000E+00  0.33111788295E+03  0.23633363073E+04  0.23400255231E+04 0.  0.
        4    1    3    3  502    0  0.89573321433E+03 -0.67981131794E+03  0.49196075602E+03  0.12273990458E+04  0.12699999809E+01 0.  1.
       -4    1    3    3    0  502 -0.89573321433E+03  0.67981131794E+03 -0.16084287307E+03  0.11359372615E+04  0.12699999809E+01 0. -1.
</event>
<event>
 5   0  0.4260395E-05  0.2442772E+04  0.7818609E-02  0.8423662E-01
       -1   -1    0    0    0  501  0.00000000000E+00  0.00000000000E+00  0.11564771234E+04  0.11564771234E+04  0.50400001928E-02 0. -1.
        1   -1    0    0  501    0  0.00000000000E+00  0.00000000000E+00 -0.12899384097E+04  0.12899384097E+04  0.50400001928E-02 0.  1.
    10030    2    1    2    0    0  0.00000000000E+00  0.00000000000E+00 -0.13346128629E+03  0.24464155332E+04  0.24427724098E+04 0.  0.
        4    1    3    3  502    0 -0.11286534469E+04 -0.32079461242E+03 -0.40637484157E+03  0.12417366514E+04  0.12699999809E+01 0.  1.
       -4    1    3    3    0  502  0.11286534469E+04  0.32079461242E+03  0.27291355527E+03  0.12046788818E+04  0.12699999809E+01 0. -1.
</event>
<event>
 5   0  0.4061631E-05  0.2422364E+04  0.7818609E-02  0.8431178E-01
        1   -1    0    0  501    0  0.00000000000E+00  0.00000000000E+00  0.48502150088E+03  0.48502150090E+03  0.50400001928E-02 0. -1.
       -1   -1    0    0    0  501  0.00000000000E+00  0.00000000000E+00 -0.30245292960E+04  0.30245292960E+04  0.50400001928E-02 0.  1.
    10030    2    1    2    0    0  0.00000000000E+00  0.00000000000E+00 -0.25395077951E+04  0.35095507969E+04  0.24223639187E+04 0.  0.
        3    1    3    3  502    0  0.99513857283E+03  0.19857603436E+03 -0.22277558167E+04  0.24479847242E+04  0.10100000352E+00 0.  1.
       -3    1    3    3    0  502 -0.99513857283E+03 -0.19857603436E+03 -0.31175197838E+03  0.10615660727E+04  0.10100000352E+00 0. -1.
</event>
<event>
 5   0  0.9750757E-05  0.2222903E+04  0.7818609E-02  0.8508955E-01
       -2   -1    0    0    0  501  0.00000000000E+00  0.00000000000E+00  0.19620653013E+04  0.19620653013E+04  0.25500000920E-02 0. -1.
        2   -1    0    0  501    0  0.00000000000E+00  0.00000000000E+00 -0.62960411709E+03  0.62960411709E+03  0.25500000920E-02 0.  1.
    10030    2    1    2    0    0  0.00000000000E+00  0.00000000000E+00  0.13324611842E+04  0.25916694184E+04  0.22229029594E+04 0.  0.
        2    1    3    3  502    0 -0.44627228959E+03  0.92254423711E+03  0.11678057164E+04  0.15537107251E+04  0.25500000920E-02 0. -1.
       -2    1    3    3    0  502  0.44627228959E+03 -0.92254423711E+03  0.16465546774E+03  0.10379586933E+04  0.25500000920E-02 0.  1.
</event>
<event>
 5   0  0.3234750E-05  0.2292889E+04  0.7818609E-02  0.8480730E-01
       -3   -1    0    0    0  501  0.00000000000E+00  0.00000000000E+00  0.68774915145E+03  0.68774915887E+03  0.10100000352E+00 0. -1.
        3   -1    0    0  501    0  0.00000000000E+00  0.00000000000E+00 -0.19110675858E+04  0.19110675885E+04  0.10100000352E+00 0.  1.
    10030    2    1    2    0    0  0.00000000000E+00  0.00000000000E+00 -0.12233184344E+04  0.25988167474E+04  0.22928891152E+04 0.  0.
        2    1    3    3  502    0 -0.98877424697E+03 -0.21470345819E+03 -0.69920341275E+00  0.10118164731E+04  0.25500000920E-02 0. -1.
       -2    1    3    3    0  502  0.98877424697E+03  0.21470345819E+03 -0.12226192309E+04  0.15870002742E+04  0.25500000920E-02 0.  1.
</event>
<event>
 5   0  0.9144244E-05  0.2394506E+04  0.7818609E-02  0.8441563E-01
        2   -1    0    0  501    0  0.00000000000E+00  0.00000000000E+00  0.30440290884E+04  0.30440290884E+04  0.25500000920E-02 0. -1.
       -2   -1    0    0    0  501  0.00000000000E+00  0.00000000000E+00 -0.47089401262E+03  0.47089401263E+03  0.25500000920E-02 0.  1.
    10030    2    1    2    0    0  0.00000000000E+00  0.00000000000E+00  0.25731350758E+04  0.35149231010E+04  0.23945062723E+04 0.  0.
        1    1    3    3  502    0  0.30798333702E+03  0.40466200157E+03 -0.30448187056E+03  0.59271770762E+03  0.50400001928E-02 0.  1.
       -1    1    3    3    0  502 -0.30798333702E+03 -0.40466200157E+03  0.28776169463E+04  0.29222053934E+04  0.50400001928E-02 0. -1.
</event>
<event>
 5   0  0.4061631E-05  0.2386510E+04  0.7818609E-02  0.8444571E-01
       -1   -1    0    0    0  501  0.00000000000E+00  0.00000000000E+00  0.76411551233E+03  0.76411551235E+03  0.50400001928E-02 0. -1.
        1   -1    0    0  501    0  0.00000000000E+00  0.00000000000E+00 -0.18634058551E+04  0.18634058551E+04  0.50400001928E-02 0.  1.
    10030    2    1    2    0    0  0.00000000000E+00  0.00000000000E+00 -0.10992903428E+04  0.26275213675E+04  0.23865098531E+04 0.  0.
        3    1    3    3  502    0  0.66651682277E+02  0.10684126499E+04 -0.11300547127E+04  0.15565897665E+04  0.10100000352E+00 0.  1.
       -3    1    3    3    0  502 -0.66651682277E+02 -0.10684126499E+04  0.30764369919E+02  0.10709316010E+04  0.10100000352E+00 0. -1.
</event>
<event>
 5   0  0.9144244E-05  0.2398581E+04  0.7818609E-02  0.8440035E-01
       -2   -1    0    0    0  501  0.00000000000E+00  0.00000000000E+00  0.10959275600E+04  0.10959275600E+04  0.25500000920E-02 0.  1.
        2   -1    0    0  501    0  0.00000000000E+00  0.00000000000E+00 -0.13124017062E+04  0.13124017062E+04  0.25500000920E-02 0. -1.
    10030    2    1    2    0    0  0.00000000000E+00  0.00000000000E+00 -0.21647414616E+03  0.24083292662E+04  0.23985805800E+04 0.  0.
        1    1    3    3  502    0 -0.33291218118E+02  0.27541672605E+03  0.10632674752E+04  0.10988632317E+04  0.50400001928E-02 0.  1.
       -1    1    3    3    0  502  0.33291218118E+02 -0.27541672605E+03 -0.12797416213E+04  0.13094660345E+04  0.50400001928E-02 0. -1.
</event>
<event>
 5   0  0.4208577E-05  0.2362952E+04  0.7818609E-02  0.8453506E-01
        1   -1    0    0  501    0  0.00000000000E+00  0.00000000000E+00  0.23869735137E+04  0.23869735137E+04  0.50400001928E-02 0.  1.
       -1   -1    0    0    0  501  0.00000000000E+00  0.00000000000E+00 -0.58479284487E+03  0.58479284490E+03  0.50400001928E-02 0. -1.
    10030    2    1    2    0    0  0.00000000000E+00  0.00000000000E+00  0.18021806688E+04  0.29717663586E+04  0.23629515710E+04 0.  0.
        1    1    3    3  502    0  0.81955455826E+03  0.57723834478E+02 -0.16671559627E+03  0.83832917467E+03  0.50400001928E-02 0. -1.
       -1    1    3    3    0  502 -0.81955455826E+03 -0.57723834478E+02  0.19688962651E+04  0.21334371839E+04  0.50400001928E-02 0.  1.
</event>
<event>
 5   0  0.9491680E-05  0.2308140E+04  0.7818609E-02  0.8474718E-01
       -2   -1    0    0    0  501  0.00000000000E+00  0.00000000000E+00  0.59446755097E+03  0.59446755098E+03  0.25500000920E-02 0. -1.
        2   -1    0    0  501    0  0.00000000000E+00  0.00000000000E+00 -0.22404548482E+04  0.22404548482E+04  0.25500000920E-02 0.  1.
    10030    2    1    2    0    0  0.00000000000E+00  0.00000000000E+00 -0.16459872972E+04  0.28349223992E+04  0.23081401229E+04 0.  0.
        5    1    3    3  502    0 -0.72879011719E+03  0.89239377318E+03 -0.74194981183E+03  0.13704062517E+04  0.46999998093E+01 0. -1.
       -5    1    3    3    0  502  0.72879011719E+03 -0.89239377318E+03 -0.90403748539E+03  0.14645161475E+04  0.46999998093E+01 0.  1.
</event>
<event>
 5   0  0.3934906E-05  0.2342823E+04  0.7818609E-02  0.8461225E-01
       -1   -1    0    0    0  501  0.00000000000E+00  0.00000000000E+00  0.10401900944E+04  0.10401900944E+04  0.50400001928E-02 0. -1.
        1   -1    0    0  501    0  0.00000000000E+00  0.00000000000E+00 -0.13191865724E+04  0.13191865724E+04  0.50400001928E-02 0.  1.
    10030    2    1    2    0    0  0.00000000000E+00  0.00000000000E+00 -0.27899647806E+03  0.23593766668E+04  0.23428229171E+04 0.  0.
        2    1    3    3  502    0  0.11136629103E+04  0.27729871606E+03  0.96819448635E+02  0.11517437481E+04  0.25500000920E-02 0. -1.
       -2    1    3    3    0  502 -0.11136629103E+04 -0.27729871606E+03 -0.37581592670E+03  0.12076329187E+04  0.25500000920E-02 0.  1.
</event>
<event>
 5   0  0.9182865E-05  0.2403365E+04  0.7818609E-02  0.8438245E-01
       -2   -1    0    0    0  501  0.00000000000E+00  0.00000000000E+00  0.11066538370E+04  0.11066538370E+04  0.25500000920E-02 0.  1.
        2   -1    0    0  501    0  0.00000000000E+00  0.00000000000E+00 -0.13048710026E+04  0.13048710026E+04  0.25500000920E-02 0. -1.
    10030    2    1    2    0    0  0.00000000000E+00  0.00000000000E+00 -0.19821716557E+03  0.24115248397E+04  0.24033647263E+04 0.  0.
        3    1    3    3  502    0 -0.91769502028E+03  0.58014825564E+03  0.41771727783E+03  0.11632815150E+04  0.10100000352E+00 0.  1.
       -3    1    3    3    0  502  0.91769502028E+03 -0.58014825564E+03 -0.61593444341E+03  0.12482433247E+04  0.10100000352E+00 0. -1.
</event>
<event>
 5   0  0.9750757E-05  0.2463440E+04  0.7818609E-02  0.8416127E-01
       -2   -1    0    0    0  501  0.00000000000E+00  0.00000000000E+00  0.87956535283E+03  0.87956535284E+03  0.25500000920E-02 0. -1.
        2   -1    0    0  501    0  0.00000000000E+00  0.00000000000E+00 -0.17248681632E+04  0.17248681632E+04  0.25500000920E-02 0.  1.
    10030    2    1    2    0    0  0.00000000000E+00  0.00000000000E+00 -0.84530281037E+03  0.26044335160E+04  0.24634400943E+04 0.  0.
        2    1    3    3  502    0  0.42566206678E+03  0.69509782407E+03 -0.13989688973E+04  0.16190933129E+04  0.25500000920E-02 0.  1.
       -2    1    3    3    0  502 -0.42566206678E+03 -0.69509782407E+03  0.55366608695E+03  0.98534020316E+03  0.25500000920E-02 0. -1.
</event>
<event>
 5   0  0.3934906E-05  0.2459681E+04  0.7818609E-02  0.8417492E-01
       -1   -1    0    0    0  501  0.00000000000E+00  0.00000000000E+00  0.71309026840E+03  0.71309026842E+03  0.50400001928E-02 0. -1.
        1   -1    0    0  501    0  0.00000000000E+00  0.00000000000E+00 -0.21210607601E+04  0.21210607601E+04  0.50400001928E-02 0.  1.
    10030    2    1    2    0    0  0.00000000000E+00  0.00000000000E+00 -0.14079704917E+04  0.28341510285E+04  0.24596811068E+04 0.  0.
        2    1    3    3  502    0  0.10096175662E+04  0.17431316724E+03  0.79874837510E+02  0.10276637095E+04  0.25500000920E-02 0. -1.
       -2    1    3    3    0  502 -0.10096175662E+04 -0.17431316724E+03 -0.14878453292E+04  0.18064873190E+04  0.25500000920E-02 0.  1.
</event>
<event>
 5   0  0.9491680E-05  0.2396084E+04  0.7818609E-02  0.8440971E-01
        2   -1    0    0  501    0  0.00000000000E+00  0.00000000000E+00  0.11687860285E+04  0.11687860285E+04  0.25500000920E-02 0.  1.
       -2   -1    0    0    0  501  0.00000000000E+00  0.00000000000E+00 -0.12280303079E+04  0.12280303079E+04  0.25500000920E-02 0. -1.
    10030    2    1    2    0    0  0.00000000000E+00  0.00000000000E+00 -0.59244279401E+02  0.23968163363E+04  0.23960840272E+04 0.  0.
        5    1    3    3  502    0  0.45281115795E+03 -0.94127236388E+02  0.10758783743E+04  0.11710825111E+04  0.46999998093E+01 0.  1.
       -5    1    3    3    0  502 -0.45281115795E+03  0.94127236388E+02 -0.11351226537E+04  0.12257338253E+04  0.46999998093E+01 0. -1.
</event>
<event>
 5   0  0.9491680E-05  0.2431217E+04  0.7818609E-02  0.8427908E-01
       -2   -1    0    0    0  501  0.00000000000E+00  0.00000000000E+00  0.15325586714E+04  0.15325586714E+04  0.25500000920E-02 0. -1.
        2   -1    0    0  501    0  0.00000000000E+00  0.00000000000E+00 -0.96420711915E+03  0.96420711916E+03  0.25500000920E-02 0.  1.
    10030    2    1    2    0    0  0.00000000000E+00  0.00000000000E+00  0.56835155222E+03  0.24967657905E+04  0.24312169640E+04 0.  0.
        5    1    3    3  502    0  0.12382622602E+03 -0.94965029337E+03  0.10530353740E+04  0.14234023334E+04  0.46999998093E+01 0. -1.
       -5    1    3    3    0  502 -0.12382622602E+03  0.94965029337E+03 -0.48468382177E+03  0.10733634571E+04  0.46999998093E+01 0.  1.
</event>
<event>
 5   0  0.9182865E-05  0.2419850E+04  0.7818609E-02  0.8432109E-01
       -2   -1    0    0    0  501  0.00000000000E+00  0.00000000000E+00  0.10963273259E+04  0.10963273259E+04  0.25500000920E-02 0. -1.
        2   -1    0    0  501    0  0.00000000000E+00  0.00000000000E+00 -0.13352932995E+04  0.13352932995E+04  0.25500000920E-02 0.  1.
    10030    2    1    2    0    0  0.00000000000E+00  0.00000000000E+00 -0.23896597361E+03  0.24316206254E+04  0.24198500220E+04 0.  0.
        3    1    3    3  502    0  0.22057254887E+03 -0.11229546990E+04 -0.51412606735E+03  0.12545936109E+04  0.10100000352E+00 0.  1.
       -3    1    3    3    0  502 -0.22057254887E+03  0.11229546990E+04  0.27516009374E+03  0.11770270144E+04  0.10100000352E+00 0. -1.
</event>
<event>
 5   0  0.9144244E-05  0.2554748E+04  0.7818609E-02  0.8383737E-01
        2   -1    0    0  501    0  0.00000000000E+00  0.00000000000E+00  0.15388539836E+04  0.15388539836E+04  0.25500000920E-02 0. -1.
       -2   -1    0    0    0  501  0.00000000000E+00  0.00000000000E+00 -0.10603245870E+04  0.10603245870E+04  0.25500000920E-02 0.  1.
    10030    2    1    2    0    0  0.00000000000E+00  0.00000000000E+00  0.47852939651E+03  0.25991785706E+04  0.25547482965E+04 0.  0.
        1    1    3    3  502    0  0.48555382042E+03 -0.52645579507E+03 -0.83684792491E+03  0.11014684136E+04  0.50400001928E-02 0.  1.
       -1    1    3    3    0  502 -0.48555382042E+03  0.52645579507E+03  0.13153773214E+04  0.14977101570E+04  0.50400001928E-02 0. -1.
</event>
<event>
 5   0  0.4018942E-05  0.2289487E+04  0.7818609E-02  0.8482078E-01
       -1   -1    0    0    0  501  0.00000000000E+00  0.00000000000E+00  0.10612985635E+04  0.10612985635E+04  0.50400001928E-02 0.  1.
        1   -1    0    0  501    0  0.00000000000E+00  0.00000000000E+00 -0.12347488784E+04  0.12347488784E+04  0.50400001928E-02 0. -1.
    10030    2    1    2    0    0  0.00000000000E+00  0.00000000000E+00 -0.17345031486E+03  0.22960474419E+04  0.22894865895E+04 0.  0.
        5    1    3    3  502    0  0.62193186925E+03 -0.73753615983E+03  0.53120309140E+03  0.11013435664E+04  0.46999998093E+01 0.  1.
       -5    1    3    3    0  502 -0.62193186925E+03  0.73753615983E+03 -0.70465340625E+03  0.11947038754E+04  0.46999998093E+01 0. -1.
</event>
<event>
 5   0  0.4208577E-05  0.2097175E+04  0.7818609E-02  0.8562489E-01
       -1   -1    0    0    0  501  0.00000000000E+00  0.00000000000E+00  0.11774708872E+04  0.11774708872E+04  0.50400001928E-02 0.  1.
        1   -1    0    0  501    0  0.00000000000E+00  0.00000000000E+00 -0.93381164617E+03  0.93381164619E+03  0.50400001928E-02 0. -1.
    10030    2    1    2    0    0  0.00000000000E+00  0.00000000000E+00  0.24365924104E+03  0.21112825334E+04  0.20971752693E+04 0.  0.
        1    1    3    3  502    0 -0.64524903462E+03  0.63357538248E+03  0.65622230274E+03  0.11173145451E+04  0.50400001928E-02 0.  1.
       -1    1    3    3    0  502  0.64524903462E+03 -0.63357538248E+03 -0.41256306170E+03  0.99396798835E+03  0.50400001928E-02 0. -1.
</event>
<event>
 5   0  0.9750757E-05  0.2438666E+04  0.7818609E-02  0.8425168E-01
       -2   -1    0    0    0  501  0.00000000000E+00  0.00000000000E+00  0.51374347192E+03  0.51374347193E+03  0.25500000920E-02 0.  1.
        2   -1    0    0  501    0  0.00000000000E+00  0.00000000000E+00 -0.28939982628E+04  0.28939982628E+04  0.25500000920E-02 0. -1.
    10030    2    1    2    0    0  0.00000000000E+00  0.00000000000E+00 -0.23802547909E+04  0.34077417348E+04  0.24386657953E+04 0.  0.
        2    1    3    3  502    0  0.18397117776E+03 -0.40349532167E+03  0.39706380120E+03  0.59524241371E+03  0.25500000920E-02 0.  1.
       -2    1    3    3    0  502 -0.18397117776E+03  0.40349532167E+03 -0.27773185921E+04  0.28124993211E+04  0.25500000920E-02 0. -1.
</event>
<event>
 5   0  0.3934906E-05  0.2451260E+04  0.7818609E-02  0.8420558E-01
       -1   -1    0    0    0  501  0.00000000000E+00  0.00000000000E+00  0.12807495419E+04  0.12807495419E+04  0.50400001928E-02 0. -1.
        1   -1    0    0  501    0  0.00000000000E+00  0.00000000000E+00 -0.11728824049E+04  0.11728824049E+04  0.50400001928E-02 0.  1.
    10030    2    1    2    0    0  0.00000000000E+00  0.00000000000E+00  0.10786713697E+03  0.24536319468E+04  0.24512597600E+04 0.  0.
        2    1    3    3  502    0  0.69013738599E+03  0.72847031058E+03 -0.65045902982E+03  0.11958493026E+04  0.25500000920E-02 0.  1.
       -2    1    3    3    0  502 -0.69013738599E+03 -0.72847031058E+03  0.75832616679E+03  0.12577826443E+04  0.25500000920E-02 0. -1.
</event>
<event>
 5   0  0.9182865E-05  0.2268711E+04  0.7818609E-02  0.8490361E-01
       -2   -1    0    0    0  501  0.00000000000E+00  0.00000000000E+00  0.80885129322E+03  0.80885129323E+03  0.25500000920E-02 0. -1.
        2   -1    0    0  501    0  0.00000000000E+00  0.00000000000E+00 -0.15908509553E+04  0.15908509553E+04  0.25500000920E-02 0.  1.
    10030    2    1    2    0    0  0.00000000000E+00  0.00000000000E+00 -0.78199966206E+03  0.23997022485E+04  0.22687105170E+04 0.  0.
        3    1    3    3  502    0  0.49005304309E+02 -0.74051420861E+03  0.51643802903E+03  0.90414106258E+03  0.10100000352E+00 0. -1.
       -3    1    3    3    0  502 -0.49005304309E+02  0.74051420861E+03 -0.12984376911E+04  0.14955611859E+04  0.10100000352E+00 0.  1.
</event>
<event>
 5   0  0.9491680E-05  0.1512320E+04  0.7818609E-02  0.8876301E-01
        2   -1    0    0  501    0  0.00000000000E+00  0.00000000000E+00  0.10744576782E+04  0.10744576782E+04  0.25500000920E-02 0.  1.
       -2   -1    0    0    0  501  0.00000000000E+00  0.00000000000E+00 -0.53215517270E+03  0.53215517270E+03  0.25500000920E-02 0. -1.
    10030    2    1    2    0    0  0.00000000000E+00  0.00000000000E+00  0.54230250546E+03  0.16066128509E+04  0.15123203514E+04 0.  0.
        5    1    3    3  502    0  0.32079463071E+03 -0.68317098417E+03  0.32011545628E+03  0.81983399786E+03  0.46999998093E+01 0. -1.
       -5    1    3    3    0  502 -0.32079463071E+03  0.68317098417E+03  0.22218704918E+03  0.78677885300E+03  0.46999998093E+01 0.  1.
</event>
<event>
 5   0  0.4018942E-05  0.2392503E+04  0.7818609E-02  0.8442316E-01
        1   -1    0    0  501    0  0.00000000000E+00  0.00000000000E+00  0.15730944577E+04  0.15730944577E+04  0.50400001928E-02 0. -1.
       -1   -1    0    0    0  501  0.00000000000E+00  0.00000000000E+00 -0.90968287815E+03  0.90968287816E+03  0.50400001928E-02 0.  1.
    10030    2    1    2    0    0  0.00000000000E+00  0.00000000000E+00  0.66341157957E+03  0.24827773359E+04  0.23925025341E+04 0.  0.
        5    1    3    3  502    0 -0.29893451214E+03  0.73005442520E+03 -0.60147685701E+03  0.99203719982E+03  0.46999998093E+01 0.  1.
       -5    1    3    3    0  502  0.29893451214E+03 -0.73005442520E+03  0.12648884366E+04  0.14907401361E+04  0.46999998093E+01 0. -1.
</event>
<event>
 5   0  0.4018942E-05  0.2481224E+04  0.7818609E-02  0.8409705E-01
        1   -1    0    0  501    0  0.00000000000E+00  0.00000000000E+00  0.10048853699E+04  0.10048853699E+04  0.50400001928E-02 0.  1.
       -1   -1    0    0    0  501  0.00000000000E+00  0.00000000000E+00 -0.15316351179E+04  0.15316351180E+04  0.50400001928E-02 0. -1.
    10030    2    1    2    0    0  0.00000000000E+00  0.00000000000E+00 -0.52674974808E+03  0.25365204878E+04  0.24812236675E+04 0.  0.
        5    1    3    3  502    0  0.20687027681E+03 -0.10924539904E+04 -0.82595239648E+03  0.13850886195E+04  0.46999998093E+01 0. -1.
       -5    1    3    3    0  502 -0.20687027681E+03  0.10924539904E+04  0.29920264840E+03  0.11514318683E+04  0.46999998093E+01 0.  1.
</event>
<event>
 5   0  0.9144244E-05  0.1380550E+04  0.7818609E-02  0.8968019E-01
       -2   -1    0    0    0  501  0.00000000000E+00  0.00000000000E+00  0.65978673191E+03  0.65978673192E+03  0.25500000920E-02 0.  1.
        2   -1    0    0  501    0  0.00000000000E+00  0.00000000000E+00 -0.72217216209E+03  0.72217216210E+03  0.25500000920E-02 0. -1.
    10030    2    1    2    0    0  0.00000000000E+00  0.00000000000E+00 -0.62385430183E+02  0.13819588940E+04  0.13805500508E+04 0.  0.
        1    1    3    3  502    0 -0.13165394329E+03  0.18376015379E+03  0.62168376052E+03  0.66150680498E+03  0.50400001928E-02 0.  1.
       -1    1    3    3    0  502  0.13165394329E+03 -0.18376015379E+03 -0.68406919071E+03  0.72045208904E+03  0.50400001928E-02 0. -1.
</event>
<event>
 5   0  0.9519092E-05  0.2413721E+04  0.7818609E-02  0.8434385E-01
        2   -1    0    0  501    0  0.00000000000E+00  0.00000000000E+00  0.15228054033E+04  0.15228054033E+04  0.25500000920E-02 0. -1.
       -2   -1    0    0    0  501  0.00000000000E+00  0.00000000000E+00 -0.95646611173E+03  0.95646611174E+03  0.25500000920E-02 0.  1.
    10030    2    1    2    0    0  0.00000000000E+00  0.00000000000E+00  0.56633929160E+03  0.24792715151E+04  0.24137205829E+04 0.  0.
        4    1    3    3  502    0 -0.10164020024E+04 -0.45513612627E+03  0.76086777052E+03  0.13487562052E+04  0.12699999809E+01 0. -1.
       -4    1    3    3    0  502  0.10164020024E+04  0.45513612627E+03 -0.19452847892E+03  0.11305153099E+04  0.12699999809E+01 0.  1.
</event>
<event>
 5   0  0.3934906E-05  0.2270306E+04  0.7818609E-02  0.8489722E-01
       -1   -1    0    0    0  501  0.00000000000E+00  0.00000000000E+00  0.13644610547E+04  0.13644610547E+04  0.50400001928E-02 0.  1.
        1   -1    0    0  501    0  0.00000000000E+00  0.00000000000E+00 -0.94438185035E+03  0.94438185037E+03  0.50400001928E-02 0. -1.
    10030    2    1    2    0    0  0.00000000000E+00  0.00000000000E+00  0.42007920438E+03  0.23088429051E+04  0.22703059315E+04 0.  0.
        2    1    3    3  502    0 -0.75704911548E+03  0.84286634469E+03  0.13794754378E+03  0.11413047635E+04  0.25500000920E-02 0. -1.
       -2    1    3    3    0  502  0.75704911548E+03 -0.84286634469E+03  0.28213166060E+03  0.11675381416E+04  0.25500000920E-02 0.  1.
</event>
<event>
 5   0  0.4260395E-05  0.2352472E+04  0.7818609E-02  0.8457515E-01
       -1   -1    0    0    0  501  0.00000000000E+00  0.00000000000E+00  0.25121032946E+04  0.25121032946E+04  0.50400001928E-02 0. -1.
        1   -1    0    0  501    0  0.00000000000E+00  0.00000000000E+00 -0.55074590450E+03  0.55074590452E+03  0.50400001928E-02 0.  1.
    10030    2    1    2    0    0  0.00000000000E+00  0.00000000000E+00  0.19613573901E+04  0.30628491992E+04  0.23524715524E+04 0.  0.
        4    1    3    3  502    0 -0.20246245021E+00  0.28472863160E+03 -0.50519943439E+03  0.57991250723E+03  0.12699999809E+01 0.  1.
       -4    1    3    3    0  502  0.20246245021E+00 -0.28472863160E+03  0.24665568245E+04  0.24829366919E+04  0.12699999809E+01 0. -1.
</event>
<event>
 5   0  0.9182865E-05  0.2407773E+04  0.7818609E-02  0.8436599E-01
       -2   -1    0    0    0  501  0.00000000000E+00  0.00000000000E+00  0.10420443502E+04  0.10420443502E+04  0.25500000920E-02 0.  1.
        2   -1    0    0  501    0  0.00000000000E+00  0.00000000000E+00 -0.13908641829E+04  0.13908641829E+04  0.25500000920E-02 0. -1.
    10030    2    1    2    0    0  0.00000000000E+00  0.00000000000E+00 -0.34881983274E+03  0.24329085331E+04  0.24077725505E+04 0.  0.
        3    1    3    3  502    0  0.53148812124E+03  0.88821037941E+03 -0.79560003673E+03  0.13055178014E+04  0.10100000352E+00 0.  1.
       -3    1    3    3    0  502 -0.53148812124E+03 -0.88821037941E+03  0.44678020399E+03  0.11273907317E+04  0.10100000352E+00 0. -1.
</event>
<event>
 5   0  0.4208577E-05  0.2378710E+04  0.7818609E-02  0.8447518E-01
        1   -1    0    0  501    0  0.00000000000E+00  0.00000000000E+00  0.24861082169E+04  0.24861082169E+04  0.50400001928E-02 0.  1.
       -1   -1    0    0    0  501  0.00000000000E+00  0.00000000000E+00 -0.56898766069E+03  0.56898766071E+03  0.50400001928E-02 0. -1.
    10030    2    1    2    0    0  0.00000000000E+00  0.00000000000E+00  0.19171205562E+04  0.30550958776E+04  0.23787096490E+04 0.  0.
        1    1    3    3  502    0 -0.92374609506E+03 -0.11260775201E+03  0.19098272605E+04  0.21244828827E+04  0.50400001928E-02 0.  1.
       -1    1    3    3    0  502  0.92374609506E+03  0.11260775201E+03  0.72932956269E+01  0.93061299482E+03  0.50400001928E-02 0. -1.
</event>
<event>
 5   0  0.9491680E-05  0.2278611E+04  0.7818609E-02  0.8486402E-01
       -2   -1    0    0    0  501  0.00000000000E+00  0.00000000000E+00  0.10339527011E+04  0.10339527011E+04  0.25500000920E-02 0.  1.
        2   -1    0    0  501    0  0.00000000000E+00  0.00000000000E+00 -0.12553931199E+04  0.12553931199E+04  0.25500000920E-02 0. -1.
    10030    2    1    2    0    0  0.00000000000E+00  0.00000000000E+00 -0.22144041888E+03  0.22893458210E+04  0.22786110745E+04 0.  0.
        5    1    3    3  502    0  0.49791732483E+03  0.84622659464E+03  0.46990710767E+03  0.10885108597E+04  0.46999998093E+01 0.  1.
       -5    1    3    3    0  502 -0.49791732483E+03 -0.84622659464E+03 -0.69134752655E+03  0.12008349613E+04  0.46999998093E+01 0. -1.
</event>
<event>
 5   0  0.3934906E-05  0.2464369E+04  0.7818609E-02  0.8415790E-01
        1   -1    0    0  501    0  0.00000000000E+00  0.00000000000E+00  0.90745835847E+03  0.90745835849E+03  0.50400001928E-02 0. -1.
       -1   -1    0    0    0  501  0.00000000000E+00  0.00000000000E+00 -0.16731106722E+04  0.16731106722E+04  0.50400001928E-02 0.  1.
    10030    2    1    2    0    0  0.00000000000E+00  0.00000000000E+00 -0.76565231371E+03  0.25805690307E+04  0.24643686933E+04 0.  0.
        2    1    3    3  502    0 -0.48513632090E+03 -0.98970608885E+03 -0.95961870615E+03  0.14614183020E+04  0.25500000920E-02 0.  1.
       -2    1    3    3    0  502  0.48513632090E+03  0.98970608885E+03  0.19396639244E+03  0.11191507287E+04  0.25500000920E-02 0. -1.
</event>
<event>
 5   0  0.9144244E-05  0.2460713E+04  0.7818609E-02  0.8417117E-01
        2   -1    0    0  501    0  0.00000000000E+00  0.00000000000E+00  0.11506302116E+04  0.11506302116E+04  0.25500000920E-02 0. -1.
       -2   -1    0    0    0  501  0.00000000000E+00  0.00000000000E+00 -0.13156065517E+04  0.13156065517E+04  0.25500000920E-02 0.  1.
    10030    2    1    2    0    0  0.00000000000E+00  0.00000000000E+00 -0.16497634010E+03  0.24662367633E+04  0.24607126162E+04 0.  0.
        1    1    3    3  502    0  0.14172142197E+03  0.12098384190E+04  0.91055636689E+02  0.12215093494E+04  0.50400001928E-02 0. -1.
       -1    1    3    3    0  502 -0.14172142197E+03 -0.12098384190E+04 -0.25603197679E+03  0.12447274139E+04  0.50400001928E-02 0.  1.
</event>
<event>
 5   0  0.9750757E-05  0.1959389E+04  0.7818609E-02  0.8625847E-01
        2   -1    0    0  501    0  0.00000000000E+00  0.00000000000E+00  0.66884462970E+03  0.66884462970E+03  0.25500000920E-02 0. -1.
       -2   -1    0    0    0  501  0.00000000000E+00  0.00000000000E+00 -0.14350133320E+04  0.14350133320E+04  0.25500000920E-02 0.  1.
    10030    2    1    2    0    0  0.00000000000E+00  0.00000000000E+00 -0.76616870231E+03  0.21038579617E+04  0.19593886400E+04 0.  0.
        2    1    3    3  502    0  0.48267404191E+03 -0.73816904770E+03  0.74901217729E+02  0.88514290719E+03  0.25500000920E-02 0. -1.
       -2    1    3    3    0  502 -0.48267404191E+03  0.73816904770E+03 -0.84106992004E+03  0.12187150545E+04  0.25500000920E-02 0.  1.
</event>
<event>
 5   0  0.3234750E-05  0.2364201E+04  0.7818609E-02  0.8453029E-01
       -3   -1    0    0    0  501  0.00000000000E+00  0.00000000000E+00  0.16272915701E+04  0.16272915732E+04  0.10100000352E+00 0.  1.
        3   -1    0    0  501    0  0.00000000000E+00  0.00000000000E+00 -0.85870420921E+03  0.85870421515E+03  0.10100000352E+00 0. -1.
    10030    2    1    2    0    0  0.00000000000E+00  0.00000000000E+00  0.76858736087E+03  0.24859957884E+04  0.23642014568E+04 0.  0.
        5    1    3    3  502    0  0.63088743438E+03 -0.49224515738E+03 -0.53059526002E+03  0.96014460879E+03  0.46999998093E+01 0. -1.
       -5    1    3    3    0  502 -0.63088743438E+03  0.49224515738E+03  0.12991826209E+04  0.15258511796E+04  0.46999998093E+01 0.  1.
</event>
<event>
 5   0  0.4260395E-05  0.1382268E+04  0.7818609E-02  0.8966755E-01
       -1   -1    0    0    0  501  0.00000000000E+00  0.00000000000E+00  0.93063154564E+03  0.93063154565E+03  0.50400001928E-02 0. -1.
        1   -1    0    0  501    0  0.00000000000E+00  0.00000000000E+00 -0.51327100363E+03  0.51327100366E+03  0.50400001928E-02 0.  1.
    10030    2    1    2    0    0  0.00000000000E+00  0.00000000000E+00  0.41736054201E+03  0.14439025493E+04  0.13822679732E+04 0.  0.
        4    1    3    3  502    0 -0.39459281090E+03  0.21529905198E+03 -0.33971168979E+03  0.56343838464E+03  0.12699999809E+01 0.  1.
       -4    1    3    3    0  502  0.39459281090E+03 -0.21529905198E+03  0.75707223180E+03  0.88046416467E+03  0.12699999809E+01 0. -1.
</event>
<event>
 5   0  0.9519092E-05  0.2293991E+04  0.7818609E-02  0.8480294E-01
       -2   -1    0    0    0  501  0.00000000000E+00  0.00000000000E+00  0.14764209165E+04  0.14764209165E+04  0.25500000920E-02 0.  1.
        2   -1    0    0  501    0  0.00000000000E+00  0.00000000000E+00 -0.89107261804E+03  0.89107261804E+03  0.25500000920E-02 0. -1.
    10030    2    1    2    0    0  0.00000000000E+00  0.00000000000E+00  0.58534829847E+03  0.23674935346E+04  0.22939906289E+04 0.  0.
        4    1    3    3  502    0 -0.50697817103E+03 -0.99801848104E+03  0.55074413708E+03  0.12475529936E+04  0.12699999809E+01 0.  1.
       -4    1    3    3    0  502  0.50697817103E+03  0.99801848104E+03  0.34604161388E+02  0.11199405410E+04  0.12699999809E+01 0. -1.
</event>
<event>
 5   0  0.9491680E-05  0.2398443E+04  0.7818609E-02  0.8440087E-01
        2   -1    0    0  501    0  0.00000000000E+00  0.00000000000E+00  0.18982580447E+04  0.18982580447E+04  0.25500000920E-02 0. -1.
       -2   -1    0    0    0  501  0.00000000000E+00  0.00000000000E+00 -0.75760646677E+03  0.75760646678E+03  0.25500000920E-02 0.  1.
    10030    2    1    2    0    0  0.00000000000E+00  0.00000000000E+00  0.11406515779E+04  0.26558645115E+04  0.23984433037E+04 0.  0.
        5    1    3    3  502    0  0.40264663736E+03  0.51954907297E+02  0.18198353585E+04  0.18645767480E+04  0.46999998093E+01 0. -1.
       -5    1    3    3    0  502 -0.40264663736E+03 -0.51954907297E+02 -0.67918378055E+03  0.79128776355E+03  0.46999998093E+01 0.  1.
</event>
<event>
 5   0  0.4208577E-05  0.2435574E+04  0.7818609E-02  0.8426304E-01
       -1   -1    0    0    0  501  0.00000000000E+00  0.00000000000E+00  0.99277159845E+03  0.99277159846E+03  0.50400001928E-02 0. -1.
        1   -1    0    0  501    0  0.00000000000E+00  0.00000000000E+00 -0.14938035166E+04  0.14938035166E+04  0.50400001928E-02 0.  1.
    10030    2    1    2    0    0  0.00000000000E+00  0.00000000000E+00 -0.50103191811E+03  0.24865751150E+04  0.24355744332E+04 0.  0.
        1    1    3    3  502    0  0.41379206783E+02 -0.78013275859E+03  0.70322243659E+03  0.10511142446E+04  0.50400001928E-02 0. -1.
       -1    1    3    3    0  502 -0.41379206783E+02  0.78013275859E+03 -0.12042543547E+04  0.14354608705E+04  0.50400001928E-02 0.  1.
</event>
<event>
 5   0  0.9519092E-05  0.2404260E+04  0.7818609E-02  0.8437910E-01
        2   -1    0    0  501    0  0.00000000000E+00  0.00000000000E+00  0.10460530970E+04  0.10460530970E+04  0.25500000920E-02 0.  1.
       -2   -1    0    0    0  501  0.00000000000E+00  0.00000000000E+00 -0.13814945363E+04  0.13814945363E+04  0.25500000920E-02 0. -1.
    10030    2    1    2    0    0  0.00000000000E+00  0.00000000000E+00 -0.33544143932E+03  0.24275476333E+04  0.24042600842E+04 0.  0.
        4    1    3    3  502    0 -0.77337328865E+03 -0.54379245579E+03  0.58196586242E+03  0.11101812269E+04  0.12699999809E+01 0.  1.
       -4    1    3    3    0  502  0.77337328865E+03  0.54379245579E+03 -0.91740730175E+03  0.13173664064E+04  0.12699999809E+01 0. -1.
</event>
<event>
 5   0  0.4061631E-05  0.2329558E+04  0.7818609E-02  0.8466357E-01
       -1   -1    0    0    0  501  0.00000000000E+00  0.00000000000E+00  0.82865553746E+03  0.82865553747E+03  0.50400001928E-02 0. -1.
        1   -1    0    0  501    0  0.00000000000E+00  0.00000000000E+00 -0.16372419668E+04  0.16372419668E+04  0.50400001928E-02 0.  1.
    10030    2    1    2    0    0  0.00000000000E+00  0.00000000000E+00 -0.80858642938E+03  0.24658975043E+04  0.23295575735E+04 0.  0.
        3    1    3    3  502    0 -0.80097373109E+03 -0.72884375842E+02 -0.12961217562E+04  0.15253860715E+04  0.10100000352E+00 0.  1.
       -3    1    3    3    0  502  0.80097373109E+03  0.72884375842E+02  0.48753532680E+03  0.94051143280E+03  0.10100000352E+00 0. -1.
</event>
<event>
 5   0  0.3934906E-05  0.2382086E+04  0.7818609E-02  0.8446241E-01
        1   -1    0    0  501    0  0.00000000000E+00  0.00000000000E+00  0.14741020295E+04  0.14741020296E+04  0.50400001928E-02 0. -1.
       -1   -1    0    0    0  501  0.00000000000E+00  0.00000000000E+00 -0.96233766109E+03  0.96233766111E+03  0.50400001928E-02 0.  1.
    10030    2    1    2    0    0  0.00000000000E+00  0.00000000000E+00  0.51176436845E+03  0.24364396907E+04  0.23820863959E+04 0.  0.
        2    1    3    3  502    0  0.41515244507E+03 -0.16512838237E+03  0.13851417249E+04  0.14554162750E+04  0.25500000920E-02 0. -1.
       -2    1    3    3    0  502 -0.41515244507E+03  0.16512838237E+03 -0.87337735647E+03  0.98102341569E+03  0.25500000920E-02 0.  1.
</event>
<event>
 5   0  0.3934906E-05  0.2437553E+04  0.7818609E-02  0.8425577E-01
        1   -1    0    0  501    0  0.00000000000E+00  0.00000000000E+00  0.27819558107E+04  0.27819558107E+04  0.50400001928E-02 0. -1.
       -1   -1    0    0    0  501  0.00000000000E+00  0.00000000000E+00 -0.53394660907E+03  0.53394660910E+03  0.50400001928E-02 0.  1.
    10030    2    1    2    0    0  0.00000000000E+00  0.00000000000E+00  0.22480092016E+04  0.33159024198E+04  0.24375527660E+04 0.  0.
        2    1    3    3  502    0  0.73000330871E+03  0.37005568543E+02  0.24506972137E+04  0.25573797286E+04  0.25500000920E-02 0. -1.
       -2    1    3    3    0  502 -0.73000330871E+03 -0.37005568543E+02 -0.20268801209E+03  0.75852269122E+03  0.25500000920E-02 0.  1.
</event>
<event>
 5   0  0.4208577E-05  0.2408359E+04  0.7818609E-02  0.8436381E-01
       -1   -1    0    0    0  501  0.00000000000E+00  0.00000000000E+00  0.54089652111E+03  0.54089652114E+03  0.50400001928E-02 0.  1.
        1   -1    0    0  501    0  0.00000000000E+00  0.00000000000E+00 -0.26808234082E+04  0.26808234082E+04  0.50400001928E-02 0. -1.
    10030    2    1    2    0    0  0.00000000000E+00  0.00000000000E+00 -0.21399268871E+04  0.32217199294E+04  0.24083588232E+04 0.  0.
        1    1    3    3  502    0  0.58322953447E+03 -0.10052560993E+04 -0.64831170773E+03  0.13307909623E+04  0.50400001928E-02 0.  1.
       -1    1    3    3    0  502 -0.58322953447E+03  0.10052560993E+04 -0.14916151794E+04  0.18909289671E+04  0.50400001928E-02 0. -1.
</event>
<event>
 5   0  0.4018942E-05  0.2356554E+04  0.7818609E-02  0.8455950E-01
       -1   -1    0    0    0  501  0.00000000000E+00  0.00000000000E+00  0.89740506293E+03  0.89740506295E+03  0.50400001928E-02 0. -1.
        1   -1    0    0  501    0  0.00000000000E+00  0.00000000000E+00 -0.15470574628E+04  0.15470574628E+04  0.50400001928E-02 0.  1.
    10030    2    1    2    0    0  0.00000000000E+00  0.00000000000E+00 -0.64965239984E+03  0.24444625257E+04  0.23565544337E+04 0.  0.
        5    1    3    3  502    0  0.79969777932E+03 -0.71187892258E+03  0.18548816176E+03  0.10866076048E+04  0.46999998093E+01 0. -1.
       -5    1    3    3    0  502 -0.79969777932E+03  0.71187892258E+03 -0.83514056160E+03  0.13578549209E+04  0.46999998093E+01 0.  1.
</event>
<event>
 5   0  0.3934906E-05  0.2299809E+04  0.7818609E-02  0.8477996E-01
       -1   -1    0    0    0  501  0.00000000000E+00  0.00000000000E+00  0.83678768453E+03  0.83678768454E+03  0.50400001928E-02 0.  1.
        1   -1    0    0  501    0  0.00000000000E+00  0.00000000000E+00 -0.15801862011E+04  0.15801862011E+04  0.50400001928E-02 0. -1.
    10030    2    1    2    0    0  0.00000000000E+00  0.00000000000E+00 -0.74339851657E+03  0.24169738857E+04  0.22998089941E+04 0.  0.
        2    1    3    3  502    0 -0.17448941525E+03  0.15717185261E+03  0.81131754844E+03  0.84462163819E+03  0.25500000920E-02 0.  1.
       -2    1    3    3    0  502  0.17448941525E+03 -0.15717185261E+03 -0.15547160650E+04  0.15723522475E+04  0.25500000920E-02 0. -1.
</event>
<event>
 5   0  0.9519092E-05  0.2359409E+04  0.7818609E-02  0.8454859E-01
        2   -1    0    0  501    0  0.00000000000E+00  0.00000000000E+00  0.74885446535E+03  0.74885446535E+03  0.25500000920E-02 0. -1.
       -2   -1    0    0    0  501  0.00000000000E+00  0.00000000000E+00 -0.18584419052E+04  0.18584419052E+04  0.25500000920E-02 0.  1.
    10030    2    1    2    0    0  0.00000000000E+00  0.00000000000E+00 -0.11095874399E+04  0.26072963706E+04  0.23594088406E+04 0.  0.
        4    1    3    3  502    0 -0.95904098396E+03  0.34950473799E+03  0.98772333663E+02  0.10255099988E+04  0.12699999809E+01 0. -1.
       -4    1    3    3    0  502  0.95904098396E+03 -0.34950473799E+03 -0.12083597736E+04  0.15817863718E+04  0.12699999809E+01 0.  1.
</event>
<event>
 5   0  0.9519092E-05  0.2362961E+04  0.7818609E-02  0.8453502E-01
        2   -1    0    0  501    0  0.00000000000E+00  0.00000000000E+00  0.16618993115E+04  0.16618993115E+04  0.25500000920E-02 0. -1.
       -2   -1    0    0    0  501  0.00000000000E+00  0.00000000000E+00 -0.83994026561E+03  0.83994026561E+03  0.25500000920E-02 0.  1.
    10030    2    1    2    0    0  0.00000000000E+00  0.00000000000E+00  0.82195904585E+03  0.25018395771E+04  0.23629609807E+04 0.  0.
        4    1    3    3  502    0  0.62086558107E+03 -0.63592709774E+02  0.14731228803E+04  0.15998783503E+04  0.12699999809E+01 0. -1.
       -4    1    3    3    0  502 -0.62086558107E+03  0.63592709774E+02 -0.65116383440E+03  0.90196122679E+03  0.12699999809E+01 0.  1.
</event>
<event>
 5   0  0.9144244E-05  0.2048998E+04  0.7818609E-02  0.8584049E-01
       -2   -1    0    0    0  501  0.00000000000E+00  0.00000000000E+00  0.74231323717E+03  0.74231323718E+03  0.25500000920E-02 0. -1.
        2   -1    0    0  501    0  0.00000000000E+00  0.00000000000E+00 -0.14139559819E+04  0.14139559819E+04  0.25500000920E-02 0.  1.
    10030    2    1    2    0    0  0.00000000000E+00  0.00000000000E+00 -0.67164274475E+03  0.21562692191E+04  0.20489980402E+04 0.  0.
        1    1    3    3  502    0  0.43362208027E+03 -0.89598102924E+03 -0.59097765083E+03  0.11576116348E+04  0.50400001928E-02 0.  1.
       -1    1    3    3    0  502 -0.43362208027E+03  0.89598102924E+03 -0.80665093925E+02  0.99865758429E+03  0.50400001928E-02 0. -1.
</event>
<event>
 5   0  0.4260395E-05  0.1968722E+04  0.7818609E-02  0.8621385E-01
        1   -1    0    0  501    0  0.00000000000E+00  0.00000000000E+00  0.17757519349E+04  0.17757519349E+04  0.50400001928E-02 0.  1.
       -1   -1    0    0    0  501  0.00000000000E+00  0.00000000000E+00 -0.54566570012E+03  0.54566570014E+03  0.50400001928E-02 0. -1.
    10030    2    1    2    0    0  0.00000000000E+00  0.00000000000E+00  0.12300862348E+04  0.23214176351E+04  0.19687223500E+04 0.  0.
        4    1    3    3  502    0 -0.75566759278E+03  0.27608809615E+03 -0.53761361118E+02  0.80631882309E+03  0.12699999809E+01 0. -1.
       -4    1    3    3    0  502  0.75566759278E+03 -0.27608809615E+03  0.12838475959E+04  0.15150988120E+04  0.12699999809E+01 0.  1.
</event>
<event>
 5   0  0.4260395E-05  0.2305499E+04  0.7818609E-02  0.8475756E-01
        1   -1    0    0  501    0  0.00000000000E+00  0.00000000000E+00  0.15379643456E+04  0.15379643456E+04  0.50400001928E-02 0.  1.
       -1   -1    0    0    0  501  0.00000000000E+00  0.00000000000E+00 -0.86401933438E+03  0.86401933439E+03  0.50400001928E-02 0. -1.
    10030    2    1    2    0    0  0.00000000000E+00  0.00000000000E+00  0.67394501126E+03  0.24019836800E+04  0.23054985840E+04 0.  0.
        4    1    3    3  502    0  0.10606823429E+04  0.18636336239E+03  0.76533756709E+03  0.13211818723E+04  0.12699999809E+01 0.  1.
       -4    1    3    3    0  502 -0.10606823429E+04 -0.18636336239E+03 -0.91392555830E+02  0.10808018077E+04  0.12699999809E+01 0. -1.
</event>
<event>
 5   0  0.9491680E-05  0.2439982E+04  0.7818609E-02  0.8424685E-01
        2   -1    0    0  501    0  0.00000000000E+00  0.00000000000E+00  0.23540742045E+04  0.23540742045E+04  0.25500000920E-02 0. -1.
       -2   -1    0    0    0  501  0.00000000000E+00  0.00000000000E+00 -0.63225631978E+03  0.63225631979E+03  0.25500000920E-02 0.  1.
    10030    2    1    2    0    0  0.00000000000E+00  0.00000000000E+00  0.17218178848E+04  0.29863305243E+04  0.24399822074E+04 0.  0.
        5    1    3    3  502    0 -0.66514986648E+03 -0.98257673905E+03  0.51370776108E+03  0.12929807217E+04  0.46999998093E+01 0.  1.
       -5    1    3    3    0  502  0.66514986648E+03  0.98257673905E+03  0.12081101237E+04  0.16933498026E+04  0.46999998093E+01 0. -1.
</event>
<event>
 5   0  0.4018942E-05  0.2341860E+04  0.7818609E-02  0.8461597E-01
        1   -1    0    0  501    0  0.00000000000E+00  0.00000000000E+00  0.16197199044E+04  0.16197199044E+04  0.50400001928E-02 0.  1.
       -1   -1    0    0    0  501  0.00000000000E+00  0.00000000000E+00 -0.84648991133E+03  0.84648991134E+03  0.50400001928E-02 0. -1.
    10030    2    1    2    0    0  0.00000000000E+00  0.00000000000E+00  0.77322999303E+03  0.24662098157E+04  0.23418595673E+04 0.  0.
        5    1    3    3  502    0  0.75450853858E+03  0.87916740517E+03  0.56544349736E+03  0.12891729519E+04  0.46999998093E+01 0.  1.
       -5    1    3    3    0  502 -0.75450853858E+03 -0.87916740517E+03  0.20778649567E+03  0.11770368639E+04  0.46999998093E+01 0. -1.
</event>
<event>
 5   0  0.3234750E-05  0.2278961E+04  0.7818609E-02  0.8486263E-01
       -3   -1    0    0    0  501  0.00000000000E+00  0.00000000000E+00  0.10853347099E+04  0.10853347146E+04  0.10100000352E+00 0. -1.
        3   -1    0    0  501    0  0.00000000000E+00  0.00000000000E+00 -0.11963279560E+04  0.11963279602E+04  0.10100000352E+00 0.  1.
    10030    2    1    2    0    0  0.00000000000E+00  0.00000000000E+00 -0.11099324610E+03  0.22816626748E+04  0.22789613996E+04 0.  0.
        2    1    3    3  502    0  0.38089925171E+03 -0.10036981687E+04  0.32695355926E+03  0.11222267524E+04  0.25500000920E-02 0.  1.
       -2    1    3    3    0  502 -0.38089925171E+03  0.10036981687E+04 -0.43794680536E+03  0.11594359224E+04  0.25500000920E-02 0. -1.
</event>
<event>
 5   0  0.9750757E-05  0.2373861E+04  0.7818609E-02  0.8449355E-01
       -2   -1    0    0    0  501  0.00000000000E+00  0.00000000000E+00  0.52363821203E+03  0.52363821203E+03  0.25500000920E-02 0. -1.
        2   -1    0    0  501    0  0.00000000000E+00  0.00000000000E+00 -0.26904142714E+04  0.26904142714E+04  0.25500000920E-02 0.  1.
    10030    2    1    2    0    0  0.00000000000E+00  0.00000000000E+00 -0.21667760594E+04  0.32140524834E+04  0.23738607530E+04 0.  0.
        2    1    3    3  502    0  0.36834657394E+03 -0.93215045166E+03 -0.19441967396E+04  0.21873464804E+04  0.25500000920E-02 0. -1.
       -2    1    3    3    0  502 -0.36834657394E+03  0.93215045166E+03 -0.22257931976E+03  0.10267060030E+04  0.25500000920E-02 0.  1.
</event>
<event>
 5   0  0.4061631E-05  0.2426374E+04  0.7818609E-02  0.8429695E-01
       -1   -1    0    0    0  501  0.00000000000E+00  0.00000000000E+00  0.10523254286E+04  0.10523254286E+04  0.50400001928E-02 0.  1.
        1   -1    0    0  501    0  0.00000000000E+00  0.00000000000E+00 -0.13986386558E+04  0.13986386558E+04  0.50400001928E-02 0. -1.
    10030    2    1    2    0    0  0.00000000000E+00  0.00000000000E+00 -0.34631322725E+03  0.24509640844E+04  0.24263742687E+04 0.  0.
        3    1    3    3  502    0  0.81011316774E+03  0.43476555908E+03 -0.97270754215E+03  0.13384559794E+04  0.10100000352E+00 0. -1.
       -3    1    3    3    0  502 -0.81011316774E+03 -0.43476555908E+03  0.62639431490E+03  0.11125081051E+04  0.10100000352E+00 0.  1.
</event>
<event>
 5   0  0.9182865E-05  0.2374593E+04  0.7818609E-02  0.8449077E-01
       -2   -1    0    0    0  501  0.00000000000E+00  0.00000000000E+00  0.60093719012E+03  0.60093719013E+03  0.25500000920E-02 0.  1.
        2   -1    0    0  501    0  0.00000000000E+00  0.00000000000E+00 -0.23457901480E+04  0.23457901480E+04  0.25500000920E-02 0. -1.
    10030    2    1    2    0    0  0.00000000000E+00  0.00000000000E+00 -0.17448529579E+04  0.29467273381E+04  0.23745926305E+04 0.  0.
        3    1    3    3  502    0  0.26753728274E+03 -0.39393513760E+03 -0.22220944834E+04  0.22725459277E+04  0.10100000352E+00 0. -1.
       -3    1    3    3    0  502 -0.26753728274E+03  0.39393513760E+03  0.47724152550E+03  0.67418141042E+03  0.10100000352E+00 0.  1.
</event>
<event>
 5   0  0.9519092E-05  0.2325454E+04  0.7818609E-02  0.8467952E-01
        2   -1    0    0  501    0  0.00000000000E+00  0.00000000000E+00  0.13636558124E+04  0.13636558124E+04  0.25500000920E-02 0. -1.
       -2   -1    0    0    0  501  0.00000000000E+00  0.00000000000E+00 -0.99140400975E+03  0.99140400975E+03  0.25500000920E-02 0.  1.
    10030    2    1    2    0    0  0.00000000000E+00  0.00000000000E+00  0.37225180267E+03  0.23550598222E+04  0.23254537969E+04 0.  0.
        4    1    3    3  502    0 -0.24306173242E+03  0.68130209357E+03  0.11080344344E+04  0.13232510983E+04  0.12699999809E+01 0. -1.
       -4    1    3    3    0  502  0.24306173242E+03 -0.68130209357E+03 -0.73578263177E+03  0.10318087238E+04  0.12699999809E+01 0.  1.
</event>
<event>
 5   0  0.9519092E-05  0.2305475E+04  0.7818609E-02  0.8475765E-01
       -2   -1    0    0    0  501  0.00000000000E+00  0.00000000000E+00  0.72315626561E+03  0.72315626561E+03  0.25500000920E-02 0. -1.
        2   -1    0    0  501    0  0.00000000000E+00  0.00000000000E+00 -0.18375061749E+04  0.18375061749E+04  0.25500000920E-02 0.  1.
    10030    2    1    2    0    0  0.00000000000E+00  0.00000000000E+00 -0.11143499093E+04  0.25606624405E+04  0.23054753119E+04 0.  0.
        4    1    3    3  502    0 -0.53889546855E+03 -0.59565004602E+03  0.36113935889E+03  0.88069890019E+03  0.12699999809E+01 0. -1.
       -4    1    3    3    0  502  0.53889546855E+03  0.59565004602E+03 -0.14754892682E+04  0.16799635403E+04  0.12699999809E+01 0.  1.
</event>
<event>
 5   0  0.3934906E-05  0.2153079E+04  0.7818609E-02  0.8538216E-01
       -1   -1    0    0    0  501  0.00000000000E+00  0.00000000000E+00  0.11864712524E+04  0.11864712524E+04  0.50400001928E-02 0.  1.
        1   -1    0    0  501    0  0.00000000000E+00  0.00000000000E+00 -0.97679313487E+03  0.97679313489E+03  0.50400001928E-02 0. -1.
    10030    2    1    2    0    0  0.00000000000E+00  0.00000000000E+00  0.20967811753E+03  0.21632643873E+04  0.21530787019E+04 0.  0.
        2    1    3    3  502    0 -0.88573947988E+03 -0.36161867044E+03 -0.39108945140E+03  0.10335634707E+04  0.25500000920E-02 0. -1.
       -2    1    3    3    0  502  0.88573947988E+03  0.36161867044E+03  0.60076756892E+03  0.11297009166E+04  0.25500000920E-02 0.  1.
</event>
<event>
 5   0  0.9144244E-05  0.2427212E+04  0.7818609E-02  0.8429386E-01
        2   -1    0    0  501    0  0.00000000000E+00  0.00000000000E+00  0.14694458663E+04  0.14694458663E+04  0.25500000920E-02 0.  1.
       -2   -1    0    0    0  501  0.00000000000E+00  0.00000000000E+00 -0.10023092320E+04  0.10023092320E+04  0.25500000920E-02 0. -1.
    10030    2    1    2    0    0  0.00000000000E+00  0.00000000000E+00  0.46713663435E+03  0.24717550983E+04  0.24272116988E+04 0.  0.
        1    1    3    3  502    0 -0.13653752930E+03  0.36020524078E+03 -0.93839866492E+03  0.10143876807E+04  0.50400001928E-02 0. -1.
       -1    1    3    3    0  502  0.13653752930E+03 -0.36020524078E+03  0.14055352993E+04  0.14573674176E+04  0.50400001928E-02 0.  1.
</event>
<event>
 5   0  0.4208577E-05  0.2343164E+04  0.7818609E-02  0.8461094E-01
        1   -1    0    0  501    0  0.00000000000E+00  0.00000000000E+00  0.10167602216E+04  0.10167602216E+04  0.50400001928E-02 0.  1.
       -1   -1    0    0    0  501  0.00000000000E+00  0.00000000000E+00 -0.13499784991E+04  0.13499784991E+04  0.50400001928E-02 0. -1.
    10030    2    1    2    0    0  0.00000000000E+00  0.00000000000E+00 -0.33321827751E+03  0.23667387208E+04  0.23431640472E+04 0.  0.
        1    1    3    3  502    0  0.76546705460E+03  0.19475716591E+03  0.70739095160E+03  0.10603169921E+04  0.50400001928E-02 0.  1.
       -1    1    3    3    0  502 -0.76546705460E+03 -0.19475716591E+03 -0.10406092291E+04  0.13064217287E+04  0.50400001928E-02 0. -1.
</event>
<event>
 5   0  0.4018942E-05  0.1805929E+04  0.7818609E-02  0.8703153E-01
       -1   -1    0    0    0  501  0.00000000000E+00  0.00000000000E+00  0.49931038991E+03  0.49931038993E+03  0.50400001928E-02 0.  1.
        1   -1    0    0  501    0  0.00000000000E+00  0.00000000000E+00 -0.16329418488E+04  0.16329418488E+04  0.50400001928E-02 0. -1.
    10030    2    1    2    0    0  0.00000000000E+00  0.00000000000E+00 -0.11336314589E+04  0.21322522387E+04  0.18059289368E+04 0.  0.
        5    1    3    3  502    0 -0.19021788596E+03 -0.88264389330E+03 -0.55627808258E+03  0.10605236828E+04  0.46999998093E+01 0. -1.
       -5    1    3    3    0  502  0.19021788596E+03  0.88264389330E+03 -0.57735337627E+03  0.10717285559E+04  0.46999998093E+01 0.  1.
</event>
<event>
 5   0  0.9144244E-05  0.1617245E+04  0.7818609E-02  0.8810023E-01
       -2   -1    0    0    0  501  0.00000000000E+00  0.00000000000E+00  0.38296088909E+03  0.38296088910E+03  0.25500000920E-02 0.  1.
        2   -1    0    0  501    0  0.00000000000E+00  0.00000000000E+00 -0.17074071541E+04  0.17074071541E+04  0.25500000920E-02 0. -1.
    10030    2    1    2    0    0  0.00000000000E+00  0.00000000000E+00 -0.13244462650E+04  0.20903680432E+04  0.16172447703E+04 0.  0.
        1    1    3    3  502    0  0.40598983468E+03 -0.64804420771E+03 -0.10019474927E+04  0.12604316003E+04  0.50400001928E-02 0. -1.
       -1    1    3    3    0  502 -0.40598983468E+03  0.64804420771E+03 -0.32249877230E+03  0.82993644285E+03  0.50400001928E-02 0.  1.
</event>
<event>
 5   0  0.4018942E-05  0.2101349E+04  0.7818609E-02  0.8560649E-01
       -1   -1    0    0    0  501  0.00000000000E+00  0.00000000000E+00  0.12271326502E+04  0.12271326502E+04  0.50400001928E-02 0. -1.
        1   -1    0    0  501    0  0.00000000000E+00  0.00000000000E+00 -0.89959048240E+03  0.89959048242E+03  0.50400001928E-02 0.  1.
    10030    2    1    2    0    0  0.00000000000E+00  0.00000000000E+00  0.32754216778E+03  0.21267231326E+04  0.21013489503E+04 0.  0.
        5    1    3    3  502    0 -0.20468357521E+03  0.97754923170E+03 -0.16635303684E+03  0.10125182908E+04  0.46999998093E+01 0.  1.
       -5    1    3    3    0  502  0.20468357521E+03 -0.97754923170E+03  0.49389520461E+03  0.11142048418E+04  0.46999998093E+01 0. -1.
</event>
<event>
 5   0  0.4061631E-05  0.2322001E+04  0.7818609E-02  0.8469296E-01
        1   -1    0    0  501    0  0.00000000000E+00  0.00000000000E+00  0.96230657511E+03  0.96230657512E+03  0.50400001928E-02 0. -1.
       -1   -1    0    0    0  501  0.00000000000E+00  0.00000000000E+00 -0.14007206844E+04  0.14007206844E+04  0.50400001928E-02 0.  1.
    10030    2    1    2    0    0  0.00000000000E+00  0.00000000000E+00 -0.43841410933E+03  0.23630272596E+04  0.23220014854E+04 0.  0.
        3    1    3    3  502    0  0.93385541724E+02 -0.21118329515E+03  0.93870245818E+03  0.96668586353E+03  0.10100000352E+00 0. -1.
       -3    1    3    3    0  502 -0.93385541724E+02  0.21118329515E+03 -0.13771165675E+04  0.13963413960E+04  0.10100000352E+00 0.  1.
</event>
<event>
 5   0  0.4260395E-05  0.1487321E+04  0.7818609E-02  0.8892928E-01
        1   -1    0    0  501    0  0.00000000000E+00  0.00000000000E+00  0.11751393048E+04  0.11751393048E+04  0.50400001928E-02 0.  1.
       -1   -1    0    0    0  501  0.00000000000E+00  0.00000000000E+00 -0.47060898490E+03  0.47060898493E+03  0.50400001928E-02 0. -1.
    10030    2    1    2    0    0  0.00000000000E+00  0.00000000000E+00  0.70453031994E+03  0.16457482898E+04  0.14873212368E+04 0.  0.
        4    1    3    3  502    0 -0.26607172498E+03 -0.57387905959E+03  0.78493813467E+03  0.10080976272E+04  0.12699999809E+01 0.  1.
       -4    1    3    3    0  502  0.26607172498E+03  0.57387905959E+03 -0.80407814732E+02  0.63765066254E+03  0.12699999809E+01 0. -1.
</event>
<event>
 5   0  0.9491680E-05  0.2370351E+04  0.7818609E-02  0.8450688E-01
       -2   -1    0    0    0  501  0.00000000000E+00  0.00000000000E+00  0.11224201909E+04  0.11224201909E+04  0.25500000920E-02 0. -1.
        2   -1    0    0  501    0  0.00000000000E+00  0.00000000000E+00 -0.12514389996E+04  0.12514389996E+04  0.25500000920E-02 0.  1.
    10030    2    1    2    0    0  0.00000000000E+00  0.00000000000E+00 -0.12901880873E+03  0.23738591905E+04  0.23703505233E+04 0.  0.
        5    1    3    3  502    0 -0.41526150583E+03 -0.26820433887E+03 -0.11432494205E+04  0.12455589160E+04  0.46999998093E+01 0.  1.
       -5    1    3    3    0  502  0.41526150583E+03  0.26820433887E+03  0.10142306118E+04  0.11283002746E+04  0.46999998093E+01 0. -1.
</event>
<event>
 5   0  0.9144244E-05  0.2229972E+04  0.7818609E-02  0.8506056E-01
        2   -1    0    0  501    0  0.00000000000E+00  0.00000000000E+00  0.92483681646E+03  0.92483681646E+03  0.25500000920E-02 0. -1.
       -2   -1    0    0    0  501  0.00000000000E+00  0.00000000000E+00 -0.13442305712E+04  0.13442305712E+04  0.25500000920E-02 0.  1.
    10030    2    1    2    0    0  0.00000000000E+00  0.00000000000E+00 -0.41939375479E+03  0.22690673877E+04  0.22299721273E+04 0.  0.
        1    1    3    3  502    0  0.94025863706E+03 -0.59416707377E+03 -0.28899326220E+03  0.11491901156E+04  0.50400001928E-02 0.  1.
       -1    1    3    3    0  502 -0.94025863706E+03  0.59416707377E+03 -0.13040049259E+03  0.11198772721E+04  0.50400001928E-02 0. -1.
</event>
<event>
 5   0  0.3934906E-05  0.2197127E+04  0.7818609E-02  0.8519625E-01
       -1   -1    0    0    0  501  0.00000000000E+00  0.00000000000E+00  0.11420985821E+04  0.11420985821E+04  0.50400001928E-02 0.  1.
        1   -1    0    0  501    0  0.00000000000E+00  0.00000000000E+00 -0.10566882297E+04  0.10566882297E+04  0.50400001928E-02 0. -1.
    10030    2    1    2    0    0  0.00000000000E+00  0.00000000000E+00  0.85410352385E+02  0.21987868118E+04  0.21971273325E+04 0.  0.
        2    1    3    3  502    0  0.46943437773E+03 -0.82952691434E+03 -0.50392949150E+03  0.10781597604E+04  0.25500000920E-02 0. -1.
       -2    1    3    3    0  502 -0.46943437773E+03  0.82952691434E+03  0.58933984389E+03  0.11206270513E+04  0.25500000920E-02 0.  1.
</event>
<event>
 5   0  0.4018942E-05  0.2237446E+04  0.7818609E-02  0.8503002E-01
       -1   -1    0    0    0  501  0.00000000000E+00  0.00000000000E+00  0.12397754755E+04  0.12397754755E+04  0.50400001928E-02 0. -1.
        1   -1    0    0  501    0  0.00000000000E+00  0.00000000000E+00 -0.10094901250E+04  0.10094901250E+04  0.50400001928E-02 0.  1.
    10030    2    1    2    0    0  0.00000000000E+00  0.00000000000E+00  0.23028535051E+03  0.22492656006E+04  0.22374459545E+04 0.  0.
        5    1    3    3  502    0 -0.90125631720E+03  0.35864438338E+03  0.67542906445E+03  0.11819963004E+04  0.46999998093E+01 0. -1.
       -5    1    3    3    0  502  0.90125631720E+03 -0.35864438338E+03 -0.44514371394E+03  0.10672693002E+04  0.46999998093E+01 0.  1.
</event>
<event>
 5   0  0.9182865E-05  0.2393120E+04  0.7818609E-02  0.8442084E-01
       -2   -1    0    0    0  501  0.00000000000E+00  0.00000000000E+00  0.11028642812E+04  0.11028642812E+04  0.25500000920E-02 0.  1.
        2   -1    0    0  501    0  0.00000000000E+00  0.00000000000E+00 -0.12982157317E+04  0.12982157317E+04  0.25500000920E-02 0. -1.
    10030    2    1    2    0    0  0.00000000000E+00  0.00000000000E+00 -0.19535145052E+03  0.24010800129E+04  0.23931199383E+04 0.  0.
        3    1    3    3  502    0 -0.73767678716E+03 -0.23401174836E+03  0.81795344524E+03  0.11260445770E+04  0.10100000352E+00 0.  1.
       -3    1    3    3    0  502  0.73767678716E+03  0.23401174836E+03 -0.10133048958E+04  0.12750354358E+04  0.10100000352E+00 0. -1.
</event>
<event>
 5   0  0.9144244E-05  0.2405351E+04  0.7818609E-02  0.8437503E-01
        2   -1    0    0  501    0  0.00000000000E+00  0.00000000000E+00  0.20855024317E+04  0.20855024317E+04  0.25500000920E-02 0. -1.
       -2   -1    0    0    0  501  0.00000000000E+00  0.00000000000E+00 -0.69356360688E+03  0.69356360688E+03  0.25500000920E-02 0.  1.
    10030    2    1    2    0    0  0.00000000000E+00  0.00000000000E+00  0.13919388248E+04  0.27790660386E+04  0.24053511916E+04 0.  0.
        1    1    3    3  502    0 -0.41537394709E+03 -0.96139640936E+03  0.13791134881E+04  0.17316964471E+04  0.50400001928E-02 0. -1.
       -1    1    3    3    0  502  0.41537394709E+03  0.96139640936E+03  0.12825336726E+02  0.10473695915E+04  0.50400001928E-02 0.  1.
</event>
<event>
 5   0  0.3234750E-05  0.2471690E+04  0.7818609E-02  0.8413141E-01
       -3   -1    0    0    0  501  0.00000000000E+00  0.00000000000E+00  0.76621147938E+03  0.76621148604E+03  0.10100000352E+00 0. -1.
        3   -1    0    0  501    0  0.00000000000E+00  0.00000000000E+00 -0.19933302400E+04  0.19933302426E+04  0.10100000352E+00 0.  1.
    10030    2    1    2    0    0  0.00000000000E+00  0.00000000000E+00 -0.12271187606E+04  0.27595417286E+04  0.24716897255E+04 0.  0.
        1    1    3    3  502    0 -0.70585291743E+03  0.48889596034E+03  0.37881239533E+03  0.93848091721E+03  0.50400001928E-02 0. -1.
       -1    1    3    3    0  502  0.70585291743E+03 -0.48889596034E+03 -0.16059311559E+04  0.18210608114E+04  0.50400001928E-02 0.  1.
</event>
<event>
 5   0  0.3934906E-05  0.2388973E+04  0.7818609E-02  0.8443643E-01
        1   -1    0    0  501    0  0.00000000000E+00  0.00000000000E+00  0.17654340857E+04  0.17654340857E+04  0.50400001928E-02 0. -1.
       -1   -1    0    0    0  501  0.00000000000E+00  0.00000000000E+00 -0.80818539725E+03  0.80818539727E+03  0.50400001928E-02 0.  1.
    10030    2    1    2    0    0  0.00000000000E+00  0.00000000000E+00  0.95724868848E+03  0.25736194830E+04  0.23889730412E+04 0.  0.
        2    1    3    3  502    0  0.42349742822E+03  0.42023321639E+03  0.15934265436E+04  0.17014564872E+04  0.25500000920E-02 0. -1.
       -2    1    3    3    0  502 -0.42349742822E+03 -0.42023321639E+03 -0.63617785516E+03  0.87216299581E+03  0.25500000920E-02 0.  1.
</event>
<event>
 5   0  0.4018942E-05  0.2261489E+04  0.7818609E-02  0.8493262E-01
        1   -1    0    0  501    0  0.00000000000E+00  0.00000000000E+00  0.91227652666E+03  0.91227652667E+03  0.50400001928E-02 0.  1.
       -1   -1    0    0    0  501  0.00000000000E+00  0.00000000000E+00 -0.14015304310E+04  0.14015304310E+04  0.50400001928E-02 0. -1.
    10030    2    1    2    0    0  0.00000000000E+00  0.00000000000E+00 -0.48925390435E+03  0.23138069577E+04  0.22614891675E+04 0.  0.
        5    1    3    3  502    0  0.88417524335E+03  0.24376637306E+03  0.43201473946E+03  0.10138277618E+04  0.46999998093E+01 0.  1.
       -5    1    3    3    0  502 -0.88417524335E+03 -0.24376637306E+03 -0.92126864381E+03  0.12999791959E+04  0.46999998093E+01 0. -1.
</event>
<event>
 5   0  0.3934906E-05  0.2295370E+04  0.7818609E-02  0.8479749E-01
       -1   -1    0    0    0  501  0.00000000000E+00  0.00000000000E+00  0.12527787750E+04  0.12527787750E+04  0.50400001928E-02 0. -1.
        1   -1    0    0  501    0  0.00000000000E+00  0.00000000000E+00 -0.10514071476E+04  0.10514071476E+04  0.50400001928E-02 0.  1.
    10030    2    1    2    0    0  0.00000000000E+00  0.00000000000E+00  0.20137162739E+03  0.23041859225E+04  0.22953697378E+04 0.  0.
        2    1    3    3  502    0  0.54986784186E+03  0.85055754807E+03  0.64255327981E+03  0.11994488332E+04  0.25500000920E-02 0. -1.
       -2    1    3    3    0  502 -0.54986784186E+03 -0.85055754807E+03 -0.44118165243E+03  0.11047370893E+04  0.25500000920E-02 0.  1.
</event>
<event>
 5   0  0.4018942E-05  0.2115416E+04  0.7818609E-02  0.8554483E-01
        1   -1    0    0  501    0  0.00000000000E+00  0.00000000000E+00  0.13221954883E+04  0.13221954883E+04  0.50400001928E-02 0.  1.
       -1   -1    0    0    0  501  0.00000000000E+00  0.00000000000E+00 -0.84612767901E+03  0.84612767903E+03  0.50400001928E-02 0. -1.
    10030    2    1    2    0    0  0.00000000000E+00  0.00000000000E+00  0.47606780926E+03  0.21683231673E+04  0.21154159872E+04 0.  0.
        5    1    3    3  502    0  0.37268317877E+03  0.79547837858E+03 -0.36580548717E+03  0.95158517589E+03  0.46999998093E+01 0. -1.
       -5    1    3    3    0  502 -0.37268317877E+03 -0.79547837858E+03  0.84187329643E+03  0.12167379914E+04  0.46999998093E+01 0.  1.
</event>
<event>
 5   0  0.3934906E-05  0.2241483E+04  0.7818609E-02  0.8501358E-01
       -1   -1    0    0    0  501  0.00000000000E+00  0.00000000000E+00  0.77463517357E+03  0.77463517359E+03  0.50400001928E-02 0.  1.
        1   -1    0    0  501    0  0.00000000000E+00  0.00000000000E+00 -0.16214878338E+04  0.16214878338E+04  0.50400001928E-02 0. -1.
    10030    2    1    2    0    0  0.00000000000E+00  0.00000000000E+00 -0.84685266023E+03  0.23961230074E+04  0.22414829998E+04 0.  0.
        2    1    3    3  502    0 -0.15872423406E+03  0.10700609635E+04 -0.73661972824E+03  0.13087522577E+04  0.25500000920E-02 0. -1.
       -2    1    3    3    0  502  0.15872423406E+03 -0.10700609635E+04 -0.11023293199E+03  0.10873707497E+04  0.25500000920E-02 0.  1.
</event>
<event>
 5   0  0.9182865E-05  0.2395828E+04  0.7818609E-02  0.8441067E-01
        2   -1    0    0  501    0  0.00000000000E+00  0.00000000000E+00  0.29238070268E+04  0.29238070268E+04  0.25500000920E-02 0.  1.
       -2   -1    0    0    0  501  0.00000000000E+00  0.00000000000E+00 -0.49079796162E+03  0.49079796162E+03  0.25500000920E-02 0. -1.
    10030    2    1    2    0    0  0.00000000000E+00  0.00000000000E+00  0.24330090652E+04  0.34146049884E+04  0.23958284821E+04 0.  0.
        3    1    3    3  502    0  0.60047811416E+03 -0.84126059152E+03  0.20795690528E+04  0.23222620015E+04  0.10100000352E+00 0.  1.
       -3    1    3    3    0  502 -0.60047811416E+03  0.84126059152E+03  0.35344001244E+03  0.10923429869E+04  0.10100000352E+00 0. -1.
</event>
<event>
 5   0  0.9750757E-05  0.1738059E+04  0.7818609E-02  0.8739951E-01
        2   -1    0    0  501    0  0.00000000000E+00  0.00000000000E+00  0.71844397452E+03  0.71844397453E+03  0.25500000920E-02 0. -1.
       -2   -1    0    0    0  501  0.00000000000E+00  0.00000000000E+00 -0.10511778731E+04  0.10511778731E+04  0.25500000920E-02 0.  1.
    10030    2    1    2    0    0  0.00000000000E+00  0.00000000000E+00 -0.33273389853E+03  0.17696218476E+04  0.17380591579E+04 0.  0.
        2    1    3    3  502    0 -0.39472418353E+03 -0.29226054311E+03 -0.89631647486E+03  0.10220599930E+04  0.25500000920E-02 0.  1.
       -2    1    3    3    0  502  0.39472418353E+03  0.29226054311E+03  0.56358257633E+03  0.74756185461E+03  0.25500000920E-02 0. -1.
</event>
<event>
 5   0  0.9144244E-05  0.2358511E+04  0.7818609E-02  0.8455202E-01
       -2   -1    0    0    0  501  0.00000000000E+00  0.00000000000E+00  0.10673680632E+04  0.10673680632E+04  0.25500000920E-02 0.  1.
        2   -1    0    0  501    0  0.00000000000E+00  0.00000000000E+00 -0.13028715732E+04  0.13028715732E+04  0.25500000920E-02 0. -1.
    10030    2    1    2    0    0  0.00000000000E+00  0.00000000000E+00 -0.23550351004E+03  0.23702396365E+04  0.23585109775E+04 0.  0.
        1    1    3    3  502    0 -0.64739502043E+03  0.86504670909E+03  0.35705661230E+03  0.11379435600E+04  0.50400001928E-02 0.  1.
       -1    1    3    3    0  502  0.64739502043E+03 -0.86504670909E+03 -0.59256012234E+03  0.12322960764E+04  0.50400001928E-02 0. -1.
</event>
<event>
 5   0  0.3934906E-05  0.2527825E+04  0.7818609E-02  0.8393139E-01
        1   -1    0    0  501    0  0.00000000000E+00  0.00000000000E+00  0.11566451442E+04  0.11566451443E+04  0.50400001928E-02 0.  1.
       -1   -1    0    0    0  501  0.00000000000E+00  0.00000000000E+00 -0.13811275958E+04  0.13811275958E+04  0.50400001928E-02 0. -1.
    10030    2    1    2    0    0  0.00000000000E+00  0.00000000000E+00 -0.22448245159E+03  0.25377727401E+04  0.25278247782E+04 0.  0.
        2    1    3    3  502    0 -0.30787304068E+03 -0.23216478332E+03 -0.13206342687E+04  0.13757765689E+04  0.25500000920E-02 0. -1.
       -2    1    3    3    0  502  0.30787304068E+03  0.23216478332E+03  0.10961518171E+04  0.11619961712E+04  0.25500000920E-02 0.  1.
</event>
<event>
 5   0  0.9519092E-05  0.2339789E+04  0.7818609E-02  0.8462396E-01
        2   -1    0    0  501    0  0.00000000000E+00  0.00000000000E+00  0.10295033721E+04  0.10295033721E+04  0.25500000920E-02 0.  1.
       -2   -1    0    0    0  501  0.00000000000E+00  0.00000000000E+00 -0.13294309871E+04  0.13294309871E+04  0.25500000920E-02 0. -1.
    10030    2    1    2    0    0  0.00000000000E+00  0.00000000000E+00 -0.29992761500E+03  0.23589343592E+04  0.23397894642E+04 0.  0.
        4    1    3    3  502    0 -0.81080274761E+03  0.84306840304E+03 -0.17220430871E+03  0.11822949567E+04  0.12699999809E+01 0.  1.
       -4    1    3    3    0  502  0.81080274761E+03 -0.84306840304E+03 -0.12772330629E+03  0.11766394025E+04  0.12699999809E+01 0. -1.
</event>
<event>
 5   0  0.4208577E-05  0.2437884E+04  0.7818609E-02  0.8425455E-01
        1   -1    0    0  501    0  0.00000000000E+00  0.00000000000E+00  0.18351533109E+04  0.18351533109E+04  0.50400001928E-02 0. -1.
       -1   -1    0    0    0  501  0.00000000000E+00  0.00000000000E+00 -0.80964331497E+03  0.80964331499E+03  0.50400001928E-02 0.  1.
    10030    2    1    2    0    0  0.00000000000E+00  0.00000000000E+00  0.10255099959E+04  0.26447966259E+04  0.24378840089E+04 0.  0.
        1    1    3    3  502    0 -0.18884170076E+03 -0.68726057005E+03 -0.56002635938E+03  0.90643135555E+03  0.50400001928E-02 0.  1.
       -1    1    3    3    0  502  0.18884170076E+03  0.68726057005E+03  0.15855363553E+04  0.17383652704E+04  0.50400001928E-02 0. -1.
</event>
<event>
 5   0  0.4260395E-05  0.2365128E+04  0.7818609E-02  0.8452676E-01
       -1   -1    0    0    0  501  0.00000000000E+00  0.00000000000E+00  0.75989514132E+03  0.75989514133E+03  0.50400001928E-02 0.  1.
        1   -1    0    0  501    0  0.00000000000E+00  0.00000000000E+00 -0.18403290379E+04  0.18403290380E+04  0.50400001928E-02 0. -1.
    10030    2    1    2    0    0  0.00000000000E+00  0.00000000000E+00 -0.10804338966E+04  0.26002241793E+04  0.23651275605E+04 0.  0.
        4    1    3    3  502    0  0.93221009212E+03 -0.41159890754E+03 -0.11998816650E+04  0.15742131175E+04  0.12699999809E+01 0. -1.
       -4    1    3    3    0  502 -0.93221009212E+03  0.41159890754E+03  0.11944776838E+03  0.10260110617E+04  0.12699999809E+01 0.  1.
</event>
<event>
 5   0  0.9182865E-05  0.2502449E+04  0.7818609E-02  0.8402113E-01
       -2   -1    0    0    0  501  0.00000000000E+00  0.00000000000E+00  0.80194978035E+03  0.80194978035E+03  0.25500000920E-02 0.  1.
        2   -1    0    0  501    0  0.00000000000E+00  0.00000000000E+00 -0.19521962162E+04  0.19521962162E+04  0.25500000920E-02 0. -1.
    10030    2    1    2    0    0  0.00000000000E+00  0.00000000000E+00 -0.11502464358E+04  0.27541459965E+04  0.25024494614E+04 0.  0.
        3    1    3    3  502    0 -0.30254568214E+03 -0.85070116537E+03  0.37822116256E+03  0.97891655444E+03  0.10100000352E+00 0.  1.
       -3    1    3    3    0  502  0.30254568214E+03  0.85070116537E+03 -0.15284675984E+04  0.17752294421E+04  0.10100000352E+00 0. -1.
</event>
<event>
 5   0  0.4018942E-05  0.2391066E+04  0.7818609E-02  0.8442856E-01
       -1   -1    0    0    0  501  0.00000000000E+00  0.00000000000E+00  0.74313775877E+03  0.74313775879E+03  0.50400001928E-02 0.  1.
        1   -1    0    0  501    0  0.00000000000E+00  0.00000000000E+00 -0.19233301452E+04  0.19233301452E+04  0.50400001928E-02 0. -1.
    10030    2    1    2    0    0  0.00000000000E+00  0.00000000000E+00 -0.11801923864E+04  0.26664679040E+04  0.23910660832E+04 0.  0.
        5    1    3    3  502    0 -0.15185978806E+03 -0.57199378828E+03 -0.17485089381E+04  0.18459533813E+04  0.46999998093E+01 0. -1.
       -5    1    3    3    0  502  0.15185978806E+03  0.57199378828E+03  0.56831655172E+03  0.82051452273E+03  0.46999998093E+01 0.  1.
</event>
<event>
 5   0  0.9182865E-05  0.2430660E+04  0.7818609E-02  0.8428113E-01
        2   -1    0    0  501    0  0.00000000000E+00  0.00000000000E+00  0.17739360245E+04  0.17739360245E+04  0.25500000920E-02 0. -1.
       -2   -1    0    0    0  501  0.00000000000E+00  0.00000000000E+00 -0.83262681700E+03  0.83262681700E+03  0.25500000920E-02 0.  1.
    10030    2    1    2    0    0  0.00000000000E+00  0.00000000000E+00  0.94130920754E+03  0.26065628415E+04  0.24306597505E+04 0.  0.
        3    1    3    3  502    0  0.82071357858E+03 -0.51284872740E+03  0.12590037775E+04  0.15879783113E+04  0.10100000352E+00 0. -1.
       -3    1    3    3    0  502 -0.82071357858E+03  0.51284872740E+03 -0.31769456995E+03  0.10185845302E+04  0.10100000352E+00 0.  1.
</event>
<event>
 5   0  0.4260395E-05  0.2501844E+04  0.7818609E-02  0.8402329E-01
        1   -1    0    0  501    0  0.00000000000E+00  0.00000000000E+00  0.15739321019E+04  0.15739321020E+04  0.50400001928E-02 0.  1.
       -1   -1    0    0    0  501  0.00000000000E+00  0.00000000000E+00 -0.99420163496E+03  0.99420163497E+03  0.50400001928E-02 0. -1.
    10030    2    1    2    0    0  0.00000000000E+00  0.00000000000E+00  0.57973046699E+03  0.25681337369E+04  0.25018440152E+04 0.  0.
        4    1    3    3  502    0 -0.10086519906E+03 -0.10247155316E+04 -0.43930024912E+03  0.11194650646E+04  0.12699999809E+01 0. -1.
       -4    1    3    3    0  502  0.10086519906E+03  0.10247155316E+04  0.10190307161E+04  0.14486686724E+04  0.12699999809E+01 0.  1.
</event>
<event>
 5   0  0.4018942E-05  0.2332159E+04  0.7818609E-02  0.8465348E-01
        1   -1    0    0  501    0  0.00000000000E+00  0.00000000000E+00  0.14180050769E+04  0.14180050769E+04  0.50400001928E-02 0.  1.
       -1   -1    0    0    0  501  0.00000000000E+00  0.00000000000E+00 -0.95891181291E+03  0.95891181292E+03  0.50400001928E-02 0. -1.
    10030    2    1    2    0    0  0.00000000000E+00  0.00000000000E+00  0.45909326401E+03  0.23769168899E+04  0.23321593591E+04 0.  0.
        5    1    3    3  502    0  0.93245439023E+03 -0.58613251641E+03  0.61990788592E+03  0.12638553690E+04  0.46999998093E+01 0.  1.
       -5    1    3    3    0  502 -0.93245439023E+03  0.58613251641E+03 -0.16081462191E+03  0.11130615209E+04  0.46999998093E+01 0. -1.
</event>
<event>
 5   0  0.9491680E-05  0.2249615E+04  0.7818609E-02  0.8498056E-01
       -2   -1    0    0    0  501  0.00000000000E+00  0.00000000000E+00  0.73764254542E+03  0.73764254543E+03  0.25500000920E-02 0. -1.
        2   -1    0    0  501    0  0.00000000000E+00  0.00000000000E+00 -0.17151829002E+04  0.17151829002E+04  0.25500000920E-02 0.  1.
    10030    2    1    2    0    0  0.00000000000E+00  0.00000000000E+00 -0.97754035479E+03  0.24528254457E+04  0.22496149719E+04 0.  0.
        5    1    3    3  502    0 -0.30671473146E+03 -0.52984721434E+03  0.54005298088E+03  0.81638918978E+03  0.46999998093E+01 0. -1.
       -5    1    3    3    0  502  0.30671473146E+03  0.52984721434E+03 -0.15175933357E+04  0.16364362559E+04  0.46999998093E+01 0.  1.
</event>
<event>
 5   0  0.4208577E-05  0.2348048E+04  0.7818609E-02  0.8459214E-01
        1   -1    0    0  501    0  0.00000000000E+00  0.00000000000E+00  0.10952146052E+04  0.10952146052E+04  0.50400001928E-02 0.  1.
       -1   -1    0    0    0  501  0.00000000000E+00  0.00000000000E+00 -0.12585041764E+04  0.12585041764E+04  0.50400001928E-02 0. -1.
    10030    2    1    2    0    0  0.00000000000E+00  0.00000000000E+00 -0.16328957114E+03  0.23537187816E+04  0.23480478315E+04 0.  0.
        1    1    3    3  502    0  0.63669415384E+03 -0.29709471428E+03 -0.10244946957E+04  0.12422697358E+04  0.50400001928E-02 0. -1.
       -1    1    3    3    0  502 -0.63669415384E+03  0.29709471428E+03  0.86120512460E+03  0.11114490458E+04  0.50400001928E-02 0.  1.
</event>
<event>
 5   0  0.9491680E-05  0.2430047E+04  0.7818609E-02  0.8428339E-01
       -2   -1    0    0    0  501  0.00000000000E+00  0.00000000000E+00  0.87234861454E+03  0.87234861454E+03  0.25500000920E-02 0.  1.
        2   -1    0    0  501    0  0.00000000000E+00  0.00000000000E+00 -0.16923072063E+04  0.16923072063E+04  0.25500000920E-02 0. -1.
    10030    2    1    2    0    0  0.00000000000E+00  0.00000000000E+00 -0.81995859179E+03  0.25646558209E+04  0.24300467871E+04 0.  0.
        5    1    3    3  502    0 -0.95668033669E+03  0.74621885302E+03 -0.47821286805E+03  0.13041431978E+04  0.46999998093E+01 0. -1.
       -5    1    3    3    0  502  0.95668033669E+03 -0.74621885302E+03 -0.34174572374E+03  0.12605126231E+04  0.46999998093E+01 0.  1.
</event>
<event>
 5   0  0.3934906E-05  0.1705990E+04  0.7818609E-02  0.8757955E-01
        1   -1    0    0  501    0  0.00000000000E+00  0.00000000000E+00  0.65357140214E+03  0.65357140216E+03  0.50400001928E-02 0. -1.
       -1   -1    0    0    0  501  0.00000000000E+00  0.00000000000E+00 -0.11132690735E+04  0.11132690735E+04  0.50400001928E-02 0.  1.
    10030    2    1    2    0    0  0.00000000000E+00  0.00000000000E+00 -0.45969767137E+03  0.17668404757E+04  0.17059904213E+04 0.  0.
        2    1    3    3  502    0  0.48331515492E+03  0.57839691844E+03  0.18372445179E+03  0.77581647858E+03  0.25500000920E-02 0. -1.
       -2    1    3    3    0  502 -0.48331515492E+03 -0.57839691844E+03 -0.64342212316E+03  0.99102399710E+03  0.25500000920E-02 0.  1.
</event>
<event>
 5   0  0.4061631E-05  0.2396840E+04  0.7818609E-02  0.8440688E-01
        1   -1    0    0  501    0  0.00000000000E+00  0.00000000000E+00  0.10075210499E+04  0.10075210499E+04  0.50400001928E-02 0.  1.
       -1   -1    0    0    0  501  0.00000000000E+00  0.00000000000E+00 -0.14254894902E+04  0.14254894902E+04  0.50400001928E-02 0. -1.
    10030    2    1    2    0    0  0.00000000000E+00  0.00000000000E+00 -0.41796844033E+03  0.24330105401E+04  0.23968401430E+04 0.  0.
        3    1    3    3  502    0 -0.50103545176E+03 -0.17143438078E+03  0.88231371193E+03  0.10290304987E+04  0.10100000352E+00 0.  1.
       -3    1    3    3    0  502  0.50103545176E+03  0.17143438078E+03 -0.13002821523E+04  0.14039800413E+04  0.10100000352E+00 0. -1.
</event>
<event>
 5   0  0.4018942E-05  0.2403818E+04  0.7818609E-02  0.8438076E-01
        1   -1    0    0  501    0  0.00000000000E+00  0.00000000000E+00  0.16132952447E+04  0.16132952447E+04  0.50400001928E-02 0. -1.
       -1   -1    0    0    0  501  0.00000000000E+00  0.00000000000E+00 -0.89542530626E+03  0.89542530627E+03  0.50400001928E-02 0.  1.
    10030    2    1    2    0    0  0.00000000000E+00  0.00000000000E+00  0.71786993847E+03  0.25087205510E+04  0.24038181201E+04 0.  0.
        5    1    3    3  502    0 -0.27790170756E+03  0.59662934336E+03  0.14084898461E+04  0.15546902164E+04  0.46999998093E+01 0. -1.
       -5    1    3    3    0  502  0.27790170756E+03 -0.59662934336E+03 -0.69061990767E+03  0.95403033457E+03  0.46999998093E+01 0.  1.
</event>
<event>
 5   0  0.9750757E-05  0.2273874E+04  0.7818609E-02  0.8488294E-01
        2   -1    0    0  501    0  0.00000000000E+00  0.00000000000E+00  0.13285944325E+04  0.13285944325E+04  0.25500000920E-02 0.  1.
       -2   -1    0    0    0  501  0.00000000000E+00  0.00000000000E+00 -0.97292693329E+03  0.97292693330E+03  0.25500000920E-02 0. -1.
    10030    2    1    2    0    0  0.00000000000E+00  0.00000000000E+00  0.35566749920E+03  0.23015213658E+04  0.22738736172E+04 0.  0.
        2    1    3    3  502    0 -0.10901896003E+02  0.10369064690E+04  0.64969026577E+03  0.12236794181E+04  0.25500000920E-02 0.  1.
       -2    1    3    3    0  502  0.10901896003E+02 -0.10369064690E+04 -0.29402276657E+03  0.10778419477E+04  0.25500000920E-02 0. -1.
</event>
<event>
 5   0  0.9144244E-05  0.2288224E+04  0.7818609E-02  0.8482579E-01
        2   -1    0    0  501    0  0.00000000000E+00  0.00000000000E+00  0.24532276469E+04  0.24532276469E+04  0.25500000920E-02 0.  1.
       -2   -1    0    0    0  501  0.00000000000E+00  0.00000000000E+00 -0.53357963635E+03  0.53357963635E+03  0.25500000920E-02 0. -1.
    10030    2    1    2    0    0  0.00000000000E+00  0.00000000000E+00  0.19196480106E+04  0.29868072833E+04  0.22882240413E+04 0.  0.
        1    1    3    3  502    0 -0.59582882809E+03  0.47575458208E+03  0.20732627093E+04  0.22090207506E+04  0.50400001928E-02 0.  1.
       -1    1    3    3    0  502  0.59582882809E+03 -0.47575458208E+03 -0.15361469871E+03  0.77778653270E+03  0.50400001928E-02 0. -1.
</event>
<event>
 5   0  0.4208577E-05  0.1587391E+04  0.7818609E-02  0.8828332E-01
       -1   -1    0    0    0  501  0.00000000000E+00  0.00000000000E+00  0.22854857364E+03  0.22854857369E+03  0.50400001928E-02 0.  1.
        1   -1    0    0  501    0  0.00000000000E+00  0.00000000000E+00 -0.27563170191E+04  0.27563170191E+04  0.50400001928E-02 0. -1.
    10030    2    1    2    0    0  0.00000000000E+00  0.00000000000E+00 -0.25277684455E+04  0.29848655928E+04  0.15873907185E+04 0.  0.
        1    1    3    3  502    0 -0.74451332640E+03 -0.11963924821E+03 -0.79818216446E+03  0.10980475448E+04  0.50400001928E-02 0.  1.
       -1    1    3    3    0  502  0.74451332640E+03  0.11963924821E+03 -0.17295862810E+04  0.18868180481E+04  0.50400001928E-02 0. -1.
</event>
<event>
 5   0  0.4061631E-05  0.2474948E+04  0.7818609E-02  0.8411965E-01
       -1   -1    0    0    0  501  0.00000000000E+00  0.00000000000E+00  0.14976106694E+04  0.14976106694E+04  0.50400001928E-02 0.  1.
        1   -1    0    0  501    0  0.00000000000E+00  0.00000000000E+00 -0.10225230963E+04  0.10225230963E+04  0.50400001928E-02 0. -1.
    10030    2    1    2    0    0  0.00000000000E+00  0.00000000000E+00  0.47508757312E+03  0.25201337658E+04  0.24749476752E+04 0.  0.
        3    1    3    3  502    0  0.38089587337E+02 -0.12168284702E+04  0.46344814420E+03  0.13026536513E+04  0.10100000352E+00 0.  1.
       -3    1    3    3    0  502 -0.38089587337E+02  0.12168284702E+04  0.11639428917E+02  0.12174801145E+04  0.10100000352E+00 0. -1.
</event>
<event>
 5   0  0.4061631E-05  0.2430711E+04  0.7818609E-02  0.8428095E-01
       -1   -1    0    0    0  501  0.00000000000E+00  0.00000000000E+00  0.70863347445E+03  0.70863347446E+03  0.50400001928E-02 0.  1.
        1   -1    0    0  501    0  0.00000000000E+00  0.00000000000E+00 -0.20844183123E+04  0.20844183123E+04  0.50400001928E-02 0. -1.
    10030    2    1    2    0    0  0.00000000000E+00  0.00000000000E+00 -0.13757848378E+04  0.27930517867E+04  0.24307106704E+04 0.  0.
        3    1    3    3  502    0 -0.10289130001E+04  0.51423044715E+03 -0.11388099805E+04  0.16186361841E+04  0.10100000352E+00 0. -1.
       -3    1    3    3    0  502  0.10289130001E+04 -0.51423044715E+03 -0.23697485738E+03  0.11744156027E+04  0.10100000352E+00 0.  1.
</event>
<event>
 5   0  0.3934906E-05  0.2399897E+04  0.7818609E-02  0.8439542E-01
        1   -1    0    0  501    0  0.00000000000E+00  0.00000000000E+00  0.19392215630E+04  0.19392215630E+04  0.50400001928E-02 0. -1.
       -1   -1    0    0    0  501  0.00000000000E+00  0.00000000000E+00 -0.74250205262E+03  0.74250205264E+03  0.50400001928E-02 0.  1.
    10030    2    1    2    0    0  0.00000000000E+00  0.00000000000E+00  0.11967195104E+04  0.26817236157E+04  0.23998966570E+04 0.  0.
        2    1    3    3  502    0  0.91827428185E+03 -0.74925802147E+03  0.80818959949E+03  0.14344984030E+04  0.25500000920E-02 0. -1.
       -2    1    3    3    0  502 -0.91827428185E+03  0.74925802147E+03  0.38852991089E+03  0.12472252127E+04  0.25500000920E-02 0.  1.
</event>
<event>
 5   0  0.9144244E-05  0.2294404E+04  0.7818609E-02  0.8480131E-01
       -2   -1    0    0    0  501  0.00000000000E+00  0.00000000000E+00  0.14010679479E+04  0.14010679479E+04  0.25500000920E-02 0. -1.
        2   -1    0    0  501    0  0.00000000000E+00  0.00000000000E+00 -0.93933544312E+03  0.93933544313E+03  0.25500000920E-02 0.  1.
    10030    2    1    2    0    0  0.00000000000E+00  0.00000000000E+00  0.46173250474E+03  0.23404033910E+04  0.22944043076E+04 0.  0.
        1    1    3    3  502    0 -0.11803065518E+03 -0.94424941933E+03  0.88444156844E+03  0.12991439833E+04  0.50400001928E-02 0. -1.
       -1    1    3    3    0  502  0.11803065518E+03  0.94424941933E+03 -0.42270906370E+03  0.10412594076E+04  0.50400001928E-02 0.  1.
</event>
<event>
 5   0  0.9182865E-05  0.1217215E+04  0.7818609E-02  0.9097921E-01
       -2   -1    0    0    0  501  0.00000000000E+00  0.00000000000E+00  0.58181408935E+03  0.58181408936E+03  0.25500000920E-02 0. -1.
        2   -1    0    0  501    0  0.00000000000E+00  0.00000000000E+00 -0.63663450328E+03  0.63663450329E+03  0.25500000920E-02 0.  1.
    10030    2    1    2    0    0  0.00000000000E+00  0.00000000000E+00 -0.54820413931E+02  0.12184485926E+04  0.12172147284E+04 0.  0.
        3    1    3    3  502    0 -0.16371633958E+03 -0.26421734938E+03 -0.55118918273E+03  0.63279014919E+03  0.10100000352E+00 0.  1.
       -3    1    3    3    0  502  0.16371633958E+03  0.26421734938E+03  0.49636876879E+03  0.58565844346E+03  0.10100000352E+00 0. -1.
</event>
<event>
 5   0  0.4061631E-05  0.2268918E+04  0.7818609E-02  0.8490278E-01
       -1   -1    0    0    0  501  0.00000000000E+00  0.00000000000E+00  0.10741759117E+04  0.10741759117E+04  0.50400001928E-02 0.  1.
        1   -1    0    0  501    0  0.00000000000E+00  0.00000000000E+00 -0.11981253967E+04  0.11981253967E+04  0.50400001928E-02 0. -1.
    10030    2    1    2    0    0  0.00000000000E+00  0.00000000000E+00 -0.12394948503E+03  0.22723013084E+04  0.22689181919E+04 0.  0.
        3    1    3    3  502    0  0.75844940576E+03  0.21750601585E+02  0.78265627472E+03  0.10900777240E+04  0.10100000352E+00 0.  1.
       -3    1    3    3    0  502 -0.75844940576E+03 -0.21750601585E+02 -0.90660575974E+03  0.11822235844E+04  0.10100000352E+00 0. -1.
</event>
<event>
 5   0  0.9519092E-05  0.2392752E+04  0.7818609E-02  0.8442222E-01
        2   -1    0    0  501    0  0.00000000000E+00  0.00000000000E+00  0.13346973823E+04  0.13346973823E+04  0.25500000920E-02 0.  1.
       -2   -1    0    0    0  501  0.00000000000E+00  0.00000000000E+00 -0.10723898279E+04  0.10723898279E+04  0.25500000920E-02 0. -1.
    10030    2    1    2    0    0  0.00000000000E+00  0.00000000000E+00  0.26230755444E+03  0.24070872102E+04  0.23927523031E+04 0.  0.
        4    1    3    3  502    0 -0.70658321653E+03  0.92644861877E+03 -0.14203788054E+03  0.11737730860E+04  0.12699999809E+01 0. -1.
       -4    1    3    3    0  502  0.70658321653E+03 -0.92644861877E+03  0.40434543497E+03  0.12333141241E+04  0.12699999809E+01 0.  1.
</event>
<event>
 5   0  0.4061631E-05  0.2415454E+04  0.7818609E-02  0.8433741E-01
        1   -1    0    0  501    0  0.00000000000E+00  0.00000000000E+00  0.11996201613E+04  0.11996201613E+04  0.50400001928E-02 0. -1.
       -1   -1    0    0    0  501  0.00000000000E+00  0.00000000000E+00 -0.12158883072E+04  0.12158883072E+04  0.50400001928E-02 0.  1.
    10030    2    1    2    0    0  0.00000000000E+00  0.00000000000E+00 -0.16268145911E+02  0.24155084686E+04  0.24154536860E+04 0.  0.
        3    1    3    3  502    0 -0.87175570097E+02 -0.48784672753E+03  0.10932582869E+04  0.12003364952E+04  0.10100000352E+00 0. -1.
       -3    1    3    3    0  502  0.87175570097E+02  0.48784672753E+03 -0.11095264328E+04  0.12151719734E+04  0.10100000352E+00 0.  1.
</event>
<event>
 5   0  0.4061631E-05  0.2415312E+04  0.7818609E-02  0.8433793E-01
       -1   -1    0    0    0  501  0.00000000000E+00  0.00000000000E+00  0.72420254617E+03  0.72420254618E+03  0.50400001928E-02 0.  1.
        1   -1    0    0  501    0  0.00000000000E+00  0.00000000000E+00 -0.20138462184E+04  0.20138462184E+04  0.50400001928E-02 0. -1.
    10030    2    1    2    0    0  0.00000000000E+00  0.00000000000E+00 -0.12896436722E+04  0.27380487645E+04  0.24153116229E+04 0.  0.
        3    1    3    3  502    0 -0.38713209449E+02 -0.12430786965E+03 -0.20058669703E+04  0.20100879263E+04  0.10100000352E+00 0. -1.
       -3    1    3    3    0  502  0.38713209449E+02  0.12430786965E+03  0.71622329808E+03  0.72796083820E+03  0.10100000352E+00 0.  1.
</event>
<event>
 5   0  0.9491680E-05  0.2401301E+04  0.7818609E-02  0.8439017E-01
       -2   -1    0    0    0  501  0.00000000000E+00  0.00000000000E+00  0.90247788840E+03  0.90247788840E+03  0.25500000920E-02 0. -1.
        2   -1    0    0  501    0  0.00000000000E+00  0.00000000000E+00 -0.15973373864E+04  0.15973373864E+04  0.25500000920E-02 0.  1.
    10030    2    1    2    0    0  0.00000000000E+00  0.00000000000E+00 -0.69485949801E+03  0.24998152748E+04  0.24013010403E+04 0.  0.
        5    1    3    3  502    0 -0.21216734907E+02  0.11565348662E+04 -0.68236909767E+03  0.13430088317E+04  0.46999998093E+01 0. -1.
       -5    1    3    3    0  502  0.21216734907E+02 -0.11565348662E+04 -0.12490400333E+02  0.11568064431E+04  0.46999998093E+01 0.  1.
</event>
<event>
 5   0  0.4260395E-05  0.2417085E+04  0.7818609E-02  0.8433135E-01
       -1   -1    0    0    0  501  0.00000000000E+00  0.00000000000E+00  0.81010569680E+03  0.81010569682E+03  0.50400001928E-02 0. -1.
        1   -1    0    0  501    0  0.00000000000E+00  0.00000000000E+00 -0.18029434291E+04  0.18029434291E+04  0.50400001928E-02 0.  1.
    10030    2    1    2    0    0  0.00000000000E+00  0.00000000000E+00 -0.99283773228E+03  0.26130491259E+04  0.24170848086E+04 0.  0.
        4    1    3    3  502    0  0.73357456144E+03  0.65485048306E+03 -0.12559554360E+04  0.15951133071E+04  0.12699999809E+01 0.  1.
       -4    1    3    3    0  502 -0.73357456144E+03 -0.65485048306E+03  0.26311770371E+03  0.10179358188E+04  0.12699999809E+01 0. -1.
</event>
<event>
 5   0  0.4061631E-05  0.2419032E+04  0.7818609E-02  0.8432413E-01
       -1   -1    0    0    0  501  0.00000000000E+00  0.00000000000E+00  0.96451437659E+03  0.96451437660E+03  0.50400001928E-02 0.  1.
        1   -1    0    0  501    0  0.00000000000E+00  0.00000000000E+00 -0.15167514173E+04  0.15167514173E+04  0.50400001928E-02 0. -1.
    10030    2    1    2    0    0  0.00000000000E+00  0.00000000000E+00 -0.55223704073E+03  0.24812657939E+04  0.24190316639E+04 0.  0.
        3    1    3    3  502    0  0.11566927937E+04  0.30022476728E+03 -0.84619384750E+02  0.11980123457E+04  0.10100000352E+00 0.  1.
       -3    1    3    3    0  502 -0.11566927937E+04 -0.30022476728E+03 -0.46761765598E+03  0.12832534482E+04  0.10100000352E+00 0. -1.
</event>
<event>
 5   0  0.9750757E-05  0.2383030E+04  0.7818609E-02  0.8445884E-01
       -2   -1    0    0    0  501  0.00000000000E+00  0.00000000000E+00  0.68675593273E+03  0.68675593274E+03  0.25500000920E-02 0.  1.
        2   -1    0    0  501    0  0.00000000000E+00  0.00000000000E+00 -0.20672678877E+04  0.20672678877E+04  0.25500000920E-02 0. -1.
    10030    2    1    2    0    0  0.00000000000E+00  0.00000000000E+00 -0.13805119550E+04  0.27540238205E+04  0.23830304123E+04 0.  0.
        2    1    3    3  502    0  0.79950125966E+03  0.71401782660E+03 -0.12915266404E+04  0.16784113870E+04  0.25500000920E-02 0. -1.
       -2    1    3    3    0  502 -0.79950125966E+03 -0.71401782660E+03 -0.88985314556E+02  0.10756124335E+04  0.25500000920E-02 0.  1.
</event>
<event>
 5   0  0.4260395E-05  0.2403922E+04  0.7818609E-02  0.8438037E-01
       -1   -1    0    0    0  501  0.00000000000E+00  0.00000000000E+00  0.13404417658E+04  0.13404417658E+04  0.50400001928E-02 0.  1.
        1   -1    0    0  501    0  0.00000000000E+00  0.00000000000E+00 -0.10777868285E+04  0.10777868285E+04  0.50400001928E-02 0. -1.
    10030    2    1    2    0    0  0.00000000000E+00  0.00000000000E+00  0.26265493732E+03  0.24182285943E+04  0.24039221947E+04 0.  0.
        4    1    3    3  502    0  0.31476082798E+03 -0.59004275386E+03  0.11360124773E+04  0.13182377599E+04  0.12699999809E+01 0.  1.
       -4    1    3    3    0  502 -0.31476082798E+03  0.59004275386E+03 -0.87335753994E+03  0.10999908344E+04  0.12699999809E+01 0. -1.
</event>
<event>
 5   0  0.9144244E-05  0.2399757E+04  0.7818609E-02  0.8439595E-01
       -2   -1    0    0    0  501  0.00000000000E+00  0.00000000000E+00  0.76795581245E+03  0.76795581246E+03  0.25500000920E-02 0. -1.
        2   -1    0    0  501    0  0.00000000000E+00  0.00000000000E+00 -0.18747275860E+04  0.18747275860E+04  0.25500000920E-02 0.  1.
    10030    2    1    2    0    0  0.00000000000E+00  0.00000000000E+00 -0.11067717736E+04  0.26426833985E+04  0.23997566097E+04 0.  0.
        1    1    3    3  502    0 -0.76317194457E+02  0.99936728805E+03 -0.12798208910E+04  0.16255770679E+04  0.50400001928E-02 0.  1.
       -1    1    3    3    0  502  0.76317194457E+02 -0.99936728805E+03  0.17304911747E+03  0.10171063306E+04  0.50400001928E-02 0. -1.
</event>
<event>
 5   0  0.3934906E-05  0.2425775E+04  0.7818609E-02  0.8429916E-01
        1   -1    0    0  501    0  0.00000000000E+00  0.00000000000E+00  0.21731031606E+04  0.21731031606E+04  0.50400001928E-02 0.  1.
       -1   -1    0    0    0  501  0.00000000000E+00  0.00000000000E+00 -0.67695661143E+03  0.67695661145E+03  0.50400001928E-02 0. -1.
    10030    2    1    2    0    0  0.00000000000E+00  0.00000000000E+00  0.14961465492E+04  0.28500597721E+04  0.24257753828E+04 0.  0.
        2    1    3    3  502    0 -0.84382430400E+03  0.20925569543E+03  0.17417340141E+04  0.19466547660E+04  0.25500000920E-02 0.  1.
       -2    1    3    3    0  502  0.84382430400E+03 -0.20925569543E+03 -0.24558746492E+03  0.90340500608E+03  0.25500000920E-02 0. -1.
</event>
<event>
 5   0  0.4260395E-05  0.2239757E+04  0.7818609E-02  0.8502060E-01
       -1   -1    0    0    0  501  0.00000000000E+00  0.00000000000E+00  0.53039354721E+03  0.53039354724E+03  0.50400001928E-02 0.  1.
        1   -1    0    0  501    0  0.00000000000E+00  0.00000000000E+00 -0.23645226180E+04  0.23645226180E+04  0.50400001928E-02 0. -1.
    10030    2    1    2    0    0  0.00000000000E+00  0.00000000000E+00 -0.18341290708E+04  0.28949161652E+04  0.22397567179E+04 0.  0.
        4    1    3    3  502    0  0.54837994752E+03 -0.70411292355E+03 -0.17914291089E+04  0.20014283502E+04  0.12699999809E+01 0. -1.
       -4    1    3    3    0  502 -0.54837994752E+03  0.70411292355E+03 -0.42699961896E+02  0.89348781503E+03  0.12699999809E+01 0.  1.
</event>
<event>
 5   0  0.9182865E-05  0.2263090E+04  0.7818609E-02  0.8492618E-01
       -2   -1    0    0    0  501  0.00000000000E+00  0.00000000000E+00  0.58396703377E+03  0.58396703378E+03  0.25500000920E-02 0. -1.
        2   -1    0    0  501    0  0.00000000000E+00  0.00000000000E+00 -0.21925799021E+04  0.21925799021E+04  0.25500000920E-02 0.  1.
    10030    2    1    2    0    0  0.00000000000E+00  0.00000000000E+00 -0.16086128683E+04  0.27765469359E+04  0.22630902605E+04 0.  0.
        3    1    3    3  502    0  0.55592874307E+03  0.81589714658E+03 -0.14825957142E+04  0.17812453462E+04  0.10100000352E+00 0.  1.
       -3    1    3    3    0  502 -0.55592874307E+03 -0.81589714658E+03 -0.12601715410E+03  0.99530158972E+03  0.10100000352E+00 0. -1.
</event>
<event>
 5   0  0.4061631E-05  0.2412228E+04  0.7818609E-02  0.8434940E-01
       -1   -1    0    0    0  501  0.00000000000E+00  0.00000000000E+00  0.90529610042E+03  0.90529610043E+03  0.50400001928E-02 0.  1.
        1   -1    0    0  501    0  0.00000000000E+00  0.00000000000E+00 -0.16068901613E+04  0.16068901613E+04  0.50400001928E-02 0. -1.
    10030    2    1    2    0    0  0.00000000000E+00  0.00000000000E+00 -0.70159406085E+03  0.25121862617E+04  0.24122283448E+04 0.  0.
        3    1    3    3  502    0 -0.12466328714E+03 -0.72817007441E+03 -0.13436861233E+04  0.15333835138E+04  0.10100000352E+00 0. -1.
       -3    1    3    3    0  502  0.12466328714E+03  0.72817007441E+03  0.64209206242E+03  0.97880274787E+03  0.10100000352E+00 0.  1.
</event>
<event>
 5   0  0.9750757E-05  0.2402613E+04  0.7818609E-02  0.8438526E-01
        2   -1    0    0  501    0  0.00000000000E+00  0.00000000000E+00  0.14947485262E+04  0.14947485262E+04  0.25500000920E-02 0.  1.
       -2   -1    0    0    0  501  0.00000000000E+00  0.00000000000E+00 -0.96547183166E+03  0.96547183166E+03  0.25500000920E-02 0. -1.
    10030    2    1    2    0    0  0.00000000000E+00  0.00000000000E+00  0.52927669456E+03  0.24602203579E+04  0.24026132419E+04 0.  0.
        2    1    3    3  502    0 -0.85691546038E+03  0.73421471359E+03  0.68653948570E+03  0.13208753981E+04  0.25500000920E-02 0.  1.
       -2    1    3    3    0  502  0.85691546038E+03 -0.73421471359E+03 -0.15726279114E+03  0.11393449598E+04  0.25500000920E-02 0. -1.
</event>
<event>
 5   0  0.9182865E-05  0.2356152E+04  0.7818609E-02  0.8456105E-01
       -2   -1    0    0    0  501  0.00000000000E+00  0.00000000000E+00  0.75823309066E+03  0.75823309066E+03  0.25500000920E-02 0.  1.
        2   -1    0    0  501    0  0.00000000000E+00  0.00000000000E+00 -0.18303904167E+04  0.18303904167E+04  0.25500000920E-02 0. -1.
    10030    2    1    2    0    0  0.00000000000E+00  0.00000000000E+00 -0.10721573260E+04  0.25886235073E+04  0.23561515934E+04 0.  0.
        3    1    3    3  502    0 -0.88895739332E+03  0.74219269198E+03 -0.29848384448E+03  0.11959046178E+04  0.10100000352E+00 0. -1.
       -3    1    3    3    0  502  0.88895739332E+03 -0.74219269198E+03 -0.77367348155E+03  0.13927188896E+04  0.10100000352E+00 0.  1.
</event>
<event>
 5   0  0.9750757E-05  0.1826211E+04  0.7818609E-02  0.8692484E-01
        2   -1    0    0  501    0  0.00000000000E+00  0.00000000000E+00  0.13481663856E+04  0.13481663856E+04  0.25500000920E-02 0. -1.
       -2   -1    0    0    0  501  0.00000000000E+00  0.00000000000E+00 -0.61844097579E+03  0.61844097579E+03  0.25500000920E-02 0.  1.
    10030    2    1    2    0    0  0.00000000000E+00  0.00000000000E+00  0.72972540982E+03  0.19666073614E+04  0.18262106506E+04 0.  0.
        2    1    3    3  502    0  0.64022317034E+03  0.23407717254E+03 -0.28936526446E+03  0.74054715368E+03  0.25500000920E-02 0.  1.
       -2    1    3    3    0  502 -0.64022317034E+03 -0.23407717254E+03  0.10190906743E+04  0.12260602077E+04  0.25500000920E-02 0. -1.
</event>
<event>
 5   0  0.9519092E-05  0.2460710E+04  0.7818609E-02  0.8417118E-01
       -2   -1    0    0    0  501  0.00000000000E+00  0.00000000000E+00  0.16945346527E+04  0.16945346527E+04  0.25500000920E-02 0. -1.
        2   -1    0    0  501    0  0.00000000000E+00  0.00000000000E+00 -0.89332678188E+03  0.89332678188E+03  0.25500000920E-02 0.  1.
    10030    2    1    2    0    0  0.00000000000E+00  0.00000000000E+00  0.80120787085E+03  0.25878614346E+04  0.24607098066E+04 0.  0.
        4    1    3    3  502    0 -0.27547432185E+03 -0.47042102769E+03  0.15605896900E+04  0.16530649832E+04  0.12699999809E+01 0. -1.
       -4    1    3    3    0  502  0.27547432185E+03  0.47042102769E+03 -0.75938181918E+03  0.93479645137E+03  0.12699999809E+01 0.  1.
</event>
<event>
 5   0  0.4018942E-05  0.1506244E+04  0.7818609E-02  0.8880311E-01
        1   -1    0    0  501    0  0.00000000000E+00  0.00000000000E+00  0.91255609365E+03  0.91255609367E+03  0.50400001928E-02 0.  1.
       -1   -1    0    0    0  501  0.00000000000E+00  0.00000000000E+00 -0.62154312623E+03  0.62154312625E+03  0.50400001928E-02 0. -1.
    10030    2    1    2    0    0  0.00000000000E+00  0.00000000000E+00  0.29101296742E+03  0.15340992199E+04  0.15062442927E+04 0.  0.
        5    1    3    3  502    0 -0.71350022845E+03  0.17492548267E+03 -0.23358842124E+02  0.73501648007E+03  0.46999998093E+01 0. -1.
       -5    1    3    3    0  502  0.71350022845E+03 -0.17492548267E+03  0.31437180955E+03  0.79908273984E+03  0.46999998093E+01 0.  1.
</event>
<event>
 5   0  0.4208577E-05  0.2403362E+04  0.7818609E-02  0.8438246E-01
        1   -1    0    0  501    0  0.00000000000E+00  0.00000000000E+00  0.17848858247E+04  0.17848858247E+04  0.50400001928E-02 0. -1.
       -1   -1    0    0    0  501  0.00000000000E+00  0.00000000000E+00 -0.80903586120E+03  0.80903586122E+03  0.50400001928E-02 0.  1.
    10030    2    1    2    0    0  0.00000000000E+00  0.00000000000E+00  0.97584996352E+03  0.25939216859E+04  0.24033615129E+04 0.  0.
        1    1    3    3  502    0 -0.85971727832E+03  0.53647667471E+02  0.13922408714E+04  0.16371702767E+04  0.50400001928E-02 0. -1.
       -1    1    3    3    0  502  0.85971727832E+03 -0.53647667471E+02 -0.41639090790E+03  0.95675140923E+03  0.50400001928E-02 0.  1.
</event>
<event>
 5   0  0.9750757E-05  0.2263848E+04  0.7818609E-02  0.8492313E-01
       -2   -1    0    0    0  501  0.00000000000E+00  0.00000000000E+00  0.91532981964E+03  0.91532981965E+03  0.25500000920E-02 0. -1.
        2   -1    0    0  501    0  0.00000000000E+00  0.00000000000E+00 -0.13997706220E+04  0.13997706220E+04  0.25500000920E-02 0.  1.
    10030    2    1    2    0    0  0.00000000000E+00  0.00000000000E+00 -0.48444080239E+03  0.23151004417E+04  0.22638478668E+04 0.  0.
        2    1    3    3  502    0 -0.11930221111E+02  0.58088086213E+02 -0.13981810098E+04  0.13994379915E+04  0.25500000920E-02 0.  1.
       -2    1    3    3    0  502  0.11930221111E+02 -0.58088086213E+02  0.91374020743E+03  0.91566245015E+03  0.25500000920E-02 0. -1.
</event>
<event>
 5   0  0.9750757E-05  0.2510227E+04  0.7818609E-02  0.8399351E-01
       -2   -1    0    0    0  501  0.00000000000E+00  0.00000000000E+00  0.99182839476E+03  0.99182839477E+03  0.25500000920E-02 0. -1.
        2   -1    0    0  501    0  0.00000000000E+00  0.00000000000E+00 -0.15882891599E+04  0.15882891599E+04  0.25500000920E-02 0.  1.
    10030    2    1    2    0    0  0.00000000000E+00  0.00000000000E+00 -0.59646076518E+03  0.25801175547E+04  0.25102273108E+04 0.  0.
        2    1    3    3  502    0  0.78313651355E+03 -0.48230935239E+02 -0.13051387546E+04  0.15228316357E+04  0.25500000920E-02 0.  1.
       -2    1    3    3    0  502 -0.78313651355E+03  0.48230935239E+02  0.70867798937E+03  0.10572859190E+04  0.25500000920E-02 0. -1.
</event>
<event>
 5   0  0.9182865E-05  0.2343404E+04  0.7818609E-02  0.8461001E-01
       -2   -1    0    0    0  501  0.00000000000E+00  0.00000000000E+00  0.73964040494E+03  0.73964040494E+03  0.25500000920E-02 0. -1.
        2   -1    0    0  501    0  0.00000000000E+00  0.00000000000E+00 -0.18561529109E+04  0.18561529109E+04  0.25500000920E-02 0.  1.
    10030    2    1    2    0    0  0.00000000000E+00  0.00000000000E+00 -0.11165125059E+04  0.25957933158E+04  0.23434040971E+04 0.  0.
        3    1    3    3  502    0  0.68494202150E+02 -0.10413119503E+04 -0.11484271831E+04  0.15517432258E+04  0.10100000352E+00 0.  1.
       -3    1    3    3    0  502 -0.68494202150E+02  0.10413119503E+04  0.31914677217E+02  0.10440500900E+04  0.10100000352E+00 0. -1.
</event>
<event>
 5   0  0.3934906E-05  0.2188356E+04  0.7818609E-02  0.8523290E-01
       -1   -1    0    0    0  501  0.00000000000E+00  0.00000000000E+00  0.14349211894E+04  0.14349211894E+04  0.50400001928E-02 0. -1.
        1   -1    0    0  501    0  0.00000000000E+00  0.00000000000E+00 -0.83434951776E+03  0.83434951777E+03  0.50400001928E-02 0.  1.
    10030    2    1    2    0    0  0.00000000000E+00  0.00000000000E+00  0.60057167162E+03  0.22692707072E+04  0.21883562803E+04 0.  0.
        2    1    3    3  502    0 -0.46889274575E+03  0.34956428834E+03  0.12592327316E+04  0.13884245284E+04  0.25500000920E-02 0. -1.
       -2    1    3    3    0  502  0.46889274575E+03 -0.34956428834E+03 -0.65866105998E+03  0.88084617877E+03  0.25500000920E-02 0.  1.
</event>
<event>
 5   0  0.4208577E-05  0.2334846E+04  0.7818609E-02  0.8464307E-01
        1   -1    0    0  501    0  0.00000000000E+00  0.00000000000E+00  0.79002394797E+03  0.79002394799E+03  0.50400001928E-02 0. -1.
       -1   -1    0    0    0  501  0.00000000000E+00  0.00000000000E+00 -0.17251079054E+04  0.17251079054E+04  0.50400001928E-02 0.  1.
    10030    2    1    2    0    0  0.00000000000E+00  0.00000000000E+00 -0.93508395739E+03  0.25151318534E+04  0.23348460832E+04 0.  0.
        1    1    3    3  502    0  0.74363815953E+03  0.82811333791E+02  0.49776620306E+03  0.89868048952E+03  0.50400001928E-02 0. -1.
       -1    1    3    3    0  502 -0.74363815953E+03 -0.82811333791E+02 -0.14328501604E+04  0.16164513638E+04  0.50400001928E-02 0.  1.
</event>
<event>
 5   0  0.9750757E-05  0.2346644E+04  0.7818609E-02  0.8459754E-01
       -2   -1    0    0    0  501  0.00000000000E+00  0.00000000000E+00  0.80010447174E+03  0.80010447174E+03  0.25500000920E-02 0. -1.
        2   -1    0    0  501    0  0.00000000000E+00  0.00000000000E+00 -0.17206312900E+04  0.17206312900E+04  0.25500000920E-02 0.  1.
    10030    2    1    2    0    0  0.00000000000E+00  0.00000000000E+00 -0.92052681826E+03  0.25207357617E+04  0.23466442332E+04 0.  0.
        2    1    3    3  502    0 -0.89158511116E+03 -0.70196643848E+03 -0.13979547252E+03  0.11433388235E+04  0.25500000920E-02 0. -1.
       -2    1    3    3    0  502  0.89158511116E+03  0.70196643848E+03 -0.78073134574E+03  0.13773969382E+04  0.25500000920E-02 0.  1.
</event>
<event>
 5   0  0.9491680E-05  0.1728894E+04  0.7818609E-02  0.8745055E-01
        2   -1    0    0  501    0  0.00000000000E+00  0.00000000000E+00  0.53089632933E+03  0.53089632934E+03  0.25500000920E-02 0.  1.
       -2   -1    0    0    0  501  0.00000000000E+00  0.00000000000E+00 -0.14075598724E+04  0.14075598724E+04  0.25500000920E-02 0. -1.
    10030    2    1    2    0    0  0.00000000000E+00  0.00000000000E+00 -0.87666354311E+03  0.19384562018E+04  0.17288937152E+04 0.  0.
        5    1    3    3  502    0  0.19771041205E+03 -0.74244706770E+03  0.58283989936E+01  0.76835741397E+03  0.46999998093E+01 0.  1.
       -5    1    3    3    0  502 -0.19771041205E+03  0.74244706770E+03 -0.88249194210E+03  0.11700987878E+04  0.46999998093E+01 0. -1.
</event>
<event>
 5   0  0.3934906E-05  0.2596322E+04  0.7818609E-02  0.8369452E-01
        1   -1    0    0  501    0  0.00000000000E+00  0.00000000000E+00  0.15361916944E+04  0.15361916944E+04  0.50400001928E-02 0. -1.
       -1   -1    0    0    0  501  0.00000000000E+00  0.00000000000E+00 -0.10970125741E+04  0.10970125741E+04  0.50400001928E-02 0.  1.
    10030    2    1    2    0    0  0.00000000000E+00  0.00000000000E+00  0.43917912031E+03  0.26332042684E+04  0.25963217096E+04 0.  0.
        2    1    3    3  502    0 -0.10924949068E+04 -0.69919004755E+03  0.27334974246E+03  0.13255685292E+04  0.25500000920E-02 0.  1.
       -2    1    3    3    0  502  0.10924949068E+04  0.69919004755E+03  0.16582937786E+03  0.13076357392E+04  0.25500000920E-02 0. -1.
</event>
<event>
 5   0  0.4018942E-05  0.1495221E+04  0.7818609E-02  0.8887637E-01
        1   -1    0    0  501    0  0.00000000000E+00  0.00000000000E+00  0.68166890220E+03  0.68166890222E+03  0.50400001928E-02 0. -1.
       -1   -1    0    0    0  501  0.00000000000E+00  0.00000000000E+00 -0.81993118256E+03  0.81993118258E+03  0.50400001928E-02 0.  1.
    10030    2    1    2    0    0  0.00000000000E+00  0.00000000000E+00 -0.13826228036E+03  0.15016000848E+04  0.14952211731E+04 0.  0.
        5    1    3    3  502    0 -0.23615563083E+03  0.14624426066E+03  0.62790675090E+03  0.68661914011E+03  0.46999998093E+01 0. -1.
       -5    1    3    3    0  502  0.23615563083E+03 -0.14624426066E+03 -0.76616903126E+03  0.81498094469E+03  0.46999998093E+01 0.  1.
</event>
<event>
 5   0  0.9519092E-05  0.2365849E+04  0.7818609E-02  0.8452401E-01
        2   -1    0    0  501    0  0.00000000000E+00  0.00000000000E+00  0.14916221107E+04  0.14916221107E+04  0.25500000920E-02 0.  1.
       -2   -1    0    0    0  501  0.00000000000E+00  0.00000000000E+00 -0.93811319094E+03  0.93811319094E+03  0.25500000920E-02 0. -1.
    10030    2    1    2    0    0  0.00000000000E+00  0.00000000000E+00  0.55350891976E+03  0.24297353017E+04  0.23658490044E+04 0.  0.
        4    1    3    3  502    0  0.42901023275E+03 -0.10918928608E+04  0.43260530366E+03  0.12503714492E+04  0.12699999809E+01 0.  1.
       -4    1    3    3    0  502 -0.42901023275E+03  0.10918928608E+04  0.12090361610E+03  0.11793638525E+04  0.12699999809E+01 0. -1.
</event>
<event>
 5   0  0.4061631E-05  0.2390255E+04  0.7818609E-02  0.8443161E-01
        1   -1    0    0  501    0  0.00000000000E+00  0.00000000000E+00  0.15717685239E+04  0.15717685239E+04  0.50400001928E-02 0.  1.
       -1   -1    0    0    0  501  0.00000000000E+00  0.00000000000E+00 -0.90874028833E+03  0.90874028834E+03  0.50400001928E-02 0. -1.
    10030    2    1    2    0    0  0.00000000000E+00  0.00000000000E+00  0.66302823560E+03  0.24805088123E+04  0.23902546991E+04 0.  0.
        3    1    3    3  502    0  0.43220553624E+03  0.84786161332E+03  0.10817633741E+04  0.14407924724E+04  0.10100000352E+00 0.  1.
       -3    1    3    3    0  502 -0.43220553624E+03 -0.84786161332E+03 -0.41873513851E+03  0.10397163398E+04  0.10100000352E+00 0. -1.
</event>
<event>
 5   0  0.3934906E-05  0.2418860E+04  0.7818609E-02  0.8432476E-01
        1   -1    0    0  501    0  0.00000000000E+00  0.00000000000E+00  0.16901166271E+04  0.16901166271E+04  0.50400001928E-02 0.  1.
       -1   -1    0    0    0  501  0.00000000000E+00  0.00000000000E+00 -0.86545554869E+03  0.86545554871E+03  0.50400001928E-02 0. -1.
    10030    2    1    2    0    0  0.00000000000E+00  0.00000000000E+00  0.82466107838E+03  0.25555721758E+04  0.24188599074E+04 0.  0.
        2    1    3    3  502    0 -0.94572250956E+02 -0.87110315244E+03 -0.46842655873E+03  0.99357337614E+03  0.25500000920E-02 0. -1.
       -2    1    3    3    0  502  0.94572250956E+02  0.87110315244E+03  0.12930876371E+04  0.15619987996E+04  0.25500000920E-02 0.  1.
</event>
<event>
 5   0  0.9750757E-05  0.2371734E+04  0.7818609E-02  0.8450162E-01
        2   -1    0    0  501    0  0.00000000000E+00  0.00000000000E+00  0.13757323108E+04  0.13757323108E+04  0.25500000920E-02 0.  1.
       -2   -1    0    0    0  501  0.00000000000E+00  0.00000000000E+00 -0.10222047654E+04  0.10222047654E+04  0.25500000920E-02 0. -1.
    10030    2    1    2    0    0  0.00000000000E+00  0.00000000000E+00  0.35352754540E+03  0.23979370763E+04  0.23717336479E+04 0.  0.
        2    1    3    3  502    0 -0.32934764028E+03  0.50968249457E+03  0.12068596744E+04  0.13508354404E+04  0.25500000920E-02 0.  1.
       -2    1    3    3    0  502  0.32934764028E+03 -0.50968249457E+03 -0.85333212900E+03  0.10471016359E+04  0.25500000920E-02 0. -1.
</event>
<event>
 5   0  0.9491680E-05  0.2354109E+04  0.7818609E-02  0.8456887E-01
       -2   -1    0    0    0  501  0.00000000000E+00  0.00000000000E+00  0.62019654809E+03  0.62019654809E+03  0.25500000920E-02 0. -1.
        2   -1    0    0  501    0  0.00000000000E+00  0.00000000000E+00 -0.22339004514E+04  0.22339004514E+04  0.25500000920E-02 0.  1.
    10030    2    1    2    0    0  0.00000000000E+00  0.00000000000E+00 -0.16137039033E+04  0.28540969995E+04  0.23541090448E+04 0.  0.
        5    1    3    3  502    0 -0.23517257593E+03  0.61309174037E+03 -0.19911818671E+04  0.20966675798E+04  0.46999998093E+01 0.  1.
       -5    1    3    3    0  502  0.23517257593E+03 -0.61309174037E+03  0.37747796379E+03  0.75742941963E+03  0.46999998093E+01 0. -1.
</event>
<event>
 5   0  0.4260395E-05  0.2575109E+04  0.7818609E-02  0.8376706E-01
        1   -1    0    0  501    0  0.00000000000E+00  0.00000000000E+00  0.19048557871E+04  0.19048557871E+04  0.50400001928E-02 0. -1.
       -1   -1    0    0    0  501  0.00000000000E+00  0.00000000000E+00 -0.87030016312E+03  0.87030016313E+03  0.50400001928E-02 0.  1.
    10030    2    1    2    0    0  0.00000000000E+00  0.00000000000E+00  0.10345556240E+04  0.27751559502E+04  0.25751087762E+04 0.  0.
        4    1    3    3  502    0 -0.14944272681E+03  0.12580905522E+04  0.76460526924E+03  0.14797796447E+04  0.12699999809E+01 0.  1.
       -4    1    3    3    0  502  0.14944272681E+03 -0.12580905522E+04  0.26995035474E+03  0.12953763056E+04  0.12699999809E+01 0. -1.
</event>
<event>
 5   0  0.9491680E-05  0.2393569E+04  0.7818609E-02  0.8441915E-01
       -2   -1    0    0    0  501  0.00000000000E+00  0.00000000000E+00  0.12411843301E+04  0.12411843301E+04  0.25500000920E-02 0. -1.
        2   -1    0    0  501    0  0.00000000000E+00  0.00000000000E+00 -0.11539730286E+04  0.11539730286E+04  0.25500000920E-02 0.  1.
    10030    2    1    2    0    0  0.00000000000E+00  0.00000000000E+00  0.87211301534E+02  0.23951573587E+04  0.23935690844E+04 0.  0.
        5    1    3    3  502    0 -0.39173758150E+03 -0.90649072311E+03 -0.63292535131E+03  0.11729451625E+04  0.46999998093E+01 0. -1.
       -5    1    3    3    0  502  0.39173758150E+03  0.90649072311E+03  0.72013665284E+03  0.12222121962E+04  0.46999998093E+01 0.  1.
</event>
<event>
 5   0  0.4061631E-05  0.2307034E+04  0.7818609E-02  0.8475153E-01
        1   -1    0    0  501    0  0.00000000000E+00  0.00000000000E+00  0.81037927059E+03  0.81037927061E+03  0.50400001928E-02 0. -1.
       -1   -1    0    0    0  501  0.00000000000E+00  0.00000000000E+00 -0.16419487199E+04  0.16419487200E+04  0.50400001928E-02 0.  1.
    10030    2    1    2    0    0  0.00000000000E+00  0.00000000000E+00 -0.83156944935E+03  0.24523279906E+04  0.23070337718E+04 0.  0.
        3    1    3    3  502    0  0.41764188994E+03 -0.10600047096E+04 -0.22395765137E+03  0.11611166059E+04  0.10100000352E+00 0. -1.
       -3    1    3    3    0  502 -0.41764188994E+03  0.10600047096E+04 -0.60761179799E+03  0.12912113847E+04  0.10100000352E+00 0.  1.
</event>
<event>
 5   0  0.9750757E-05  0.1940156E+04  0.7818609E-02  0.8635122E-01
       -2   -1    0    0    0  501  0.00000000000E+00  0.00000000000E+00  0.11479864265E+04  0.11479864265E+04  0.25500000920E-02 0.  1.
        2   -1    0    0  501    0  0.00000000000E+00  0.00000000000E+00 -0.81974085202E+03  0.81974085203E+03  0.25500000920E-02 0. -1.
    10030    2    1    2    0    0  0.00000000000E+00  0.00000000000E+00  0.32824557447E+03  0.19677272785E+04  0.19401560467E+04 0.  0.
        2    1    3    3  502    0 -0.43667655129E+03 -0.63197674551E+03  0.76496918464E+03  0.10840935710E+04  0.25500000920E-02 0.  1.
       -2    1    3    3    0  502  0.43667655129E+03  0.63197674551E+03 -0.43672361017E+03  0.88363370748E+03  0.25500000920E-02 0. -1.
</event>
<event>
 5   0  0.9182865E-05  0.2431738E+04  0.7818609E-02  0.8427716E-01
        2   -1    0    0  501    0  0.00000000000E+00  0.00000000000E+00  0.20296190611E+04  0.20296190611E+04  0.25500000920E-02 0. -1.
       -2   -1    0    0    0  501  0.00000000000E+00  0.00000000000E+00 -0.72838187979E+03  0.72838187980E+03  0.25500000920E-02 0.  1.
    10030    2    1    2    0    0  0.00000000000E+00  0.00000000000E+00  0.13012371813E+04  0.27580009409E+04  0.24317382647E+04 0.  0.
        3    1    3    3  502    0  0.50541098930E+03  0.98186809940E+03  0.73603743304E+02  0.11067622843E+04  0.10100000352E+00 0.  1.
       -3    1    3    3    0  502 -0.50541098930E+03 -0.98186809940E+03  0.12276334380E+04  0.16512386566E+04  0.10100000352E+00 0. -1.
</event>
<event>
 5   0  0.9144244E-05  0.2365843E+04  0.7818609E-02  0.8452403E-01
       -2   -1    0    0    0  501  0.00000000000E+00  0.00000000000E+00  0.83395250921E+03  0.83395250921E+03  0.25500000920E-02 0.  1.
        2   -1    0    0  501    0  0.00000000000E+00  0.00000000000E+00 -0.16779169829E+04  0.16779169829E+04  0.25500000920E-02 0. -1.
    10030    2    1    2    0    0  0.00000000000E+00  0.00000000000E+00 -0.84396447368E+03  0.25118694921E+04  0.23658428334E+04 0.  0.
        1    1    3    3  502    0 -0.53229921984E+02  0.47292579584E+01  0.83267025720E+03  0.83438333380E+03  0.50400001928E-02 0.  1.
       -1    1    3    3    0  502  0.53229921984E+02 -0.47292579584E+01 -0.16766347309E+04  0.16774861583E+04  0.50400001928E-02 0. -1.
</event>
<event>
 5   0  0.4208577E-05  0.2566635E+04  0.7818609E-02  0.8379624E-01
       -1   -1    0    0    0  501  0.00000000000E+00  0.00000000000E+00  0.10219470821E+04  0.10219470821E+04  0.50400001928E-02 0. -1.
        1   -1    0    0  501    0  0.00000000000E+00  0.00000000000E+00 -0.16115347063E+04  0.16115347063E+04  0.50400001928E-02 0.  1.
    10030    2    1    2    0    0  0.00000000000E+00  0.00000000000E+00 -0.58958762425E+03  0.26334817885E+04  0.25666345208E+04 0.  0.
        1    1    3    3  502    0 -0.69758760792E+02  0.20304262072E+03 -0.15929778473E+04  0.16073801705E+04  0.50400001928E-02 0.  1.
       -1    1    3    3    0  502  0.69758760792E+02 -0.20304262072E+03  0.10033902231E+04  0.10261016179E+04  0.50400001928E-02 0. -1.
</event>
<event>
 5   0  0.9182865E-05  0.2378088E+04  0.7818609E-02  0.8447753E-01
       -2   -1    0    0    0  501  0.00000000000E+00  0.00000000000E+00  0.70766793253E+03  0.70766793253E+03  0.25500000920E-02 0. -1.
        2   -1    0    0  501    0  0.00000000000E+00  0.00000000000E+00 -0.19978651956E+04  0.19978651956E+04  0.25500000920E-02 0.  1.
    10030    2    1    2    0    0  0.00000000000E+00  0.00000000000E+00 -0.12901972631E+04  0.27055331282E+04  0.23780875783E+04 0.  0.
        3    1    3    3  502    0 -0.88946071940E+03  0.70654098938E+03 -0.10448881266E+04  0.15434156110E+04  0.10100000352E+00 0.  1.
       -3    1    3    3    0  502  0.88946071940E+03 -0.70654098938E+03 -0.24530913654E+03  0.11621175172E+04  0.10100000352E+00 0. -1.
</event>
<event>
 5   0  0.4260395E-05  0.2417746E+04  0.7818609E-02  0.8432890E-01
       -1   -1    0    0    0  501  0.00000000000E+00  0.00000000000E+00  0.15961226810E+04  0.15961226810E+04  0.50400001928E-02 0. -1.
        1   -1    0    0  501    0  0.00000000000E+00  0.00000000000E+00 -0.91557730040E+03  0.91557730041E+03  0.50400001928E-02 0.  1.
    10030    2    1    2    0    0  0.00000000000E+00  0.00000000000E+00  0.68054538058E+03  0.25116999814E+04  0.24177458058E+04 0.  0.
        4    1    3    3  502    0 -0.80445154017E+03 -0.62471532376E+03 -0.33615262940E+03  0.10725724774E+04  0.12699999809E+01 0.  1.
       -4    1    3    3    0  502  0.80445154017E+03  0.62471532376E+03  0.10166980100E+04  0.14391275039E+04  0.12699999809E+01 0. -1.
</event>
<event>
 5   0  0.9491680E-05  0.2421690E+04  0.7818609E-02  0.8431427E-01
       -2   -1    0    0    0  501  0.00000000000E+00  0.00000000000E+00  0.79216829162E+03  0.79216829162E+03  0.25500000920E-02 0. -1.
        2   -1    0    0  501    0  0.00000000000E+00  0.00000000000E+00 -0.18508009481E+04  0.18508009481E+04  0.25500000920E-02 0.  1.
    10030    2    1    2    0    0  0.00000000000E+00  0.00000000000E+00 -0.10586326565E+04  0.26429692398E+04  0.24216901744E+04 0.  0.
        5    1    3    3  502    0 -0.99211972240E+03  0.69363837263E+03 -0.55794278777E+03  0.13329508543E+04  0.46999998093E+01 0.  1.
       -5    1    3    3    0  502  0.99211972240E+03 -0.69363837263E+03 -0.50068986874E+03  0.13100183855E+04  0.46999998093E+01 0. -1.
</event>
<event>
 5   0  0.4260395E-05  0.2419254E+04  0.7818609E-02  0.8432330E-01
        1   -1    0    0  501    0  0.00000000000E+00  0.00000000000E+00  0.16627192618E+04  0.16627192618E+04  0.50400001928E-02 0.  1.
       -1   -1    0    0    0  501  0.00000000000E+00  0.00000000000E+00 -0.88000240235E+03  0.88000240236E+03  0.50400001928E-02 0. -1.
    10030    2    1    2    0    0  0.00000000000E+00  0.00000000000E+00  0.78271685947E+03  0.25427216642E+04  0.24192535583E+04 0.  0.
        4    1    3    3  502    0  0.11966124995E+04  0.23226607279E+02  0.20697915174E+03  0.12146040225E+04  0.12699999809E+01 0. -1.
       -4    1    3    3    0  502 -0.11966124995E+04 -0.23226607279E+02  0.57573770773E+03  0.13281176417E+04  0.12699999809E+01 0.  1.
</event>
<event>
 5   0  0.4018942E-05  0.2400280E+04  0.7818609E-02  0.8439399E-01
       -1   -1    0    0    0  501  0.00000000000E+00  0.00000000000E+00  0.12409851841E+04  0.12409851841E+04  0.50400001928E-02 0.  1.
        1   -1    0    0  501    0  0.00000000000E+00  0.00000000000E+00 -0.11606396055E+04  0.11606396055E+04  0.50400001928E-02 0. -1.
    10030    2    1    2    0    0  0.00000000000E+00  0.00000000000E+00  0.80345578589E+02  0.24016247896E+04  0.24002804457E+04 0.  0.
        5    1    3    3  502    0 -0.11995584461E+04 -0.23367701881E+02  0.11382563892E+02  0.11998492272E+04  0.46999998093E+01 0.  1.
       -5    1    3    3    0  502  0.11995584461E+04  0.23367701881E+02  0.68963014698E+02  0.12017755625E+04  0.46999998093E+01 0. -1.
</event>
<event>
 5   0  0.9144244E-05  0.2418966E+04  0.7818609E-02  0.8432437E-01
       -2   -1    0    0    0  501  0.00000000000E+00  0.00000000000E+00  0.82545413813E+03  0.82545413814E+03  0.25500000920E-02 0. -1.
        2   -1    0    0  501    0  0.00000000000E+00  0.00000000000E+00 -0.17721749785E+04  0.17721749785E+04  0.25500000920E-02 0.  1.
    10030    2    1    2    0    0  0.00000000000E+00  0.00000000000E+00 -0.94672084035E+03  0.25976291166E+04  0.24189660349E+04 0.  0.
        1    1    3    3  502    0  0.31944735782E+03  0.10137615749E+04 -0.10931270466E+04  0.15246920624E+04  0.50400001928E-02 0.  1.
       -1    1    3    3    0  502 -0.31944735782E+03 -0.10137615749E+04  0.14640620624E+03  0.10729370542E+04  0.50400001928E-02 0. -1.
</event>
<event>
 5   0  0.9519092E-05  0.2365483E+04  0.7818609E-02  0.8452540E-01
       -2   -1    0    0    0  501  0.00000000000E+00  0.00000000000E+00  0.70164419503E+03  0.70164419503E+03  0.25500000920E-02 0. -1.
        2   -1    0    0  501    0  0.00000000000E+00  0.00000000000E+00 -0.19937139900E+04  0.19937139900E+04  0.25500000920E-02 0.  1.
    10030    2    1    2    0    0  0.00000000000E+00  0.00000000000E+00 -0.12920697949E+04  0.26953581850E+04  0.23654833313E+04 0.  0.
        4    1    3    3  502    0  0.23430203427E+03 -0.76526255837E+03  0.34624002365E+03  0.87201375756E+03  0.12699999809E+01 0. -1.
       -4    1    3    3    0  502 -0.23430203427E+03  0.76526255837E+03 -0.16383098186E+04  0.18233444274E+04  0.12699999809E+01 0.  1.
</event>
<event>
 5   0  0.9182865E-05  0.1510820E+04  0.7818609E-02  0.8877289E-01
        2   -1    0    0  501    0  0.00000000000E+00  0.00000000000E+00  0.12297628443E+04  0.12297628443E+04  0.25500000920E-02 0. -1.
       -2   -1    0    0    0  501  0.00000000000E+00  0.00000000000E+00 -0.46402812901E+03  0.46402812902E+03  0.25500000920E-02 0.  1.
    10030    2    1    2    0    0  0.00000000000E+00  0.00000000000E+00  0.76573471534E+03  0.16937909734E+04  0.15108203755E+04 0.  0.
        3    1    3    3  502    0  0.57032057932E+03  0.45647325111E+02 -0.17011826565E+03  0.59689988775E+03  0.10100000352E+00 0.  1.
       -3    1    3    3    0  502 -0.57032057932E+03 -0.45647325111E+02  0.93585298099E+03  0.10968910856E+04  0.10100000352E+00 0. -1.
</event>
<event>
 5   0  0.4260395E-05  0.2408888E+04  0.7818609E-02  0.8436184E-01
        1   -1    0    0  501    0  0.00000000000E+00  0.00000000000E+00  0.17277468606E+04  0.17277468606E+04  0.50400001928E-02 0.  1.
       -1   -1    0    0    0  501  0.00000000000E+00  0.00000000000E+00 -0.83963976424E+03  0.83963976425E+03  0.50400001928E-02 0. -1.
    10030    2    1    2    0    0  0.00000000000E+00  0.00000000000E+00  0.88810709636E+03  0.25673866249E+04  0.24088876825E+04 0.  0.
        4    1    3    3  502    0 -0.72032624870E+03 -0.61937378552E+03  0.12331681957E+04  0.15566628416E+04  0.12699999809E+01 0.  1.
       -4    1    3    3    0  502  0.72032624870E+03  0.61937378552E+03 -0.34506109935E+03  0.10107237832E+04  0.12699999809E+01 0. -1.
</event>
<event>
 5   0  0.3934906E-05  0.2286889E+04  0.7818609E-02  0.8483109E-01
       -1   -1    0    0    0  501  0.00000000000E+00  0.00000000000E+00  0.88513135731E+03  0.88513135733E+03  0.50400001928E-02 0. -1.
        1   -1    0    0  501    0  0.00000000000E+00  0.00000000000E+00 -0.14771421678E+04  0.14771421678E+04  0.50400001928E-02 0.  1.
    10030    2    1    2    0    0  0.00000000000E+00  0.00000000000E+00 -0.59201081046E+03  0.23622735251E+04  0.22868885866E+04 0.  0.
        2    1    3    3  502    0 -0.87803976806E+03  0.22242612307E+03  0.42488033963E+03  0.10004751459E+04  0.25500000920E-02 0. -1.
       -2    1    3    3    0  502  0.87803976806E+03 -0.22242612307E+03 -0.10168911501E+04  0.13617983792E+04  0.25500000920E-02 0.  1.
</event>
<event>
 5   0  0.9491680E-05  0.2361754E+04  0.7818609E-02  0.8453963E-01
        2   -1    0    0  501    0  0.00000000000E+00  0.00000000000E+00  0.14635294284E+04  0.14635294284E+04  0.25500000920E-02 0.  1.
       -2   -1    0    0    0  501  0.00000000000E+00  0.00000000000E+00 -0.95281304853E+03  0.95281304854E+03  0.25500000920E-02 0. -1.
    10030    2    1    2    0    0  0.00000000000E+00  0.00000000000E+00  0.51071637982E+03  0.24163424769E+04  0.23617535318E+04 0.  0.
        5    1    3    3  502    0 -0.30778495526E+03 -0.59609013629E+03  0.12496188420E+04  0.14183174432E+04  0.46999998093E+01 0.  1.
       -5    1    3    3    0  502  0.30778495526E+03  0.59609013629E+03 -0.73890246221E+03  0.99802503371E+03  0.46999998093E+01 0. -1.
</event>
<event>
 5   0  0.4208577E-05  0.1926875E+04  0.7818609E-02  0.8641593E-01
       -1   -1    0    0    0  501  0.00000000000E+00  0.00000000000E+00  0.67102352065E+03  0.67102352067E+03  0.50400001928E-02 0.  1.
        1   -1    0    0  501    0  0.00000000000E+00  0.00000000000E+00 -0.13832779415E+04  0.13832779415E+04  0.50400001928E-02 0. -1.
    10030    2    1    2    0    0  0.00000000000E+00  0.00000000000E+00 -0.71225442082E+03  0.20543014622E+04  0.19268752262E+04 0.  0.
        1    1    3    3  502    0 -0.50959513721E+03 -0.71887985313E+03 -0.77142128838E+03  0.11711388693E+04  0.50400001928E-02 0. -1.
       -1    1    3    3    0  502  0.50959513721E+03  0.71887985313E+03  0.59166867560E+02  0.88316259281E+03  0.50400001928E-02 0.  1.
</event>
<event>
 5   0  0.9182865E-05  0.2461310E+04  0.7818609E-02  0.8416900E-01
       -2   -1    0    0    0  501  0.00000000000E+00  0.00000000000E+00  0.20569546474E+04  0.20569546474E+04  0.25500000920E-02 0. -1.
        2   -1    0    0  501    0  0.00000000000E+00  0.00000000000E+00 -0.73628841224E+03  0.73628841224E+03  0.25500000920E-02 0.  1.
    10030    2    1    2    0    0  0.00000000000E+00  0.00000000000E+00  0.13206662352E+04  0.27932430596E+04  0.24613101157E+04 0.  0.
        3    1    3    3  502    0 -0.11417772966E+03  0.39775325614E+03 -0.65496340023E+03  0.77473948690E+03  0.10100000352E+00 0.  1.
       -3    1    3    3    0  502  0.11417772966E+03 -0.39775325614E+03  0.19756296354E+04  0.20185035727E+04  0.10100000352E+00 0. -1.
</event>
<event>
 5   0  0.3934906E-05  0.2412837E+04  0.7818609E-02  0.8434713E-01
        1   -1    0    0  501    0  0.00000000000E+00  0.00000000000E+00  0.99335375036E+03  0.99335375038E+03  0.50400001928E-02 0.  1.
       -1   -1    0    0    0  501  0.00000000000E+00  0.00000000000E+00 -0.14651835939E+04  0.14651835939E+04  0.50400001928E-02 0. -1.
    10030    2    1    2    0    0  0.00000000000E+00  0.00000000000E+00 -0.47182984357E+03  0.24585373443E+04  0.24128370173E+04 0.  0.
        2    1    3    3  502    0  0.69040961822E+03  0.95757409362E+03  0.17455306658E+02  0.11806431609E+04  0.25500000920E-02 0.  1.
       -2    1    3    3    0  502 -0.69040961822E+03 -0.95757409362E+03 -0.48928515023E+03  0.12778941834E+04  0.25500000920E-02 0. -1.
</event>
<event>
 5   0  0.4260395E-05  0.2081205E+04  0.7818609E-02  0.8569568E-01
        1   -1    0    0  501    0  0.00000000000E+00  0.00000000000E+00  0.16518528628E+04  0.16518528628E+04  0.50400001928E-02 0. -1.
       -1   -1    0    0    0  501  0.00000000000E+00  0.00000000000E+00 -0.65553854887E+03  0.65553854889E+03  0.50400001928E-02 0.  1.
    10030    2    1    2    0    0  0.00000000000E+00  0.00000000000E+00  0.99631431396E+03  0.23073914117E+04  0.20812046787E+04 0.  0.
        4    1    3    3  502    0  0.16036559725E+03  0.80907656253E+03  0.12015620627E+04  0.14574206710E+04  0.12699999809E+01 0. -1.
       -4    1    3    3    0  502 -0.16036559725E+03 -0.80907656253E+03 -0.20524774875E+03  0.84997074072E+03  0.12699999809E+01 0.  1.
</event>
<event>
 5   0  0.3234750E-05  0.2514623E+04  0.7818609E-02  0.8397794E-01
        3   -1    0    0  501    0  0.00000000000E+00  0.00000000000E+00  0.20988981388E+04  0.20988981413E+04  0.10100000352E+00 0.  1.
       -3   -1    0    0    0  501  0.00000000000E+00  0.00000000000E+00 -0.75317267778E+03  0.75317268455E+03  0.10100000352E+00 0. -1.
    10030    2    1    2    0    0  0.00000000000E+00  0.00000000000E+00  0.13457254611E+04  0.28520708258E+04  0.25146234269E+04 0.  0.
        1    1    3    3  502    0  0.48587409305E+03  0.50092351834E+03  0.18590771665E+04  0.19857406468E+04  0.50400001928E-02 0.  1.
       -1    1    3    3    0  502 -0.48587409305E+03 -0.50092351834E+03 -0.51335170543E+03  0.86633017898E+03  0.50400001928E-02 0. -1.
</event>
<event>
 5   0  0.9519092E-05  0.2228810E+04  0.7818609E-02  0.8506532E-01
        2   -1    0    0  501    0  0.00000000000E+00  0.00000000000E+00  0.21111221509E+04  0.21111221509E+04  0.25500000920E-02 0.  1.
       -2   -1    0    0    0  501  0.00000000000E+00  0.00000000000E+00 -0.58826456317E+03  0.58826456318E+03  0.25500000920E-02 0. -1.
    10030    2    1    2    0    0  0.00000000000E+00  0.00000000000E+00  0.15228575877E+04  0.26993867140E+04  0.22288098617E+04 0.  0.
        4    1    3    3  502    0 -0.93034287537E+02  0.15477218997E+03 -0.57042565096E+03  0.59832837607E+03  0.12699999809E+01 0. -1.
       -4    1    3    3    0  502  0.93034287537E+02 -0.15477218997E+03  0.20932832386E+04  0.21010583380E+04  0.12699999809E+01 0.  1.
</event>
<event>
 5   0  0.4018942E-05  0.2086687E+04  0.7818609E-02  0.8567131E-01
        1   -1    0    0  501    0  0.00000000000E+00  0.00000000000E+00  0.24809427056E+04  0.24809427056E+04  0.50400001928E-02 0.  1.
       -1   -1    0    0    0  501  0.00000000000E+00  0.00000000000E+00 -0.43877092746E+03  0.43877092749E+03  0.50400001928E-02 0. -1.
    10030    2    1    2    0    0  0.00000000000E+00  0.00000000000E+00  0.20421717781E+04  0.29197136331E+04  0.20866868782E+04 0.  0.
        5    1    3    3  502    0 -0.10057503279E+03 -0.54373410778E+03  0.22590361640E+04  0.23257318413E+04  0.46999998093E+01 0.  1.
       -5    1    3    3    0  502  0.10057503279E+03  0.54373410778E+03 -0.21686438585E+03  0.59398179184E+03  0.46999998093E+01 0. -1.
</event>
<event>
 5   0  0.9750757E-05  0.2371976E+04  0.7818609E-02  0.8450070E-01
       -2   -1    0    0    0  501  0.00000000000E+00  0.00000000000E+00  0.10930596686E+04  0.10930596686E+04  0.25500000920E-02 0. -1.
        2   -1    0    0  501    0  0.00000000000E+00  0.00000000000E+00 -0.12868169386E+04  0.12868169386E+04  0.25500000920E-02 0.  1.
    10030    2    1    2    0    0  0.00000000000E+00  0.00000000000E+00 -0.19375727002E+03  0.23798766072E+04  0.23719761351E+04 0.  0.
        2    1    3    3  502    0 -0.63593604459E+03  0.30881742930E+03  0.85854559304E+03  0.11121525942E+04  0.25500000920E-02 0. -1.
       -2    1    3    3    0  502  0.63593604459E+03 -0.30881742930E+03 -0.10523028631E+04  0.12677240130E+04  0.25500000920E-02 0.  1.
</event>
<event>
 5   0  0.4260395E-05  0.2407007E+04  0.7818609E-02  0.8436885E-01
        1   -1    0    0  501    0  0.00000000000E+00  0.00000000000E+00  0.15380078189E+04  0.15380078189E+04  0.50400001928E-02 0.  1.
       -1   -1    0    0    0  501  0.00000000000E+00  0.00000000000E+00 -0.94175155529E+03  0.94175155530E+03  0.50400001928E-02 0. -1.
    10030    2    1    2    0    0  0.00000000000E+00  0.00000000000E+00  0.59625626357E+03  0.24797593742E+04  0.24070074827E+04 0.  0.
        4    1    3    3  502    0  0.10048233860E+04  0.66032256502E+03  0.35189478244E+03  0.12528078375E+04  0.12699999809E+01 0. -1.
       -4    1    3    3    0  502 -0.10048233860E+04 -0.66032256502E+03  0.24436148113E+03  0.12269515367E+04  0.12699999809E+01 0.  1.
</event>
<event>
 5   0  0.4208577E-05  0.2391866E+04  0.7818609E-02  0.8442555E-01
        1   -1    0    0  501    0  0.00000000000E+00  0.00000000000E+00  0.24407983711E+04  0.24407983711E+04  0.50400001928E-02 0.  1.
       -1   -1    0    0    0  501  0.00000000000E+00  0.00000000000E+00 -0.58597872421E+03  0.58597872423E+03  0.50400001928E-02 0. -1.
    10030    2    1    2    0    0  0.00000000000E+00  0.00000000000E+00  0.18548196469E+04  0.30267770953E+04  0.23918661464E+04 0.  0.
        1    1    3    3  502    0  0.48798682714E+03  0.10917147013E+04  0.90609229706E+03  0.15003250925E+04  0.50400001928E-02 0. -1.
       -1    1    3    3    0  502 -0.48798682714E+03 -0.10917147013E+04  0.94872734980E+03  0.15264520028E+04  0.50400001928E-02 0.  1.
</event>
<event>
 5   0  0.9750757E-05  0.2457399E+04  0.7818609E-02  0.8418322E-01
       -2   -1    0    0    0  501  0.00000000000E+00  0.00000000000E+00  0.78986514771E+03  0.78986514771E+03  0.25500000920E-02 0.  1.
        2   -1    0    0  501    0  0.00000000000E+00  0.00000000000E+00 -0.19113412811E+04  0.19113412811E+04  0.25500000920E-02 0. -1.
    10030    2    1    2    0    0  0.00000000000E+00  0.00000000000E+00 -0.11214761334E+04  0.27012064288E+04  0.24573985133E+04 0.  0.
        2    1    3    3  502    0 -0.49825793645E+03  0.11184530195E+04 -0.67339399888E+03  0.13973752559E+04  0.25500000920E-02 0.  1.
       -2    1    3    3    0  502  0.49825793645E+03 -0.11184530195E+04 -0.44808213448E+03  0.13038311729E+04  0.25500000920E-02 0. -1.
</event>
<event>
 5   0  0.9144244E-05  0.1844898E+04  0.7818609E-02  0.8682781E-01
        2   -1    0    0  501    0  0.00000000000E+00  0.00000000000E+00  0.16498874188E+04  0.16498874188E+04  0.25500000920E-02 0.  1.
       -2   -1    0    0    0  501  0.00000000000E+00  0.00000000000E+00 -0.51573931125E+03  0.51573931126E+03  0.25500000920E-02 0. -1.
    10030    2    1    2    0    0  0.00000000000E+00  0.00000000000E+00  0.11341481075E+04  0.21656267300E+04  0.18448976134E+04 0.  0.
        1    1    3    3  502    0  0.35083092447E+03 -0.83580605971E+03  0.76785910726E+03  0.11879653680E+04  0.50400001928E-02 0.  1.
       -1    1    3    3    0  502 -0.35083092447E+03  0.83580605971E+03  0.36628900025E+03  0.97766136199E+03  0.50400001928E-02 0. -1.
</event>
<event>
 5   0  0.3934906E-05  0.2405790E+04  0.7818609E-02  0.8437339E-01
       -1   -1    0    0    0  501  0.00000000000E+00  0.00000000000E+00  0.14352683831E+04  0.14352683831E+04  0.50400001928E-02 0. -1.
        1   -1    0    0  501    0  0.00000000000E+00  0.00000000000E+00 -0.10081435765E+04  0.10081435765E+04  0.50400001928E-02 0.  1.
    10030    2    1    2    0    0  0.00000000000E+00  0.00000000000E+00  0.42712480656E+03  0.24434119596E+04  0.24057901829E+04 0.  0.
        2    1    3    3  502    0  0.10574382293E+04  0.23984627643E+03  0.74252824440E+03  0.13141727584E+04  0.25500000920E-02 0. -1.
       -2    1    3    3    0  502 -0.10574382293E+04 -0.23984627643E+03 -0.31540343784E+03  0.11292392013E+04  0.25500000920E-02 0.  1.
</event>
<event>
 5   0  0.4208577E-05  0.2444519E+04  0.7818609E-02  0.8423022E-01
       -1   -1    0    0    0  501  0.00000000000E+00  0.00000000000E+00  0.88499777190E+03  0.88499777191E+03  0.50400001928E-02 0.  1.
        1   -1    0    0  501    0  0.00000000000E+00  0.00000000000E+00 -0.16880476065E+04  0.16880476065E+04  0.50400001928E-02 0. -1.
    10030    2    1    2    0    0  0.00000000000E+00  0.00000000000E+00 -0.80304983462E+03  0.25730453784E+04  0.24445190698E+04 0.  0.
        1    1    3    3  502    0 -0.76834326122E+03 -0.73726956942E+02 -0.13990502679E+04  0.15978512707E+04  0.50400001928E-02 0. -1.
       -1    1    3    3    0  502  0.76834326122E+03  0.73726956942E+02  0.59600043326E+03  0.97519410771E+03  0.50400001928E-02 0.  1.
</event>
<event>
 5   0  0.4208577E-05  0.2406012E+04  0.7818609E-02  0.8437256E-01
        1   -1    0    0  501    0  0.00000000000E+00  0.00000000000E+00  0.16239213669E+04  0.16239213669E+04  0.50400001928E-02 0. -1.
       -1   -1    0    0    0  501  0.00000000000E+00  0.00000000000E+00 -0.89119029680E+03  0.89119029681E+03  0.50400001928E-02 0.  1.
    10030    2    1    2    0    0  0.00000000000E+00  0.00000000000E+00  0.73273107011E+03  0.25151116637E+04  0.24060116084E+04 0.  0.
        1    1    3    3  502    0 -0.75506145523E+03  0.69056540076E+03 -0.29495413079E+03  0.10648926299E+04  0.50400001928E-02 0.  1.
       -1    1    3    3    0  502  0.75506145523E+03 -0.69056540076E+03  0.10276852009E+04  0.14502190338E+04  0.50400001928E-02 0. -1.
</event>
<event>
 5   0  0.9519092E-05  0.1518939E+04  0.7818609E-02  0.8871956E-01
       -2   -1    0    0    0  501  0.00000000000E+00  0.00000000000E+00  0.55659695260E+03  0.55659695261E+03  0.25500000920E-02 0.  1.
        2   -1    0    0  501    0  0.00000000000E+00  0.00000000000E+00 -0.10362864150E+04  0.10362864150E+04  0.25500000920E-02 0. -1.
    10030    2    1    2    0    0  0.00000000000E+00  0.00000000000E+00 -0.47968946241E+03  0.15928833676E+04  0.15189389199E+04 0.  0.
        4    1    3    3  502    0 -0.47125964903E+03  0.55870046738E+03 -0.23499957152E+02  0.73129045525E+03  0.12699999809E+01 0.  1.
       -4    1    3    3    0  502  0.47125964903E+03 -0.55870046738E+03 -0.45618950526E+03  0.86159291238E+03  0.12699999809E+01 0. -1.
</event>
<event>
 5   0  0.4061631E-05  0.2409187E+04  0.7818609E-02  0.8436072E-01
       -1   -1    0    0    0  501  0.00000000000E+00  0.00000000000E+00  0.74912454864E+03  0.74912454866E+03  0.50400001928E-02 0. -1.
        1   -1    0    0  501    0  0.00000000000E+00  0.00000000000E+00 -0.19369890704E+04  0.19369890704E+04  0.50400001928E-02 0.  1.
    10030    2    1    2    0    0  0.00000000000E+00  0.00000000000E+00 -0.11878645217E+04  0.26861136190E+04  0.24091874672E+04 0.  0.
        3    1    3    3  502    0  0.75583363737E+03 -0.87465667626E+03 -0.21626787821E+03  0.11760444694E+04  0.10100000352E+00 0. -1.
       -3    1    3    3    0  502 -0.75583363737E+03  0.87465667626E+03 -0.97159664350E+03  0.15100691496E+04  0.10100000352E+00 0.  1.
</event>
<event>
 5   0  0.4208577E-05  0.2499590E+04  0.7818609E-02  0.8403132E-01
       -1   -1    0    0    0  501  0.00000000000E+00  0.00000000000E+00  0.12243971950E+04  0.12243971950E+04  0.50400001928E-02 0. -1.
        1   -1    0    0  501    0  0.00000000000E+00  0.00000000000E+00 -0.12757192573E+04  0.12757192573E+04  0.50400001928E-02 0.  1.
    10030    2    1    2    0    0  0.00000000000E+00  0.00000000000E+00 -0.51322062284E+02  0.25001164523E+04  0.24995896305E+04 0.  0.
        1    1    3    3  502    0 -0.11841096830E+04  0.35802824526E+03  0.15238523489E+03  0.12464033158E+04  0.50400001928E-02 0. -1.
       -1    1    3    3    0  502  0.11841096830E+04 -0.35802824526E+03 -0.20370729718E+03  0.12537131365E+04  0.50400001928E-02 0.  1.
</event>
<event>
 5   0  0.4208577E-05  0.1916334E+04  0.7818609E-02  0.8646768E-01
        1   -1    0    0  501    0  0.00000000000E+00  0.00000000000E+00  0.91321305081E+03  0.91321305082E+03  0.50400001928E-02 0.  1.
       -1   -1    0    0    0  501  0.00000000000E+00  0.00000000000E+00 -0.10053339322E+04  0.10053339322E+04  0.50400001928E-02 0. -1.
    10030    2    1    2    0    0  0.00000000000E+00  0.00000000000E+00 -0.92120881377E+02  0.19185469830E+04  0.19163340704E+04 0.  0.
        1    1    3    3  502    0 -0.51042727572E+03 -0.76265979562E+03 -0.32187467083E+03  0.97251697744E+03  0.50400001928E-02 0. -1.
       -1    1    3    3    0  502  0.51042727572E+03  0.76265979562E+03  0.22975378945E+03  0.94603000558E+03  0.50400001928E-02 0.  1.
</event>
<event>
 5   0  0.9519092E-05  0.2455457E+04  0.7818609E-02  0.8419028E-01
        2   -1    0    0  501    0  0.00000000000E+00  0.00000000000E+00  0.10049246130E+04  0.10049246130E+04  0.25500000920E-02 0.  1.
       -2   -1    0    0    0  501  0.00000000000E+00  0.00000000000E+00 -0.14999310397E+04  0.14999310397E+04  0.25500000920E-02 0. -1.
    10030    2    1    2    0    0  0.00000000000E+00  0.00000000000E+00 -0.49500642674E+03  0.25048556526E+04  0.24554572849E+04 0.  0.
        4    1    3    3  502    0  0.12571941787E+03  0.38374739666E+03 -0.14302454658E+04  0.14861598641E+04  0.12699999809E+01 0. -1.
       -4    1    3    3    0  502 -0.12571941787E+03 -0.38374739666E+03  0.93523903904E+03  0.10186957885E+04  0.12699999809E+01 0.  1.
</event>
<event>
 5   0  0.9182865E-05  0.2313395E+04  0.7818609E-02  0.8472658E-01
        2   -1    0    0  501    0  0.00000000000E+00  0.00000000000E+00  0.11234439252E+04  0.11234439252E+04  0.25500000920E-02 0. -1.
       -2   -1    0    0    0  501  0.00000000000E+00  0.00000000000E+00 -0.11909355971E+04  0.11909355971E+04  0.25500000920E-02 0.  1.
    10030    2    1    2    0    0  0.00000000000E+00  0.00000000000E+00 -0.67491671880E+02  0.23143795223E+04  0.23133952208E+04 0.  0.
        3    1    3    3  502    0 -0.58631244080E+03  0.73777947295E+03  0.63726193119E+03  0.11376219091E+04  0.10100000352E+00 0. -1.
       -3    1    3    3    0  502  0.58631244080E+03 -0.73777947295E+03 -0.70475360307E+03  0.11767576132E+04  0.10100000352E+00 0.  1.
</event>
<event>
 5   0  0.9491680E-05  0.2476240E+04  0.7818609E-02  0.8411499E-01
        2   -1    0    0  501    0  0.00000000000E+00  0.00000000000E+00  0.18950484778E+04  0.18950484778E+04  0.25500000920E-02 0.  1.
       -2   -1    0    0    0  501  0.00000000000E+00  0.00000000000E+00 -0.80891913906E+03  0.80891913907E+03  0.25500000920E-02 0. -1.
    10030    2    1    2    0    0  0.00000000000E+00  0.00000000000E+00  0.10861293387E+04  0.27039676168E+04  0.24762398778E+04 0.  0.
        5    1    3    3  502    0 -0.12348071293E+04 -0.85001195063E+02  0.57663337763E+03  0.13654676825E+04  0.46999998093E+01 0.  1.
       -5    1    3    3    0  502  0.12348071293E+04  0.85001195063E+02  0.50949596106E+03  0.13384999343E+04  0.46999998093E+01 0. -1.
</event>
<event>
 5   0  0.9182865E-05  0.2317842E+04  0.7818609E-02  0.8470919E-01
       -2   -1    0    0    0  501  0.00000000000E+00  0.00000000000E+00  0.96777900684E+03  0.96777900684E+03  0.25500000920E-02 0. -1.
        2   -1    0    0  501    0  0.00000000000E+00  0.00000000000E+00 -0.13878144200E+04  0.13878144200E+04  0.25500000920E-02 0.  1.
    10030    2    1    2    0    0  0.00000000000E+00  0.00000000000E+00 -0.42003541311E+03  0.23555934268E+04  0.23178418074E+04 0.  0.
        3    1    3    3  502    0  0.75255785922E+03  0.40919091165E+03  0.58328371229E+03  0.10363399215E+04  0.10100000352E+00 0. -1.
       -3    1    3    3    0  502 -0.75255785922E+03 -0.40919091165E+03 -0.10033191254E+04  0.13192535053E+04  0.10100000352E+00 0.  1.
</event>
<event>
 5   0  0.4018942E-05  0.2377524E+04  0.7818609E-02  0.8447966E-01
        1   -1    0    0  501    0  0.00000000000E+00  0.00000000000E+00  0.14596780722E+04  0.14596780722E+04  0.50400001928E-02 0.  1.
       -1   -1    0    0    0  501  0.00000000000E+00  0.00000000000E+00 -0.96812804953E+03  0.96812804954E+03  0.50400001928E-02 0. -1.
    10030    2    1    2    0    0  0.00000000000E+00  0.00000000000E+00  0.49155002270E+03  0.24278061218E+04  0.23775241618E+04 0.  0.
        5    1    3    3  502    0  0.71790107819E+03  0.15803579180E+03 -0.70820756350E+03  0.10207533064E+04  0.46999998093E+01 0. -1.
       -5    1    3    3    0  502 -0.71790107819E+03 -0.15803579180E+03  0.11997575862E+04  0.14070528154E+04  0.46999998093E+01 0.  1.
</event>
<event>
 5   0  0.9491680E-05  0.2548125E+04  0.7818609E-02  0.8386038E-01
        2   -1    0    0  501    0  0.00000000000E+00  0.00000000000E+00  0.16083636786E+04  0.16083636786E+04  0.25500000920E-02 0.  1.
       -2   -1    0    0    0  501  0.00000000000E+00  0.00000000000E+00 -0.10092466040E+04  0.10092466040E+04  0.25500000920E-02 0. -1.
    10030    2    1    2    0    0  0.00000000000E+00  0.00000000000E+00  0.59911707467E+03  0.26176102826E+04  0.25481252564E+04 0.  0.
        5    1    3    3  502    0 -0.90926679629E+03 -0.50120430694E+03 -0.45898186528E+03  0.11351908680E+04  0.46999998093E+01 0. -1.
       -5    1    3    3    0  502  0.90926679629E+03  0.50120430694E+03  0.10580989399E+04  0.14824194146E+04  0.46999998093E+01 0.  1.
</event>
<event>
 5   0  0.9750757E-05  0.1276258E+04  0.7818609E-02  0.9048607E-01
        2   -1    0    0  501    0  0.00000000000E+00  0.00000000000E+00  0.11338714695E+04  0.11338714695E+04  0.25500000920E-02 0. -1.
       -2   -1    0    0    0  501  0.00000000000E+00  0.00000000000E+00 -0.35913134915E+03  0.35913134916E+03  0.25500000920E-02 0.  1.
    10030    2    1    2    0    0  0.00000000000E+00  0.00000000000E+00  0.77474012039E+03  0.14930028187E+04  0.12762582664E+04 0.  0.
        2    1    3    3  502    0  0.63455228682E+03 -0.49361829906E+02  0.33356310789E+03  0.71858022650E+03  0.25500000920E-02 0.  1.
       -2    1    3    3    0  502 -0.63455228682E+03  0.49361829906E+02  0.44117701249E+03  0.77442259221E+03  0.25500000920E-02 0. -1.
</event>
<event>
 5   0  0.9491680E-05  0.2389380E+04  0.7818609E-02  0.8443490E-01
       -2   -1    0    0    0  501  0.00000000000E+00  0.00000000000E+00  0.15118973165E+04  0.15118973165E+04  0.25500000920E-02 0. -1.
        2   -1    0    0  501    0  0.00000000000E+00  0.00000000000E+00 -0.94403536385E+03  0.94403536385E+03  0.25500000920E-02 0.  1.
    10030    2    1    2    0    0  0.00000000000E+00  0.00000000000E+00  0.56786195264E+03  0.24559326803E+04  0.23893802822E+04 0.  0.
        5    1    3    3  502    0 -0.79086327028E+03 -0.60837000051E+03  0.95925779148E+03  0.13841157359E+04  0.46999998093E+01 0. -1.
       -5    1    3    3    0  502  0.79086327028E+03  0.60837000051E+03 -0.39139583884E+03  0.10718169445E+04  0.46999998093E+01 0.  1.
</event>
<event>
 5   0  0.4208577E-05  0.1415625E+04  0.7818609E-02  0.8942586E-01
        1   -1    0    0  501    0  0.00000000000E+00  0.00000000000E+00  0.46541577333E+03  0.46541577336E+03  0.50400001928E-02 0.  1.
       -1   -1    0    0    0  501  0.00000000000E+00  0.00000000000E+00 -0.10764531334E+04  0.10764531335E+04  0.50400001928E-02 0. -1.
    10030    2    1    2    0    0  0.00000000000E+00  0.00000000000E+00 -0.61103736011E+03  0.15418689068E+04  0.14156246220E+04 0.  0.
        1    1    3    3  502    0 -0.59819424737E+03  0.18590302394E+03  0.53418301086E+02  0.62868895872E+03  0.50400001928E-02 0.  1.
       -1    1    3    3    0  502  0.59819424737E+03 -0.18590302394E+03 -0.66445566120E+03  0.91317994810E+03  0.50400001928E-02 0. -1.
</event>
<event>
 5   0  0.9750757E-05  0.2385791E+04  0.7818609E-02  0.8444842E-01
       -2   -1    0    0    0  501  0.00000000000E+00  0.00000000000E+00  0.10750720127E+04  0.10750720127E+04  0.25500000920E-02 0.  1.
        2   -1    0    0  501    0  0.00000000000E+00  0.00000000000E+00 -0.13236317124E+04  0.13236317124E+04  0.25500000920E-02 0. -1.
    10030    2    1    2    0    0  0.00000000000E+00  0.00000000000E+00 -0.24855969972E+03  0.23987037251E+04  0.23857907780E+04 0.  0.
        2    1    3    3  502    0 -0.11446795508E+03 -0.59828108522E+02 -0.13165807775E+04  0.13229010768E+04  0.25500000920E-02 0. -1.
       -2    1    3    3    0  502  0.11446795508E+03  0.59828108522E+02  0.10680210778E+04  0.10758026482E+04  0.25500000920E-02 0.  1.
</event>
<event>
 5   0  0.4018942E-05  0.2459963E+04  0.7818609E-02  0.8417389E-01
       -1   -1    0    0    0  501  0.00000000000E+00  0.00000000000E+00  0.12039861643E+04  0.12039861643E+04  0.50400001928E-02 0. -1.
        1   -1    0    0  501    0  0.00000000000E+00  0.00000000000E+00 -0.12565378485E+04  0.12565378485E+04  0.50400001928E-02 0.  1.
    10030    2    1    2    0    0  0.00000000000E+00  0.00000000000E+00 -0.52551684185E+02  0.24605240128E+04  0.24599627513E+04 0.  0.
        5    1    3    3  502    0  0.71360588002E+03 -0.69757260299E+03  0.69290921397E+03  0.12149017068E+04  0.46999998093E+01 0. -1.
       -5    1    3    3    0  502 -0.71360588002E+03  0.69757260299E+03 -0.74546089816E+03  0.12456223060E+04  0.46999998093E+01 0.  1.
</event>
<event>
 5   0  0.4061631E-05  0.1598097E+04  0.7818609E-02  0.8821718E-01
        1   -1    0    0  501    0  0.00000000000E+00  0.00000000000E+00  0.56462888409E+03  0.56462888411E+03  0.50400001928E-02 0.  1.
       -1   -1    0    0    0  501  0.00000000000E+00  0.00000000000E+00 -0.11307933562E+04  0.11307933563E+04  0.50400001928E-02 0. -1.
    10030    2    1    2    0    0  0.00000000000E+00  0.00000000000E+00 -0.56616447216E+03  0.16954222404E+04  0.15980971071E+04 0.  0.
        3    1    3    3  502    0  0.76762683385E+03 -0.11959818043E+02 -0.51812521512E+03  0.92620070290E+03  0.10100000352E+00 0.  1.
       -3    1    3    3    0  502 -0.76762683385E+03  0.11959818043E+02 -0.48039257035E+02  0.76922153748E+03  0.10100000352E+00 0. -1.
</event>
<event>
 5   0  0.9519092E-05  0.2648332E+04  0.7818609E-02  0.8351967E-01
       -2   -1    0    0    0  501  0.00000000000E+00  0.00000000000E+00  0.10088420381E+04  0.10088420381E+04  0.25500000920E-02 0. -1.
        2   -1    0    0  501    0  0.00000000000E+00  0.00000000000E+00 -0.17380474201E+04  0.17380474201E+04  0.25500000920E-02 0.  1.
    10030    2    1    2    0    0  0.00000000000E+00  0.00000000000E+00 -0.72920538196E+03  0.27468894582E+04  0.26483317781E+04 0.  0.
        4    1    3    3  502    0 -0.40296159172E+03  0.11024153714E+04 -0.10003706430E+04  0.15422194175E+04  0.12699999809E+01 0. -1.
       -4    1    3    3    0  502  0.40296159172E+03 -0.11024153714E+04  0.27116526101E+03  0.12046700408E+04  0.12699999809E+01 0.  1.
</event>
<event>
 5   0  0.4018942E-05  0.2490796E+04  0.7818609E-02  0.8406272E-01
        1   -1    0    0  501    0  0.00000000000E+00  0.00000000000E+00  0.99824532825E+03  0.99824532827E+03  0.50400001928E-02 0.  1.
       -1   -1    0    0    0  501  0.00000000000E+00  0.00000000000E+00 -0.15537425632E+04  0.15537425633E+04  0.50400001928E-02 0. -1.
    10030    2    1    2    0    0  0.00000000000E+00  0.00000000000E+00 -0.55549723499E+03  0.25519878915E+04  0.24907960616E+04 0.  0.
        5    1    3    3  502    0  0.30544417035E+03  0.13459414889E+03 -0.15070509600E+04  0.15435790916E+04  0.46999998093E+01 0. -1.
       -5    1    3    3    0  502 -0.30544417035E+03 -0.13459414889E+03  0.95155372500E+03  0.10084087999E+04  0.46999998093E+01 0.  1.
</event>
<event>
 5   0  0.4208577E-05  0.2348862E+04  0.7818609E-02  0.8458901E-01
        1   -1    0    0  501    0  0.00000000000E+00  0.00000000000E+00  0.12119822875E+04  0.12119822875E+04  0.50400001928E-02 0. -1.
       -1   -1    0    0    0  501  0.00000000000E+00  0.00000000000E+00 -0.11380429948E+04  0.11380429948E+04  0.50400001928E-02 0.  1.
    10030    2    1    2    0    0  0.00000000000E+00  0.00000000000E+00  0.73939292719E+02  0.23500252824E+04  0.23488618113E+04 0.  0.
        1    1    3    3  502    0  0.10265527166E+04 -0.35457669516E+03 -0.41018891289E+03  0.11609436063E+04  0.50400001928E-02 0.  1.
       -1    1    3    3    0  502 -0.10265527166E+04  0.35457669516E+03  0.48412820561E+03  0.11890816760E+04  0.50400001928E-02 0. -1.
</event>
<event>
 5   0  0.4018942E-05  0.2413345E+04  0.7818609E-02  0.8434524E-01
       -1   -1    0    0    0  501  0.00000000000E+00  0.00000000000E+00  0.12210474939E+04  0.12210474939E+04  0.50400001928E-02 0. -1.
        1   -1    0    0  501    0  0.00000000000E+00  0.00000000000E+00 -0.11924667570E+04  0.11924667570E+04  0.50400001928E-02 0.  1.
    10030    2    1    2    0    0  0.00000000000E+00  0.00000000000E+00  0.28580736942E+02  0.24135142509E+04  0.24133450190E+04 0.  0.
        5    1    3    3  502    0  0.14258347376E+02 -0.11184179885E+04 -0.43848231801E+03  0.12013954098E+04  0.46999998093E+01 0. -1.
       -5    1    3    3    0  502 -0.14258347376E+02  0.11184179885E+04  0.46706305495E+03  0.12121188411E+04  0.46999998093E+01 0.  1.
</event>
<event>
 5   0  0.9491680E-05  0.2402078E+04  0.7818609E-02  0.8438726E-01
        2   -1    0    0  501    0  0.00000000000E+00  0.00000000000E+00  0.16745068928E+04  0.16745068928E+04  0.25500000920E-02 0.  1.
       -2   -1    0    0    0  501  0.00000000000E+00  0.00000000000E+00 -0.86144476104E+03  0.86144476104E+03  0.25500000920E-02 0. -1.
    10030    2    1    2    0    0  0.00000000000E+00  0.00000000000E+00  0.81306213174E+03  0.25359516538E+04  0.24020784251E+04 0.  0.
        5    1    3    3  502    0 -0.10819916275E+04 -0.29919862404E+03 -0.44165718605E+02  0.11234760342E+04  0.46999998093E+01 0. -1.
       -5    1    3    3    0  502  0.10819916275E+04  0.29919862404E+03  0.85722785034E+03  0.14124756196E+04  0.46999998093E+01 0.  1.
</event>
<event>
 5   0  0.4208577E-05  0.2376500E+04  0.7818609E-02  0.8448354E-01
        1   -1    0    0  501    0  0.00000000000E+00  0.00000000000E+00  0.12231519840E+04  0.12231519840E+04  0.50400001928E-02 0.  1.
       -1   -1    0    0    0  501  0.00000000000E+00  0.00000000000E+00 -0.11543443845E+04  0.11543443845E+04  0.50400001928E-02 0. -1.
    10030    2    1    2    0    0  0.00000000000E+00  0.00000000000E+00  0.68807599502E+02  0.23774963684E+04  0.23765004726E+04 0.  0.
        1    1    3    3  502    0 -0.13216689097E+03 -0.80506413734E+03  0.89867686245E+03  0.12137612844E+04  0.50400001928E-02 0.  1.
       -1    1    3    3    0  502  0.13216689097E+03  0.80506413734E+03 -0.82986926295E+03  0.11637350841E+04  0.50400001928E-02 0. -1.
</event>
<event>
 5   0  0.3234750E-05  0.2394095E+04  0.7818609E-02  0.8441718E-01
        3   -1    0    0  501    0  0.00000000000E+00  0.00000000000E+00  0.24167414568E+04  0.24167414589E+04  0.10100000352E+00 0. -1.
       -3   -1    0    0    0  501  0.00000000000E+00  0.00000000000E+00 -0.59291517430E+03  0.59291518291E+03  0.10100000352E+00 0.  1.
    10030    2    1    2    0    0  0.00000000000E+00  0.00000000000E+00  0.18238262825E+04  0.30096566418E+04  0.23940949841E+04 0.  0.
        4    1    3    3  502    0 -0.60655377148E+03  0.15056948431E+02 -0.38528681047E+03  0.71873620238E+03  0.12699999809E+01 0.  1.
       -4    1    3    3    0  502  0.60655377148E+03 -0.15056948431E+02  0.22091130930E+04  0.22909204395E+04  0.12699999809E+01 0. -1.
</event>
<event>
 5   0  0.9491680E-05  0.2311755E+04  0.7818609E-02  0.8473301E-01
       -2   -1    0    0    0  501  0.00000000000E+00  0.00000000000E+00  0.10851228487E+04  0.10851228487E+04  0.25500000920E-02 0. -1.
        2   -1    0    0  501    0  0.00000000000E+00  0.00000000000E+00 -0.12312460858E+04  0.12312460858E+04  0.25500000920E-02 0.  1.
    10030    2    1    2    0    0  0.00000000000E+00  0.00000000000E+00 -0.14612323708E+03  0.23163689345E+04  0.23117554023E+04 0.  0.
        5    1    3    3  502    0 -0.90902017878E+03  0.62010015989E+01  0.64227841404E+03  0.11130587536E+04  0.46999998093E+01 0.  1.
       -5    1    3    3    0  502  0.90902017878E+03 -0.62010015989E+01 -0.78840165111E+03  0.12033101808E+04  0.46999998093E+01 0. -1.
</event>
<event>
 5   0  0.4018942E-05  0.2385776E+04  0.7818609E-02  0.8444848E-01
        1   -1    0    0  501    0  0.00000000000E+00  0.00000000000E+00  0.87831962377E+03  0.87831962378E+03  0.50400001928E-02 0. -1.
       -1   -1    0    0    0  501  0.00000000000E+00  0.00000000000E+00 -0.16201181735E+04  0.16201181736E+04  0.50400001928E-02 0.  1.
    10030    2    1    2    0    0  0.00000000000E+00  0.00000000000E+00 -0.74179854978E+03  0.24984377973E+04  0.23857758358E+04 0.  0.
        5    1    3    3  502    0  0.55795445414E+03 -0.99186038125E+03  0.35604182811E+01  0.11380399621E+04  0.46999998093E+01 0. -1.
       -5    1    3    3    0  502 -0.55795445414E+03  0.99186038125E+03 -0.74535896806E+03  0.13603978352E+04  0.46999998093E+01 0.  1.
</event>
<event>
 5   0  0.9519092E-05  0.2073264E+04  0.7818609E-02  0.8573113E-01
       -2   -1    0    0    0  501  0.00000000000E+00  0.00000000000E+00  0.13605492140E+04  0.13605492140E+04  0.25500000920E-02 0.  1.
        2   -1    0    0  501    0  0.00000000000E+00  0.00000000000E+00 -0.78983205913E+03  0.78983205913E+03  0.25500000920E-02 0. -1.
    10030    2    1    2    0    0  0.00000000000E+00  0.00000000000E+00  0.57071715484E+03  0.21503812731E+04  0.20732635020E+04 0.  0.
        4    1    3    3  502    0  0.52622112149E+02 -0.28750852934E+02  0.13587480702E+04  0.13600711854E+04  0.12699999809E+01 0.  1.
       -4    1    3    3    0  502 -0.52622112149E+02  0.28750852934E+02 -0.78803091536E+03  0.79031008768E+03  0.12699999809E+01 0. -1.
</event>
<event>
 5   0  0.4260395E-05  0.1770858E+04  0.7818609E-02  0.8721952E-01
        1   -1    0    0  501    0  0.00000000000E+00  0.00000000000E+00  0.15706575456E+04  0.15706575456E+04  0.50400001928E-02 0. -1.
       -1   -1    0    0    0  501  0.00000000000E+00  0.00000000000E+00 -0.49914440584E+03  0.49914440587E+03  0.50400001928E-02 0.  1.
    10030    2    1    2    0    0  0.00000000000E+00  0.00000000000E+00  0.10715131398E+04  0.20698019515E+04  0.17708584669E+04 0.  0.
        4    1    3    3  502    0 -0.76500139376E+02 -0.22451802652E+03 -0.46131859866E+03  0.51872639988E+03  0.12699999809E+01 0.  1.
       -4    1    3    3    0  502  0.76500139376E+02  0.22451802652E+03  0.15328317384E+04  0.15510755516E+04  0.12699999809E+01 0. -1.
</event>
<event>
 5   0  0.3934906E-05  0.1506439E+04  0.7818609E-02  0.8880183E-01
        1   -1    0    0  501    0  0.00000000000E+00  0.00000000000E+00  0.19904510332E+04  0.19904510332E+04  0.50400001928E-02 0. -1.
       -1   -1    0    0    0  501  0.00000000000E+00  0.00000000000E+00 -0.28503052815E+03  0.28503052820E+03  0.50400001928E-02 0.  1.
    10030    2    1    2    0    0  0.00000000000E+00  0.00000000000E+00  0.17054205050E+04  0.22754815614E+04  0.15064385939E+04 0.  0.
        2    1    3    3  502    0  0.11644982146E+03 -0.87246815118E+02 -0.26359896948E+03  0.30109298295E+03  0.25500000920E-02 0.  1.
       -2    1    3    3    0  502 -0.11644982146E+03  0.87246815118E+02  0.19690194745E+04  0.19743885784E+04  0.25500000920E-02 0. -1.
</event>
<event>
 5   0  0.4061631E-05  0.2010654E+04  0.7818609E-02  0.8601656E-01
        1   -1    0    0  501    0  0.00000000000E+00  0.00000000000E+00  0.12875198063E+04  0.12875198064E+04  0.50400001928E-02 0.  1.
       -1   -1    0    0    0  501  0.00000000000E+00  0.00000000000E+00 -0.78498408461E+03  0.78498408463E+03  0.50400001928E-02 0. -1.
    10030    2    1    2    0    0  0.00000000000E+00  0.00000000000E+00  0.50253572174E+03  0.20725038910E+04  0.20106541787E+04 0.  0.
        3    1    3    3  502    0 -0.25778565529E+03 -0.73284282071E+03 -0.40645983207E+03  0.87676772820E+03  0.10100000352E+00 0. -1.
       -3    1    3    3    0  502  0.25778565529E+03  0.73284282071E+03  0.90899555381E+03  0.11957361628E+04  0.10100000352E+00 0.  1.
</event>
<event>
 5   0  0.9182865E-05  0.2696805E+04  0.7818609E-02  0.8336042E-01
       -2   -1    0    0    0  501  0.00000000000E+00  0.00000000000E+00  0.14925500728E+04  0.14925500728E+04  0.25500000920E-02 0. -1.
        2   -1    0    0  501    0  0.00000000000E+00  0.00000000000E+00 -0.12181761921E+04  0.12181761921E+04  0.25500000920E-02 0.  1.
    10030    2    1    2    0    0  0.00000000000E+00  0.00000000000E+00  0.27437388066E+03  0.27107262649E+04  0.26968047495E+04 0.  0.
        3    1    3    3  502    0  0.57023305756E+01  0.74977526305E+02  0.14904409955E+04  0.14923365965E+04  0.10100000352E+00 0. -1.
       -3    1    3    3    0  502 -0.57023305756E+01 -0.74977526305E+02 -0.12160671148E+04  0.12183896684E+04  0.10100000352E+00 0.  1.
</event>
<event>
 5   0  0.3934906E-05  0.2450984E+04  0.7818609E-02  0.8420659E-01
        1   -1    0    0  501    0  0.00000000000E+00  0.00000000000E+00  0.16624494973E+04  0.16624494973E+04  0.50400001928E-02 0. -1.
       -1   -1    0    0    0  501  0.00000000000E+00  0.00000000000E+00 -0.90338446150E+03  0.90338446151E+03  0.50400001928E-02 0.  1.
    10030    2    1    2    0    0  0.00000000000E+00  0.00000000000E+00  0.75906503579E+03  0.25658339588E+04  0.24509843279E+04 0.  0.
        2    1    3    3  502    0  0.70309399101E+03 -0.65346298517E+03  0.11771233487E+04  0.15188727436E+04  0.25500000920E-02 0.  1.
       -2    1    3    3    0  502 -0.70309399101E+03  0.65346298517E+03 -0.41805831290E+03  0.10469612152E+04  0.25500000920E-02 0. -1.
</event>
<event>
 5   0  0.3934906E-05  0.2505801E+04  0.7818609E-02  0.8400922E-01
       -1   -1    0    0    0  501  0.00000000000E+00  0.00000000000E+00  0.75958327408E+03  0.75958327409E+03  0.50400001928E-02 0. -1.
        1   -1    0    0  501    0  0.00000000000E+00  0.00000000000E+00 -0.20666057038E+04  0.20666057038E+04  0.50400001928E-02 0.  1.
    10030    2    1    2    0    0  0.00000000000E+00  0.00000000000E+00 -0.13070224297E+04  0.28261889779E+04  0.25058005720E+04 0.  0.
        2    1    3    3  502    0 -0.51926667249E+03 -0.94893906408E+03 -0.13665069677E+04  0.17428323262E+04  0.25500000920E-02 0. -1.
       -2    1    3    3    0  502  0.51926667249E+03  0.94893906408E+03  0.59484537964E+02  0.10833566517E+04  0.25500000920E-02 0.  1.
</event>
<event>
 5   0  0.9491680E-05  0.2384973E+04  0.7818609E-02  0.8445151E-01
        2   -1    0    0  501    0  0.00000000000E+00  0.00000000000E+00  0.17127570233E+04  0.17127570233E+04  0.25500000920E-02 0. -1.
       -2   -1    0    0    0  501  0.00000000000E+00  0.00000000000E+00 -0.83025434769E+03  0.83025434770E+03  0.25500000920E-02 0.  1.
    10030    2    1    2    0    0  0.00000000000E+00  0.00000000000E+00  0.88250267562E+03  0.25430113710E+04  0.23849729266E+04 0.  0.
        5    1    3    3  502    0  0.22671532580E+03 -0.51052786792E+03  0.15646118785E+04  0.16613461298E+04  0.46999998093E+01 0. -1.
       -5    1    3    3    0  502 -0.22671532580E+03  0.51052786792E+03 -0.68210920285E+03  0.88166524117E+03  0.46999998093E+01 0.  1.
</event>
<event>
 5   0  0.9519092E-05  0.2259352E+04  0.7818609E-02  0.8494123E-01
       -2   -1    0    0    0  501  0.00000000000E+00  0.00000000000E+00  0.51526793760E+03  0.51526793761E+03  0.25500000920E-02 0.  1.
        2   -1    0    0  501    0  0.00000000000E+00  0.00000000000E+00 -0.24767081932E+04  0.24767081932E+04  0.25500000920E-02 0. -1.
    10030    2    1    2    0    0  0.00000000000E+00  0.00000000000E+00 -0.19614402556E+04  0.29919761308E+04  0.22593524052E+04 0.  0.
        4    1    3    3  502    0 -0.45251518466E+02  0.10845079461E+04 -0.56624171420E+03  0.12242697729E+04  0.12699999809E+01 0.  1.
       -4    1    3    3    0  502  0.45251518466E+02 -0.10845079461E+04 -0.13951985414E+04  0.17677063579E+04  0.12699999809E+01 0. -1.
</event>
<event>
 5   0  0.3934906E-05  0.2371512E+04  0.7818609E-02  0.8450247E-01
       -1   -1    0    0    0  501  0.00000000000E+00  0.00000000000E+00  0.72679695396E+03  0.72679695398E+03  0.50400001928E-02 0.  1.
        1   -1    0    0  501    0  0.00000000000E+00  0.00000000000E+00 -0.19345399257E+04  0.19345399257E+04  0.50400001928E-02 0. -1.
    10030    2    1    2    0    0  0.00000000000E+00  0.00000000000E+00 -0.12077429717E+04  0.26613368796E+04  0.23715123658E+04 0.  0.
        2    1    3    3  502    0  0.10043052235E+04  0.48400006122E+03 -0.15061403752E+03  0.11249753907E+04  0.25500000920E-02 0.  1.
       -2    1    3    3    0  502 -0.10043052235E+04 -0.48400006122E+03 -0.10571289342E+04  0.15363614890E+04  0.25500000920E-02 0. -1.
</event>
<event>
 5   0  0.4061631E-05  0.2243162E+04  0.7818609E-02  0.8500675E-01
       -1   -1    0    0    0  501  0.00000000000E+00  0.00000000000E+00  0.80300640350E+03  0.80300640352E+03  0.50400001928E-02 0. -1.
        1   -1    0    0  501    0  0.00000000000E+00  0.00000000000E+00 -0.15665431281E+04  0.15665431281E+04  0.50400001928E-02 0.  1.
    10030    2    1    2    0    0  0.00000000000E+00  0.00000000000E+00 -0.76353672455E+03  0.23695495316E+04  0.22431621994E+04 0.  0.
        3    1    3    3  502    0 -0.78041587485E+03  0.16578332399E+02  0.46897859934E+03  0.91063972880E+03  0.10100000352E+00 0. -1.
       -3    1    3    3    0  502  0.78041587485E+03 -0.16578332399E+02 -0.12325153239E+04  0.14589098028E+04  0.10100000352E+00 0.  1.
</event>
<event>
 5   0  0.4061631E-05  0.1687369E+04  0.7818609E-02  0.8768601E-01
       -1   -1    0    0    0  501  0.00000000000E+00  0.00000000000E+00  0.53173839837E+03  0.53173839839E+03  0.50400001928E-02 0. -1.
        1   -1    0    0  501    0  0.00000000000E+00  0.00000000000E+00 -0.13386341741E+04  0.13386341741E+04  0.50400001928E-02 0.  1.
    10030    2    1    2    0    0  0.00000000000E+00  0.00000000000E+00 -0.80689577575E+03  0.18703725725E+04  0.16873685925E+04 0.  0.
        3    1    3    3  502    0 -0.30881801505E+03  0.74465829421E+03 -0.12762590991E+03  0.81619417091E+03  0.10100000352E+00 0. -1.
       -3    1    3    3    0  502  0.30881801505E+03 -0.74465829421E+03 -0.67926986584E+03  0.10541784016E+04  0.10100000352E+00 0.  1.
</event>
<event>
 5   0  0.9750757E-05  0.2339864E+04  0.7818609E-02  0.8462367E-01
        2   -1    0    0  501    0  0.00000000000E+00  0.00000000000E+00  0.12183825012E+04  0.12183825012E+04  0.25500000920E-02 0. -1.
       -2   -1    0    0    0  501  0.00000000000E+00  0.00000000000E+00 -0.11234085532E+04  0.11234085532E+04  0.25500000920E-02 0.  1.
    10030    2    1    2    0    0  0.00000000000E+00  0.00000000000E+00  0.94973948040E+02  0.23417910544E+04  0.23398643746E+04 0.  0.
        2    1    3    3  502    0  0.28392222688E+03  0.40831230980E+03 -0.10123517320E+04  0.11279125864E+04  0.25500000920E-02 0.  1.
       -2    1    3    3    0  502 -0.28392222688E+03 -0.40831230980E+03  0.11073256801E+04  0.12138784680E+04  0.25500000920E-02 0. -1.
</event>
<event>
 5   0  0.4208577E-05  0.2347396E+04  0.7818609E-02  0.8459464E-01
        1   -1    0    0  501    0  0.00000000000E+00  0.00000000000E+00  0.94915381374E+03  0.94915381375E+03  0.50400001928E-02 0.  1.
       -1   -1    0    0    0  501  0.00000000000E+00  0.00000000000E+00 -0.14513636210E+04  0.14513636210E+04  0.50400001928E-02 0. -1.
    10030    2    1    2    0    0  0.00000000000E+00  0.00000000000E+00 -0.50220980723E+03  0.24005174347E+04  0.23473962733E+04 0.  0.
        1    1    3    3  502    0 -0.22071222611E+03  0.49171500733E+03 -0.13173257398E+04  0.14233216924E+04  0.50400001928E-02 0. -1.
       -1    1    3    3    0  502  0.22071222611E+03 -0.49171500733E+03  0.81511593261E+03  0.97719574232E+03  0.50400001928E-02 0.  1.
</event>
<event>
 5   0  0.9491680E-05  0.2414498E+04  0.7818609E-02  0.8434095E-01
       -2   -1    0    0    0  501  0.00000000000E+00  0.00000000000E+00  0.11441927036E+04  0.11441927036E+04  0.25500000920E-02 0. -1.
        2   -1    0    0  501    0  0.00000000000E+00  0.00000000000E+00 -0.12737806914E+04  0.12737806914E+04  0.25500000920E-02 0.  1.
    10030    2    1    2    0    0  0.00000000000E+00  0.00000000000E+00 -0.12958798784E+03  0.24179733950E+04  0.24144983521E+04 0.  0.
        5    1    3    3  502    0 -0.17816004593E+03  0.90129888724E+02  0.11275345895E+04  0.11450854725E+04  0.46999998093E+01 0. -1.
       -5    1    3    3    0  502  0.17816004593E+03 -0.90129888724E+02 -0.12571225773E+04  0.12728879225E+04  0.46999998093E+01 0.  1.
</event>
<event>
 5   0  0.4061631E-05  0.2360115E+04  0.7818609E-02  0.8454589E-01
        1   -1    0    0  501    0  0.00000000000E+00  0.00000000000E+00  0.16636162770E+04  0.16636162771E+04  0.50400001928E-02 0.  1.
       -1   -1    0    0    0  501  0.00000000000E+00  0.00000000000E+00 -0.83705343832E+03  0.83705343834E+03  0.50400001928E-02 0. -1.
    10030    2    1    2    0    0  0.00000000000E+00  0.00000000000E+00  0.82656283872E+03  0.25006697154E+04  0.23601150182E+04 0.  0.
        3    1    3    3  502    0  0.10027747087E+03 -0.10935384494E+03  0.16536939727E+04  0.16603365924E+04  0.10100000352E+00 0.  1.
       -3    1    3    3    0  502 -0.10027747087E+03  0.10935384494E+03 -0.82713113398E+03  0.84033312297E+03  0.10100000352E+00 0. -1.
</event>
<event>
 5   0  0.9750757E-05  0.2384488E+04  0.7818609E-02  0.8445334E-01
        2   -1    0    0  501    0  0.00000000000E+00  0.00000000000E+00  0.12521684640E+04  0.12521684640E+04  0.25500000920E-02 0. -1.
       -2   -1    0    0    0  501  0.00000000000E+00  0.00000000000E+00 -0.11351877722E+04  0.11351877722E+04  0.25500000920E-02 0.  1.
    10030    2    1    2    0    0  0.00000000000E+00  0.00000000000E+00  0.11698069189E+03  0.23873562362E+04  0.23844884810E+04 0.  0.
        2    1    3    3  502    0  0.29586357127E+03 -0.46859158759E+02 -0.10968972308E+04  0.11370640125E+04  0.25500000920E-02 0.  1.
       -2    1    3    3    0  502 -0.29586357127E+03  0.46859158759E+02  0.12138779227E+04  0.12502922237E+04  0.25500000920E-02 0. -1.
</event>
<event>
 5   0  0.9491680E-05  0.2244740E+04  0.7818609E-02  0.8500034E-01
        2   -1    0    0  501    0  0.00000000000E+00  0.00000000000E+00  0.19080735172E+04  0.19080735173E+04  0.25500000920E-02 0.  1.
       -2   -1    0    0    0  501  0.00000000000E+00  0.00000000000E+00 -0.66020241375E+03  0.66020241375E+03  0.25500000920E-02 0. -1.
    10030    2    1    2    0    0  0.00000000000E+00  0.00000000000E+00  0.12478711035E+04  0.25682759310E+04  0.22447402894E+04 0.  0.
        5    1    3    3  502    0 -0.89436369870E+03 -0.67442699717E+03  0.70446845903E+03  0.13232672065E+04  0.46999998093E+01 0. -1.
       -5    1    3    3    0  502  0.89436369870E+03  0.67442699717E+03  0.54340264447E+03  0.12450087245E+04  0.46999998093E+01 0.  1.
</event>
<event>
 5   0  0.4208577E-05  0.2382274E+04  0.7818609E-02  0.8446170E-01
        1   -1    0    0  501    0  0.00000000000E+00  0.00000000000E+00  0.55821790266E+03  0.55821790268E+03  0.50400001928E-02 0. -1.
       -1   -1    0    0    0  501  0.00000000000E+00  0.00000000000E+00 -0.25416730236E+04  0.25416730236E+04  0.50400001928E-02 0.  1.
    10030    2    1    2    0    0  0.00000000000E+00  0.00000000000E+00 -0.19834551209E+04  0.30998909263E+04  0.23822740266E+04 0.  0.
        1    1    3    3  502    0  0.79170403100E+03  0.36630250698E+03 -0.20471177391E+04  0.22252334343E+04  0.50400001928E-02 0.  1.
       -1    1    3    3    0  502 -0.79170403100E+03 -0.36630250698E+03  0.63662618167E+02  0.87465749199E+03  0.50400001928E-02 0. -1.
</event>
<event>
 5   0  0.4260395E-05  0.2440710E+04  0.7818609E-02  0.8424418E-01
        1   -1    0    0  501    0  0.00000000000E+00  0.00000000000E+00  0.15931205076E+04  0.15931205076E+04  0.50400001928E-02 0.  1.
       -1   -1    0    0    0  501  0.00000000000E+00  0.00000000000E+00 -0.93481118942E+03  0.93481118943E+03  0.50400001928E-02 0. -1.
    10030    2    1    2    0    0  0.00000000000E+00  0.00000000000E+00  0.65830931818E+03  0.25279316970E+04  0.24407104512E+04 0.  0.
        4    1    3    3  502    0 -0.25657532504E+02 -0.57166552323E+03 -0.78723495036E+03  0.97324213811E+03  0.12699999809E+01 0. -1.
       -4    1    3    3    0  502  0.25657532504E+02  0.57166552323E+03  0.14455442685E+04  0.15546895589E+04  0.12699999809E+01 0.  1.
</event>
<event>
 5   0  0.9182865E-05  0.2518963E+04  0.7818609E-02  0.8396261E-01
        2   -1    0    0  501    0  0.00000000000E+00  0.00000000000E+00  0.17402669218E+04  0.17402669218E+04  0.25500000920E-02 0. -1.
       -2   -1    0    0    0  501  0.00000000000E+00  0.00000000000E+00 -0.91152315695E+03  0.91152315696E+03  0.25500000920E-02 0.  1.
    10030    2    1    2    0    0  0.00000000000E+00  0.00000000000E+00  0.82874376481E+03  0.26517900787E+04  0.25189629600E+04 0.  0.
        3    1    3    3  502    0 -0.24492882989E+03 -0.69226675494E+03  0.14915939932E+04  0.16625510646E+04  0.10100000352E+00 0. -1.
       -3    1    3    3    0  502  0.24492882989E+03  0.69226675494E+03 -0.66285022834E+03  0.98923901415E+03  0.10100000352E+00 0.  1.
</event>
<event>
 5   0  0.4018942E-05  0.1941945E+04  0.7818609E-02  0.8634255E-01
       -1   -1    0    0    0  501  0.00000000000E+00  0.00000000000E+00  0.10793488385E+04  0.10793488385E+04  0.50400001928E-02 0. -1.
        1   -1    0    0  501    0  0.00000000000E+00  0.00000000000E+00 -0.87347807893E+03  0.87347807894E+03  0.50400001928E-02 0.  1.
    10030    2    1    2    0    0  0.00000000000E+00  0.00000000000E+00  0.20587075955E+03  0.19528269174E+04  0.19419449528E+04 0.  0.
        5    1    3    3  502    0 -0.41137450180E+03 -0.83294572666E+03  0.38689672354E+03  0.10063492083E+04  0.46999998093E+01 0. -1.
       -5    1    3    3    0  502  0.41137450180E+03  0.83294572666E+03 -0.18102596400E+03  0.94647770916E+03  0.46999998093E+01 0.  1.
</event>
<event>
 5   0  0.9144244E-05  0.2409707E+04  0.7818609E-02  0.8435878E-01
       -2   -1    0    0    0  501  0.00000000000E+00  0.00000000000E+00  0.11505481276E+04  0.11505481276E+04  0.25500000920E-02 0.  1.
        2   -1    0    0  501    0  0.00000000000E+00  0.00000000000E+00 -0.12617218986E+04  0.12617218986E+04  0.25500000920E-02 0. -1.
    10030    2    1    2    0    0  0.00000000000E+00  0.00000000000E+00 -0.11117377104E+03  0.24122700262E+04  0.24097068435E+04 0.  0.
        1    1    3    3  502    0 -0.24562860472E+03  0.51051703492E+03  0.10088930089E+04  0.11570765566E+04  0.50400001928E-02 0.  1.
       -1    1    3    3    0  502  0.24562860472E+03 -0.51051703492E+03 -0.11200667800E+04  0.12551934695E+04  0.50400001928E-02 0. -1.
</event>
<event>
 5   0  0.4208577E-05  0.1950649E+04  0.7818609E-02  0.8630048E-01
       -1   -1    0    0    0  501  0.00000000000E+00  0.00000000000E+00  0.58109106801E+03  0.58109106803E+03  0.50400001928E-02 0. -1.
        1   -1    0    0  501    0  0.00000000000E+00  0.00000000000E+00 -0.16370202423E+04  0.16370202423E+04  0.50400001928E-02 0.  1.
    10030    2    1    2    0    0  0.00000000000E+00  0.00000000000E+00 -0.10559291743E+04  0.22181113103E+04  0.19506489597E+04 0.  0.
        1    1    3    3  502    0 -0.41098082443E+03  0.19008389614E+03 -0.15102503883E+04  0.15766716085E+04  0.50400001928E-02 0.  1.
       -1    1    3    3    0  502  0.41098082443E+03 -0.19008389614E+03  0.45432121399E+03  0.64143970187E+03  0.50400001928E-02 0. -1.
</event>
<event>
 5   0  0.9750757E-05  0.1288648E+04  0.7818609E-02  0.9038616E-01
        2   -1    0    0  501    0  0.00000000000E+00  0.00000000000E+00  0.52884328038E+03  0.52884328039E+03  0.25500000920E-02 0.  1.
       -2   -1    0    0    0  501  0.00000000000E+00  0.00000000000E+00 -0.78502120183E+03  0.78502120184E+03  0.25500000920E-02 0. -1.
    10030    2    1    2    0    0  0.00000000000E+00  0.00000000000E+00 -0.25617792145E+03  0.13138644822E+04  0.12886476439E+04 0.  0.
        2    1    3    3  502    0  0.38632386774E+03 -0.49366964047E+03 -0.27999214690E+03  0.68655039658E+03  0.25500000920E-02 0.  1.
       -2    1    3    3    0  502 -0.38632386774E+03  0.49366964047E+03  0.23814225446E+02  0.62731408565E+03  0.25500000920E-02 0. -1.
</event>
<event>
 5   0  0.4061631E-05  0.2205964E+04  0.7818609E-02  0.8515950E-01
        1   -1    0    0  501    0  0.00000000000E+00  0.00000000000E+00  0.11429483258E+04  0.11429483259E+04  0.50400001928E-02 0.  1.
       -1   -1    0    0    0  501  0.00000000000E+00  0.00000000000E+00 -0.10644132077E+04  0.10644132077E+04  0.50400001928E-02 0. -1.
    10030    2    1    2    0    0  0.00000000000E+00  0.00000000000E+00  0.78535118156E+02  0.22073615336E+04  0.22059640013E+04 0.  0.
        3    1    3    3  502    0 -0.86179053435E+03  0.41996123532E+03  0.58506606562E+03  0.11230995840E+04  0.10100000352E+00 0.  1.
       -3    1    3    3    0  502  0.86179053435E+03 -0.41996123532E+03 -0.50653094747E+03  0.10842619495E+04  0.10100000352E+00 0. -1.
</event>
<event>
 5   0  0.9519092E-05  0.2299144E+04  0.7818609E-02  0.8478259E-01
        2   -1    0    0  501    0  0.00000000000E+00  0.00000000000E+00  0.18067773696E+04  0.18067773696E+04  0.25500000920E-02 0.  1.
       -2   -1    0    0    0  501  0.00000000000E+00  0.00000000000E+00 -0.73142169929E+03  0.73142169930E+03  0.25500000920E-02 0. -1.
    10030    2    1    2    0    0  0.00000000000E+00  0.00000000000E+00  0.10753556703E+04  0.25381990688E+04  0.22991443399E+04 0.  0.
        4    1    3    3  502    0 -0.99794039662E+03 -0.55807616216E+03  0.40621422090E+03  0.12134025071E+04  0.12699999809E+01 0.  1.
       -4    1    3    3    0  502  0.99794039662E+03  0.55807616216E+03  0.66914144936E+03  0.13247965618E+04  0.12699999809E+01 0. -1.
</event>
<event>
 5   0  0.9144244E-05  0.2359535E+04  0.7818609E-02  0.8454810E-01
       -2   -1    0    0    0  501  0.00000000000E+00  0.00000000000E+00  0.17552945209E+04  0.17552945209E+04  0.25500000920E-02 0. -1.
        2   -1    0    0  501    0  0.00000000000E+00  0.00000000000E+00 -0.79294482728E+03  0.79294482729E+03  0.25500000920E-02 0.  1.
    10030    2    1    2    0    0  0.00000000000E+00  0.00000000000E+00  0.96234969357E+03  0.25482393481E+04  0.23595353023E+04 0.  0.
        1    1    3    3  502    0 -0.70173696751E+03 -0.94837326606E+03  0.48361073941E+03  0.12750395957E+04  0.50400001928E-02 0. -1.
       -1    1    3    3    0  502  0.70173696751E+03  0.94837326606E+03  0.47873895417E+03  0.12731997524E+04  0.50400001928E-02 0.  1.
</event>
<event>
 5   0  0.4061631E-05  0.2421053E+04  0.7818609E-02  0.8431663E-01
        1   -1    0    0  501    0  0.00000000000E+00  0.00000000000E+00  0.78086672966E+03  0.78086672968E+03  0.50400001928E-02 0.  1.
       -1   -1    0    0    0  501  0.00000000000E+00  0.00000000000E+00 -0.18766003684E+04  0.18766003684E+04  0.50400001928E-02 0. -1.
    10030    2    1    2    0    0  0.00000000000E+00  0.00000000000E+00 -0.10957336387E+04  0.26574670980E+04  0.24210533183E+04 0.  0.
        3    1    3    3  502    0  0.41010261518E+03 -0.87731390869E+03  0.24935518059E+03  0.10000209326E+04  0.10100000352E+00 0.  1.
       -3    1    3    3    0  502 -0.41010261518E+03  0.87731390869E+03 -0.13450888193E+04  0.16574461654E+04  0.10100000352E+00 0. -1.
</event>
<event>
 5   0  0.4018942E-05  0.2390810E+04  0.7818609E-02  0.8442952E-01
        1   -1    0    0  501    0  0.00000000000E+00  0.00000000000E+00  0.14242444323E+04  0.14242444324E+04  0.50400001928E-02 0.  1.
       -1   -1    0    0    0  501  0.00000000000E+00  0.00000000000E+00 -0.10033341904E+04  0.10033341905E+04  0.50400001928E-02 0. -1.
    10030    2    1    2    0    0  0.00000000000E+00  0.00000000000E+00  0.42091024190E+03  0.24275786228E+04  0.23908100172E+04 0.  0.
        5    1    3    3  502    0 -0.48794217991E+03 -0.50148198599E+03 -0.77367687502E+03  0.10431537519E+04  0.46999998093E+01 0. -1.
       -5    1    3    3    0  502  0.48794217991E+03  0.50148198599E+03  0.11945871169E+04  0.13844248709E+04  0.46999998093E+01 0.  1.
</event>
<event>
 5   0  0.4061631E-05  0.2370356E+04  0.7818609E-02  0.8450686E-01
       -1   -1    0    0    0  501  0.00000000000E+00  0.00000000000E+00  0.12755741145E+04  0.12755741145E+04  0.50400001928E-02 0.  1.
        1   -1    0    0  501    0  0.00000000000E+00  0.00000000000E+00 -0.11011876691E+04  0.11011876691E+04  0.50400001928E-02 0. -1.
    10030    2    1    2    0    0  0.00000000000E+00  0.00000000000E+00  0.17438644537E+03  0.23767617836E+04  0.23703556576E+04 0.  0.
        3    1    3    3  502    0  0.90604534754E+03 -0.38561730232E+03 -0.57415554287E+03  0.11398567775E+04  0.10100000352E+00 0. -1.
       -3    1    3    3    0  502 -0.90604534754E+03  0.38561730232E+03  0.74854198825E+03  0.12369050061E+04  0.10100000352E+00 0.  1.
</event>
<event>
 5   0  0.3234750E-05  0.2343446E+04  0.7818609E-02  0.8460985E-01
       -3   -1    0    0    0  501  0.00000000000E+00  0.00000000000E+00  0.69055025640E+03  0.69055026379E+03  0.10100000352E+00 0. -1.
        3   -1    0    0  501    0  0.00000000000E+00  0.00000000000E+00 -0.19881749038E+04  0.19881749063E+04  0.10100000352E+00 0.  1.
    10030    2    1    2    0    0  0.00000000000E+00  0.00000000000E+00 -0.12976246474E+04  0.26787251701E+04  0.23434459267E+04 0.  0.
        2    1    3    3  502    0 -0.80622497831E+03 -0.25950567330E+02 -0.16202630371E+04  0.18099515068E+04  0.25500000920E-02 0.  1.
       -2    1    3    3    0  502  0.80622497831E+03  0.25950567330E+02  0.32263838970E+03  0.86877366334E+03  0.25500000920E-02 0. -1.
</event>
<event>
 5   0  0.9750757E-05  0.2031494E+04  0.7818609E-02  0.8592036E-01
        2   -1    0    0  501    0  0.00000000000E+00  0.00000000000E+00  0.22725248087E+04  0.22725248087E+04  0.25500000920E-02 0. -1.
       -2   -1    0    0    0  501  0.00000000000E+00  0.00000000000E+00 -0.45400679608E+03  0.45400679609E+03  0.25500000920E-02 0.  1.
    10030    2    1    2    0    0  0.00000000000E+00  0.00000000000E+00  0.18185180127E+04  0.27265316048E+04  0.20314937435E+04 0.  0.
        2    1    3    3  502    0  0.28884287388E+03  0.84034579005E+03  0.15696783055E+04  0.18037464443E+04  0.25500000920E-02 0. -1.
       -2    1    3    3    0  502 -0.28884287388E+03 -0.84034579005E+03  0.24883970721E+03  0.92278516055E+03  0.25500000920E-02 0.  1.
</event>
<event>
 5   0  0.4061631E-05  0.2550081E+04  0.7818609E-02  0.8385358E-01
        1   -1    0    0  501    0  0.00000000000E+00  0.00000000000E+00  0.20876061121E+04  0.20876061121E+04  0.50400001928E-02 0. -1.
       -1   -1    0    0    0  501  0.00000000000E+00  0.00000000000E+00 -0.77875260499E+03  0.77875260500E+03  0.50400001928E-02 0.  1.
    10030    2    1    2    0    0  0.00000000000E+00  0.00000000000E+00  0.13088535071E+04  0.28663587171E+04  0.25500813305E+04 0.  0.
        3    1    3    3  502    0  0.53728082047E+03  0.58905505564E+03 -0.46400613776E+03  0.92247398050E+03  0.10100000352E+00 0.  1.
       -3    1    3    3    0  502 -0.53728082047E+03 -0.58905505564E+03  0.17728596448E+04  0.19438847366E+04  0.10100000352E+00 0. -1.
</event>
<event>
 5   0  0.9144244E-05  0.2299177E+04  0.7818609E-02  0.8478246E-01
       -2   -1    0    0    0  501  0.00000000000E+00  0.00000000000E+00  0.10832978336E+04  0.10832978336E+04  0.25500000920E-02 0.  1.
        2   -1    0    0  501    0  0.00000000000E+00  0.00000000000E+00 -0.12199357842E+04  0.12199357842E+04  0.25500000920E-02 0. -1.
    10030    2    1    2    0    0  0.00000000000E+00  0.00000000000E+00 -0.13663795060E+03  0.23032336178E+04  0.22991770633E+04 0.  0.
        1    1    3    3  502    0 -0.71287490194E+02  0.10434438505E+03 -0.12129565667E+04  0.12195217463E+04  0.50400001928E-02 0. -1.
       -1    1    3    3    0  502  0.71287490194E+02 -0.10434438505E+03  0.10763186161E+04  0.10837118715E+04  0.50400001928E-02 0.  1.
</event>
<event>
 5   0  0.9519092E-05  0.2375066E+04  0.7818609E-02  0.8448898E-01
        2   -1    0    0  501    0  0.00000000000E+00  0.00000000000E+00  0.10997742622E+04  0.10997742622E+04  0.25500000920E-02 0. -1.
       -2   -1    0    0    0  501  0.00000000000E+00  0.00000000000E+00 -0.12822951020E+04  0.12822951020E+04  0.25500000920E-02 0.  1.
    10030    2    1    2    0    0  0.00000000000E+00  0.00000000000E+00 -0.18252083981E+03  0.23820693642E+04  0.23750664409E+04 0.  0.
        4    1    3    3  502    0 -0.14793072797E+03 -0.11032762485E+04 -0.50616066376E+03  0.12228255032E+04  0.12699999809E+01 0.  1.
       -4    1    3    3    0  502  0.14793072797E+03  0.11032762485E+04  0.32363982395E+03  0.11592438610E+04  0.12699999809E+01 0. -1.
</event>
<event>
 5   0  0.4018942E-05  0.2260467E+04  0.7818609E-02  0.8493673E-01
        1   -1    0    0  501    0  0.00000000000E+00  0.00000000000E+00  0.93069907557E+03  0.93069907559E+03  0.50400001928E-02 0.  1.
       -1   -1    0    0    0  501  0.00000000000E+00  0.00000000000E+00 -0.13725467317E+04  0.13725467317E+04  0.50400001928E-02 0. -1.
    10030    2    1    2    0    0  0.00000000000E+00  0.00000000000E+00 -0.44184765614E+03  0.23032458073E+04  0.22604671857E+04 0.  0.
        5    1    3    3  502    0 -0.27367292981E+03  0.28138450397E+03 -0.13008550662E+04  0.13587936211E+04  0.46999998093E+01 0. -1.
       -5    1    3    3    0  502  0.27367292981E+03 -0.28138450397E+03  0.85900741002E+03  0.94445218621E+03  0.46999998093E+01 0.  1.
</event>
<event>
 5   0  0.9182865E-05  0.2332781E+04  0.7818609E-02  0.8465107E-01
        2   -1    0    0  501    0  0.00000000000E+00  0.00000000000E+00  0.98531260105E+03  0.98531260105E+03  0.25500000920E-02 0. -1.
       -2   -1    0    0    0  501  0.00000000000E+00  0.00000000000E+00 -0.13807459338E+04  0.13807459338E+04  0.25500000920E-02 0.  1.
    10030    2    1    2    0    0  0.00000000000E+00  0.00000000000E+00 -0.39543333277E+03  0.23660585349E+04  0.23327806304E+04 0.  0.
        3    1    3    3  502    0  0.89424229113E+03  0.24646384192E+03  0.51951499613E+03  0.10631601676E+04  0.10100000352E+00 0. -1.
       -3    1    3    3    0  502 -0.89424229113E+03 -0.24646384192E+03 -0.91494832890E+03  0.13028983672E+04  0.10100000352E+00 0.  1.
</event>
<event>
 5   0  0.9182865E-05  0.2399634E+04  0.7818609E-02  0.8439641E-01
       -2   -1    0    0    0  501  0.00000000000E+00  0.00000000000E+00  0.10328943924E+04  0.10328943924E+04  0.25500000920E-02 0.  1.
        2   -1    0    0  501    0  0.00000000000E+00  0.00000000000E+00 -0.13937153974E+04  0.13937153974E+04  0.25500000920E-02 0. -1.
    10030    2    1    2    0    0  0.00000000000E+00  0.00000000000E+00 -0.36082100505E+03  0.24266097898E+04  0.23996339876E+04 0.  0.
        3    1    3    3  502    0 -0.14195538962E+03  0.10971466675E+04 -0.65004342563E+03  0.12831362390E+04  0.10100000352E+00 0. -1.
       -3    1    3    3    0  502  0.14195538962E+03 -0.10971466675E+04  0.28922242058E+03  0.11434735508E+04  0.10100000352E+00 0.  1.
</event>
<event>
 5   0  0.3934906E-05  0.2379158E+04  0.7818609E-02  0.8447348E-01
        1   -1    0    0  501    0  0.00000000000E+00  0.00000000000E+00  0.10021228035E+04  0.10021228035E+04  0.50400001928E-02 0.  1.
       -1   -1    0    0    0  501  0.00000000000E+00  0.00000000000E+00 -0.14121001076E+04  0.14121001076E+04  0.50400001928E-02 0. -1.
    10030    2    1    2    0    0  0.00000000000E+00  0.00000000000E+00 -0.40997730405E+03  0.24142229111E+04  0.23791575977E+04 0.  0.
        2    1    3    3  502    0  0.90809344076E+03 -0.45852144182E+03 -0.83069828223E+03  0.13133679019E+04  0.25500000920E-02 0. -1.
       -2    1    3    3    0  502 -0.90809344076E+03  0.45852144182E+03  0.42072097818E+03  0.11008550092E+04  0.25500000920E-02 0.  1.
</event>
<event>
 5   0  0.4018942E-05  0.2439553E+04  0.7818609E-02  0.8424842E-01
        1   -1    0    0  501    0  0.00000000000E+00  0.00000000000E+00  0.14156552285E+04  0.14156552285E+04  0.50400001928E-02 0.  1.
       -1   -1    0    0    0  501  0.00000000000E+00  0.00000000000E+00 -0.10510009636E+04  0.10510009636E+04  0.50400001928E-02 0. -1.
    10030    2    1    2    0    0  0.00000000000E+00  0.00000000000E+00  0.36465426495E+03  0.24666561921E+04  0.24395532454E+04 0.  0.
        5    1    3    3  502    0  0.13371848211E+03 -0.12095352752E+04  0.97872496163E+02  0.12208428768E+04  0.46999998093E+01 0. -1.
       -5    1    3    3    0  502 -0.13371848211E+03  0.12095352752E+04  0.26678176879E+03  0.12458133153E+04  0.46999998093E+01 0.  1.
</event>
<event>
 5   0  0.4208577E-05  0.2292978E+04  0.7818609E-02  0.8480695E-01
        1   -1    0    0  501    0  0.00000000000E+00  0.00000000000E+00  0.15666972620E+04  0.15666972620E+04  0.50400001928E-02 0.  1.
       -1   -1    0    0    0  501  0.00000000000E+00  0.00000000000E+00 -0.83898592316E+03  0.83898592318E+03  0.50400001928E-02 0. -1.
    10030    2    1    2    0    0  0.00000000000E+00  0.00000000000E+00  0.72771133879E+03  0.24056831851E+04  0.22929779316E+04 0.  0.
        1    1    3    3  502    0  0.69342035632E+03 -0.15199216673E+03 -0.58067489406E+03  0.91712416930E+03  0.50400001928E-02 0. -1.
       -1    1    3    3    0  502 -0.69342035632E+03  0.15199216673E+03  0.13083862328E+04  0.14885590158E+04  0.50400001928E-02 0.  1.
</event>
<event>
 5   0  0.9491680E-05  0.2382066E+04  0.7818609E-02  0.8446249E-01
        2   -1    0    0  501    0  0.00000000000E+00  0.00000000000E+00  0.10750875018E+04  0.10750875018E+04  0.25500000920E-02 0.  1.
       -2   -1    0    0    0  501  0.00000000000E+00  0.00000000000E+00 -0.13194823765E+04  0.13194823765E+04  0.25500000920E-02 0. -1.
    10030    2    1    2    0    0  0.00000000000E+00  0.00000000000E+00 -0.24439487477E+03  0.23945698783E+04  0.23820655002E+04 0.  0.
        5    1    3    3  502    0 -0.11408319834E+04  0.34075281546E+03 -0.91593806530E+02  0.11941614677E+04  0.46999998093E+01 0.  1.
       -5    1    3    3    0  502  0.11408319834E+04 -0.34075281546E+03 -0.15280106824E+03  0.12004084105E+04  0.46999998093E+01 0. -1.
</event>
<event>
 5   0  0.9182865E-05  0.1275092E+04  0.7818609E-02  0.9049554E-01
        2   -1    0    0  501    0  0.00000000000E+00  0.00000000000E+00  0.94259121732E+03  0.94259121732E+03  0.25500000920E-02 0.  1.
       -2   -1    0    0    0  501  0.00000000000E+00  0.00000000000E+00 -0.43122100142E+03  0.43122100142E+03  0.25500000920E-02 0. -1.
    10030    2    1    2    0    0  0.00000000000E+00  0.00000000000E+00  0.51137021590E+03  0.13738122187E+04  0.12750923553E+04 0.  0.
        3    1    3    3  502    0  0.97078524850E+02  0.12810290989E+03 -0.40903304397E+03  0.43947996173E+03  0.10100000352E+00 0. -1.
       -3    1    3    3    0  502 -0.97078524850E+02 -0.12810290989E+03  0.92040325987E+03  0.93433225701E+03  0.10100000352E+00 0.  1.
</event>
<event>
 5   0  0.9519092E-05  0.2299695E+04  0.7818609E-02  0.8478041E-01
        2   -1    0    0  501    0  0.00000000000E+00  0.00000000000E+00  0.17052884674E+04  0.17052884674E+04  0.25500000920E-02 0.  1.
       -2   -1    0    0    0  501  0.00000000000E+00  0.00000000000E+00 -0.77532307687E+03  0.77532307688E+03  0.25500000920E-02 0. -1.
    10030    2    1    2    0    0  0.00000000000E+00  0.00000000000E+00  0.92996539052E+03  0.24806115443E+04  0.22996951985E+04 0.  0.
        4    1    3    3  502    0 -0.57749894140E+03 -0.95261012946E+03  0.15765305153E+03  0.11250898558E+04  0.12699999809E+01 0. -1.
       -4    1    3    3    0  502  0.57749894140E+03  0.95261012946E+03  0.77231233900E+03  0.13555216885E+04  0.12699999809E+01 0.  1.
</event>
<event>
 5   0  0.9182865E-05  0.2406455E+04  0.7818609E-02  0.8437091E-01
       -2   -1    0    0    0  501  0.00000000000E+00  0.00000000000E+00  0.62064268909E+03  0.62064268909E+03  0.25500000920E-02 0.  1.
        2   -1    0    0  501    0  0.00000000000E+00  0.00000000000E+00 -0.23326735009E+04  0.23326735009E+04  0.25500000920E-02 0. -1.
    10030    2    1    2    0    0  0.00000000000E+00  0.00000000000E+00 -0.17120308118E+04  0.29533161900E+04  0.24064552806E+04 0.  0.
        3    1    3    3  502    0 -0.27878662668E+02  0.11246792978E+04 -0.13796863820E+04  0.17802289925E+04  0.10100000352E+00 0.  1.
       -3    1    3    3    0  502  0.27878662668E+02 -0.11246792978E+04 -0.33234442982E+03  0.11730871975E+04  0.10100000352E+00 0. -1.
</event>
<event>
 5   0  0.4018942E-05  0.2231099E+04  0.7818609E-02  0.8505594E-01
        1   -1    0    0  501    0  0.00000000000E+00  0.00000000000E+00  0.85378150043E+03  0.85378150045E+03  0.50400001928E-02 0. -1.
       -1   -1    0    0    0  501  0.00000000000E+00  0.00000000000E+00 -0.14575752360E+04  0.14575752360E+04  0.50400001928E-02 0.  1.
    10030    2    1    2    0    0  0.00000000000E+00  0.00000000000E+00 -0.60379373560E+03  0.23113567365E+04  0.22310990763E+04 0.  0.
        5    1    3    3  502    0 -0.53309066997E+03  0.64339257323E+03  0.46380438547E+03  0.95565488733E+03  0.46999998093E+01 0. -1.
       -5    1    3    3    0  502  0.53309066997E+03 -0.64339257323E+03 -0.10675981211E+04  0.13557018492E+04  0.46999998093E+01 0.  1.
</event>
<event>
 5   0  0.4260395E-05  0.1488613E+04  0.7818609E-02  0.8892061E-01
        1   -1    0    0  501    0  0.00000000000E+00  0.00000000000E+00  0.92243290787E+03  0.92243290788E+03  0.50400001928E-02 0.  1.
       -1   -1    0    0    0  501  0.00000000000E+00  0.00000000000E+00 -0.60057692955E+03  0.60057692957E+03  0.50400001928E-02 0. -1.
    10030    2    1    2    0    0  0.00000000000E+00  0.00000000000E+00  0.32185597832E+03  0.15230098374E+04  0.14886126743E+04 0.  0.
        4    1    3    3  502    0  0.13358265623E+03 -0.59715651509E+03 -0.27259666356E+03  0.66988863510E+03  0.12699999809E+01 0. -1.
       -4    1    3    3    0  502 -0.13358265623E+03  0.59715651509E+03  0.59445264188E+03  0.85312120235E+03  0.12699999809E+01 0.  1.
</event>
<event>
 5   0  0.4018942E-05  0.2339386E+04  0.7818609E-02  0.8462552E-01
        1   -1    0    0  501    0  0.00000000000E+00  0.00000000000E+00  0.18021246660E+04  0.18021246660E+04  0.50400001928E-02 0.  1.
       -1   -1    0    0    0  501  0.00000000000E+00  0.00000000000E+00 -0.75920501447E+03  0.75920501449E+03  0.50400001928E-02 0. -1.
    10030    2    1    2    0    0  0.00000000000E+00  0.00000000000E+00  0.10429196515E+04  0.25613296805E+04  0.23393863154E+04 0.  0.
        5    1    3    3  502    0 -0.70062703716E+03 -0.84185016678E+03  0.71934941465E+02  0.10976277485E+04  0.46999998093E+01 0. -1.
       -5    1    3    3    0  502  0.70062703716E+03  0.84185016678E+03  0.97098471007E+03  0.14637019320E+04  0.46999998093E+01 0.  1.
</event>
<event>
 5   0  0.4260395E-05  0.2312263E+04  0.7818609E-02  0.8473102E-01
       -1   -1    0    0    0  501  0.00000000000E+00  0.00000000000E+00  0.69000011580E+03  0.69000011582E+03  0.50400001928E-02 0. -1.
        1   -1    0    0  501    0  0.00000000000E+00  0.00000000000E+00 -0.19371592647E+04  0.19371592647E+04  0.50400001928E-02 0.  1.
    10030    2    1    2    0    0  0.00000000000E+00  0.00000000000E+00 -0.12471591489E+04  0.26271593805E+04  0.23122630620E+04 0.  0.
        4    1    3    3  502    0 -0.65249877972E+02  0.84071619996E+03 -0.15222276428E+04  0.17401838652E+04  0.12699999809E+01 0.  1.
       -4    1    3    3    0  502  0.65249877972E+02 -0.84071619996E+03  0.27506849390E+03  0.88697551527E+03  0.12699999809E+01 0. -1.
</event>
<event>
 5   0  0.9182865E-05  0.2375345E+04  0.7818609E-02  0.8448792E-01
        2   -1    0    0  501    0  0.00000000000E+00  0.00000000000E+00  0.25156654188E+04  0.25156654188E+04  0.25500000920E-02 0. -1.
       -2   -1    0    0    0  501  0.00000000000E+00  0.00000000000E+00 -0.56071270061E+03  0.56071270062E+03  0.25500000920E-02 0.  1.
    10030    2    1    2    0    0  0.00000000000E+00  0.00000000000E+00  0.19549527181E+04  0.30763781194E+04  0.23753446494E+04 0.  0.
        3    1    3    3  502    0 -0.65755202351E+03  0.73174015242E+03  0.11570708377E+03  0.99055865738E+03  0.10100000352E+00 0.  1.
       -3    1    3    3    0  502  0.65755202351E+03 -0.73174015242E+03  0.18392456344E+04  0.20858194620E+04  0.10100000352E+00 0. -1.
</event>
<event>
 5   0  0.4061631E-05  0.2377086E+04  0.7818609E-02  0.8448132E-01
       -1   -1    0    0    0  501  0.00000000000E+00  0.00000000000E+00  0.79979563193E+03  0.79979563194E+03  0.50400001928E-02 0. -1.
        1   -1    0    0  501    0  0.00000000000E+00  0.00000000000E+00 -0.17662439714E+04  0.17662439714E+04  0.50400001928E-02 0.  1.
    10030    2    1    2    0    0  0.00000000000E+00  0.00000000000E+00 -0.96644833947E+03  0.25660396033E+04  0.23770857900E+04 0.  0.
        3    1    3    3  502    0  0.58952936709E+03  0.84898519199E+03 -0.11166496173E+04  0.15215870362E+04  0.10100000352E+00 0.  1.
       -3    1    3    3    0  502 -0.58952936709E+03 -0.84898519199E+03  0.15020127781E+03  0.10444525671E+04  0.10100000352E+00 0. -1.
</event>
<event>
 5   0  0.3234750E-05  0.2401411E+04  0.7818609E-02  0.8438975E-01
        4   -1    0    0  501    0  0.00000000000E+00  0.00000000000E+00  0.10896612437E+04  0.10896619838E+04  0.12699999809E+01 0. -1.
       -4   -1    0    0    0  501  0.00000000000E+00  0.00000000000E+00 -0.13230647072E+04  0.13230653168E+04  0.12699999809E+01 0.  1.
    10030    2    1    2    0    0  0.00000000000E+00  0.00000000000E+00 -0.23340346348E+03  0.24127273006E+04  0.24014112206E+04 0.  0.
        1    1    3    3  502    0 -0.88356493992E+02 -0.49562027757E+03  0.97850267293E+03  0.11004152900E+04  0.50400001928E-02 0. -1.
       -1    1    3    3    0  502  0.88356493992E+02  0.49562027757E+03 -0.12119061364E+04  0.13123120106E+04  0.50400001928E-02 0.  1.
</event>
<event>
 5   0  0.9182865E-05  0.2352964E+04  0.7818609E-02  0.8457326E-01
        2   -1    0    0  501    0  0.00000000000E+00  0.00000000000E+00  0.12495883765E+04  0.12495883765E+04  0.25500000920E-02 0.  1.
       -2   -1    0    0    0  501  0.00000000000E+00  0.00000000000E+00 -0.11076527302E+04  0.11076527302E+04  0.25500000920E-02 0. -1.
    10030    2    1    2    0    0  0.00000000000E+00  0.00000000000E+00  0.14193564631E+03  0.23572411066E+04  0.23529640684E+04 0.  0.
        3    1    3    3  502    0 -0.11720245068E+04 -0.10059824054E+03  0.89670339688E+02  0.11797466807E+04  0.10100000352E+00 0. -1.
       -3    1    3    3    0  502  0.11720245068E+04  0.10059824054E+03  0.52265306623E+02  0.11774944259E+04  0.10100000352E+00 0.  1.
</event>
<event>
 5   0  0.4061631E-05  0.1315156E+04  0.7818609E-02  0.9017632E-01
        1   -1    0    0  501    0  0.00000000000E+00  0.00000000000E+00  0.77748207291E+03  0.77748207292E+03  0.50400001928E-02 0. -1.
       -1   -1    0    0    0  501  0.00000000000E+00  0.00000000000E+00 -0.55616523969E+03  0.55616523971E+03  0.50400001928E-02 0.  1.
    10030    2    1    2    0    0  0.00000000000E+00  0.00000000000E+00  0.22131683322E+03  0.13336473126E+04  0.13151555094E+04 0.  0.
        3    1    3    3  502    0 -0.10848244666E+03  0.36573685091E+03  0.65379799907E+03  0.75695688063E+03  0.10100000352E+00 0. -1.
       -3    1    3    3    0  502  0.10848244666E+03 -0.36573685091E+03 -0.43248116586E+03  0.57669043200E+03  0.10100000352E+00 0.  1.
</event>
<event>
 5   0  0.9519092E-05  0.2107104E+04  0.7818609E-02  0.8558120E-01
       -2   -1    0    0    0  501  0.00000000000E+00  0.00000000000E+00  0.10745862859E+04  0.10745862859E+04  0.25500000920E-02 0. -1.
        2   -1    0    0  501    0  0.00000000000E+00  0.00000000000E+00 -0.10329296342E+04  0.10329296343E+04  0.25500000920E-02 0.  1.
    10030    2    1    2    0    0  0.00000000000E+00  0.00000000000E+00  0.41656651672E+02  0.21075159202E+04  0.21071041923E+04 0.  0.
        4    1    3    3  502    0 -0.10168910120E+03  0.68525533954E+03  0.81474337296E+03  0.10694502935E+04  0.12699999809E+01 0. -1.
       -4    1    3    3    0  502  0.10168910120E+03 -0.68525533954E+03 -0.77308672129E+03  0.10380656266E+04  0.12699999809E+01 0.  1.
</event>
<event>
 5   0  0.3234750E-05  0.2208900E+04  0.7818609E-02  0.8514733E-01
        4   -1    0    0  501    0  0.00000000000E+00  0.00000000000E+00  0.93641278200E+03  0.93641364322E+03  0.12699999809E+01 0.  1.
       -4   -1    0    0    0  501  0.00000000000E+00  0.00000000000E+00 -0.13026397741E+04  0.13026403932E+04  0.12699999809E+01 0. -1.
    10030    2    1    2    0    0  0.00000000000E+00  0.00000000000E+00 -0.36622699212E+03  0.22390540364E+04  0.22089003527E+04 0.  0.
        5    1    3    3  502    0 -0.45209810227E+03  0.58404292636E+03 -0.10154742100E+04  0.12556706555E+04  0.46999998093E+01 0. -1.
       -5    1    3    3    0  502  0.45209810227E+03 -0.58404292636E+03  0.64924721790E+03  0.98338338091E+03  0.46999998093E+01 0.  1.
</event>
<event>
 5   0  0.3934906E-05  0.1313502E+04  0.7818609E-02  0.9018926E-01
       -1   -1    0    0    0  501  0.00000000000E+00  0.00000000000E+00  0.76258943168E+03  0.76258943169E+03  0.50400001928E-02 0.  1.
        1   -1    0    0  501    0  0.00000000000E+00  0.00000000000E+00 -0.56560163211E+03  0.56560163214E+03  0.50400001928E-02 0. -1.
    10030    2    1    2    0    0  0.00000000000E+00  0.00000000000E+00  0.19698779956E+03  0.13281910638E+04  0.13135019257E+04 0.  0.
        2    1    3    3  502    0  0.31079072589E+01 -0.37489626801E+03 -0.44676262558E+03  0.58322698367E+03  0.25500000920E-02 0. -1.
       -2    1    3    3    0  502 -0.31079072589E+01  0.37489626801E+03  0.64375042514E+03  0.74496408016E+03  0.25500000920E-02 0.  1.
</event>
<event>
 5   0  0.4260395E-05  0.2436061E+04  0.7818609E-02  0.8426125E-01
        1   -1    0    0  501    0  0.00000000000E+00  0.00000000000E+00  0.93359357743E+03  0.93359357745E+03  0.50400001928E-02 0. -1.
       -1   -1    0    0    0  501  0.00000000000E+00  0.00000000000E+00 -0.15891259188E+04  0.15891259189E+04  0.50400001928E-02 0.  1.
    10030    2    1    2    0    0  0.00000000000E+00  0.00000000000E+00 -0.65553234141E+03  0.25227194963E+04  0.24360605506E+04 0.  0.
        4    1    3    3  502    0  0.18184897663E+03  0.40015074584E+03  0.84860439792E+03  0.95567813973E+03  0.12699999809E+01 0. -1.
       -4    1    3    3    0  502 -0.18184897663E+03 -0.40015074584E+03 -0.15041367393E+04  0.15670413566E+04  0.12699999809E+01 0.  1.
</event>
<event>
 5   0  0.4061631E-05  0.2540328E+04  0.7818609E-02  0.8388758E-01
        1   -1    0    0  501    0  0.00000000000E+00  0.00000000000E+00  0.23423371080E+04  0.23423371080E+04  0.50400001928E-02 0. -1.
       -1   -1    0    0    0  501  0.00000000000E+00  0.00000000000E+00 -0.68876354005E+03  0.68876354006E+03  0.50400001928E-02 0.  1.
    10030    2    1    2    0    0  0.00000000000E+00  0.00000000000E+00  0.16535735680E+04  0.30311006481E+04  0.25403278517E+04 0.  0.
        3    1    3    3  502    0 -0.11626923935E+04  0.16450269934E+03  0.14044715543E+04  0.18306979809E+04  0.10100000352E+00 0. -1.
       -3    1    3    3    0  502  0.11626923935E+04 -0.16450269934E+03  0.24910201366E+03  0.12004026672E+04  0.10100000352E+00 0.  1.
</event>
<event>
 5   0  0.4018942E-05  0.2260059E+04  0.7818609E-02  0.8493838E-01
       -1   -1    0    0    0  501  0.00000000000E+00  0.00000000000E+00  0.10101161240E+04  0.10101161240E+04  0.50400001928E-02 0. -1.
        1   -1    0    0  501    0  0.00000000000E+00  0.00000000000E+00 -0.12641776011E+04  0.12641776011E+04  0.50400001928E-02 0.  1.
    10030    2    1    2    0    0  0.00000000000E+00  0.00000000000E+00 -0.25406147704E+03  0.22742937251E+04  0.22600585643E+04 0.  0.
        5    1    3    3  502    0  0.93988157997E+03 -0.53094016327E+02 -0.75606614563E+03  0.12074164425E+04  0.46999998093E+01 0. -1.
       -5    1    3    3    0  502 -0.93988157997E+03  0.53094016327E+02  0.50200466859E+03  0.10668772826E+04  0.46999998093E+01 0.  1.
</event>
<event>
 5   0  0.9182865E-05  0.2395247E+04  0.7818609E-02  0.8441285E-01
       -2   -1    0    0    0  501  0.00000000000E+00  0.00000000000E+00  0.62132031057E+03  0.62132031058E+03  0.25500000920E-02 0.  1.
        2   -1    0    0  501    0  0.00000000000E+00  0.00000000000E+00 -0.23084738950E+04  0.23084738950E+04  0.25500000920E-02 0. -1.
    10030    2    1    2    0    0  0.00000000000E+00  0.00000000000E+00 -0.16871535844E+04  0.29297942056E+04  0.23952467242E+04 0.  0.
        3    1    3    3  502    0  0.43336710177E+03  0.64716120047E+03 -0.19563773011E+04  0.21057152748E+04  0.10100000352E+00 0. -1.
       -3    1    3    3    0  502 -0.43336710177E+03 -0.64716120047E+03  0.26922371665E+03  0.82407893075E+03  0.10100000352E+00 0.  1.
</event>
<event>
 5   0  0.4208577E-05  0.2393455E+04  0.7818609E-02  0.8441958E-01
        1   -1    0    0  501    0  0.00000000000E+00  0.00000000000E+00  0.11364621488E+04  0.11364621488E+04  0.50400001928E-02 0.  1.
       -1   -1    0    0    0  501  0.00000000000E+00  0.00000000000E+00 -0.12601882116E+04  0.12601882116E+04  0.50400001928E-02 0. -1.
    10030    2    1    2    0    0  0.00000000000E+00  0.00000000000E+00 -0.12372606279E+03  0.23966503603E+04  0.23934545768E+04 0.  0.
        1    1    3    3  502    0 -0.42295896323E+03  0.48422964496E+03  0.94883275947E+03  0.11461484368E+04  0.50400001928E-02 0.  1.
       -1    1    3    3    0  502  0.42295896323E+03 -0.48422964496E+03 -0.10725588223E+04  0.12505019236E+04  0.50400001928E-02 0. -1.
</event>
<event>
 5   0  0.9144244E-05  0.2872664E+04  0.7818609E-02  0.8281057E-01
        2   -1    0    0  501    0  0.00000000000E+00  0.00000000000E+00  0.26482346977E+04  0.26482346977E+04  0.25500000920E-02 0.  1.
       -2   -1    0    0    0  501  0.00000000000E+00  0.00000000000E+00 -0.77902841259E+03  0.77902841259E+03  0.25500000920E-02 0. -1.
    10030    2    1    2    0    0  0.00000000000E+00  0.00000000000E+00  0.18692062851E+04  0.34272631103E+04  0.28726643192E+04 0.  0.
        1    1    3    3  502    0  0.77587816977E+03  0.12046798265E+04  0.10527682925E+04  0.17780780344E+04  0.50400001928E-02 0. -1.
       -1    1    3    3    0  502 -0.77587816977E+03 -0.12046798265E+04  0.81643799257E+03  0.16491850759E+04  0.50400001928E-02 0.  1.
</event>
<event>
 5   0  0.4061631E-05  0.2353392E+04  0.7818609E-02  0.8457162E-01
        1   -1    0    0  501    0  0.00000000000E+00  0.00000000000E+00  0.16976324096E+04  0.16976324096E+04  0.50400001928E-02 0. -1.
       -1   -1    0    0    0  501  0.00000000000E+00  0.00000000000E+00 -0.81561474435E+03  0.81561474437E+03  0.50400001928E-02 0.  1.
    10030    2    1    2    0    0  0.00000000000E+00  0.00000000000E+00  0.88201766523E+03  0.25132471540E+04  0.23533924652E+04 0.  0.
        3    1    3    3  502    0 -0.11210364040E+04  0.31034378105E+03  0.25123599157E+03  0.11900232834E+04  0.10100000352E+00 0.  1.
       -3    1    3    3    0  502  0.11210364040E+04 -0.31034378105E+03  0.63078167366E+03  0.13232238705E+04  0.10100000352E+00 0. -1.
</event>
<event>
 5   0  0.3934906E-05  0.2342169E+04  0.7818609E-02  0.8461478E-01
       -1   -1    0    0    0  501  0.00000000000E+00  0.00000000000E+00  0.77964747985E+03  0.77964747987E+03  0.50400001928E-02 0. -1.
        1   -1    0    0  501    0  0.00000000000E+00  0.00000000000E+00 -0.17590499626E+04  0.17590499626E+04  0.50400001928E-02 0.  1.
    10030    2    1    2    0    0  0.00000000000E+00  0.00000000000E+00 -0.97940248272E+03  0.25386974424E+04  0.23421689694E+04 0.  0.
        2    1    3    3  502    0 -0.92271704627E+03 -0.44980348191E+03  0.12125126050E+03  0.10336497414E+04  0.25500000920E-02 0. -1.
       -2    1    3    3    0  502  0.92271704627E+03  0.44980348191E+03 -0.11006537432E+04  0.15050477010E+04  0.25500000920E-02 0.  1.
</event>
<event>
 5   0  0.4018942E-05  0.2467005E+04  0.7818609E-02  0.8414835E-01
        1   -1    0    0  501    0  0.00000000000E+00  0.00000000000E+00  0.14954338459E+04  0.14954338459E+04  0.50400001928E-02 0.  1.
       -1   -1    0    0    0  501  0.00000000000E+00  0.00000000000E+00 -0.10174494401E+04  0.10174494401E+04  0.50400001928E-02 0. -1.
    10030    2    1    2    0    0  0.00000000000E+00  0.00000000000E+00  0.47798440581E+03  0.25128832860E+04  0.24670049285E+04 0.  0.
        5    1    3    3  502    0  0.32472533302E+03 -0.21640212603E+03  0.14308940001E+04  0.14831574939E+04  0.46999998093E+01 0.  1.
       -5    1    3    3    0  502 -0.32472533302E+03  0.21640212603E+03 -0.95290959433E+03  0.10297257921E+04  0.46999998093E+01 0. -1.
</event>
<event>
 5   0  0.9491680E-05  0.2206505E+04  0.7818609E-02  0.8515726E-01
       -2   -1    0    0    0  501  0.00000000000E+00  0.00000000000E+00  0.12181935802E+04  0.12181935802E+04  0.25500000920E-02 0. -1.
        2   -1    0    0  501    0  0.00000000000E+00  0.00000000000E+00 -0.99915637160E+03  0.99915637160E+03  0.25500000920E-02 0.  1.
    10030    2    1    2    0    0  0.00000000000E+00  0.00000000000E+00  0.21903720862E+03  0.22173499518E+04  0.22065048176E+04 0.  0.
        5    1    3    3  502    0  0.98966820041E+02 -0.37303889303E+03 -0.92909471372E+03  0.10060772954E+04  0.46999998093E+01 0.  1.
       -5    1    3    3    0  502 -0.98966820041E+02  0.37303889303E+03  0.11481319223E+04  0.12112726565E+04  0.46999998093E+01 0. -1.
</event>
<event>
 5   0  0.9491680E-05  0.2373068E+04  0.7818609E-02  0.8449656E-01
       -2   -1    0    0    0  501  0.00000000000E+00  0.00000000000E+00  0.11941861621E+04  0.11941861621E+04  0.25500000920E-02 0.  1.
        2   -1    0    0  501    0  0.00000000000E+00  0.00000000000E+00 -0.11789304337E+04  0.11789304337E+04  0.25500000920E-02 0. -1.
    10030    2    1    2    0    0  0.00000000000E+00  0.00000000000E+00  0.15255728367E+02  0.23731165958E+04  0.23730675591E+04 0.  0.
        5    1    3    3  502    0 -0.44006952961E+02  0.34803521482E+03 -0.11258748022E+04  0.11792715052E+04  0.46999998093E+01 0. -1.
       -5    1    3    3    0  502  0.44006952961E+02 -0.34803521482E+03  0.11411305306E+04  0.11938450907E+04  0.46999998093E+01 0.  1.
</event>
<event>
 5   0  0.9491680E-05  0.2386450E+04  0.7818609E-02  0.8444594E-01
        2   -1    0    0  501    0  0.00000000000E+00  0.00000000000E+00  0.16824127766E+04  0.16824127766E+04  0.25500000920E-02 0. -1.
       -2   -1    0    0    0  501  0.00000000000E+00  0.00000000000E+00 -0.84627645434E+03  0.84627645434E+03  0.25500000920E-02 0.  1.
    10030    2    1    2    0    0  0.00000000000E+00  0.00000000000E+00  0.83613632223E+03  0.25286892309E+04  0.23864503509E+04 0.  0.
        5    1    3    3  502    0 -0.84205241722E+03  0.61787428687E+03 -0.19333574568E+03  0.10621778139E+04  0.46999998093E+01 0.  1.
       -5    1    3    3    0  502  0.84205241722E+03 -0.61787428687E+03  0.10294720679E+04  0.14665114170E+04  0.46999998093E+01 0. -1.
</event>
<event>
 5   0  0.4260395E-05  0.2418352E+04  0.7818609E-02  0.8432665E-01
        1   -1    0    0  501    0  0.00000000000E+00  0.00000000000E+00  0.18227713978E+04  0.18227713978E+04  0.50400001928E-02 0.  1.
       -1   -1    0    0    0  501  0.00000000000E+00  0.00000000000E+00 -0.80213403879E+03  0.80213403880E+03  0.50400001928E-02 0. -1.
    10030    2    1    2    0    0  0.00000000000E+00  0.00000000000E+00  0.10206373590E+04  0.26249054366E+04  0.24183523177E+04 0.  0.
        4    1    3    3  502    0 -0.28960356161E+03 -0.10562939665E+04  0.10664030818E+04  0.15286740373E+04  0.12699999809E+01 0.  1.
       -4    1    3    3    0  502  0.28960356161E+03  0.10562939665E+04 -0.45765722740E+02  0.10962313993E+04  0.12699999809E+01 0. -1.
</event>
<event>
 5   0  0.9750757E-05  0.2343205E+04  0.7818609E-02  0.8461078E-01
       -2   -1    0    0    0  501  0.00000000000E+00  0.00000000000E+00  0.11112425725E+04  0.11112425725E+04  0.25500000920E-02 0. -1.
        2   -1    0    0  501    0  0.00000000000E+00  0.00000000000E+00 -0.12352406317E+04  0.12352406317E+04  0.25500000920E-02 0.  1.
    10030    2    1    2    0    0  0.00000000000E+00  0.00000000000E+00 -0.12399805923E+03  0.23464832042E+04  0.23432046238E+04 0.  0.
        2    1    3    3  502    0  0.11217873911E+04 -0.33738867293E+03 -0.82372268353E+02  0.11743182099E+04  0.25500000920E-02 0.  1.
       -2    1    3    3    0  502 -0.11217873911E+04  0.33738867293E+03 -0.41625790879E+02  0.11721649943E+04  0.25500000920E-02 0. -1.
</event>
<event>
 5   0  0.9182865E-05  0.2203429E+04  0.7818609E-02  0.8517002E-01
       -2   -1    0    0    0  501  0.00000000000E+00  0.00000000000E+00  0.80307128279E+03  0.80307128280E+03  0.25500000920E-02 0.  1.
        2   -1    0    0  501    0  0.00000000000E+00  0.00000000000E+00 -0.15114164090E+04  0.15114164090E+04  0.25500000920E-02 0. -1.
    10030    2    1    2    0    0  0.00000000000E+00  0.00000000000E+00 -0.70834512618E+03  0.23144876918E+04  0.22034292495E+04 0.  0.
        3    1    3    3  502    0  0.56962792106E+03  0.49541676433E+03  0.48868065339E+03  0.89929001442E+03  0.10100000352E+00 0.  1.
       -3    1    3    3    0  502 -0.56962792106E+03 -0.49541676433E+03 -0.11970257796E+04  0.14151976774E+04  0.10100000352E+00 0. -1.
</event>
<event>
 5   0  0.4061631E-05  0.1720337E+04  0.7818609E-02  0.8749850E-01
        1   -1    0    0  501    0  0.00000000000E+00  0.00000000000E+00  0.82243646952E+03  0.82243646953E+03  0.50400001928E-02 0. -1.
       -1   -1    0    0    0  501  0.00000000000E+00  0.00000000000E+00 -0.89963164083E+03  0.89963164085E+03  0.50400001928E-02 0.  1.
    10030    2    1    2    0    0  0.00000000000E+00  0.00000000000E+00 -0.77195171316E+02  0.17220681104E+04  0.17203370258E+04 0.  0.
        3    1    3    3  502    0 -0.79553370934E+03  0.27002566607E+03 -0.22345099299E+03  0.86932048147E+03  0.10100000352E+00 0. -1.
       -3    1    3    3    0  502  0.79553370934E+03 -0.27002566607E+03  0.14625582167E+03  0.85274762891E+03  0.10100000352E+00 0.  1.
</event>
<event>
 5   0  0.9182865E-05  0.2296020E+04  0.7818609E-02  0.8479492E-01
       -2   -1    0    0    0  501  0.00000000000E+00  0.00000000000E+00  0.95943591082E+03  0.95943591082E+03  0.25500000920E-02 0.  1.
        2   -1    0    0  501    0  0.00000000000E+00  0.00000000000E+00 -0.13736476063E+04  0.13736476063E+04  0.25500000920E-02 0. -1.
    10030    2    1    2    0    0  0.00000000000E+00  0.00000000000E+00 -0.41421169544E+03  0.23330835171E+04  0.22960198974E+04 0.  0.
        3    1    3    3  502    0 -0.62310927081E+03  0.52214830715E+03 -0.10307599449E+04  0.13127719117E+04  0.10100000352E+00 0. -1.
       -3    1    3    3    0  502  0.62310927081E+03 -0.52214830715E+03  0.61654824942E+03  0.10203116054E+04  0.10100000352E+00 0.  1.
</event>
<event>
 5   0  0.4260395E-05  0.2399723E+04  0.7818609E-02  0.8439607E-01
       -1   -1    0    0    0  501  0.00000000000E+00  0.00000000000E+00  0.13413178661E+04  0.13413178661E+04  0.50400001928E-02 0. -1.
        1   -1    0    0  501    0  0.00000000000E+00  0.00000000000E+00 -0.10733231530E+04  0.10733231530E+04  0.50400001928E-02 0.  1.
    10030    2    1    2    0    0  0.00000000000E+00  0.00000000000E+00  0.26799471304E+03  0.24146410191E+04  0.23997229184E+04 0.  0.
        4    1    3    3  502    0  0.46892850673E+03 -0.77643973930E+03 -0.65632367585E+03  0.11196048381E+04  0.12699999809E+01 0.  1.
       -4    1    3    3    0  502 -0.46892850673E+03  0.77643973930E+03  0.92431838889E+03  0.12950361810E+04  0.12699999809E+01 0. -1.
</event>
<event>
 5   0  0.9491680E-05  0.2150213E+04  0.7818609E-02  0.8539441E-01
        2   -1    0    0  501    0  0.00000000000E+00  0.00000000000E+00  0.12689020063E+04  0.12689020063E+04  0.25500000920E-02 0.  1.
       -2   -1    0    0    0  501  0.00000000000E+00  0.00000000000E+00 -0.91090846735E+03  0.91090846736E+03  0.25500000920E-02 0. -1.
    10030    2    1    2    0    0  0.00000000000E+00  0.00000000000E+00  0.35799353892E+03  0.21798104736E+04  0.21502126237E+04 0.  0.
        5    1    3    3  502    0  0.66870412256E+01 -0.87118215904E+03 -0.45961763799E+03  0.98502463619E+03  0.46999998093E+01 0. -1.
       -5    1    3    3    0  502 -0.66870412256E+01  0.87118215904E+03  0.81761117691E+03  0.11947858374E+04  0.46999998093E+01 0.  1.
</event>
<event>
 5   0  0.4061631E-05  0.2256733E+04  0.7818609E-02  0.8495179E-01
        1   -1    0    0  501    0  0.00000000000E+00  0.00000000000E+00  0.11501584263E+04  0.11501584263E+04  0.50400001928E-02 0.  1.
       -1   -1    0    0    0  501  0.00000000000E+00  0.00000000000E+00 -0.11069871677E+04  0.11069871678E+04  0.50400001928E-02 0. -1.
    10030    2    1    2    0    0  0.00000000000E+00  0.00000000000E+00  0.43171258532E+02  0.22571455940E+04  0.22567326991E+04 0.  0.
        3    1    3    3  502    0 -0.43329677212E+03 -0.46863514599E+03 -0.90909287453E+03  0.11107721897E+04  0.10100000352E+00 0. -1.
       -3    1    3    3    0  502  0.43329677212E+03  0.46863514599E+03  0.95226413306E+03  0.11463734043E+04  0.10100000352E+00 0.  1.
</event>
<event>
 5   0  0.9750757E-05  0.2411126E+04  0.7818609E-02  0.8435350E-01
       -2   -1    0    0    0  501  0.00000000000E+00  0.00000000000E+00  0.18486265470E+04  0.18486265470E+04  0.25500000920E-02 0.  1.
        2   -1    0    0  501    0  0.00000000000E+00  0.00000000000E+00 -0.78619537019E+03  0.78619537020E+03  0.25500000920E-02 0. -1.
    10030    2    1    2    0    0  0.00000000000E+00  0.00000000000E+00  0.10624311768E+04  0.26348219172E+04  0.24111255732E+04 0.  0.
        2    1    3    3  502    0  0.11748091474E+04 -0.20156035079E+03  0.72845656548E+03  0.13969438341E+04  0.25500000920E-02 0. -1.
       -2    1    3    3    0  502 -0.11748091474E+04  0.20156035079E+03  0.33397461134E+03  0.12378780832E+04  0.25500000920E-02 0.  1.
</event>
<event>
 5   0  0.4018942E-05  0.2123000E+04  0.7818609E-02  0.8551179E-01
        1   -1    0    0  501    0  0.00000000000E+00  0.00000000000E+00  0.10051332415E+04  0.10051332415E+04  0.50400001928E-02 0. -1.
       -1   -1    0    0    0  501  0.00000000000E+00  0.00000000000E+00 -0.11210275743E+04  0.11210275743E+04  0.50400001928E-02 0.  1.
    10030    2    1    2    0    0  0.00000000000E+00  0.00000000000E+00 -0.11589433279E+03  0.21261608158E+04  0.21229998394E+04 0.  0.
        5    1    3    3  502    0 -0.23038950739E+03  0.82829114657E+03  0.56556670983E+03  0.10290934563E+04  0.46999998093E+01 0.  1.
       -5    1    3    3    0  502  0.23038950739E+03 -0.82829114657E+03 -0.68146104261E+03  0.10970673595E+04  0.46999998093E+01 0. -1.
</event>
<event>
 5   0  0.3934906E-05  0.2145156E+04  0.7818609E-02  0.8541609E-01
        1   -1    0    0  501    0  0.00000000000E+00  0.00000000000E+00  0.20215535893E+04  0.20215535893E+04  0.50400001928E-02 0. -1.
       -1   -1    0    0    0  501  0.00000000000E+00  0.00000000000E+00 -0.56907896614E+03  0.56907896616E+03  0.50400001928E-02 0.  1.
    10030    2    1    2    0    0  0.00000000000E+00  0.00000000000E+00  0.14524746231E+04  0.25906325555E+04  0.21451560564E+04 0.  0.
        2    1    3    3  502    0 -0.37256962501E+03 -0.49043888525E+03 -0.33423201416E+03  0.70074921687E+03  0.25500000920E-02 0.  1.
       -2    1    3    3    0  502  0.37256962501E+03  0.49043888525E+03  0.17867066373E+04  0.18898833386E+04  0.25500000920E-02 0. -1.
</event>
<event>
 5   0  0.4018942E-05  0.2310345E+04  0.7818609E-02  0.8473853E-01
       -1   -1    0    0    0  501  0.00000000000E+00  0.00000000000E+00  0.12499888724E+04  0.12499888724E+04  0.50400001928E-02 0. -1.
        1   -1    0    0  501    0  0.00000000000E+00  0.00000000000E+00 -0.10675481473E+04  0.10675481473E+04  0.50400001928E-02 0.  1.
    10030    2    1    2    0    0  0.00000000000E+00  0.00000000000E+00  0.18244072510E+03  0.23175370197E+04  0.23103448270E+04 0.  0.
        5    1    3    3  502    0 -0.91991476860E+03  0.81799285942E+02 -0.60481787369E+03  0.11039751152E+04  0.46999998093E+01 0.  1.
       -5    1    3    3    0  502  0.91991476860E+03 -0.81799285942E+02  0.78725859879E+03  0.12135619045E+04  0.46999998093E+01 0. -1.
</event>
<event>
 5   0  0.9491680E-05  0.2407366E+04  0.7818609E-02  0.8436751E-01
        2   -1    0    0  501    0  0.00000000000E+00  0.00000000000E+00  0.12826476919E+04  0.12826476919E+04  0.25500000920E-02 0. -1.
       -2   -1    0    0    0  501  0.00000000000E+00  0.00000000000E+00 -0.11295799042E+04  0.11295799042E+04  0.25500000920E-02 0.  1.
    10030    2    1    2    0    0  0.00000000000E+00  0.00000000000E+00  0.15306778767E+03  0.24122275961E+04  0.24073662429E+04 0.  0.
        5    1    3    3  502    0 -0.79279170431E+03 -0.12734752243E+03  0.97505806794E+03  0.12631296069E+04  0.46999998093E+01 0. -1.
       -5    1    3    3    0  502  0.79279170431E+03  0.12734752243E+03 -0.82199028027E+03  0.11490979892E+04  0.46999998093E+01 0.  1.
</event>
<event>
 5   0  0.4018942E-05  0.1260218E+04  0.7818609E-02  0.9061721E-01
        1   -1    0    0  501    0  0.00000000000E+00  0.00000000000E+00  0.36201065446E+03  0.36201065449E+03  0.50400001928E-02 0. -1.
       -1   -1    0    0    0  501  0.00000000000E+00  0.00000000000E+00 -0.10967559647E+04  0.10967559647E+04  0.50400001928E-02 0.  1.
    10030    2    1    2    0    0  0.00000000000E+00  0.00000000000E+00 -0.73474531022E+03  0.14587666192E+04  0.12602179884E+04 0.  0.
        5    1    3    3  502    0 -0.42669029528E+03 -0.44676117062E+03 -0.51081141053E+03  0.80162992633E+03  0.46999998093E+01 0.  1.
       -5    1    3    3    0  502  0.42669029528E+03  0.44676117062E+03 -0.22393389969E+03  0.65713669286E+03  0.46999998093E+01 0. -1.
</event>
<event>
 5   0  0.9144244E-05  0.2294519E+04  0.7818609E-02  0.8480085E-01
       -2   -1    0    0    0  501  0.00000000000E+00  0.00000000000E+00  0.95248669912E+03  0.95248669912E+03  0.25500000920E-02 0.  1.
        2   -1    0    0  501    0  0.00000000000E+00  0.00000000000E+00 -0.13818616016E+04  0.13818616016E+04  0.25500000920E-02 0. -1.
    10030    2    1    2    0    0  0.00000000000E+00  0.00000000000E+00 -0.42937490248E+03  0.23343483007E+04  0.22945193793E+04 0.  0.
        1    1    3    3  502    0 -0.92718983241E+03 -0.27735286188E+03 -0.84149839522E+03  0.12824683795E+04  0.50400001928E-02 0. -1.
       -1    1    3    3    0  502  0.92718983241E+03  0.27735286188E+03  0.41212349273E+03  0.10518799212E+04  0.50400001928E-02 0.  1.
</event>
<event>
 5   0  0.9491680E-05  0.2376798E+04  0.7818609E-02  0.8448242E-01
       -2   -1    0    0    0  501  0.00000000000E+00  0.00000000000E+00  0.12593587008E+04  0.12593587008E+04  0.25500000920E-02 0. -1.
        2   -1    0    0  501    0  0.00000000000E+00  0.00000000000E+00 -0.11214372854E+04  0.11214372854E+04  0.25500000920E-02 0.  1.
    10030    2    1    2    0    0  0.00000000000E+00  0.00000000000E+00  0.13792141540E+03  0.23807959863E+04  0.23767976799E+04 0.  0.
        5    1    3    3  502    0  0.38747484418E+03  0.17721216500E+03  0.11802091105E+04  0.12547735018E+04  0.46999998093E+01 0. -1.
       -5    1    3    3    0  502 -0.38747484418E+03 -0.17721216500E+03 -0.10422876951E+04  0.11260224845E+04  0.46999998093E+01 0.  1.
</event>
<event>
 5   0  0.9491680E-05  0.2354706E+04  0.7818609E-02  0.8456658E-01
       -2   -1    0    0    0  501  0.00000000000E+00  0.00000000000E+00  0.12572206136E+04  0.12572206136E+04  0.25500000920E-02 0. -1.
        2   -1    0    0  501    0  0.00000000000E+00  0.00000000000E+00 -0.11025592148E+04  0.11025592148E+04  0.25500000920E-02 0.  1.
    10030    2    1    2    0    0  0.00000000000E+00  0.00000000000E+00  0.15466139875E+03  0.23597798284E+04  0.23547060730E+04 0.  0.
        5    1    3    3  502    0 -0.51690514490E+03  0.38479057552E+03 -0.91012656912E+03  0.11151713669E+04  0.46999998093E+01 0.  1.
       -5    1    3    3    0  502  0.51690514490E+03 -0.38479057552E+03  0.10647879679E+04  0.12446084615E+04  0.46999998093E+01 0. -1.
</event>
<event>
 5   0  0.4018942E-05  0.2376430E+04  0.7818609E-02  0.8448381E-01
        1   -1    0    0  501    0  0.00000000000E+00  0.00000000000E+00  0.14201168888E+04  0.14201168888E+04  0.50400001928E-02 0. -1.
       -1   -1    0    0    0  501  0.00000000000E+00  0.00000000000E+00 -0.99418242071E+03  0.99418242072E+03  0.50400001928E-02 0.  1.
    10030    2    1    2    0    0  0.00000000000E+00  0.00000000000E+00  0.42593446810E+03  0.24142993095E+04  0.23764303030E+04 0.  0.
        5    1    3    3  502    0  0.49015443116E+03 -0.50312059679E+03 -0.76066317989E+03  0.10353802512E+04  0.46999998093E+01 0.  1.
       -5    1    3    3    0  502 -0.49015443116E+03  0.50312059679E+03  0.11865976480E+04  0.13789190584E+04  0.46999998093E+01 0. -1.
</event>
<event>
 5   0  0.4018942E-05  0.2313610E+04  0.7818609E-02  0.8472574E-01
        1   -1    0    0  501    0  0.00000000000E+00  0.00000000000E+00  0.24047218365E+04  0.24047218365E+04  0.50400001928E-02 0. -1.
       -1   -1    0    0    0  501  0.00000000000E+00  0.00000000000E+00 -0.55648779010E+03  0.55648779012E+03  0.50400001928E-02 0.  1.
    10030    2    1    2    0    0  0.00000000000E+00  0.00000000000E+00  0.18482340464E+04  0.29612096266E+04  0.23136104604E+04 0.  0.
        5    1    3    3  502    0  0.90078756728E+03  0.55698492721E+03  0.15196882932E+04  0.18523296275E+04  0.46999998093E+01 0. -1.
       -5    1    3    3    0  502 -0.90078756728E+03 -0.55698492721E+03  0.32854575324E+03  0.11088799991E+04  0.46999998093E+01 0.  1.
</event>
<event>
 5   0  0.9491680E-05  0.2301663E+04  0.7818609E-02  0.8477266E-01
       -2   -1    0    0    0  501  0.00000000000E+00  0.00000000000E+00  0.99854957299E+03  0.99854957299E+03  0.25500000920E-02 0.  1.
        2   -1    0    0  501    0  0.00000000000E+00  0.00000000000E+00 -0.13263369718E+04  0.13263369718E+04  0.25500000920E-02 0. -1.
    10030    2    1    2    0    0  0.00000000000E+00  0.00000000000E+00 -0.32778739880E+03  0.23248865448E+04  0.23016630655E+04 0.  0.
        5    1    3    3  502    0  0.56453823589E+03 -0.40935465130E+03 -0.10886178596E+04  0.12928207860E+04  0.46999998093E+01 0. -1.
       -5    1    3    3    0  502 -0.56453823589E+03  0.40935465130E+03  0.76083046085E+03  0.10320657588E+04  0.46999998093E+01 0.  1.
</event>
<event>
 5   0  0.4260395E-05  0.2366752E+04  0.7818609E-02  0.8452057E-01
        1   -1    0    0  501    0  0.00000000000E+00  0.00000000000E+00  0.18059881288E+04  0.18059881288E+04  0.50400001928E-02 0. -1.
       -1   -1    0    0    0  501  0.00000000000E+00  0.00000000000E+00 -0.77540841249E+03  0.77540841251E+03  0.50400001928E-02 0.  1.
    10030    2    1    2    0    0  0.00000000000E+00  0.00000000000E+00  0.10305797163E+04  0.25813965413E+04  0.23667516878E+04 0.  0.
        4    1    3    3  502    0 -0.13487752431E+03 -0.98741255871E+03  0.12112856101E+04  0.15685630206E+04  0.12699999809E+01 0. -1.
       -4    1    3    3    0  502  0.13487752431E+03  0.98741255871E+03 -0.18070589376E+03  0.10128335207E+04  0.12699999809E+01 0.  1.
</event>
<event>
 5   0  0.9144244E-05  0.2301017E+04  0.7818609E-02  0.8477520E-01
       -2   -1    0    0    0  501  0.00000000000E+00  0.00000000000E+00  0.98643803861E+03  0.98643803862E+03  0.25500000920E-02 0.  1.
        2   -1    0    0  501    0  0.00000000000E+00  0.00000000000E+00 -0.13418680979E+04  0.13418680979E+04  0.25500000920E-02 0. -1.
    10030    2    1    2    0    0  0.00000000000E+00  0.00000000000E+00 -0.35543005926E+03  0.23283061365E+04  0.23010169357E+04 0.  0.
        1    1    3    3  502    0  0.10954103104E+04  0.84505995720E+02 -0.52323912513E+03  0.12168994180E+04  0.50400001928E-02 0. -1.
       -1    1    3    3    0  502 -0.10954103104E+04 -0.84505995720E+02  0.16780906586E+03  0.11114067185E+04  0.50400001928E-02 0.  1.
</event>
<event>
 5   0  0.4018942E-05  0.2525259E+04  0.7818609E-02  0.8394042E-01
       -1   -1    0    0    0  501  0.00000000000E+00  0.00000000000E+00  0.12056837481E+04  0.12056837482E+04  0.50400001928E-02 0. -1.
        1   -1    0    0  501    0  0.00000000000E+00  0.00000000000E+00 -0.13222650819E+04  0.13222650819E+04  0.50400001928E-02 0.  1.
    10030    2    1    2    0    0  0.00000000000E+00  0.00000000000E+00 -0.11658133375E+03  0.25279488301E+04  0.25252592105E+04 0.  0.
        5    1    3    3  502    0 -0.76651958011E+03 -0.14759074815E+03  0.93517559237E+03  0.12181587640E+04  0.46999998093E+01 0. -1.
       -5    1    3    3    0  502  0.76651958011E+03  0.14759074815E+03 -0.10517569261E+04  0.13097900661E+04  0.46999998093E+01 0.  1.
</event>
<event>
 5   0  0.4208577E-05  0.2448022E+04  0.7818609E-02  0.8421741E-01
       -1   -1    0    0    0  501  0.00000000000E+00  0.00000000000E+00  0.70283386525E+03  0.70283386527E+03  0.50400001928E-02 0. -1.
        1   -1    0    0  501    0  0.00000000000E+00  0.00000000000E+00 -0.21316598770E+04  0.21316598770E+04  0.50400001928E-02 0.  1.
    10030    2    1    2    0    0  0.00000000000E+00  0.00000000000E+00 -0.14288260117E+04  0.28344937423E+04  0.24480218551E+04 0.  0.
        1    1    3    3  502    0 -0.67812847820E+03 -0.49151907711E+03 -0.17479409080E+04  0.19382328689E+04  0.50400001928E-02 0.  1.
       -1    1    3    3    0  502  0.67812847820E+03  0.49151907711E+03  0.31911489627E+03  0.89626087338E+03  0.50400001928E-02 0. -1.
</event>
<event>
 5   0  0.4208577E-05  0.2369600E+04  0.7818609E-02  0.8450973E-01
        1   -1    0    0  501    0  0.00000000000E+00  0.00000000000E+00  0.15464642932E+04  0.15464642932E+04  0.50400001928E-02 0. -1.
       -1   -1    0    0    0  501  0.00000000000E+00  0.00000000000E+00 -0.90771609383E+03  0.90771609384E+03  0.50400001928E-02 0.  1.
    10030    2    1    2    0    0  0.00000000000E+00  0.00000000000E+00  0.63874819940E+03  0.24541803871E+04  0.23695995675E+04 0.  0.
        1    1    3    3  502    0  0.61699300183E+03  0.10095049224E+04  0.38463084346E+03  0.12440745309E+04  0.50400001928E-02 0.  1.
       -1    1    3    3    0  502 -0.61699300183E+03 -0.10095049224E+04  0.25411735594E+03  0.12101058562E+04  0.50400001928E-02 0. -1.
</event>
<event>
 5   0  0.4260395E-05  0.2298385E+04  0.7818609E-02  0.8478558E-01
       -1   -1    0    0    0  501  0.00000000000E+00  0.00000000000E+00  0.10799641969E+04  0.10799641969E+04  0.50400001928E-02 0. -1.
        1   -1    0    0  501    0  0.00000000000E+00  0.00000000000E+00 -0.12228585813E+04  0.12228585813E+04  0.50400001928E-02 0.  1.
    10030    2    1    2    0    0  0.00000000000E+00  0.00000000000E+00 -0.14289438443E+03  0.23028227782E+04  0.22983850728E+04 0.  0.
        4    1    3    3  502    0 -0.10848683628E+04  0.28504894407E+03  0.17893450632E+03  0.11358747447E+04  0.12699999809E+01 0.  1.
       -4    1    3    3    0  502  0.10848683628E+04 -0.28504894407E+03 -0.32182889074E+03  0.11669480335E+04  0.12699999809E+01 0. -1.
</event>
<event>
 5   0  0.9519092E-05  0.2428254E+04  0.7818609E-02  0.8429001E-01
       -2   -1    0    0    0  501  0.00000000000E+00  0.00000000000E+00  0.74244540935E+03  0.74244540935E+03  0.25500000920E-02 0. -1.
        2   -1    0    0  501    0  0.00000000000E+00  0.00000000000E+00 -0.19854721816E+04  0.19854721816E+04  0.25500000920E-02 0.  1.
    10030    2    1    2    0    0  0.00000000000E+00  0.00000000000E+00 -0.12430267723E+04  0.27279175910E+04  0.24282542755E+04 0.  0.
        4    1    3    3  502    0  0.46786855550E+03  0.21302752232E+03  0.61414298399E+03  0.80090881389E+03  0.12699999809E+01 0. -1.
       -4    1    3    3    0  502 -0.46786855550E+03 -0.21302752232E+03 -0.18571697563E+04  0.19270087771E+04  0.12699999809E+01 0.  1.
</event>
<event>
 5   0  0.9182865E-05  0.2402910E+04  0.7818609E-02  0.8438415E-01
       -2   -1    0    0    0  501  0.00000000000E+00  0.00000000000E+00  0.19049572364E+04  0.19049572364E+04  0.25500000920E-02 0. -1.
        2   -1    0    0  501    0  0.00000000000E+00  0.00000000000E+00 -0.75775680211E+03  0.75775680211E+03  0.25500000920E-02 0.  1.
    10030    2    1    2    0    0  0.00000000000E+00  0.00000000000E+00  0.11472004343E+04  0.26627140385E+04  0.24029101553E+04 0.  0.
        3    1    3    3  502    0 -0.11348471591E+04  0.39266621782E+03  0.53170416945E+03  0.13133065777E+04  0.10100000352E+00 0.  1.
       -3    1    3    3    0  502  0.11348471591E+04 -0.39266621782E+03  0.61549626488E+03  0.13494074608E+04  0.10100000352E+00 0. -1.
</event>
<event>
 5   0  0.4260395E-05  0.2446694E+04  0.7818609E-02  0.8422226E-01
        1   -1    0    0  501    0  0.00000000000E+00  0.00000000000E+00  0.19215205707E+04  0.19215205707E+04  0.50400001928E-02 0.  1.
       -1   -1    0    0    0  501  0.00000000000E+00  0.00000000000E+00 -0.77885067043E+03  0.77885067045E+03  0.50400001928E-02 0. -1.
    10030    2    1    2    0    0  0.00000000000E+00  0.00000000000E+00  0.11426699003E+04  0.27003712412E+04  0.24466937567E+04 0.  0.
        4    1    3    3  502    0 -0.60435901681E+03 -0.27992210694E+03 -0.56120051514E+03  0.87094996312E+03  0.12699999809E+01 0. -1.
       -4    1    3    3    0  502  0.60435901681E+03  0.27992210694E+03  0.17038704154E+04  0.18294212780E+04  0.12699999809E+01 0.  1.
</event>
<event>
 5   0  0.9491680E-05  0.2402828E+04  0.7818609E-02  0.8438446E-01
       -2   -1    0    0    0  501  0.00000000000E+00  0.00000000000E+00  0.72600768521E+03  0.72600768521E+03  0.25500000920E-02 0. -1.
        2   -1    0    0  501    0  0.00000000000E+00  0.00000000000E+00 -0.19881272586E+04  0.19881272586E+04  0.25500000920E-02 0.  1.
    10030    2    1    2    0    0  0.00000000000E+00  0.00000000000E+00 -0.12621195733E+04  0.27141349438E+04  0.24028280578E+04 0.  0.
        5    1    3    3  502    0 -0.34263420400E+03 -0.91628753762E+03 -0.14188347786E+04  0.17233964339E+04  0.46999998093E+01 0.  1.
       -5    1    3    3    0  502  0.34263420400E+03  0.91628753762E+03  0.15671520529E+03  0.99073850986E+03  0.46999998093E+01 0. -1.
</event>
<event>
 5   0  0.9182865E-05  0.2422575E+04  0.7818609E-02  0.8431100E-01
        2   -1    0    0  501    0  0.00000000000E+00  0.00000000000E+00  0.15768569781E+04  0.15768569781E+04  0.25500000920E-02 0. -1.
       -2   -1    0    0    0  501  0.00000000000E+00  0.00000000000E+00 -0.93046932798E+03  0.93046932799E+03  0.25500000920E-02 0.  1.
    10030    2    1    2    0    0  0.00000000000E+00  0.00000000000E+00  0.64638765009E+03  0.25073263061E+04  0.24225747070E+04 0.  0.
        3    1    3    3  502    0  0.15327566774E+02  0.79122527897E+03  0.12723056596E+04  0.14983437783E+04  0.10100000352E+00 0. -1.
       -3    1    3    3    0  502 -0.15327566774E+02 -0.79122527897E+03 -0.62591800954E+03  0.10089825277E+04  0.10100000352E+00 0.  1.
</event>
<event>
 5   0  0.9519092E-05  0.2396890E+04  0.7818609E-02  0.8440669E-01
       -2   -1    0    0    0  501  0.00000000000E+00  0.00000000000E+00  0.65650400001E+03  0.65650400002E+03  0.25500000920E-02 0. -1.
        2   -1    0    0  501    0  0.00000000000E+00  0.00000000000E+00 -0.21877553651E+04  0.21877553651E+04  0.25500000920E-02 0.  1.
    10030    2    1    2    0    0  0.00000000000E+00  0.00000000000E+00 -0.15312513651E+04  0.28442593651E+04  0.23968897749E+04 0.  0.
        4    1    3    3  502    0 -0.41412985869E+03  0.29901444563E+03 -0.20521136527E+04  0.21147305349E+04  0.12699999809E+01 0.  1.
       -4    1    3    3    0  502  0.41412985869E+03 -0.29901444563E+03  0.52086228764E+03  0.72952883023E+03  0.12699999809E+01 0. -1.
</event>
<event>
 5   0  0.9750757E-05  0.2428294E+04  0.7818609E-02  0.8428986E-01
        2   -1    0    0  501    0  0.00000000000E+00  0.00000000000E+00  0.92318062422E+03  0.92318062422E+03  0.25500000920E-02 0.  1.
       -2   -1    0    0    0  501  0.00000000000E+00  0.00000000000E+00 -0.15968200681E+04  0.15968200681E+04  0.25500000920E-02 0. -1.
    10030    2    1    2    0    0  0.00000000000E+00  0.00000000000E+00 -0.67363944384E+03  0.25200006923E+04  0.24282943373E+04 0.  0.
        2    1    3    3  502    0  0.25479712947E+03 -0.45407977993E+03 -0.14750757700E+04  0.15642757273E+04  0.25500000920E-02 0. -1.
       -2    1    3    3    0  502 -0.25479712947E+03  0.45407977993E+03  0.80143632619E+03  0.95572496497E+03  0.25500000920E-02 0.  1.
</event>
<event>
 5   0  0.9750757E-05  0.2341610E+04  0.7818609E-02  0.8461693E-01
        2   -1    0    0  501    0  0.00000000000E+00  0.00000000000E+00  0.20222093551E+04  0.20222093551E+04  0.25500000920E-02 0. -1.
       -2   -1    0    0    0  501  0.00000000000E+00  0.00000000000E+00 -0.67786445403E+03  0.67786445403E+03  0.25500000920E-02 0.  1.
    10030    2    1    2    0    0  0.00000000000E+00  0.00000000000E+00  0.13443449011E+04  0.27000738091E+04  0.23416095665E+04 0.  0.
        2    1    3    3  502    0 -0.99647466997E+03 -0.53913130230E+03  0.10125951773E+04  0.15195306256E+04  0.25500000920E-02 0. -1.
       -2    1    3    3    0  502  0.99647466997E+03  0.53913130230E+03  0.33174972380E+03  0.11805431836E+04  0.25500000920E-02 0.  1.
</event>
<event>
 5   0  0.9750757E-05  0.1538569E+04  0.7818609E-02  0.8859202E-01
        2   -1    0    0  501    0  0.00000000000E+00  0.00000000000E+00  0.92044403419E+03  0.92044403420E+03  0.25500000920E-02 0.  1.
       -2   -1    0    0    0  501  0.00000000000E+00  0.00000000000E+00 -0.64294931767E+03  0.64294931767E+03  0.25500000920E-02 0. -1.
    10030    2    1    2    0    0  0.00000000000E+00  0.00000000000E+00  0.27749471653E+03  0.15633933519E+04  0.15385692883E+04 0.  0.
        2    1    3    3  502    0 -0.35187464987E+03 -0.54849961628E+03 -0.27666561222E+03  0.70796289400E+03  0.25500000920E-02 0. -1.
       -2    1    3    3    0  502  0.35187464987E+03  0.54849961628E+03  0.55416032874E+03  0.85543045787E+03  0.25500000920E-02 0.  1.
</event>
<event>
 5   0  0.9182865E-05  0.2485646E+04  0.7818609E-02  0.8408117E-01
        2   -1    0    0  501    0  0.00000000000E+00  0.00000000000E+00  0.15450900517E+04  0.15450900517E+04  0.25500000920E-02 0.  1.
       -2   -1    0    0    0  501  0.00000000000E+00  0.00000000000E+00 -0.99968828176E+03  0.99968828177E+03  0.25500000920E-02 0. -1.
    10030    2    1    2    0    0  0.00000000000E+00  0.00000000000E+00  0.54540176993E+03  0.25447783335E+04  0.24856455250E+04 0.  0.
        3    1    3    3  502    0 -0.83239094949E+03 -0.13787313217E+03 -0.66154564056E+03  0.10721596607E+04  0.10100000352E+00 0. -1.
       -3    1    3    3    0  502  0.83239094949E+03  0.13787313217E+03  0.12069474105E+04  0.14726186727E+04  0.10100000352E+00 0.  1.
</event>
<event>
 5   0  0.9519092E-05  0.2399386E+04  0.7818609E-02  0.8439733E-01
        2   -1    0    0  501    0  0.00000000000E+00  0.00000000000E+00  0.14897366987E+04  0.14897366987E+04  0.25500000920E-02 0.  1.
       -2   -1    0    0    0  501  0.00000000000E+00  0.00000000000E+00 -0.96611955970E+03  0.96611955971E+03  0.25500000920E-02 0. -1.
    10030    2    1    2    0    0  0.00000000000E+00  0.00000000000E+00  0.52361713904E+03  0.24558562584E+04  0.23993863911E+04 0.  0.
        4    1    3    3  502    0  0.66947062880E+03  0.99550995851E+03  0.26752116584E+03  0.12291461213E+04  0.12699999809E+01 0. -1.
       -4    1    3    3    0  502 -0.66947062880E+03 -0.99550995851E+03  0.25609597320E+03  0.12267101372E+04  0.12699999809E+01 0.  1.
</event>
<event>
 5   0  0.9144244E-05  0.2419918E+04  0.7818609E-02  0.8432084E-01
       -2   -1    0    0    0  501  0.00000000000E+00  0.00000000000E+00  0.13899263166E+04  0.13899263166E+04  0.25500000920E-02 0. -1.
        2   -1    0    0  501    0  0.00000000000E+00  0.00000000000E+00 -0.10532939073E+04  0.10532939073E+04  0.25500000920E-02 0.  1.
    10030    2    1    2    0    0  0.00000000000E+00  0.00000000000E+00  0.33663240929E+03  0.24432202240E+04  0.24199181151E+04 0.  0.
        1    1    3    3  502    0 -0.52399003241E+01 -0.64195919233E+03 -0.86716280104E+03  0.10789394722E+04  0.50400001928E-02 0.  1.
       -1    1    3    3    0  502  0.52399003241E+01  0.64195919233E+03  0.12037952103E+04  0.13642807518E+04  0.50400001928E-02 0. -1.
</event>
<event>
 5   0  0.4208577E-05  0.2384358E+04  0.7818609E-02  0.8445383E-01
        1   -1    0    0  501    0  0.00000000000E+00  0.00000000000E+00  0.16377420806E+04  0.16377420806E+04  0.50400001928E-02 0.  1.
       -1   -1    0    0    0  501  0.00000000000E+00  0.00000000000E+00 -0.86783562121E+03  0.86783562122E+03  0.50400001928E-02 0. -1.
    10030    2    1    2    0    0  0.00000000000E+00  0.00000000000E+00  0.76990645940E+03  0.25055777018E+04  0.23843581241E+04 0.  0.
        1    1    3    3  502    0  0.61824450931E+03  0.10555246361E+03  0.14503631813E+04  0.15801648501E+04  0.50400001928E-02 0.  1.
       -1    1    3    3    0  502 -0.61824450931E+03 -0.10555246361E+03 -0.68045672185E+03  0.92541285176E+03  0.50400001928E-02 0. -1.
</event>
<event>
 5   0  0.4061631E-05  0.1704545E+04  0.7818609E-02  0.8758776E-01
       -1   -1    0    0    0  501  0.00000000000E+00  0.00000000000E+00  0.54283225299E+03  0.54283225301E+03  0.50400001928E-02 0. -1.
        1   -1    0    0  501    0  0.00000000000E+00  0.00000000000E+00 -0.13381083570E+04  0.13381083570E+04  0.50400001928E-02 0.  1.
    10030    2    1    2    0    0  0.00000000000E+00  0.00000000000E+00 -0.79527610397E+03  0.18809406100E+04  0.17045449530E+04 0.  0.
        3    1    3    3  502    0  0.18436625670E+03  0.32019951834E+03  0.44985727306E+03  0.58214278702E+03  0.10100000352E+00 0. -1.
       -3    1    3    3    0  502 -0.18436625670E+03 -0.32019951834E+03 -0.12451333770E+04  0.12987978230E+04  0.10100000352E+00 0.  1.
</event>
<event>
 5   0  0.4208577E-05  0.2405074E+04  0.7818609E-02  0.8437606E-01
       -1   -1    0    0    0  501  0.00000000000E+00  0.00000000000E+00  0.76882830683E+03  0.76882830684E+03  0.50400001928E-02 0.  1.
        1   -1    0    0  501    0  0.00000000000E+00  0.00000000000E+00 -0.18809075831E+04  0.18809075831E+04  0.50400001928E-02 0. -1.
    10030    2    1    2    0    0  0.00000000000E+00  0.00000000000E+00 -0.11120792762E+04  0.26497358899E+04  0.24050737971E+04 0.  0.
        1    1    3    3  502    0 -0.65442628192E+03  0.10088611237E+04 -0.56102390204E+03  0.13269598125E+04  0.50400001928E-02 0. -1.
       -1    1    3    3    0  502  0.65442628192E+03 -0.10088611237E+04 -0.55105537419E+03  0.13227760774E+04  0.50400001928E-02 0.  1.
</event>
<event>
 5   0  0.9519092E-05  0.2122137E+04  0.7818609E-02  0.8551554E-01
        2   -1    0    0  501    0  0.00000000000E+00  0.00000000000E+00  0.15915878236E+04  0.15915878236E+04  0.25500000920E-02 0.  1.
       -2   -1    0    0    0  501  0.00000000000E+00  0.00000000000E+00 -0.70738544800E+03  0.70738544800E+03  0.25500000920E-02 0. -1.
    10030    2    1    2    0    0  0.00000000000E+00  0.00000000000E+00  0.88420237555E+03  0.22989732716E+04  0.21221367209E+04 0.  0.
        4    1    3    3  502    0  0.31370826831E+03 -0.20021669739E+03 -0.63436252062E+03  0.73547061396E+03  0.12699999809E+01 0. -1.
       -4    1    3    3    0  502 -0.31370826831E+03  0.20021669739E+03  0.15185648962E+04  0.15635026576E+04  0.12699999809E+01 0.  1.
</event>
<event>
 5   0  0.9750757E-05  0.2350347E+04  0.7818609E-02  0.8458330E-01
        2   -1    0    0  501    0  0.00000000000E+00  0.00000000000E+00  0.15846813441E+04  0.15846813441E+04  0.25500000920E-02 0.  1.
       -2   -1    0    0    0  501  0.00000000000E+00  0.00000000000E+00 -0.87148958786E+03  0.87148958786E+03  0.25500000920E-02 0. -1.
    10030    2    1    2    0    0  0.00000000000E+00  0.00000000000E+00  0.71319175626E+03  0.24561709320E+04  0.23503474564E+04 0.  0.
        2    1    3    3  502    0 -0.69198544817E+03 -0.57746909748E+03  0.11446850089E+04  0.14569207901E+04  0.25500000920E-02 0.  1.
       -2    1    3    3    0  502  0.69198544817E+03  0.57746909748E+03 -0.43149325262E+03  0.99925014190E+03  0.25500000920E-02 0. -1.
</event>
<event>
 5   0  0.9750757E-05  0.2328717E+04  0.7818609E-02  0.8466684E-01
        2   -1    0    0  501    0  0.00000000000E+00  0.00000000000E+00  0.83123765355E+03  0.83123765355E+03  0.25500000920E-02 0. -1.
       -2   -1    0    0    0  501  0.00000000000E+00  0.00000000000E+00 -0.16309779873E+04  0.16309779873E+04  0.25500000920E-02 0.  1.
    10030    2    1    2    0    0  0.00000000000E+00  0.00000000000E+00 -0.79974033375E+03  0.24622156408E+04  0.23287166553E+04 0.  0.
        2    1    3    3  502    0 -0.58344841402E+03  0.25413588090E+03 -0.14308229381E+04  0.15659665955E+04  0.25500000920E-02 0.  1.
       -2    1    3    3    0  502  0.58344841402E+03 -0.25413588090E+03  0.63108260439E+03  0.89624904539E+03  0.25500000920E-02 0. -1.
</event>
<event>
 5   0  0.9144244E-05  0.2357482E+04  0.7818609E-02  0.8455595E-01
        2   -1    0    0  501    0  0.00000000000E+00  0.00000000000E+00  0.13815589020E+04  0.13815589020E+04  0.25500000920E-02 0. -1.
       -2   -1    0    0    0  501  0.00000000000E+00  0.00000000000E+00 -0.10056978700E+04  0.10056978700E+04  0.25500000920E-02 0.  1.
    10030    2    1    2    0    0  0.00000000000E+00  0.00000000000E+00  0.37586103196E+03  0.23872567720E+04  0.23574824241E+04 0.  0.
        1    1    3    3  502    0  0.47309449391E+03  0.30443347274E+03  0.12368373434E+04  0.13587732532E+04  0.50400001928E-02 0. -1.
       -1    1    3    3    0  502 -0.47309449391E+03 -0.30443347274E+03 -0.86097631147E+03  0.10284835188E+04  0.50400001928E-02 0.  1.
</event>
<event>
 5   0  0.9491680E-05  0.2455197E+04  0.7818609E-02  0.8419123E-01
       -2   -1    0    0    0  501  0.00000000000E+00  0.00000000000E+00  0.12600757373E+04  0.12600757373E+04  0.25500000920E-02 0.  1.
        2   -1    0    0  501    0  0.00000000000E+00  0.00000000000E+00 -0.11959584517E+04  0.11959584517E+04  0.25500000920E-02 0. -1.
    10030    2    1    2    0    0  0.00000000000E+00  0.00000000000E+00  0.64117285599E+02  0.24560341890E+04  0.24551971227E+04 0.  0.
        5    1    3    3  502    0  0.14882740395E+03 -0.46089219383E+03  0.11604524986E+04  0.12574749707E+04  0.46999998093E+01 0.  1.
       -5    1    3    3    0  502 -0.14882740395E+03  0.46089219383E+03 -0.10963352130E+04  0.11985592183E+04  0.46999998093E+01 0. -1.
</event>
<event>
 5   0  0.3934906E-05  0.2412983E+04  0.7818609E-02  0.8434659E-01
       -1   -1    0    0    0  501  0.00000000000E+00  0.00000000000E+00  0.13369461312E+04  0.13369461312E+04  0.50400001928E-02 0.  1.
        1   -1    0    0  501    0  0.00000000000E+00  0.00000000000E+00 -0.10887665298E+04  0.10887665298E+04  0.50400001928E-02 0. -1.
    10030    2    1    2    0    0  0.00000000000E+00  0.00000000000E+00  0.24817960144E+03  0.24257126610E+04  0.24129833815E+04 0.  0.
        2    1    3    3  502    0 -0.45425508048E+03 -0.58081843227E+02 -0.99799788182E+03  0.10980532550E+04  0.25500000920E-02 0. -1.
       -2    1    3    3    0  502  0.45425508048E+03  0.58081843227E+02  0.12461774833E+04  0.13276594060E+04  0.25500000920E-02 0.  1.
</event>
<event>
 5   0  0.4061631E-05  0.2422105E+04  0.7818609E-02  0.8431274E-01
       -1   -1    0    0    0  501  0.00000000000E+00  0.00000000000E+00  0.78671251084E+03  0.78671251086E+03  0.50400001928E-02 0. -1.
        1   -1    0    0  501    0  0.00000000000E+00  0.00000000000E+00 -0.18642750134E+04  0.18642750134E+04  0.50400001928E-02 0.  1.
    10030    2    1    2    0    0  0.00000000000E+00  0.00000000000E+00 -0.10775625025E+04  0.26509875242E+04  0.24221052634E+04 0.  0.
        3    1    3    3  502    0 -0.15808269689E+03 -0.11056616827E+04 -0.10511773210E+04  0.15337704085E+04  0.10100000352E+00 0.  1.
       -3    1    3    3    0  502  0.15808269689E+03  0.11056616827E+04 -0.26385181487E+02  0.11172171157E+04  0.10100000352E+00 0. -1.
</event>
<event>
 5   0  0.4208577E-05  0.2486615E+04  0.7818609E-02  0.8407770E-01
        1   -1    0    0  501    0  0.00000000000E+00  0.00000000000E+00  0.15529630355E+04  0.15529630355E+04  0.50400001928E-02 0.  1.
       -1   -1    0    0    0  501  0.00000000000E+00  0.00000000000E+00 -0.99539588303E+03  0.99539588304E+03  0.50400001928E-02 0. -1.
    10030    2    1    2    0    0  0.00000000000E+00  0.00000000000E+00  0.55756715251E+03  0.25483589186E+04  0.24866145758E+04 0.  0.
        1    1    3    3  502    0 -0.43218586869E+03 -0.51642725420E+03 -0.79231466221E+03  0.10398289561E+04  0.50400001928E-02 0. -1.
       -1    1    3    3    0  502  0.43218586869E+03  0.51642725420E+03  0.13498818147E+04  0.15085299625E+04  0.50400001928E-02 0.  1.
</event>
<event>
 5   0  0.3934906E-05  0.2343160E+04  0.7818609E-02  0.8461095E-01
       -1   -1    0    0    0  501  0.00000000000E+00  0.00000000000E+00  0.15030617311E+04  0.15030617311E+04  0.50400001928E-02 0.  1.
        1   -1    0    0  501    0  0.00000000000E+00  0.00000000000E+00 -0.91320277877E+03  0.91320277878E+03  0.50400001928E-02 0. -1.
    10030    2    1    2    0    0  0.00000000000E+00  0.00000000000E+00  0.58985895232E+03  0.24162645099E+04  0.23431603868E+04 0.  0.
        2    1    3    3  502    0 -0.85572463987E+02 -0.79066059205E+03  0.11820802582E+04  0.14247036728E+04  0.25500000920E-02 0.  1.
       -2    1    3    3    0  502  0.85572463987E+02  0.79066059205E+03 -0.59222130592E+03  0.99156083706E+03  0.25500000920E-02 0. -1.
</event>
<event>
 5   0  0.9182865E-05  0.2453894E+04  0.7818609E-02  0.8419598E-01
        2   -1    0    0  501    0  0.00000000000E+00  0.00000000000E+00  0.90501437739E+03  0.90501437739E+03  0.25500000920E-02 0.  1.
       -2   -1    0    0    0  501  0.00000000000E+00  0.00000000000E+00 -0.16633974794E+04  0.16633974794E+04  0.25500000920E-02 0. -1.
    10030    2    1    2    0    0  0.00000000000E+00  0.00000000000E+00 -0.75838310199E+03  0.25684118568E+04  0.24538937501E+04 0.  0.
        3    1    3    3  502    0 -0.52418564716E+03 -0.89435661959E+03 -0.10661393025E+04  0.14870431662E+04  0.10100000352E+00 0. -1.
       -3    1    3    3    0  502  0.52418564716E+03  0.89435661959E+03  0.30775620052E+03  0.10813686905E+04  0.10100000352E+00 0.  1.
</event>
<event>
 5   0  0.3934906E-05  0.2411502E+04  0.7818609E-02  0.8435210E-01
        1   -1    0    0  501    0  0.00000000000E+00  0.00000000000E+00  0.96830876503E+03  0.96830876504E+03  0.50400001928E-02 0.  1.
       -1   -1    0    0    0  501  0.00000000000E+00  0.00000000000E+00 -0.15014168191E+04  0.15014168191E+04  0.50400001928E-02 0. -1.
    10030    2    1    2    0    0  0.00000000000E+00  0.00000000000E+00 -0.53310805403E+03  0.24697255841E+04  0.24115016615E+04 0.  0.
        2    1    3    3  502    0 -0.32038734939E+02  0.17153883053E+02  0.96774773213E+03  0.96842986803E+03  0.25500000920E-02 0.  1.
       -2    1    3    3    0  502  0.32038734939E+02 -0.17153883053E+02 -0.15008557862E+04  0.15012957161E+04  0.25500000920E-02 0. -1.
</event>
<event>
 5   0  0.9491680E-05  0.2392881E+04  0.7818609E-02  0.8442174E-01
        2   -1    0    0  501    0  0.00000000000E+00  0.00000000000E+00  0.69237398084E+03  0.69237398085E+03  0.25500000920E-02 0.  1.
       -2   -1    0    0    0  501  0.00000000000E+00  0.00000000000E+00 -0.20674804688E+04  0.20674804688E+04  0.25500000920E-02 0. -1.
    10030    2    1    2    0    0  0.00000000000E+00  0.00000000000E+00 -0.13751064880E+04  0.27598544497E+04  0.23928808433E+04 0.  0.
        5    1    3    3  502    0 -0.10657204338E+04  0.12484508413E+03 -0.77141848366E+02  0.10757877545E+04  0.46999998093E+01 0.  1.
       -5    1    3    3    0  502  0.10657204338E+04 -0.12484508413E+03 -0.12979646396E+04  0.16840666951E+04  0.46999998093E+01 0. -1.
</event>
<event>
 5   0  0.9144244E-05  0.2448590E+04  0.7818609E-02  0.8421533E-01
       -2   -1    0    0    0  501  0.00000000000E+00  0.00000000000E+00  0.49880265692E+03  0.49880265692E+03  0.25500000920E-02 0.  1.
        2   -1    0    0  501    0  0.00000000000E+00  0.00000000000E+00 -0.30049919001E+04  0.30049919001E+04  0.25500000920E-02 0. -1.
    10030    2    1    2    0    0  0.00000000000E+00  0.00000000000E+00 -0.25061892432E+04  0.35037945570E+04  0.24485897523E+04 0.  0.
        1    1    3    3  502    0  0.10637961596E+04  0.55198040118E+03 -0.89520610949E+03  0.14959072869E+04  0.50400001928E-02 0.  1.
       -1    1    3    3    0  502 -0.10637961596E+04 -0.55198040118E+03 -0.16109831337E+04  0.20078872701E+04  0.50400001928E-02 0. -1.
</event>
<event>
 5   0  0.4018942E-05  0.2440306E+04  0.7818609E-02  0.8424566E-01
       -1   -1    0    0    0  501  0.00000000000E+00  0.00000000000E+00  0.91334319719E+03  0.91334319720E+03  0.50400001928E-02 0. -1.
        1   -1    0    0  501    0  0.00000000000E+00  0.00000000000E+00 -0.16300258543E+04  0.16300258543E+04  0.50400001928E-02 0.  1.
    10030    2    1    2    0    0  0.00000000000E+00  0.00000000000E+00 -0.71668265713E+03  0.25433690515E+04  0.24403057393E+04 0.  0.
        5    1    3    3  502    0 -0.64801302624E+03  0.10332007660E+04 -0.32038583942E+03  0.12609892471E+04  0.46999998093E+01 0.  1.
       -5    1    3    3    0  502  0.64801302624E+03 -0.10332007660E+04 -0.39629681771E+03  0.12823798045E+04  0.46999998093E+01 0. -1.
</event>
<event>
 5   0  0.4061631E-05  0.2455747E+04  0.7818609E-02  0.8418923E-01
        1   -1    0    0  501    0  0.00000000000E+00  0.00000000000E+00  0.11959474273E+04  0.11959474273E+04  0.50400001928E-02 0.  1.
       -1   -1    0    0    0  501  0.00000000000E+00  0.00000000000E+00 -0.12606516787E+04  0.12606516787E+04  0.50400001928E-02 0. -1.
    10030    2    1    2    0    0  0.00000000000E+00  0.00000000000E+00 -0.64704251412E+02  0.24565991060E+04  0.24557468370E+04 0.  0.
        3    1    3    3  502    0  0.31191548589E+03 -0.32963606847E+03 -0.11736783708E+04  0.12583608927E+04  0.10100000352E+00 0. -1.
       -3    1    3    3    0  502 -0.31191548589E+03  0.32963606847E+03  0.11089741194E+04  0.11982382133E+04  0.10100000352E+00 0.  1.
</event>
<event>
 5   0  0.4208577E-05  0.2350846E+04  0.7818609E-02  0.8458139E-01
       -1   -1    0    0    0  501  0.00000000000E+00  0.00000000000E+00  0.10734287593E+04  0.10734287593E+04  0.50400001928E-02 0. -1.
        1   -1    0    0  501    0  0.00000000000E+00  0.00000000000E+00 -0.12871088416E+04  0.12871088416E+04  0.50400001928E-02 0.  1.
    10030    2    1    2    0    0  0.00000000000E+00  0.00000000000E+00 -0.21368008234E+03  0.23605376010E+04  0.23508463557E+04 0.  0.
        1    1    3    3  502    0 -0.98734862730E+03 -0.28546235352E+03  0.46583871304E+03  0.11284288962E+04  0.50400001928E-02 0. -1.
       -1    1    3    3    0  502  0.98734862730E+03  0.28546235352E+03 -0.67951879538E+03  0.12321087048E+04  0.50400001928E-02 0.  1.
</event>
<event>
 5   0  0.4018942E-05  0.2447028E+04  0.7818609E-02  0.8422104E-01
        1   -1    0    0  501    0  0.00000000000E+00  0.00000000000E+00  0.11258961012E+04  0.11258961012E+04  0.50400001928E-02 0.  1.
       -1   -1    0    0    0  501  0.00000000000E+00  0.00000000000E+00 -0.13295958519E+04  0.13295958519E+04  0.50400001928E-02 0. -1.
    10030    2    1    2    0    0  0.00000000000E+00  0.00000000000E+00 -0.20369975064E+03  0.24554919531E+04  0.24470282269E+04 0.  0.
        5    1    3    3  502    0 -0.76793802637E+03 -0.42183453121E+03  0.75508953360E+03  0.11566570269E+04  0.46999998093E+01 0.  1.
       -5    1    3    3    0  502  0.76793802637E+03  0.42183453121E+03 -0.95878928425E+03  0.12988349262E+04  0.46999998093E+01 0. -1.
</event>
<event>
 5   0  0.9750757E-05  0.1237600E+04  0.7818609E-02  0.9080567E-01
       -2   -1    0    0    0  501  0.00000000000E+00  0.00000000000E+00  0.25935807437E+03  0.25935807438E+03  0.25500000920E-02 0. -1.
        2   -1    0    0  501    0  0.00000000000E+00  0.00000000000E+00 -0.14763890352E+04  0.14763890352E+04  0.25500000920E-02 0.  1.
    10030    2    1    2    0    0  0.00000000000E+00  0.00000000000E+00 -0.12170309609E+04  0.17357471096E+04  0.12375999632E+04 0.  0.
        2    1    3    3  502    0 -0.50037021998E+03 -0.64515931478E+01 -0.97991134850E+02  0.50991591720E+03  0.25500000920E-02 0. -1.
       -2    1    3    3    0  502  0.50037021998E+03  0.64515931478E+01 -0.11190398260E+04  0.12258311924E+04  0.25500000920E-02 0.  1.
</event>
<event>
 5   0  0.3934906E-05  0.2441656E+04  0.7818609E-02  0.8424071E-01
       -1   -1    0    0    0  501  0.00000000000E+00  0.00000000000E+00  0.18407412236E+04  0.18407412236E+04  0.50400001928E-02 0. -1.
        1   -1    0    0  501    0  0.00000000000E+00  0.00000000000E+00 -0.80968534418E+03  0.80968534420E+03  0.50400001928E-02 0.  1.
    10030    2    1    2    0    0  0.00000000000E+00  0.00000000000E+00  0.10310558794E+04  0.26504265678E+04  0.24416561521E+04 0.  0.
        2    1    3    3  502    0  0.12960791455E+03 -0.10835317180E+04 -0.78612518681E+02  0.10940836913E+04  0.25500000920E-02 0.  1.
       -2    1    3    3    0  502 -0.12960791455E+03  0.10835317180E+04  0.11096683981E+04  0.15563428765E+04  0.25500000920E-02 0. -1.
</event>
<event>
 5   0  0.9491680E-05  0.2391758E+04  0.7818609E-02  0.8442596E-01
        2   -1    0    0  501    0  0.00000000000E+00  0.00000000000E+00  0.19958215749E+04  0.19958215749E+04  0.25500000920E-02 0. -1.
       -2   -1    0    0    0  501  0.00000000000E+00  0.00000000000E+00 -0.71656010817E+03  0.71656010818E+03  0.25500000920E-02 0.  1.
    10030    2    1    2    0    0  0.00000000000E+00  0.00000000000E+00  0.12792614667E+04  0.27123816830E+04  0.23917576161E+04 0.  0.
        5    1    3    3  502    0 -0.11167445237E+04 -0.19302996465E+03  0.10725439757E+04  0.15603690488E+04  0.46999998093E+01 0. -1.
       -5    1    3    3    0  502  0.11167445237E+04  0.19302996465E+03  0.20671749096E+03  0.11520126343E+04  0.46999998093E+01 0.  1.
</event>
<event>
 5   0  0.4208577E-05  0.2164089E+04  0.7818609E-02  0.8533525E-01
        1   -1    0    0  501    0  0.00000000000E+00  0.00000000000E+00  0.12939535281E+04  0.12939535281E+04  0.50400001928E-02 0. -1.
       -1   -1    0    0    0  501  0.00000000000E+00  0.00000000000E+00 -0.90483989234E+03  0.90483989235E+03  0.50400001928E-02 0.  1.
    10030    2    1    2    0    0  0.00000000000E+00  0.00000000000E+00  0.38911363579E+03  0.21987934205E+04  0.21640894354E+04 0.  0.
        1    1    3    3  502    0 -0.55928232920E+03 -0.82622952098E+03  0.62004296122E+03  0.11746936702E+04  0.50400001928E-02 0. -1.
       -1    1    3    3    0  502  0.55928232920E+03  0.82622952098E+03 -0.23092932543E+03  0.10240997503E+04  0.50400001928E-02 0.  1.
</event>
<event>
 5   0  0.9182865E-05  0.2396675E+04  0.7818609E-02  0.8440749E-01
       -2   -1    0    0    0  501  0.00000000000E+00  0.00000000000E+00  0.74435731537E+03  0.74435731537E+03  0.25500000920E-02 0. -1.
        2   -1    0    0  501    0  0.00000000000E+00  0.00000000000E+00 -0.19291981976E+04  0.19291981976E+04  0.25500000920E-02 0.  1.
    10030    2    1    2    0    0  0.00000000000E+00  0.00000000000E+00 -0.11848408822E+04  0.26735555130E+04  0.23966750228E+04 0.  0.
        3    1    3    3  502    0  0.20828880891E+03 -0.10318395034E+04  0.46393618938E+02  0.10536742223E+04  0.10100000352E+00 0. -1.
       -3    1    3    3    0  502 -0.20828880891E+03  0.10318395034E+04 -0.12312345012E+04  0.16198812906E+04  0.10100000352E+00 0.  1.
</event>
<event>
 5   0  0.9491680E-05  0.2513607E+04  0.7818609E-02  0.8398154E-01
       -2   -1    0    0    0  501  0.00000000000E+00  0.00000000000E+00  0.93913816789E+03  0.93913816790E+03  0.25500000920E-02 0.  1.
        2   -1    0    0  501    0  0.00000000000E+00  0.00000000000E+00 -0.16819200778E+04  0.16819200778E+04  0.25500000920E-02 0. -1.
    10030    2    1    2    0    0  0.00000000000E+00  0.00000000000E+00 -0.74278190986E+03  0.26210582457E+04  0.25136072409E+04 0.  0.
        5    1    3    3  502    0 -0.56152170019E+03 -0.11006308239E+04 -0.61108330022E+03  0.13784555561E+04  0.46999998093E+01 0. -1.
       -5    1    3    3    0  502  0.56152170019E+03  0.11006308239E+04 -0.13169860964E+03  0.12426026896E+04  0.46999998093E+01 0.  1.
</event>
<event>
 5   0  0.9491680E-05  0.2397164E+04  0.7818609E-02  0.8440566E-01
       -2   -1    0    0    0  501  0.00000000000E+00  0.00000000000E+00  0.55232583781E+03  0.55232583781E+03  0.25500000920E-02 0. -1.
        2   -1    0    0  501    0  0.00000000000E+00  0.00000000000E+00 -0.26009990359E+04  0.26009990359E+04  0.25500000920E-02 0.  1.
    10030    2    1    2    0    0  0.00000000000E+00  0.00000000000E+00 -0.20486731981E+04  0.31533248737E+04  0.23971641343E+04 0.  0.
        5    1    3    3  502    0  0.29680685868E+03 -0.11370563836E+04 -0.13344718415E+04  0.17781531758E+04  0.46999998093E+01 0.  1.
       -5    1    3    3    0  502 -0.29680685868E+03  0.11370563836E+04 -0.71420135660E+03  0.13751716979E+04  0.46999998093E+01 0. -1.
</event>
<event>
 5   0  0.9182865E-05  0.2397773E+04  0.7818609E-02  0.8440338E-01
        2   -1    0    0  501    0  0.00000000000E+00  0.00000000000E+00  0.26004187492E+04  0.26004187492E+04  0.25500000920E-02 0. -1.
       -2   -1    0    0    0  501  0.00000000000E+00  0.00000000000E+00 -0.55272964933E+03  0.55272964933E+03  0.25500000920E-02 0.  1.
    10030    2    1    2    0    0  0.00000000000E+00  0.00000000000E+00  0.20476890999E+04  0.31531483986E+04  0.23977727527E+04 0.  0.
        3    1    3    3  502    0 -0.15414590496E+03 -0.10677279698E+04  0.33608829224E+03  0.11299377540E+04  0.10100000352E+00 0.  1.
       -3    1    3    3    0  502  0.15414590496E+03  0.10677279698E+04  0.17116008077E+04  0.20232106446E+04  0.10100000352E+00 0. -1.
</event>
<event>
 5   0  0.4208577E-05  0.2290681E+04  0.7818609E-02  0.8481604E-01
        1   -1    0    0  501    0  0.00000000000E+00  0.00000000000E+00  0.14310631935E+04  0.14310631935E+04  0.50400001928E-02 0.  1.
       -1   -1    0    0    0  501  0.00000000000E+00  0.00000000000E+00 -0.91666478816E+03  0.91666478818E+03  0.50400001928E-02 0. -1.
    10030    2    1    2    0    0  0.00000000000E+00  0.00000000000E+00  0.51439840529E+03  0.23477279816E+04  0.22906813302E+04 0.  0.
        1    1    3    3  502    0  0.13151498739E+03  0.74847590710E+03  0.11354483841E+04  0.13662925779E+04  0.50400001928E-02 0.  1.
       -1    1    3    3    0  502 -0.13151498739E+03 -0.74847590710E+03 -0.62104997885E+03  0.98143540372E+03  0.50400001928E-02 0. -1.
</event>
<event>
 5   0  0.4260395E-05  0.2376481E+04  0.7818609E-02  0.8448361E-01
       -1   -1    0    0    0  501  0.00000000000E+00  0.00000000000E+00  0.11842172707E+04  0.11842172707E+04  0.50400001928E-02 0.  1.
        1   -1    0    0  501    0  0.00000000000E+00  0.00000000000E+00 -0.11922776288E+04  0.11922776288E+04  0.50400001928E-02 0. -1.
    10030    2    1    2    0    0  0.00000000000E+00  0.00000000000E+00 -0.80603581412E+01  0.23764948995E+04  0.23764812303E+04 0.  0.
        4    1    3    3  502    0  0.79704558190E+03 -0.45775211470E+02  0.87605278695E+03  0.11852624722E+04  0.12699999809E+01 0.  1.
       -4    1    3    3    0  502 -0.79704558190E+03  0.45775211470E+02 -0.88411314509E+03  0.11912324273E+04  0.12699999809E+01 0. -1.
</event>
<event>
 5   0  0.4018942E-05  0.2411877E+04  0.7818609E-02  0.8435070E-01
       -1   -1    0    0    0  501  0.00000000000E+00  0.00000000000E+00  0.75138883626E+03  0.75138883628E+03  0.50400001928E-02 0.  1.
        1   -1    0    0  501    0  0.00000000000E+00  0.00000000000E+00 -0.19354655396E+04  0.19354655396E+04  0.50400001928E-02 0. -1.
    10030    2    1    2    0    0  0.00000000000E+00  0.00000000000E+00 -0.11840767034E+04  0.26868543759E+04  0.24118766133E+04 0.  0.
        5    1    3    3  502    0 -0.10656431511E+04 -0.56320765509E+03 -0.54937131952E+03  0.13246241448E+04  0.46999998093E+01 0. -1.
       -5    1    3    3    0  502  0.10656431511E+04  0.56320765509E+03 -0.63470538384E+03  0.13622302311E+04  0.46999998093E+01 0.  1.
</event>
<event>
 5   0  0.9750757E-05  0.2669170E+04  0.7818609E-02  0.8345078E-01
        2   -1    0    0  501    0  0.00000000000E+00  0.00000000000E+00  0.19432609266E+04  0.19432609266E+04  0.25500000920E-02 0.  1.
       -2   -1    0    0    0  501  0.00000000000E+00  0.00000000000E+00 -0.91656125077E+03  0.91656125077E+03  0.25500000920E-02 0. -1.
    10030    2    1    2    0    0  0.00000000000E+00  0.00000000000E+00  0.10266996758E+04  0.28598221774E+04  0.26691704070E+04 0.  0.
        2    1    3    3  502    0 -0.10089902553E+04  0.68218068272E+02 -0.41971675910E+03  0.10949325085E+04  0.25500000920E-02 0. -1.
       -2    1    3    3    0  502  0.10089902553E+04 -0.68218068272E+02  0.14464164349E+04  0.17648896689E+04  0.25500000920E-02 0.  1.
</event>
<event>
 5   0  0.4061631E-05  0.2369500E+04  0.7818609E-02  0.8451011E-01
        1   -1    0    0  501    0  0.00000000000E+00  0.00000000000E+00  0.20934372434E+04  0.20934372434E+04  0.50400001928E-02 0.  1.
       -1   -1    0    0    0  501  0.00000000000E+00  0.00000000000E+00 -0.67049192193E+03  0.67049192194E+03  0.50400001928E-02 0. -1.
    10030    2    1    2    0    0  0.00000000000E+00  0.00000000000E+00  0.14229453214E+04  0.27639291653E+04  0.23695001674E+04 0.  0.
        3    1    3    3  502    0 -0.87019475353E+03 -0.61226891350E+03  0.13192878831E+04  0.16948842616E+04  0.10100000352E+00 0.  1.
       -3    1    3    3    0  502  0.87019475353E+03  0.61226891350E+03  0.10365743838E+03  0.10690449038E+04  0.10100000352E+00 0. -1.
</event>
<event>
 5   0  0.4260395E-05  0.2413444E+04  0.7818609E-02  0.8434488E-01
        1   -1    0    0  501    0  0.00000000000E+00  0.00000000000E+00  0.11261527691E+04  0.11261527691E+04  0.50400001928E-02 0. -1.
       -1   -1    0    0    0  501  0.00000000000E+00  0.00000000000E+00 -0.12930552085E+04  0.12930552085E+04  0.50400001928E-02 0.  1.
    10030    2    1    2    0    0  0.00000000000E+00  0.00000000000E+00 -0.16690243936E+03  0.24192079776E+04  0.24134437666E+04 0.  0.
        4    1    3    3  502    0  0.31068637049E+03  0.10228067125E+04 -0.64471397246E+03  0.12483258033E+04  0.12699999809E+01 0.  1.
       -4    1    3    3    0  502 -0.31068637049E+03 -0.10228067125E+04  0.47781153310E+03  0.11708821743E+04  0.12699999809E+01 0. -1.
</event>
<event>
 5   0  0.9519092E-05  0.2184023E+04  0.7818609E-02  0.8525108E-01
       -2   -1    0    0    0  501  0.00000000000E+00  0.00000000000E+00  0.57651579911E+03  0.57651579911E+03  0.25500000920E-02 0. -1.
        2   -1    0    0  501    0  0.00000000000E+00  0.00000000000E+00 -0.20684413472E+04  0.20684413472E+04  0.25500000920E-02 0.  1.
    10030    2    1    2    0    0  0.00000000000E+00  0.00000000000E+00 -0.14919255481E+04  0.26449571463E+04  0.21840230001E+04 0.  0.
        4    1    3    3  502    0 -0.71763011988E+03  0.53925189548E+03  0.71319230579E+01  0.89768484056E+03  0.12699999809E+01 0. -1.
       -4    1    3    3    0  502  0.71763011988E+03 -0.53925189548E+03 -0.14990574712E+04  0.17472723058E+04  0.12699999809E+01 0.  1.
</event>
<event>
 5   0  0.4260395E-05  0.2348543E+04  0.7818609E-02  0.8459023E-01
        1   -1    0    0  501    0  0.00000000000E+00  0.00000000000E+00  0.25475911525E+04  0.25475911525E+04  0.50400001928E-02 0. -1.
       -1   -1    0    0    0  501  0.00000000000E+00  0.00000000000E+00 -0.54126194093E+03  0.54126194095E+03  0.50400001928E-02 0.  1.
    10030    2    1    2    0    0  0.00000000000E+00  0.00000000000E+00  0.20063292116E+04  0.30888530934E+04  0.23485434907E+04 0.  0.
        4    1    3    3  502    0 -0.62771277296E+03  0.92638880802E+03  0.14713036945E+04  0.18485009395E+04  0.12699999809E+01 0. -1.
       -4    1    3    3    0  502  0.62771277296E+03 -0.92638880802E+03  0.53502551702E+03  0.12403521539E+04  0.12699999809E+01 0.  1.
</event>
<event>
 5   0  0.4260395E-05  0.2397808E+04  0.7818609E-02  0.8440325E-01
       -1   -1    0    0    0  501  0.00000000000E+00  0.00000000000E+00  0.59287431006E+03  0.59287431008E+03  0.50400001928E-02 0. -1.
        1   -1    0    0  501    0  0.00000000000E+00  0.00000000000E+00 -0.24244107396E+04  0.24244107396E+04  0.50400001928E-02 0.  1.
    10030    2    1    2    0    0  0.00000000000E+00  0.00000000000E+00 -0.18315364295E+04  0.30172850497E+04  0.23978080362E+04 0.  0.
        4    1    3    3  502    0 -0.39918623246E+03  0.59548791073E+03  0.29343722914E+03  0.77463702491E+03  0.12699999809E+01 0. -1.
       -4    1    3    3    0  502  0.39918623246E+03 -0.59548791073E+03 -0.21249736587E+04  0.22426480248E+04  0.12699999809E+01 0.  1.
</event>
<event>
 5   0  0.4208577E-05  0.2395180E+04  0.7818609E-02  0.8441310E-01
       -1   -1    0    0    0  501  0.00000000000E+00  0.00000000000E+00  0.88640083166E+03  0.88640083167E+03  0.50400001928E-02 0. -1.
        1   -1    0    0  501    0  0.00000000000E+00  0.00000000000E+00 -0.16180290762E+04  0.16180290762E+04  0.50400001928E-02 0.  1.
    10030    2    1    2    0    0  0.00000000000E+00  0.00000000000E+00 -0.73162824458E+03  0.25044299079E+04  0.23951804265E+04 0.  0.
        1    1    3    3  502    0  0.19156683070E+03  0.11072606249E+04  0.67198597857E+02  0.11257173685E+04  0.50400001928E-02 0. -1.
       -1    1    3    3    0  502 -0.19156683070E+03 -0.11072606249E+04 -0.79882684244E+03  0.13787125394E+04  0.50400001928E-02 0.  1.
</event>
<event>
 5   0  0.9144244E-05  0.2518699E+04  0.7818609E-02  0.8396354E-01
       -2   -1    0    0    0  501  0.00000000000E+00  0.00000000000E+00  0.16598529526E+04  0.16598529526E+04  0.25500000920E-02 0. -1.
        2   -1    0    0  501    0  0.00000000000E+00  0.00000000000E+00 -0.95548275774E+03  0.95548275774E+03  0.25500000920E-02 0.  1.
    10030    2    1    2    0    0  0.00000000000E+00  0.00000000000E+00  0.70437019489E+03  0.26153357104E+04  0.25186987725E+04 0.  0.
        1    1    3    3  502    0  0.12446023104E+04 -0.31727031645E+02  0.15538943859E+03  0.12546662478E+04  0.50400001928E-02 0.  1.
       -1    1    3    3    0  502 -0.12446023104E+04  0.31727031645E+02  0.54898075629E+03  0.13606694626E+04  0.50400001928E-02 0. -1.
</event>
<event>
 5   0  0.4061631E-05  0.2445952E+04  0.7818609E-02  0.8422498E-01
       -1   -1    0    0    0  501  0.00000000000E+00  0.00000000000E+00  0.86359236169E+03  0.86359236170E+03  0.50400001928E-02 0.  1.
        1   -1    0    0  501    0  0.00000000000E+00  0.00000000000E+00 -0.17319165373E+04  0.17319165373E+04  0.50400001928E-02 0. -1.
    10030    2    1    2    0    0  0.00000000000E+00  0.00000000000E+00 -0.86832417563E+03  0.25955088990E+04  0.24459516698E+04 0.  0.
        3    1    3    3  502    0  0.42807869972E+03  0.45209253605E+01  0.78148479957E+03  0.89106134137E+03  0.10100000352E+00 0.  1.
       -3    1    3    3    0  502 -0.42807869972E+03 -0.45209253605E+01 -0.16498089752E+04  0.17044475576E+04  0.10100000352E+00 0. -1.
</event>
<event>
 5   0  0.9750757E-05  0.2382488E+04  0.7818609E-02  0.8446089E-01
       -2   -1    0    0    0  501  0.00000000000E+00  0.00000000000E+00  0.12745745671E+04  0.12745745671E+04  0.25500000920E-02 0. -1.
        2   -1    0    0  501    0  0.00000000000E+00  0.00000000000E+00 -0.11133612861E+04  0.11133612861E+04  0.25500000920E-02 0.  1.
    10030    2    1    2    0    0  0.00000000000E+00  0.00000000000E+00  0.16121328102E+03  0.23879358532E+04  0.23824877580E+04 0.  0.
        2    1    3    3  502    0  0.45447990227E+03  0.56461390456E+03 -0.86692341146E+03  0.11299986921E+04  0.25500000920E-02 0.  1.
       -2    1    3    3    0  502 -0.45447990227E+03 -0.56461390456E+03  0.10281366925E+04  0.12579371611E+04  0.25500000920E-02 0. -1.
</event>
<event>
 5   0  0.9182865E-05  0.2463848E+04  0.7818609E-02  0.8415979E-01
        2   -1    0    0  501    0  0.00000000000E+00  0.00000000000E+00  0.23827547674E+04  0.23827547674E+04  0.25500000920E-02 0. -1.
       -2   -1    0    0    0  501  0.00000000000E+00  0.00000000000E+00 -0.63692529391E+03  0.63692529391E+03  0.25500000920E-02 0.  1.
    10030    2    1    2    0    0  0.00000000000E+00  0.00000000000E+00  0.17458294735E+04  0.30196800613E+04  0.24638480315E+04 0.  0.
        3    1    3    3  502    0  0.50740155663E+03 -0.27415772436E+03  0.22070795503E+04  0.22811880565E+04  0.10100000352E+00 0. -1.
       -3    1    3    3    0  502 -0.50740155663E+03  0.27415772436E+03 -0.46125007687E+03  0.73849200477E+03  0.10100000352E+00 0.  1.
</event>
<event>
 5   0  0.4018942E-05  0.2476054E+04  0.7818609E-02  0.8411566E-01
       -1   -1    0    0    0  501  0.00000000000E+00  0.00000000000E+00  0.12515838111E+04  0.12515838111E+04  0.50400001928E-02 0.  1.
        1   -1    0    0  501    0  0.00000000000E+00  0.00000000000E+00 -0.12246169689E+04  0.12246169689E+04  0.50400001928E-02 0. -1.
    10030    2    1    2    0    0  0.00000000000E+00  0.00000000000E+00  0.26966842209E+02  0.24762007801E+04  0.24760539357E+04 0.  0.
        5    1    3    3  502    0  0.45430442452E+03  0.32945298401E+03 -0.10901022569E+04  0.12260818893E+04  0.46999998093E+01 0. -1.
       -5    1    3    3    0  502 -0.45430442452E+03 -0.32945298401E+03  0.11170690991E+04  0.12501188907E+04  0.46999998093E+01 0.  1.
</event>
<event>
 5   0  0.9519092E-05  0.2448060E+04  0.7818609E-02  0.8421727E-01
       -2   -1    0    0    0  501  0.00000000000E+00  0.00000000000E+00  0.10538268303E+04  0.10538268303E+04  0.25500000920E-02 0.  1.
        2   -1    0    0  501    0  0.00000000000E+00  0.00000000000E+00 -0.14217222858E+04  0.14217222858E+04  0.25500000920E-02 0. -1.
    10030    2    1    2    0    0  0.00000000000E+00  0.00000000000E+00 -0.36789545542E+03  0.24755491161E+04  0.24480597133E+04 0.  0.
        4    1    3    3  502    0 -0.86657475098E+03 -0.76930498252E+03  0.21477095430E+03  0.11785203142E+04  0.12699999809E+01 0. -1.
       -4    1    3    3    0  502  0.86657475098E+03  0.76930498252E+03 -0.58266640972E+03  0.12970288019E+04  0.12699999809E+01 0.  1.
</event>
<event>
 5   0  0.9519092E-05  0.2309149E+04  0.7818609E-02  0.8474322E-01
        2   -1    0    0  501    0  0.00000000000E+00  0.00000000000E+00  0.20395013032E+04  0.20395013032E+04  0.25500000920E-02 0.  1.
       -2   -1    0    0    0  501  0.00000000000E+00  0.00000000000E+00 -0.65361213937E+03  0.65361213938E+03  0.25500000920E-02 0. -1.
    10030    2    1    2    0    0  0.00000000000E+00  0.00000000000E+00  0.13858891638E+04  0.26931134425E+04  0.23091494625E+04 0.  0.
        4    1    3    3  502    0 -0.87777619701E+02 -0.10354932250E+04  0.10621206918E+03  0.10446213410E+04  0.12699999809E+01 0. -1.
       -4    1    3    3    0  502  0.87777619701E+02  0.10354932250E+04  0.12796770946E+04  0.16484921015E+04  0.12699999809E+01 0.  1.
</event>
<event>
 5   0  0.9750757E-05  0.2396681E+04  0.7818609E-02  0.8440747E-01
        2   -1    0    0  501    0  0.00000000000E+00  0.00000000000E+00  0.12550835266E+04  0.12550835266E+04  0.25500000920E-02 0.  1.
       -2   -1    0    0    0  501  0.00000000000E+00  0.00000000000E+00 -0.11441630057E+04  0.11441630057E+04  0.25500000920E-02 0. -1.
    10030    2    1    2    0    0  0.00000000000E+00  0.00000000000E+00  0.11092052089E+03  0.23992465322E+04  0.23966811553E+04 0.  0.
        2    1    3    3  502    0 -0.42602621484E+03 -0.93262005768E+03 -0.56547912326E+03  0.11709163704E+04  0.25500000920E-02 0. -1.
       -2    1    3    3    0  502  0.42602621484E+03  0.93262005768E+03  0.67639964415E+03  0.12283301618E+04  0.25500000920E-02 0.  1.
</event>
<event>
 5   0  0.4018942E-05  0.2344185E+04  0.7818609E-02  0.8460701E-01
       -1   -1    0    0    0  501  0.00000000000E+00  0.00000000000E+00  0.10570566746E+04  0.10570566746E+04  0.50400001928E-02 0. -1.
        1   -1    0    0  501    0  0.00000000000E+00  0.00000000000E+00 -0.12996471706E+04  0.12996471706E+04  0.50400001928E-02 0.  1.
    10030    2    1    2    0    0  0.00000000000E+00  0.00000000000E+00 -0.24259049606E+03  0.23567038452E+04  0.23441849042E+04 0.  0.
        5    1    3    3  502    0 -0.65237955579E+03 -0.29946557485E+03  0.81020563886E+03  0.10824666196E+04  0.46999998093E+01 0. -1.
       -5    1    3    3    0  502  0.65237955579E+03  0.29946557485E+03 -0.10527961349E+04  0.12742372256E+04  0.46999998093E+01 0.  1.
</event>
<event>
 5   0  0.9182865E-05  0.2390522E+04  0.7818609E-02  0.8443061E-01
       -2   -1    0    0    0  501  0.00000000000E+00  0.00000000000E+00  0.90822660083E+03  0.90822660084E+03  0.25500000920E-02 0.  1.
        2   -1    0    0  501    0  0.00000000000E+00  0.00000000000E+00 -0.15730088074E+04  0.15730088074E+04  0.25500000920E-02 0. -1.
    10030    2    1    2    0    0  0.00000000000E+00  0.00000000000E+00 -0.66478220655E+03  0.24812354082E+04  0.23905216520E+04 0.  0.
        3    1    3    3  502    0  0.11939322038E+04  0.38627553941E+02 -0.37496259241E+03  0.12520236225E+04  0.10100000352E+00 0.  1.
       -3    1    3    3    0  502 -0.11939322038E+04 -0.38627553941E+02 -0.28981961414E+03  0.12292117858E+04  0.10100000352E+00 0. -1.
</event>
<event>
 5   0  0.3234750E-05  0.2297800E+04  0.7818609E-02  0.8478789E-01
       -3   -1    0    0    0  501  0.00000000000E+00  0.00000000000E+00  0.17165101672E+04  0.17165101702E+04  0.10100000352E+00 0.  1.
        3   -1    0    0  501    0  0.00000000000E+00  0.00000000000E+00 -0.76898529828E+03  0.76898530491E+03  0.10100000352E+00 0. -1.
    10030    2    1    2    0    0  0.00000000000E+00  0.00000000000E+00  0.94752486893E+03  0.24854954751E+04  0.22977998998E+04 0.  0.
        3    1    3    3  502    0 -0.40433925369E+03  0.10332425886E+03  0.16316226129E+04  0.16841491904E+04  0.10100000352E+00 0.  1.
       -3    1    3    3    0  502  0.40433925369E+03 -0.10332425886E+03 -0.68409774393E+03  0.80134628469E+03  0.10100000352E+00 0. -1.
</event>
<event>
 5   0  0.4061631E-05  0.2332199E+04  0.7818609E-02  0.8465333E-01
        1   -1    0    0  501    0  0.00000000000E+00  0.00000000000E+00  0.48751129662E+03  0.48751129665E+03  0.50400001928E-02 0. -1.
       -1   -1    0    0    0  501  0.00000000000E+00  0.00000000000E+00 -0.27892444683E+04  0.27892444683E+04  0.50400001928E-02 0.  1.
    10030    2    1    2    0    0  0.00000000000E+00  0.00000000000E+00 -0.23017331717E+04  0.32767557649E+04  0.23321991230E+04 0.  0.
        3    1    3    3  502    0 -0.32289275713E+03 -0.70686636098E+03 -0.23723892717E+04  0.24964275779E+04  0.10100000352E+00 0.  1.
       -3    1    3    3    0  502  0.32289275713E+03  0.70686636098E+03  0.70656100018E+02  0.78032818708E+03  0.10100000352E+00 0. -1.
</event>
<event>
 5   0  0.3234750E-05  0.2336509E+04  0.7818609E-02  0.8463664E-01
        3   -1    0    0  501    0  0.00000000000E+00  0.00000000000E+00  0.13469995344E+04  0.13469995382E+04  0.10100000352E+00 0. -1.
       -3   -1    0    0    0  501  0.00000000000E+00  0.00000000000E+00 -0.10132286918E+04  0.10132286969E+04  0.10100000352E+00 0.  1.
    10030    2    1    2    0    0  0.00000000000E+00  0.00000000000E+00  0.33377084254E+03  0.23602282350E+04  0.23365090083E+04 0.  0.
        5    1    3    3  502    0 -0.64069739740E+03 -0.63824437888E+03 -0.58018122003E+03  0.10744679522E+04  0.46999998093E+01 0.  1.
       -5    1    3    3    0  502  0.64069739740E+03  0.63824437888E+03  0.91395206258E+03  0.12857602828E+04  0.46999998093E+01 0. -1.
</event>
<event>
 5   0  0.9519092E-05  0.1971465E+04  0.7818609E-02  0.8620079E-01
        2   -1    0    0  501    0  0.00000000000E+00  0.00000000000E+00  0.95600027630E+03  0.95600027630E+03  0.25500000920E-02 0. -1.
       -2   -1    0    0    0  501  0.00000000000E+00  0.00000000000E+00 -0.10163890337E+04  0.10163890337E+04  0.25500000920E-02 0.  1.
    10030    2    1    2    0    0  0.00000000000E+00  0.00000000000E+00 -0.60388757404E+02  0.19723893100E+04  0.19714646302E+04 0.  0.
        4    1    3    3  502    0  0.22213758358E+03 -0.54861279378E+03 -0.81881880072E+03  0.10103400145E+04  0.12699999809E+01 0.  1.
       -4    1    3    3    0  502 -0.22213758358E+03  0.54861279378E+03  0.75843004331E+03  0.96204929553E+03  0.12699999809E+01 0. -1.
</event>
<event>
 5   0  0.4260395E-05  0.2369131E+04  0.7818609E-02  0.8451151E-01
       -1   -1    0    0    0  501  0.00000000000E+00  0.00000000000E+00  0.12304694298E+04  0.12304694298E+04  0.50400001928E-02 0. -1.
        1   -1    0    0  501    0  0.00000000000E+00  0.00000000000E+00 -0.11403745192E+04  0.11403745192E+04  0.50400001928E-02 0.  1.
    10030    2    1    2    0    0  0.00000000000E+00  0.00000000000E+00  0.90094910585E+02  0.23708439490E+04  0.23691314732E+04 0.  0.
        4    1    3    3  502    0 -0.28832760436E+02  0.11349120370E+04  0.38343046996E+03  0.11982809345E+04  0.12699999809E+01 0. -1.
       -4    1    3    3    0  502  0.28832760436E+02 -0.11349120370E+04 -0.29333555937E+03  0.11725630145E+04  0.12699999809E+01 0.  1.
</event>
<event>
 5   0  0.4061631E-05  0.2452762E+04  0.7818609E-02  0.8420010E-01
       -1   -1    0    0    0  501  0.00000000000E+00  0.00000000000E+00  0.10596024453E+04  0.10596024454E+04  0.50400001928E-02 0. -1.
        1   -1    0    0  501    0  0.00000000000E+00  0.00000000000E+00 -0.14194103488E+04  0.14194103488E+04  0.50400001928E-02 0.  1.
    10030    2    1    2    0    0  0.00000000000E+00  0.00000000000E+00 -0.35980790349E+03  0.24790127942E+04  0.24527622605E+04 0.  0.
        3    1    3    3  502    0  0.60809786341E+03 -0.33542066018E+03  0.84171606927E+03  0.10912268244E+04  0.10100000352E+00 0. -1.
       -3    1    3    3    0  502 -0.60809786341E+03  0.33542066018E+03 -0.12015239728E+04  0.13877859698E+04  0.10100000352E+00 0.  1.
</event>
<event>
 5   0  0.9750757E-05  0.1485138E+04  0.7818609E-02  0.8894397E-01
        2   -1    0    0  501    0  0.00000000000E+00  0.00000000000E+00  0.13501570085E+04  0.13501570085E+04  0.25500000920E-02 0. -1.
       -2   -1    0    0    0  501  0.00000000000E+00  0.00000000000E+00 -0.40840337777E+03  0.40840337778E+03  0.25500000920E-02 0.  1.
    10030    2    1    2    0    0  0.00000000000E+00  0.00000000000E+00  0.94175363075E+03  0.17585603863E+04  0.14851379502E+04 0.  0.
        2    1    3    3  502    0  0.24256291529E+03 -0.56656106166E+03 -0.19606712818E+02  0.61661383999E+03  0.25500000920E-02 0.  1.
       -2    1    3    3    0  502 -0.24256291529E+03  0.56656106166E+03  0.96136034357E+03  0.11419465463E+04  0.25500000920E-02 0. -1.
</event>
<event>
 5   0  0.4061631E-05  0.2465724E+04  0.7818609E-02  0.8415299E-01
        1   -1    0    0  501    0  0.00000000000E+00  0.00000000000E+00  0.14047803479E+04  0.14047803480E+04  0.50400001928E-02 0. -1.
       -1   -1    0    0    0  501  0.00000000000E+00  0.00000000000E+00 -0.10819830018E+04  0.10819830018E+04  0.50400001928E-02 0.  1.
    10030    2    1    2    0    0  0.00000000000E+00  0.00000000000E+00  0.32279734612E+03  0.24867633498E+04  0.24657237946E+04 0.  0.
        3    1    3    3  502    0 -0.64703566508E+03  0.71825066022E+03 -0.61025039317E+03  0.11432168278E+04  0.10100000352E+00 0.  1.
       -3    1    3    3    0  502  0.64703566508E+03 -0.71825066022E+03  0.93304773929E+03  0.13435465220E+04  0.10100000352E+00 0. -1.
</event>
<event>
 5   0  0.9144244E-05  0.2434056E+04  0.7818609E-02  0.8426863E-01
        2   -1    0    0  501    0  0.00000000000E+00  0.00000000000E+00  0.23085739797E+04  0.23085739797E+04  0.25500000920E-02 0.  1.
       -2   -1    0    0    0  501  0.00000000000E+00  0.00000000000E+00 -0.64158948563E+03  0.64158948564E+03  0.25500000920E-02 0. -1.
    10030    2    1    2    0    0  0.00000000000E+00  0.00000000000E+00  0.16669844940E+04  0.29501634653E+04  0.24340557037E+04 0.  0.
        1    1    3    3  502    0 -0.60752746614E+03 -0.47983771630E+03 -0.30467546917E+03  0.83196213714E+03  0.50400001928E-02 0. -1.
       -1    1    3    3    0  502  0.60752746614E+03  0.47983771630E+03  0.19716599632E+04  0.21182013282E+04  0.50400001928E-02 0.  1.
</event>
<event>
 5   0  0.9144244E-05  0.2396114E+04  0.7818609E-02  0.8440960E-01
       -2   -1    0    0    0  501  0.00000000000E+00  0.00000000000E+00  0.11061096840E+04  0.11061096840E+04  0.25500000920E-02 0. -1.
        2   -1    0    0  501    0  0.00000000000E+00  0.00000000000E+00 -0.12976481047E+04  0.12976481047E+04  0.25500000920E-02 0.  1.
    10030    2    1    2    0    0  0.00000000000E+00  0.00000000000E+00 -0.19153842078E+03  0.24037577887E+04  0.23961144673E+04 0.  0.
        1    1    3    3  502    0 -0.83295641840E+03  0.26930745618E+03  0.72476298990E+03  0.11364964991E+04  0.50400001928E-02 0. -1.
       -1    1    3    3    0  502  0.83295641840E+03 -0.26930745618E+03 -0.91630141068E+03  0.12672612896E+04  0.50400001928E-02 0.  1.
</event>
<event>
 5   0  0.9182865E-05  0.2424774E+04  0.7818609E-02  0.8430287E-01
       -2   -1    0    0    0  501  0.00000000000E+00  0.00000000000E+00  0.18122164751E+04  0.18122164751E+04  0.25500000920E-02 0.  1.
        2   -1    0    0  501    0  0.00000000000E+00  0.00000000000E+00 -0.81109616078E+03  0.81109616078E+03  0.25500000920E-02 0. -1.
    10030    2    1    2    0    0  0.00000000000E+00  0.00000000000E+00  0.10011203143E+04  0.26233126358E+04  0.24247736599E+04 0.  0.
        3    1    3    3  502    0 -0.11039294432E+04  0.17325527726E+03 -0.82731577461E+01  0.11174730699E+04  0.10100000352E+00 0. -1.
       -3    1    3    3    0  502  0.11039294432E+04 -0.17325527726E+03  0.10093934720E+04  0.15058395659E+04  0.10100000352E+00 0.  1.
</event>
<event>
 5   0  0.9182865E-05  0.2444229E+04  0.7818609E-02  0.8423128E-01
       -2   -1    0    0    0  501  0.00000000000E+00  0.00000000000E+00  0.87021933032E+03  0.87021933032E+03  0.25500000920E-02 0.  1.
        2   -1    0    0  501    0  0.00000000000E+00  0.00000000000E+00 -0.17163080162E+04  0.17163080162E+04  0.25500000920E-02 0. -1.
    10030    2    1    2    0    0  0.00000000000E+00  0.00000000000E+00 -0.84608868589E+03  0.25865273465E+04  0.24442294594E+04 0.  0.
        3    1    3    3  502    0  0.11729135602E+04  0.20217444095E+03 -0.12947006096E+03  0.11972314860E+04  0.10100000352E+00 0. -1.
       -3    1    3    3    0  502 -0.11729135602E+04 -0.20217444095E+03 -0.71661862493E+03  0.13892958605E+04  0.10100000352E+00 0.  1.
</event>
<event>
 5   0  0.9491680E-05  0.2383332E+04  0.7818609E-02  0.8445770E-01
        2   -1    0    0  501    0  0.00000000000E+00  0.00000000000E+00  0.15673751494E+04  0.15673751494E+04  0.25500000920E-02 0.  1.
       -2   -1    0    0    0  501  0.00000000000E+00  0.00000000000E+00 -0.90601670278E+03  0.90601670278E+03  0.25500000920E-02 0. -1.
    10030    2    1    2    0    0  0.00000000000E+00  0.00000000000E+00  0.66135844659E+03  0.24733918522E+04  0.23833321756E+04 0.  0.
        5    1    3    3  502    0 -0.69186889624E+02  0.10843043008E+04 -0.17724671683E+03  0.11008819787E+04  0.46999998093E+01 0. -1.
       -5    1    3    3    0  502  0.69186889624E+02 -0.10843043008E+04  0.83860516342E+03  0.13725098734E+04  0.46999998093E+01 0.  1.
</event>
<event>
 5   0  0.4061631E-05  0.2417825E+04  0.7818609E-02  0.8432860E-01
        1   -1    0    0  501    0  0.00000000000E+00  0.00000000000E+00  0.10963847254E+04  0.10963847254E+04  0.50400001928E-02 0.  1.
       -1   -1    0    0    0  501  0.00000000000E+00  0.00000000000E+00 -0.13329896887E+04  0.13329896888E+04  0.50400001928E-02 0. -1.
    10030    2    1    2    0    0  0.00000000000E+00  0.00000000000E+00 -0.23660496331E+03  0.24293744142E+04  0.24178250838E+04 0.  0.
        3    1    3    3  502    0  0.28485930515E+03 -0.10938265056E+04  0.31254442191E+03  0.11727255748E+04  0.10100000352E+00 0.  1.
       -3    1    3    3    0  502 -0.28485930515E+03  0.10938265056E+04 -0.54914938522E+03  0.12566488394E+04  0.10100000352E+00 0. -1.
</event>
<event>
 5   0  0.4260395E-05  0.1261458E+04  0.7818609E-02  0.9060700E-01
        1   -1    0    0  501    0  0.00000000000E+00  0.00000000000E+00  0.66312888393E+03  0.66312888395E+03  0.50400001928E-02 0. -1.
       -1   -1    0    0    0  501  0.00000000000E+00  0.00000000000E+00 -0.59991237391E+03  0.59991237393E+03  0.50400001928E-02 0.  1.
    10030    2    1    2    0    0  0.00000000000E+00  0.00000000000E+00  0.63216510024E+02  0.12630412579E+04  0.12614582403E+04 0.  0.
        4    1    3    3  502    0 -0.61639028924E+03 -0.12462715779E+03 -0.16915877744E+02  0.62909194634E+03  0.12699999809E+01 0.  1.
       -4    1    3    3    0  502  0.61639028924E+03  0.12462715779E+03  0.80132387768E+02  0.63394931154E+03  0.12699999809E+01 0. -1.
</event>
<event>
 5   0  0.9519092E-05  0.2281067E+04  0.7818609E-02  0.8485424E-01
        2   -1    0    0  501    0  0.00000000000E+00  0.00000000000E+00  0.13468148004E+04  0.13468148004E+04  0.25500000920E-02 0. -1.
       -2   -1    0    0    0  501  0.00000000000E+00  0.00000000000E+00 -0.96584707756E+03  0.96584707757E+03  0.25500000920E-02 0.  1.
    10030    2    1    2    0    0  0.00000000000E+00  0.00000000000E+00  0.38096772279E+03  0.23126618779E+04  0.22810674159E+04 0.  0.
        4    1    3    3  502    0  0.72913477454E+03  0.81565412075E+03 -0.13629449905E+03  0.11025003254E+04  0.12699999809E+01 0.  1.
       -4    1    3    3    0  502 -0.72913477454E+03 -0.81565412075E+03  0.51726222184E+03  0.12101615525E+04  0.12699999809E+01 0. -1.
</event>
<event>
 5   0  0.4061631E-05  0.2416617E+04  0.7818609E-02  0.8433309E-01
        1   -1    0    0  501    0  0.00000000000E+00  0.00000000000E+00  0.98102750395E+03  0.98102750396E+03  0.50400001928E-02 0. -1.
       -1   -1    0    0    0  501  0.00000000000E+00  0.00000000000E+00 -0.14882451260E+04  0.14882451260E+04  0.50400001928E-02 0.  1.
    10030    2    1    2    0    0  0.00000000000E+00  0.00000000000E+00 -0.50721762208E+03  0.24692726300E+04  0.24166169753E+04 0.  0.
        3    1    3    3  502    0  0.74016366351E+03  0.92413356009E+03 -0.72234990379E+01  0.11840258759E+04  0.10100000352E+00 0. -1.
       -3    1    3    3    0  502 -0.74016366351E+03 -0.92413356009E+03 -0.49999412304E+03  0.12852467541E+04  0.10100000352E+00 0.  1.
</event>
<event>
 5   0  0.3934906E-05  0.2425956E+04  0.7818609E-02  0.8429849E-01
       -1   -1    0    0    0  501  0.00000000000E+00  0.00000000000E+00  0.52616247764E+03  0.52616247767E+03  0.50400001928E-02 0. -1.
        1   -1    0    0  501    0  0.00000000000E+00  0.00000000000E+00 -0.27963151956E+04  0.27963151956E+04  0.50400001928E-02 0.  1.
    10030    2    1    2    0    0  0.00000000000E+00  0.00000000000E+00 -0.22701527180E+04  0.33224776733E+04  0.24259564148E+04 0.  0.
        2    1    3    3  502    0 -0.72743247850E+03  0.95089547207E+03 -0.86825606997E+03  0.14789282649E+04  0.25500000920E-02 0. -1.
       -2    1    3    3    0  502  0.72743247850E+03 -0.95089547207E+03 -0.14018966480E+04  0.18435494084E+04  0.25500000920E-02 0.  1.
</event>
<event>
 5   0  0.4018942E-05  0.2425364E+04  0.7818609E-02  0.8430068E-01
        1   -1    0    0  501    0  0.00000000000E+00  0.00000000000E+00  0.14134854628E+04  0.14134854628E+04  0.50400001928E-02 0. -1.
       -1   -1    0    0    0  501  0.00000000000E+00  0.00000000000E+00 -0.10404051915E+04  0.10404051915E+04  0.50400001928E-02 0.  1.
    10030    2    1    2    0    0  0.00000000000E+00  0.00000000000E+00  0.37308027134E+03  0.24538906543E+04  0.24253639839E+04 0.  0.
        5    1    3    3  502    0  0.47935125121E+03  0.98183251509E+03 -0.34576852580E+03  0.11460151278E+04  0.46999998093E+01 0.  1.
       -5    1    3    3    0  502 -0.47935125121E+03 -0.98183251509E+03  0.71884879714E+03  0.13078755265E+04  0.46999998093E+01 0. -1.
</event>
<event>
 5   0  0.4061631E-05  0.2385145E+04  0.7818609E-02  0.8445086E-01
       -1   -1    0    0    0  501  0.00000000000E+00  0.00000000000E+00  0.10070500375E+04  0.10070500375E+04  0.50400001928E-02 0. -1.
        1   -1    0    0  501    0  0.00000000000E+00  0.00000000000E+00 -0.14122728908E+04  0.14122728908E+04  0.50400001928E-02 0.  1.
    10030    2    1    2    0    0  0.00000000000E+00  0.00000000000E+00 -0.40522285333E+03  0.24193229284E+04  0.23851452515E+04 0.  0.
        3    1    3    3  502    0  0.99033031538E+03 -0.47464095916E+03 -0.67423781821E+03  0.12886562068E+04  0.10100000352E+00 0.  1.
       -3    1    3    3    0  502 -0.99033031538E+03  0.47464095916E+03  0.26901496488E+03  0.11306667215E+04  0.10100000352E+00 0. -1.
</event>
<event>
 5   0  0.4018942E-05  0.2379900E+04  0.7818609E-02  0.8447067E-01
        1   -1    0    0  501    0  0.00000000000E+00  0.00000000000E+00  0.16277943164E+04  0.16277943164E+04  0.50400001928E-02 0.  1.
       -1   -1    0    0    0  501  0.00000000000E+00  0.00000000000E+00 -0.86987706246E+03  0.86987706248E+03  0.50400001928E-02 0. -1.
    10030    2    1    2    0    0  0.00000000000E+00  0.00000000000E+00  0.75791725392E+03  0.24976713789E+04  0.23798999460E+04 0.  0.
        5    1    3    3  502    0  0.79486222065E+03 -0.50520477420E+03  0.11422177736E+04  0.14804463334E+04  0.46999998093E+01 0.  1.
       -5    1    3    3    0  502 -0.79486222065E+03  0.50520477420E+03 -0.38430051970E+03  0.10172250455E+04  0.46999998093E+01 0. -1.
</event>
<event>
 5   0  0.3934906E-05  0.2402036E+04  0.7818609E-02  0.8438742E-01
        1   -1    0    0  501    0  0.00000000000E+00  0.00000000000E+00  0.11842122615E+04  0.11842122615E+04  0.50400001928E-02 0. -1.
       -1   -1    0    0    0  501  0.00000000000E+00  0.00000000000E+00 -0.12180626252E+04  0.12180626252E+04  0.50400001928E-02 0.  1.
    10030    2    1    2    0    0  0.00000000000E+00  0.00000000000E+00 -0.33850363772E+02  0.24022748867E+04  0.24020363828E+04 0.  0.
        2    1    3    3  502    0 -0.83789220078E+01 -0.41373192254E+03  0.11106619942E+04  0.11852486555E+04  0.25500000920E-02 0. -1.
       -2    1    3    3    0  502  0.83789220078E+01  0.41373192254E+03 -0.11445123579E+04  0.12170262312E+04  0.25500000920E-02 0.  1.
</event>
<event>
 5   0  0.3934906E-05  0.2414165E+04  0.7818609E-02  0.8434220E-01
       -1   -1    0    0    0  501  0.00000000000E+00  0.00000000000E+00  0.12861887627E+04  0.12861887627E+04  0.50400001928E-02 0. -1.
        1   -1    0    0  501    0  0.00000000000E+00  0.00000000000E+00 -0.11328412020E+04  0.11328412020E+04  0.50400001928E-02 0.  1.
    10030    2    1    2    0    0  0.00000000000E+00  0.00000000000E+00  0.15334756075E+03  0.24190299647E+04  0.24141645544E+04 0.  0.
        2    1    3    3  502    0  0.93361647484E+03 -0.35466974604E+03  0.75599088474E+03  0.12525783683E+04  0.25500000920E-02 0. -1.
       -2    1    3    3    0  502 -0.93361647484E+03  0.35466974604E+03 -0.60264332399E+03  0.11664515964E+04  0.25500000920E-02 0.  1.
</event>
<event>
 5   0  0.9491680E-05  0.2471976E+04  0.7818609E-02  0.8413038E-01
        2   -1    0    0  501    0  0.00000000000E+00  0.00000000000E+00  0.15294467942E+04  0.15294467942E+04  0.25500000920E-02 0.  1.
       -2   -1    0    0    0  501  0.00000000000E+00  0.00000000000E+00 -0.99883556397E+03  0.99883556397E+03  0.25500000920E-02 0. -1.
    10030    2    1    2    0    0  0.00000000000E+00  0.00000000000E+00  0.53061123028E+03  0.25282823582E+04  0.24719756077E+04 0.  0.
        5    1    3    3  502    0 -0.78831436736E+03 -0.70788358893E+03  0.91628197662E+03  0.14007617456E+04  0.46999998093E+01 0.  1.
       -5    1    3    3    0  502  0.78831436736E+03  0.70788358893E+03 -0.38567074635E+03  0.11275206126E+04  0.46999998093E+01 0. -1.
</event>
<event>
 5   0  0.4061631E-05  0.2409538E+04  0.7818609E-02  0.8435941E-01
        1   -1    0    0  501    0  0.00000000000E+00  0.00000000000E+00  0.16114676308E+04  0.16114676308E+04  0.50400001928E-02 0. -1.
       -1   -1    0    0    0  501  0.00000000000E+00  0.00000000000E+00 -0.90071187720E+03  0.90071187721E+03  0.50400001928E-02 0.  1.
    10030    2    1    2    0    0  0.00000000000E+00  0.00000000000E+00  0.71075575363E+03  0.25121795081E+04  0.24095377439E+04 0.  0.
        3    1    3    3  502    0  0.29798123800E+03  0.53466813766E+03 -0.72651809783E+03  0.94999546962E+03  0.10100000352E+00 0.  1.
       -3    1    3    3    0  502 -0.29798123800E+03 -0.53466813766E+03  0.14372738515E+04  0.15621840384E+04  0.10100000352E+00 0. -1.
</event>
<event>
 5   0  0.9491680E-05  0.2430841E+04  0.7818609E-02  0.8428047E-01
        2   -1    0    0  501    0  0.00000000000E+00  0.00000000000E+00  0.13800026450E+04  0.13800026450E+04  0.25500000920E-02 0.  1.
       -2   -1    0    0    0  501  0.00000000000E+00  0.00000000000E+00 -0.10704666302E+04  0.10704666302E+04  0.25500000920E-02 0. -1.
    10030    2    1    2    0    0  0.00000000000E+00  0.00000000000E+00  0.30953601474E+03  0.24504692752E+04  0.24308408266E+04 0.  0.
        5    1    3    3  502    0  0.11296445587E+04  0.44846350411E+03  0.15185544034E+03  0.12248667308E+04  0.46999998093E+01 0.  1.
       -5    1    3    3    0  502 -0.11296445587E+04 -0.44846350411E+03  0.15768057440E+03  0.12256025444E+04  0.46999998093E+01 0. -1.
</event>
<event>
 5   0  0.4061631E-05  0.2404708E+04  0.7818609E-02  0.8437743E-01
        1   -1    0    0  501    0  0.00000000000E+00  0.00000000000E+00  0.82297377686E+03  0.82297377687E+03  0.50400001928E-02 0.  1.
       -1   -1    0    0    0  501  0.00000000000E+00  0.00000000000E+00 -0.17566231733E+04  0.17566231733E+04  0.50400001928E-02 0. -1.
    10030    2    1    2    0    0  0.00000000000E+00  0.00000000000E+00 -0.93364939640E+03  0.25795969501E+04  0.24047077223E+04 0.  0.
        3    1    3    3  502    0  0.94680166231E+03 -0.42180545775E+03  0.18683686288E+03  0.10532147243E+04  0.10100000352E+00 0.  1.
       -3    1    3    3    0  502 -0.94680166231E+03  0.42180545775E+03 -0.11204862593E+04  0.15263822258E+04  0.10100000352E+00 0. -1.
</event>
<event>
 5   0  0.9519092E-05  0.2357326E+04  0.7818609E-02  0.8455655E-01
        2   -1    0    0  501    0  0.00000000000E+00  0.00000000000E+00  0.16006673466E+04  0.16006673466E+04  0.25500000920E-02 0.  1.
       -2   -1    0    0    0  501  0.00000000000E+00  0.00000000000E+00 -0.86791677184E+03  0.86791677185E+03  0.25500000920E-02 0. -1.
    10030    2    1    2    0    0  0.00000000000E+00  0.00000000000E+00  0.73275057476E+03  0.24685841185E+04  0.23573256341E+04 0.  0.
        4    1    3    3  502    0  0.73480296793E+03  0.14570958843E+03 -0.58656109065E+03  0.95143166428E+03  0.12699999809E+01 0. -1.
       -4    1    3    3    0  502 -0.73480296793E+03 -0.14570958843E+03  0.13193116654E+04  0.15171524542E+04  0.12699999809E+01 0.  1.
</event>
<event>
 5   0  0.4260395E-05  0.2450256E+04  0.7818609E-02  0.8420925E-01
        1   -1    0    0  501    0  0.00000000000E+00  0.00000000000E+00  0.15199206462E+04  0.15199206462E+04  0.50400001928E-02 0.  1.
       -1   -1    0    0    0  501  0.00000000000E+00  0.00000000000E+00 -0.98751091517E+03  0.98751091518E+03  0.50400001928E-02 0. -1.
    10030    2    1    2    0    0  0.00000000000E+00  0.00000000000E+00  0.53240973106E+03  0.25074315614E+04  0.24502556833E+04 0.  0.
        4    1    3    3  502    0  0.75255767868E+03 -0.22926078068E+03 -0.69487640140E+03  0.10496467937E+04  0.12699999809E+01 0. -1.
       -4    1    3    3    0  502 -0.75255767868E+03  0.22926078068E+03  0.12272861325E+04  0.14577847678E+04  0.12699999809E+01 0.  1.
</event>
<event>
 5   0  0.9519092E-05  0.2323347E+04  0.7818609E-02  0.8468772E-01
       -2   -1    0    0    0  501  0.00000000000E+00  0.00000000000E+00  0.12730589155E+04  0.12730589155E+04  0.25500000920E-02 0.  1.
        2   -1    0    0  501    0  0.00000000000E+00  0.00000000000E+00 -0.10600332997E+04  0.10600332997E+04  0.25500000920E-02 0. -1.
    10030    2    1    2    0    0  0.00000000000E+00  0.00000000000E+00  0.21302561580E+03  0.23330922152E+04  0.23233465888E+04 0.  0.
        4    1    3    3  502    0  0.13388306607E+03  0.18148928410E+03  0.12508630860E+04  0.12710323003E+04  0.12699999809E+01 0.  1.
       -4    1    3    3    0  502 -0.13388306607E+03 -0.18148928410E+03 -0.10378374702E+04  0.10620599150E+04  0.12699999809E+01 0. -1.
</event>
<event>
 5   0  0.9750757E-05  0.2402965E+04  0.7818609E-02  0.8438394E-01
        2   -1    0    0  501    0  0.00000000000E+00  0.00000000000E+00  0.12827569472E+04  0.12827569472E+04  0.25500000920E-02 0. -1.
       -2   -1    0    0    0  501  0.00000000000E+00  0.00000000000E+00 -0.11253574647E+04  0.11253574647E+04  0.25500000920E-02 0.  1.
    10030    2    1    2    0    0  0.00000000000E+00  0.00000000000E+00  0.15739948252E+03  0.24081144119E+04  0.24029649236E+04 0.  0.
        2    1    3    3  502    0  0.10997405153E+04  0.99013664199E+02 -0.39594716278E+03  0.11730332743E+04  0.25500000920E-02 0.  1.
       -2    1    3    3    0  502 -0.10997405153E+04 -0.99013664199E+02  0.55334664530E+03  0.12350811377E+04  0.25500000920E-02 0. -1.
</event>
<event>
 5   0  0.4208577E-05  0.2419595E+04  0.7818609E-02  0.8432204E-01
       -1   -1    0    0    0  501  0.00000000000E+00  0.00000000000E+00  0.76395531158E+03  0.76395531160E+03  0.50400001928E-02 0.  1.
        1   -1    0    0  501    0  0.00000000000E+00  0.00000000000E+00 -0.19158323575E+04  0.19158323576E+04  0.50400001928E-02 0. -1.
    10030    2    1    2    0    0  0.00000000000E+00  0.00000000000E+00 -0.11518770460E+04  0.26797876692E+04  0.24195952601E+04 0.  0.
        1    1    3    3  502    0 -0.30423572031E+03 -0.11676907629E+03 -0.18663081373E+04  0.18945449201E+04  0.50400001928E-02 0. -1.
       -1    1    3    3    0  502  0.30423572031E+03  0.11676907629E+03  0.71443109135E+03  0.78524274909E+03  0.50400001928E-02 0.  1.
</event>
<event>
 5   0  0.3234750E-05  0.2427199E+04  0.7818609E-02  0.8429390E-01
        3   -1    0    0  501    0  0.00000000000E+00  0.00000000000E+00  0.13555350007E+04  0.13555350045E+04  0.10100000352E+00 0. -1.
       -3   -1    0    0    0  501  0.00000000000E+00  0.00000000000E+00 -0.10865253978E+04  0.10865254025E+04  0.10100000352E+00 0.  1.
    10030    2    1    2    0    0  0.00000000000E+00  0.00000000000E+00  0.26900960287E+03  0.24420604070E+04  0.24271985632E+04 0.  0.
        5    1    3    3  502    0  0.77767699792E+03 -0.44511544093E+03 -0.68897593760E+03  0.11303181859E+04  0.46999998093E+01 0.  1.
       -5    1    3    3    0  502 -0.77767699792E+03  0.44511544093E+03  0.95798554047E+03  0.13117422211E+04  0.46999998093E+01 0. -1.
</event>
<event>
 5   0  0.4208577E-05  0.2351329E+04  0.7818609E-02  0.8457953E-01
        1   -1    0    0  501    0  0.00000000000E+00  0.00000000000E+00  0.12779839031E+04  0.12779839031E+04  0.50400001928E-02 0. -1.
       -1   -1    0    0    0  501  0.00000000000E+00  0.00000000000E+00 -0.10815373292E+04  0.10815373292E+04  0.50400001928E-02 0.  1.
    10030    2    1    2    0    0  0.00000000000E+00  0.00000000000E+00  0.19644657392E+03  0.23595212323E+04  0.23513292388E+04 0.  0.
        1    1    3    3  502    0  0.30783990888E+03 -0.21953119919E+03 -0.10188612591E+04  0.10867555485E+04  0.50400001928E-02 0.  1.
       -1    1    3    3    0  502 -0.30783990888E+03  0.21953119919E+03  0.12153078330E+04  0.12727656838E+04  0.50400001928E-02 0. -1.
</event>
<event>
 5   0  0.9491680E-05  0.2295616E+04  0.7818609E-02  0.8479652E-01
       -2   -1    0    0    0  501  0.00000000000E+00  0.00000000000E+00  0.80320198497E+03  0.80320198498E+03  0.25500000920E-02 0.  1.
        2   -1    0    0  501    0  0.00000000000E+00  0.00000000000E+00 -0.16402642155E+04  0.16402642155E+04  0.25500000920E-02 0. -1.
    10030    2    1    2    0    0  0.00000000000E+00  0.00000000000E+00 -0.83706223054E+03  0.24434662005E+04  0.22956162343E+04 0.  0.
        5    1    3    3  502    0  0.89334189045E+03  0.10201582308E+03  0.34084166838E+03  0.96159351822E+03  0.46999998093E+01 0.  1.
       -5    1    3    3    0  502 -0.89334189045E+03 -0.10201582308E+03 -0.11779038989E+04  0.14818726823E+04  0.46999998093E+01 0. -1.
</event>
<event>
 5   0  0.9182865E-05  0.2404395E+04  0.7818609E-02  0.8437860E-01
       -2   -1    0    0    0  501  0.00000000000E+00  0.00000000000E+00  0.19382752749E+04  0.19382752749E+04  0.25500000920E-02 0. -1.
        2   -1    0    0  501    0  0.00000000000E+00  0.00000000000E+00 -0.74565216601E+03  0.74565216602E+03  0.25500000920E-02 0.  1.
    10030    2    1    2    0    0  0.00000000000E+00  0.00000000000E+00  0.11926231089E+04  0.26839274409E+04  0.24043952729E+04 0.  0.
        3    1    3    3  502    0 -0.10924925845E+03  0.11969738179E+04  0.56902762879E+03  0.13298399053E+04  0.10100000352E+00 0. -1.
       -3    1    3    3    0  502  0.10924925845E+03 -0.11969738179E+04  0.62359548010E+03  0.13540875356E+04  0.10100000352E+00 0.  1.
</event>
<event>
 5   0  0.9491680E-05  0.2375617E+04  0.7818609E-02  0.8448689E-01
        2   -1    0    0  501    0  0.00000000000E+00  0.00000000000E+00  0.24496145816E+04  0.24496145816E+04  0.25500000920E-02 0. -1.
       -2   -1    0    0    0  501  0.00000000000E+00  0.00000000000E+00 -0.57596372493E+03  0.57596372494E+03  0.25500000920E-02 0.  1.
    10030    2    1    2    0    0  0.00000000000E+00  0.00000000000E+00  0.18736508567E+04  0.30255783065E+04  0.23756170896E+04 0.  0.
        5    1    3    3  502    0  0.23696045956E+03 -0.75741204310E+03 -0.18873715538E+03  0.81576164794E+03  0.46999998093E+01 0.  1.
       -5    1    3    3    0  502 -0.23696045956E+03  0.75741204310E+03  0.20623880120E+04  0.22098166586E+04  0.46999998093E+01 0. -1.
</event>
<event>
 5   0  0.3934906E-05  0.2583190E+04  0.7818609E-02  0.8373934E-01
       -1   -1    0    0    0  501  0.00000000000E+00  0.00000000000E+00  0.16201334760E+04  0.16201334760E+04  0.50400001928E-02 0.  1.
        1   -1    0    0  501    0  0.00000000000E+00  0.00000000000E+00 -0.10296788739E+04  0.10296788740E+04  0.50400001928E-02 0. -1.
    10030    2    1    2    0    0  0.00000000000E+00  0.00000000000E+00  0.59045460205E+03  0.26498123500E+04  0.25831896665E+04 0.  0.
        2    1    3    3  502    0 -0.31496881232E+03  0.28677148597E+03  0.15460083730E+04  0.16036162656E+04  0.25500000920E-02 0.  1.
       -2    1    3    3    0  502  0.31496881232E+03 -0.28677148597E+03 -0.95555377091E+03  0.10461960844E+04  0.25500000920E-02 0. -1.
</event>
<event>
 5   0  0.9519092E-05  0.2363202E+04  0.7818609E-02  0.8453410E-01
        2   -1    0    0  501    0  0.00000000000E+00  0.00000000000E+00  0.12741791587E+04  0.12741791587E+04  0.25500000920E-02 0. -1.
       -2   -1    0    0    0  501  0.00000000000E+00  0.00000000000E+00 -0.10957491254E+04  0.10957491254E+04  0.25500000920E-02 0.  1.
    10030    2    1    2    0    0  0.00000000000E+00  0.00000000000E+00  0.17843003329E+03  0.23699282840E+04  0.23632018100E+04 0.  0.
        4    1    3    3  502    0  0.79765341166E+03  0.65720041478E+03 -0.48514173752E+03  0.11417212745E+04  0.12699999809E+01 0. -1.
       -4    1    3    3    0  502 -0.79765341166E+03 -0.65720041478E+03  0.66357177080E+03  0.12282070095E+04  0.12699999809E+01 0.  1.
</event>
<event>
 5   0  0.4061631E-05  0.2429178E+04  0.7818609E-02  0.8428660E-01
       -1   -1    0    0    0  501  0.00000000000E+00  0.00000000000E+00  0.12763567191E+04  0.12763567191E+04  0.50400001928E-02 0.  1.
        1   -1    0    0  501    0  0.00000000000E+00  0.00000000000E+00 -0.11558099807E+04  0.11558099807E+04  0.50400001928E-02 0. -1.
    10030    2    1    2    0    0  0.00000000000E+00  0.00000000000E+00  0.12054673838E+03  0.24321666998E+04  0.24291775026E+04 0.  0.
        3    1    3    3  502    0  0.84711953109E+03  0.55823075875E+03  0.72892203832E+03  0.12492239303E+04  0.10100000352E+00 0.  1.
       -3    1    3    3    0  502 -0.84711953109E+03 -0.55823075875E+03 -0.60837529994E+03  0.11829427694E+04  0.10100000352E+00 0. -1.
</event>
<event>
 5   0  0.9182865E-05  0.1421416E+04  0.7818609E-02  0.8938461E-01
       -2   -1    0    0    0  501  0.00000000000E+00  0.00000000000E+00  0.39732634778E+03  0.39732634778E+03  0.25500000920E-02 0. -1.
        2   -1    0    0  501    0  0.00000000000E+00  0.00000000000E+00 -0.12712611303E+04  0.12712611303E+04  0.25500000920E-02 0.  1.
    10030    2    1    2    0    0  0.00000000000E+00  0.00000000000E+00 -0.87393478257E+03  0.16685874781E+04  0.14214155508E+04 0.  0.
        3    1    3    3  502    0 -0.14522608011E+03  0.60805369259E+03 -0.40119825888E+02  0.62644195106E+03  0.10100000352E+00 0. -1.
       -3    1    3    3    0  502  0.14522608011E+03 -0.60805369259E+03 -0.83381495668E+03  0.10421455271E+04  0.10100000352E+00 0.  1.
</event>
<event>
 5   0  0.4208577E-05  0.2369103E+04  0.7818609E-02  0.8451162E-01
       -1   -1    0    0    0  501  0.00000000000E+00  0.00000000000E+00  0.78533391537E+03  0.78533391539E+03  0.50400001928E-02 0.  1.
        1   -1    0    0  501    0  0.00000000000E+00  0.00000000000E+00 -0.17867071061E+04  0.17867071062E+04  0.50400001928E-02 0. -1.
    10030    2    1    2    0    0  0.00000000000E+00  0.00000000000E+00 -0.10013731908E+04  0.25720410215E+04  0.23691025198E+04 0.  0.
        1    1    3    3  502    0  0.30216767105E+03  0.13123865421E+03 -0.17359720834E+04  0.17669544307E+04  0.50400001928E-02 0. -1.
       -1    1    3    3    0  502 -0.30216767105E+03 -0.13123865421E+03  0.73459889260E+03  0.80508659088E+03  0.50400001928E-02 0.  1.
</event>
<event>
 5   0  0.9491680E-05  0.2501753E+04  0.7818609E-02  0.8402361E-01
       -2   -1    0    0    0  501  0.00000000000E+00  0.00000000000E+00  0.82109721764E+03  0.82109721764E+03  0.25500000920E-02 0. -1.
        2   -1    0    0  501    0  0.00000000000E+00  0.00000000000E+00 -0.19056105562E+04  0.19056105562E+04  0.25500000920E-02 0.  1.
    10030    2    1    2    0    0  0.00000000000E+00  0.00000000000E+00 -0.10845133386E+04  0.27267077739E+04  0.25017526062E+04 0.  0.
        5    1    3    3  502    0  0.44487016074E+03 -0.82318902979E+03 -0.14470337665E+04  0.17232174703E+04  0.46999998093E+01 0.  1.
       -5    1    3    3    0  502 -0.44487016074E+03  0.82318902979E+03  0.36252042789E+03  0.10034903036E+04  0.46999998093E+01 0. -1.
</event>
<event>
 5   0  0.4260395E-05  0.2395578E+04  0.7818609E-02  0.8441161E-01
        1   -1    0    0  501    0  0.00000000000E+00  0.00000000000E+00  0.10186518949E+04  0.10186518949E+04  0.50400001928E-02 0. -1.
       -1   -1    0    0    0  501  0.00000000000E+00  0.00000000000E+00 -0.14084284970E+04  0.14084284970E+04  0.50400001928E-02 0.  1.
    10030    2    1    2    0    0  0.00000000000E+00  0.00000000000E+00 -0.38977660207E+03  0.24270803919E+04  0.23955778905E+04 0.  0.
        4    1    3    3  502    0  0.74535548521E+03  0.52392696587E+03  0.59292479010E+03  0.10870214738E+04  0.12699999809E+01 0. -1.
       -4    1    3    3    0  502 -0.74535548521E+03 -0.52392696587E+03 -0.98270139217E+03  0.13400589181E+04  0.12699999809E+01 0.  1.
</event>
<event>
 5   0  0.9750757E-05  0.2391575E+04  0.7818609E-02  0.8442664E-01
       -2   -1    0    0    0  501  0.00000000000E+00  0.00000000000E+00  0.60889534178E+03  0.60889534179E+03  0.25500000920E-02 0.  1.
        2   -1    0    0  501    0  0.00000000000E+00  0.00000000000E+00 -0.23483643167E+04  0.23483643167E+04  0.25500000920E-02 0. -1.
    10030    2    1    2    0    0  0.00000000000E+00  0.00000000000E+00 -0.17394689749E+04  0.29572596585E+04  0.23915752911E+04 0.  0.
        2    1    3    3  502    0  0.78869081384E+03  0.61684774416E+03 -0.61366093522E+02  0.10031451225E+04  0.25500000920E-02 0.  1.
       -2    1    3    3    0  502 -0.78869081384E+03 -0.61684774416E+03 -0.16781028814E+04  0.19541145360E+04  0.25500000920E-02 0. -1.
</event>
<event>
 5   0  0.9182865E-05  0.1751560E+04  0.7818609E-02  0.8732492E-01
        2   -1    0    0  501    0  0.00000000000E+00  0.00000000000E+00  0.12133764560E+04  0.12133764560E+04  0.25500000920E-02 0.  1.
       -2   -1    0    0    0  501  0.00000000000E+00  0.00000000000E+00 -0.63211260878E+03  0.63211260878E+03  0.25500000920E-02 0. -1.
    10030    2    1    2    0    0  0.00000000000E+00  0.00000000000E+00  0.58126384725E+03  0.18454890648E+04  0.17515599414E+04 0.  0.
        3    1    3    3  502    0  0.81320155487E+03 -0.19188092607E+02 -0.51310852145E+02  0.81504464018E+03  0.10100000352E+00 0. -1.
       -3    1    3    3    0  502 -0.81320155487E+03  0.19188092607E+02  0.63257469940E+03  0.10304444246E+04  0.10100000352E+00 0.  1.
</event>
<event>
 5   0  0.4018942E-05  0.1945538E+04  0.7818609E-02  0.8632516E-01
       -1   -1    0    0    0  501  0.00000000000E+00  0.00000000000E+00  0.65401999458E+03  0.65401999460E+03  0.50400001928E-02 0. -1.
        1   -1    0    0  501    0  0.00000000000E+00  0.00000000000E+00 -0.14468657430E+04  0.14468657430E+04  0.50400001928E-02 0.  1.
    10030    2    1    2    0    0  0.00000000000E+00  0.00000000000E+00 -0.79284574839E+03  0.21008857376E+04  0.19455375868E+04 0.  0.
        5    1    3    3  502    0  0.33827318153E+03 -0.71417383709E+02 -0.13782704914E+04  0.14209788265E+04  0.46999998093E+01 0.  1.
       -5    1    3    3    0  502 -0.33827318153E+03  0.71417383709E+02  0.58542474297E+03  0.67990691107E+03  0.46999998093E+01 0. -1.
</event>
<event>
 5   0  0.3934906E-05  0.2398230E+04  0.7818609E-02  0.8440166E-01
       -1   -1    0    0    0  501  0.00000000000E+00  0.00000000000E+00  0.73658888568E+03  0.73658888569E+03  0.50400001928E-02 0. -1.
        1   -1    0    0  501    0  0.00000000000E+00  0.00000000000E+00 -0.19520754479E+04  0.19520754479E+04  0.50400001928E-02 0.  1.
    10030    2    1    2    0    0  0.00000000000E+00  0.00000000000E+00 -0.12154865623E+04  0.26886643336E+04  0.23982302466E+04 0.  0.
        2    1    3    3  502    0  0.97008736822E+03 -0.69984756385E+03 -0.51380467877E+03  0.13018645715E+04  0.25500000920E-02 0.  1.
       -2    1    3    3    0  502 -0.97008736822E+03  0.69984756385E+03 -0.70168188348E+03  0.13867997621E+04  0.25500000920E-02 0. -1.
</event>
<event>
 5   0  0.9144244E-05  0.2370084E+04  0.7818609E-02  0.8450789E-01
        2   -1    0    0  501    0  0.00000000000E+00  0.00000000000E+00  0.10897062118E+04  0.10897062118E+04  0.25500000920E-02 0. -1.
       -2   -1    0    0    0  501  0.00000000000E+00  0.00000000000E+00 -0.12887190126E+04  0.12887190126E+04  0.25500000920E-02 0.  1.
    10030    2    1    2    0    0  0.00000000000E+00  0.00000000000E+00 -0.19901280081E+03  0.23784252244E+04  0.23700844823E+04 0.  0.
        1    1    3    3  502    0  0.65335401121E+03  0.57242328785E+03 -0.90843574967E+03  0.12568991192E+04  0.50400001928E-02 0.  1.
       -1    1    3    3    0  502 -0.65335401121E+03 -0.57242328785E+03  0.70942294886E+03  0.11215261053E+04  0.50400001928E-02 0. -1.
</event>
<event>
 5   0  0.9750757E-05  0.1432936E+04  0.7818609E-02  0.8930317E-01
       -2   -1    0    0    0  501  0.00000000000E+00  0.00000000000E+00  0.29294838348E+03  0.29294838349E+03  0.25500000920E-02 0. -1.
        2   -1    0    0  501    0  0.00000000000E+00  0.00000000000E+00 -0.17522751501E+04  0.17522751501E+04  0.25500000920E-02 0.  1.
    10030    2    1    2    0    0  0.00000000000E+00  0.00000000000E+00 -0.14593267667E+04  0.20452235336E+04  0.14329356896E+04 0.  0.
        2    1    3    3  502    0 -0.57790423440E+03 -0.42282115881E+03 -0.69543397245E+03  0.99818808174E+03  0.25500000920E-02 0.  1.
       -2    1    3    3    0  502  0.57790423440E+03  0.42282115881E+03 -0.76389279420E+03  0.10470354519E+04  0.25500000920E-02 0. -1.
</event>
<event>
 5   0  0.3934906E-05  0.2427037E+04  0.7818609E-02  0.8429450E-01
        1   -1    0    0  501    0  0.00000000000E+00  0.00000000000E+00  0.14092271021E+04  0.14092271021E+04  0.50400001928E-02 0.  1.
       -1   -1    0    0    0  501  0.00000000000E+00  0.00000000000E+00 -0.10449891141E+04  0.10449891141E+04  0.50400001928E-02 0. -1.
    10030    2    1    2    0    0  0.00000000000E+00  0.00000000000E+00  0.36423798798E+03  0.24542162162E+04  0.24270368609E+04 0.  0.
        2    1    3    3  502    0  0.88161453447E+03  0.14489682408E+03  0.10125265089E+04  0.13503515128E+04  0.25500000920E-02 0.  1.
       -2    1    3    3    0  502 -0.88161453447E+03 -0.14489682408E+03 -0.64828852092E+03  0.11038647034E+04  0.25500000920E-02 0. -1.
</event>
<event>
 5   0  0.9519092E-05  0.2424560E+04  0.7818609E-02  0.8430365E-01
       -2   -1    0    0    0  501  0.00000000000E+00  0.00000000000E+00  0.15478956950E+04  0.15478956950E+04  0.25500000920E-02 0.  1.
        2   -1    0    0  501    0  0.00000000000E+00  0.00000000000E+00 -0.94943308252E+03  0.94943308252E+03  0.25500000920E-02 0. -1.
    10030    2    1    2    0    0  0.00000000000E+00  0.00000000000E+00  0.59846261250E+03  0.24973287775E+04  0.24245604807E+04 0.  0.
        4    1    3    3  502    0  0.53298528942E+03  0.10799081221E+04  0.44249903079E+03  0.12829972237E+04  0.12699999809E+01 0.  1.
       -4    1    3    3    0  502 -0.53298528942E+03 -0.10799081221E+04  0.15596358172E+03  0.12143315538E+04  0.12699999809E+01 0. -1.
</event>
<event>
 5   0  0.9491680E-05  0.2474880E+04  0.7818609E-02  0.8411990E-01
        2   -1    0    0  501    0  0.00000000000E+00  0.00000000000E+00  0.14987525203E+04  0.14987525203E+04  0.25500000920E-02 0. -1.
       -2   -1    0    0    0  501  0.00000000000E+00  0.00000000000E+00 -0.10216880061E+04  0.10216880061E+04  0.25500000920E-02 0.  1.
    10030    2    1    2    0    0  0.00000000000E+00  0.00000000000E+00  0.47706451419E+03  0.25204405264E+04  0.24748797742E+04 0.  0.
        5    1    3    3  502    0 -0.88620860356E+03 -0.72123739968E+03 -0.24527786920E+03  0.11686455403E+04  0.46999998093E+01 0.  1.
       -5    1    3    3    0  502  0.88620860356E+03  0.72123739968E+03  0.72234238340E+03  0.13517949861E+04  0.46999998093E+01 0. -1.
</event>
<event>
 5   0  0.9519092E-05  0.2365900E+04  0.7818609E-02  0.8452381E-01
       -2   -1    0    0    0  501  0.00000000000E+00  0.00000000000E+00  0.10295697566E+04  0.10295697566E+04  0.25500000920E-02 0.  1.
        2   -1    0    0  501    0  0.00000000000E+00  0.00000000000E+00 -0.13591804051E+04  0.13591804051E+04  0.25500000920E-02 0. -1.
    10030    2    1    2    0    0  0.00000000000E+00  0.00000000000E+00 -0.32961064850E+03  0.23887501617E+04  0.23659002843E+04 0.  0.
        4    1    3    3  502    0  0.17594032811E+03  0.70513035317E+03  0.77759326030E+03  0.10643386235E+04  0.12699999809E+01 0.  1.
       -4    1    3    3    0  502 -0.17594032811E+03 -0.70513035317E+03 -0.11072039088E+04  0.13244115382E+04  0.12699999809E+01 0. -1.
</event>
<event>
 5   0  0.9750757E-05  0.2431741E+04  0.7818609E-02  0.8427715E-01
        2   -1    0    0  501    0  0.00000000000E+00  0.00000000000E+00  0.11960188333E+04  0.11960188333E+04  0.25500000920E-02 0.  1.
       -2   -1    0    0    0  501  0.00000000000E+00  0.00000000000E+00 -0.12360512192E+04  0.12360512192E+04  0.25500000920E-02 0. -1.
    10030    2    1    2    0    0  0.00000000000E+00  0.00000000000E+00 -0.40032385956E+02  0.24320700525E+04  0.24317405594E+04 0.  0.
        2    1    3    3  502    0  0.11048561417E+04  0.50702271608E+03 -0.43713465678E+02  0.12164250884E+04  0.25500000920E-02 0. -1.
       -2    1    3    3    0  502 -0.11048561417E+04 -0.50702271608E+03  0.36810797221E+01  0.12156449642E+04  0.25500000920E-02 0.  1.
</event>
<event>
 5   0  0.3234750E-05  0.2002168E+04  0.7818609E-02  0.8605608E-01
       -4   -1    0    0    0  501  0.00000000000E+00  0.00000000000E+00  0.10921599980E+04  0.10921607364E+04  0.12699999809E+01 0. -1.
        4   -1    0    0  501    0  0.00000000000E+00  0.00000000000E+00 -0.91760123152E+03  0.91760211039E+03  0.12699999809E+01 0.  1.
    10030    2    1    2    0    0  0.00000000000E+00  0.00000000000E+00  0.17455876649E+03  0.20097628468E+04  0.20021678095E+04 0.  0.
        4    1    3    3  502    0  0.13483296312E+03  0.54417216782E+03 -0.74524250264E+03  0.93257239763E+03  0.12699999809E+01 0.  1.
       -4    1    3    3    0  502 -0.13483296312E+03 -0.54417216782E+03  0.91980126913E+03  0.10771904492E+04  0.12699999809E+01 0. -1.
</event>
<event>
 5   0  0.4208577E-05  0.1805673E+04  0.7818609E-02  0.8703288E-01
        1   -1    0    0  501    0  0.00000000000E+00  0.00000000000E+00  0.50662205089E+03  0.50662205092E+03  0.50400001928E-02 0.  1.
       -1   -1    0    0    0  501  0.00000000000E+00  0.00000000000E+00 -0.16089187441E+04  0.16089187441E+04  0.50400001928E-02 0. -1.
    10030    2    1    2    0    0  0.00000000000E+00  0.00000000000E+00 -0.11022966932E+04  0.21155407950E+04  0.18056729647E+04 0.  0.
        1    1    3    3  502    0  0.26073530988E+03  0.30163856120E+03  0.39788662760E+03  0.56327834316E+03  0.50400001928E-02 0.  1.
       -1    1    3    3    0  502 -0.26073530988E+03 -0.30163856120E+03 -0.15001833208E+04  0.15522624519E+04  0.50400001928E-02 0. -1.
</event>
<event>
 5   0  0.9182865E-05  0.2422157E+04  0.7818609E-02  0.8431255E-01
       -2   -1    0    0    0  501  0.00000000000E+00  0.00000000000E+00  0.12860244051E+04  0.12860244052E+04  0.25500000920E-02 0. -1.
        2   -1    0    0  501    0  0.00000000000E+00  0.00000000000E+00 -0.11405000473E+04  0.11405000473E+04  0.25500000920E-02 0.  1.
    10030    2    1    2    0    0  0.00000000000E+00  0.00000000000E+00  0.14552435781E+03  0.24265244525E+04  0.24221568033E+04 0.  0.
        3    1    3    3  502    0 -0.28587536689E+03  0.54236133885E+03  0.11190737335E+04  0.12760119821E+04  0.10100000352E+00 0. -1.
       -3    1    3    3    0  502  0.28587536689E+03 -0.54236133885E+03 -0.97354937572E+03  0.11505124704E+04  0.10100000352E+00 0.  1.
</event>
<event>
 5   0  0.4208577E-05  0.2270779E+04  0.7818609E-02  0.8489532E-01
       -1   -1    0    0    0  501  0.00000000000E+00  0.00000000000E+00  0.81745038872E+03  0.81745038874E+03  0.50400001928E-02 0.  1.
        1   -1    0    0  501    0  0.00000000000E+00  0.00000000000E+00 -0.15769881382E+04  0.15769881382E+04  0.50400001928E-02 0. -1.
    10030    2    1    2    0    0  0.00000000000E+00  0.00000000000E+00 -0.75953774946E+03  0.23944385269E+04  0.22707792201E+04 0.  0.
        1    1    3    3  502    0 -0.16776214080E+03  0.10879236055E+04 -0.67310438182E+03  0.12902679629E+04  0.50400001928E-02 0. -1.
       -1    1    3    3    0  502  0.16776214080E+03 -0.10879236055E+04 -0.86433367637E+02  0.11041705640E+04  0.50400001928E-02 0.  1.
</event>
<event>
 5   0  0.9750757E-05  0.1466837E+04  0.7818609E-02  0.8906810E-01
        2   -1    0    0  501    0  0.00000000000E+00  0.00000000000E+00  0.16204053668E+04  0.16204053668E+04  0.25500000920E-02 0.  1.
       -2   -1    0    0    0  501  0.00000000000E+00  0.00000000000E+00 -0.33195557067E+03  0.33195557068E+03  0.25500000920E-02 0. -1.
    10030    2    1    2    0    0  0.00000000000E+00  0.00000000000E+00  0.12884497961E+04  0.19523609375E+04  0.14668368529E+04 0.  0.
        2    1    3    3  502    0 -0.32867194629E+03  0.45295390333E+03  0.13282670129E+02  0.55979363711E+03  0.25500000920E-02 0. -1.
       -2    1    3    3    0  502  0.32867194629E+03 -0.45295390333E+03  0.12751671260E+04  0.13925673004E+04  0.25500000920E-02 0.  1.
</event>
<event>
 5   0  0.9491680E-05  0.2039107E+04  0.7818609E-02  0.8588552E-01
       -2   -1    0    0    0  501  0.00000000000E+00  0.00000000000E+00  0.66909707901E+03  0.66909707901E+03  0.25500000920E-02 0. -1.
        2   -1    0    0  501    0  0.00000000000E+00  0.00000000000E+00 -0.15535709107E+04  0.15535709107E+04  0.25500000920E-02 0.  1.
    10030    2    1    2    0    0  0.00000000000E+00  0.00000000000E+00 -0.88447383174E+03  0.22226679898E+04  0.20391074110E+04 0.  0.
        5    1    3    3  502    0 -0.22895032179E+03 -0.55187891463E+03  0.45825364401E+03  0.75299872411E+03  0.46999998093E+01 0. -1.
       -5    1    3    3    0  502  0.22895032179E+03  0.55187891463E+03 -0.13427274758E+04  0.14696692657E+04  0.46999998093E+01 0.  1.
</event>
<event>
 5   0  0.4061631E-05  0.2362391E+04  0.7818609E-02  0.8453720E-01
        1   -1    0    0  501    0  0.00000000000E+00  0.00000000000E+00  0.11850894822E+04  0.11850894822E+04  0.50400001928E-02 0.  1.
       -1   -1    0    0    0  501  0.00000000000E+00  0.00000000000E+00 -0.11773138916E+04  0.11773138916E+04  0.50400001928E-02 0. -1.
    10030    2    1    2    0    0  0.00000000000E+00  0.00000000000E+00  0.77755905733E+01  0.23624033738E+04  0.23623905775E+04 0.  0.
        3    1    3    3  502    0  0.29464215511E+03 -0.11052021140E+04  0.29873950290E+03  0.11821721588E+04  0.10100000352E+00 0.  1.
       -3    1    3    3    0  502 -0.29464215511E+03  0.11052021140E+04 -0.29096391233E+03  0.11802312150E+04  0.10100000352E+00 0. -1.
</event>
<event>
 5   0  0.4208577E-05  0.2449572E+04  0.7818609E-02  0.8421174E-01
       -1   -1    0    0    0  501  0.00000000000E+00  0.00000000000E+00  0.89646974885E+03  0.89646974886E+03  0.50400001928E-02 0.  1.
        1   -1    0    0  501    0  0.00000000000E+00  0.00000000000E+00 -0.16733422746E+04  0.16733422746E+04  0.50400001928E-02 0. -1.
    10030    2    1    2    0    0  0.00000000000E+00  0.00000000000E+00 -0.77687252572E+03  0.25698120234E+04  0.24495719860E+04 0.  0.
        1    1    3    3  502    0  0.98986979867E+03  0.16496396428E+03 -0.11250750898E+04  0.15075971895E+04  0.50400001928E-02 0. -1.
       -1    1    3    3    0  502 -0.98986979867E+03 -0.16496396428E+03  0.34820256413E+03  0.10622148340E+04  0.50400001928E-02 0.  1.
</event>
<event>
 5   0  0.4018942E-05  0.1405970E+04  0.7818609E-02  0.8949508E-01
        1   -1    0    0  501    0  0.00000000000E+00  0.00000000000E+00  0.94729381410E+03  0.94729381411E+03  0.50400001928E-02 0. -1.
       -1   -1    0    0    0  501  0.00000000000E+00  0.00000000000E+00 -0.52168413213E+03  0.52168413215E+03  0.50400001928E-02 0.  1.
    10030    2    1    2    0    0  0.00000000000E+00  0.00000000000E+00  0.42560968197E+03  0.14689779463E+04  0.14059703429E+04 0.  0.
        5    1    3    3  502    0 -0.45921721522E+03  0.58621747697E+02 -0.33990993395E+03  0.57434990489E+03  0.46999998093E+01 0.  1.
       -5    1    3    3    0  502  0.45921721522E+03 -0.58621747697E+02  0.76551961592E+03  0.89462804137E+03  0.46999998093E+01 0. -1.
</event>
<event>
 5   0  0.3234750E-05  0.1644808E+04  0.7818609E-02  0.8793484E-01
       -3   -1    0    0    0  501  0.00000000000E+00  0.00000000000E+00  0.21165101062E+04  0.21165101086E+04  0.10100000352E+00 0.  1.
        3   -1    0    0  501    0  0.00000000000E+00  0.00000000000E+00 -0.31955844843E+03  0.31955846439E+03  0.10100000352E+00 0. -1.
    10030    2    1    2    0    0  0.00000000000E+00  0.00000000000E+00  0.17969516578E+04  0.24360685730E+04  0.16448084484E+04 0.  0.
        3    1    3    3  502    0 -0.53713176593E+03  0.33474553082E+03  0.12069292278E+03  0.64430729950E+03  0.10100000352E+00 0. -1.
       -3    1    3    3    0  502  0.53713176593E+03 -0.33474553082E+03  0.16762587350E+04  0.17917612735E+04  0.10100000352E+00 0.  1.
</event>
<event>
 5   0  0.4061631E-05  0.2388094E+04  0.7818609E-02  0.8443975E-01
       -1   -1    0    0    0  501  0.00000000000E+00  0.00000000000E+00  0.12378001473E+04  0.12378001473E+04  0.50400001928E-02 0.  1.
        1   -1    0    0  501    0  0.00000000000E+00  0.00000000000E+00 -0.11518401188E+04  0.11518401188E+04  0.50400001928E-02 0. -1.
    10030    2    1    2    0    0  0.00000000000E+00  0.00000000000E+00  0.85960028548E+02  0.23896402661E+04  0.23880936905E+04 0.  0.
        3    1    3    3  502    0  0.54298032965E+03  0.10449517257E+04 -0.15462220416E+03  0.11877119952E+04  0.10100000352E+00 0. -1.
       -3    1    3    3    0  502 -0.54298032965E+03 -0.10449517257E+04  0.24058223271E+03  0.12019282709E+04  0.10100000352E+00 0.  1.
</event>
<event>
 5   0  0.9491680E-05  0.2428478E+04  0.7818609E-02  0.8428918E-01
        2   -1    0    0  501    0  0.00000000000E+00  0.00000000000E+00  0.21869804063E+04  0.21869804063E+04  0.25500000920E-02 0. -1.
       -2   -1    0    0    0  501  0.00000000000E+00  0.00000000000E+00 -0.67416050141E+03  0.67416050141E+03  0.25500000920E-02 0.  1.
    10030    2    1    2    0    0  0.00000000000E+00  0.00000000000E+00  0.15128199049E+04  0.28611409078E+04  0.24284775538E+04 0.  0.
        5    1    3    3  502    0  0.49172665674E+03 -0.70069523687E+03 -0.25816833092E+03  0.89411514751E+03  0.46999998093E+01 0.  1.
       -5    1    3    3    0  502 -0.49172665674E+03  0.70069523687E+03  0.17709882359E+04  0.19670257602E+04  0.46999998093E+01 0. -1.
</event>
<event>
 5   0  0.3234750E-05  0.1496977E+04  0.7818609E-02  0.8886466E-01
       -3   -1    0    0    0  501  0.00000000000E+00  0.00000000000E+00  0.97188553485E+03  0.97188554010E+03  0.10100000352E+00 0. -1.
        3   -1    0    0  501    0  0.00000000000E+00  0.00000000000E+00 -0.57644102755E+03  0.57644103640E+03  0.10100000352E+00 0.  1.
    10030    2    1    2    0    0  0.00000000000E+00  0.00000000000E+00  0.39544450730E+03  0.15483265765E+04  0.14969765627E+04 0.  0.
        3    1    3    3  502    0 -0.20826284773E+03 -0.10135644373E+03 -0.53844260594E+03  0.58614587990E+03  0.10100000352E+00 0.  1.
       -3    1    3    3    0  502  0.20826284773E+03  0.10135644373E+03  0.93388711324E+03  0.96218069660E+03  0.10100000352E+00 0. -1.
</event>
<event>
 5   0  0.9491680E-05  0.2544464E+04  0.7818609E-02  0.8387314E-01
        2   -1    0    0  501    0  0.00000000000E+00  0.00000000000E+00  0.75218932807E+03  0.75218932807E+03  0.25500000920E-02 0. -1.
       -2   -1    0    0    0  501  0.00000000000E+00  0.00000000000E+00 -0.21518171635E+04  0.21518171635E+04  0.25500000920E-02 0.  1.
    10030    2    1    2    0    0  0.00000000000E+00  0.00000000000E+00 -0.13996278355E+04  0.29040064916E+04  0.25444637206E+04 0.  0.
        5    1    3    3  502    0  0.82583533522E+02  0.11263092688E+04 -0.13683874012E+04  0.17742318841E+04  0.46999998093E+01 0.  1.
       -5    1    3    3    0  502 -0.82583533522E+02 -0.11263092688E+04 -0.31240434293E+02  0.11297746075E+04  0.46999998093E+01 0. -1.
</event>
<event>
 5   0  0.4208577E-05  0.2392209E+04  0.7818609E-02  0.8442426E-01
       -1   -1    0    0    0  501  0.00000000000E+00  0.00000000000E+00  0.84246041744E+03  0.84246041745E+03  0.50400001928E-02 0. -1.
        1   -1    0    0  501    0  0.00000000000E+00  0.00000000000E+00 -0.16981992361E+04  0.16981992361E+04  0.50400001928E-02 0.  1.
    10030    2    1    2    0    0  0.00000000000E+00  0.00000000000E+00 -0.85573881864E+03  0.25406596535E+04  0.23922087178E+04 0.  0.
        1    1    3    3  502    0 -0.12961130931E+03 -0.27442474288E+03 -0.16566262689E+04  0.16841967302E+04  0.50400001928E-02 0.  1.
       -1    1    3    3    0  502  0.12961130931E+03  0.27442474288E+03  0.80088745030E+03  0.85646292335E+03  0.50400001928E-02 0. -1.
</event>
<event>
 5   0  0.4018942E-05  0.2416514E+04  0.7818609E-02  0.8433347E-01
       -1   -1    0    0    0  501  0.00000000000E+00  0.00000000000E+00  0.67692994177E+03  0.67692994179E+03  0.50400001928E-02 0. -1.
        1   -1    0    0  501    0  0.00000000000E+00  0.00000000000E+00 -0.21566265410E+04  0.21566265410E+04  0.50400001928E-02 0.  1.
    10030    2    1    2    0    0  0.00000000000E+00  0.00000000000E+00 -0.14796965993E+04  0.28335564828E+04  0.24165140834E+04 0.  0.
        5    1    3    3  502    0 -0.16527117665E+03  0.56810547213E+03  0.49543282043E+03  0.77170859711E+03  0.46999998093E+01 0. -1.
       -5    1    3    3    0  502  0.16527117665E+03 -0.56810547213E+03 -0.19751294197E+04  0.20618478857E+04  0.46999998093E+01 0.  1.
</event>
<event>
 5   0  0.9182865E-05  0.2418401E+04  0.7818609E-02  0.8432647E-01
       -2   -1    0    0    0  501  0.00000000000E+00  0.00000000000E+00  0.17314751303E+04  0.17314751303E+04  0.25500000920E-02 0.  1.
        2   -1    0    0  501    0  0.00000000000E+00  0.00000000000E+00 -0.84446225426E+03  0.84446225426E+03  0.25500000920E-02 0. -1.
    10030    2    1    2    0    0  0.00000000000E+00  0.00000000000E+00  0.88701287602E+03  0.25759373845E+04  0.24184006217E+04 0.  0.
        3    1    3    3  502    0  0.49791123425E+03 -0.10900973384E+04  0.61504894714E+03  0.13470386119E+04  0.10100000352E+00 0. -1.
       -3    1    3    3    0  502 -0.49791123425E+03  0.10900973384E+04  0.27196392888E+03  0.12288987726E+04  0.10100000352E+00 0.  1.
</event>
<event>
 5   0  0.9491680E-05  0.2213565E+04  0.7818609E-02  0.8512803E-01
       -2   -1    0    0    0  501  0.00000000000E+00  0.00000000000E+00  0.67970961567E+03  0.67970961567E+03  0.25500000920E-02 0. -1.
        2   -1    0    0  501    0  0.00000000000E+00  0.00000000000E+00 -0.18021928280E+04  0.18021928280E+04  0.25500000920E-02 0.  1.
    10030    2    1    2    0    0  0.00000000000E+00  0.00000000000E+00 -0.11224832123E+04  0.24819024436E+04  0.22135652640E+04 0.  0.
        5    1    3    3  502    0 -0.29155008486E+03 -0.57928944979E+03 -0.15668288699E+04  0.16957454161E+04  0.46999998093E+01 0.  1.
       -5    1    3    3    0  502  0.29155008486E+03  0.57928944979E+03  0.44434565758E+03  0.78615702758E+03  0.46999998093E+01 0. -1.
</event>
<event>
 5   0  0.3234750E-05  0.2409144E+04  0.7818609E-02  0.8436088E-01
       -3   -1    0    0    0  501  0.00000000000E+00  0.00000000000E+00  0.18421808139E+04  0.18421808166E+04  0.10100000352E+00 0. -1.
        3   -1    0    0  501    0  0.00000000000E+00  0.00000000000E+00 -0.78765020303E+03  0.78765020951E+03  0.10100000352E+00 0.  1.
    10030    2    1    2    0    0  0.00000000000E+00  0.00000000000E+00  0.10545306108E+04  0.26298310261E+04  0.24091443329E+04 0.  0.
        5    1    3    3  502    0 -0.16691916868E+03  0.11928344939E+04  0.54472671899E+03  0.13219173299E+04  0.46999998093E+01 0.  1.
       -5    1    3    3    0  502  0.16691916868E+03 -0.11928344939E+04  0.50980389184E+03  0.13079136962E+04  0.46999998093E+01 0. -1.
</event>
<event>
 5   0  0.9519092E-05  0.2402461E+04  0.7818609E-02  0.8438583E-01
        2   -1    0    0  501    0  0.00000000000E+00  0.00000000000E+00  0.91386987413E+03  0.91386987414E+03  0.25500000920E-02 0. -1.
       -2   -1    0    0    0  501  0.00000000000E+00  0.00000000000E+00 -0.15789499923E+04  0.15789499923E+04  0.25500000920E-02 0.  1.
    10030    2    1    2    0    0  0.00000000000E+00  0.00000000000E+00 -0.66508011817E+03  0.24928198664E+04  0.24024610971E+04 0.  0.
        4    1    3    3  502    0 -0.45657581903E+03  0.54812299291E+03 -0.13353537981E+04  0.15139589403E+04  0.12699999809E+01 0.  1.
       -4    1    3    3    0  502  0.45657581903E+03 -0.54812299291E+03  0.67027367992E+03  0.97886092617E+03  0.12699999809E+01 0. -1.
</event>
<event>
 5   0  0.4061631E-05  0.2372807E+04  0.7818609E-02  0.8449755E-01
        1   -1    0    0  501    0  0.00000000000E+00  0.00000000000E+00  0.95849213004E+03  0.95849213005E+03  0.50400001928E-02 0. -1.
       -1   -1    0    0    0  501  0.00000000000E+00  0.00000000000E+00 -0.14685078718E+04  0.14685078718E+04  0.50400001928E-02 0.  1.
    10030    2    1    2    0    0  0.00000000000E+00  0.00000000000E+00 -0.51001574177E+03  0.24270000019E+04  0.23728069775E+04 0.  0.
        3    1    3    3  502    0 -0.97964686190E+02 -0.11737714152E+04 -0.40044112174E+03  0.12440617015E+04  0.10100000352E+00 0.  1.
       -3    1    3    3    0  502  0.97964686190E+02  0.11737714152E+04 -0.10957462003E+03  0.11829383004E+04  0.10100000352E+00 0. -1.
</event>
<event>
 5   0  0.4260395E-05  0.2386935E+04  0.7818609E-02  0.8444411E-01
        1   -1    0    0  501    0  0.00000000000E+00  0.00000000000E+00  0.13479906042E+04  0.13479906042E+04  0.50400001928E-02 0. -1.
       -1   -1    0    0    0  501  0.00000000000E+00  0.00000000000E+00 -0.10566577667E+04  0.10566577667E+04  0.50400001928E-02 0.  1.
    10030    2    1    2    0    0  0.00000000000E+00  0.00000000000E+00  0.29133283751E+03  0.24046483709E+04  0.23869350568E+04 0.  0.
        4    1    3    3  502    0  0.70164237203E+03  0.20563864880E+03 -0.80461184708E+03  0.10871941453E+04  0.12699999809E+01 0.  1.
       -4    1    3    3    0  502 -0.70164237203E+03 -0.20563864880E+03  0.10959446846E+04  0.13174542257E+04  0.12699999809E+01 0. -1.
</event>
<event>
 5   0  0.4260395E-05  0.2185316E+04  0.7818609E-02  0.8524565E-01
       -1   -1    0    0    0  501  0.00000000000E+00  0.00000000000E+00  0.85680347624E+03  0.85680347626E+03  0.50400001928E-02 0.  1.
        1   -1    0    0  501    0  0.00000000000E+00  0.00000000000E+00 -0.13934367732E+04  0.13934367732E+04  0.50400001928E-02 0. -1.
    10030    2    1    2    0    0  0.00000000000E+00  0.00000000000E+00 -0.53663329696E+03  0.22502402495E+04  0.21853159691E+04 0.  0.
        4    1    3    3  502    0  0.44474258218E+03  0.37400807387E+03 -0.12211299329E+04  0.13523453440E+04  0.12699999809E+01 0. -1.
       -4    1    3    3    0  502 -0.44474258218E+03 -0.37400807387E+03  0.68449663590E+03  0.89789490542E+03  0.12699999809E+01 0.  1.
</event>
<event>
 5   0  0.4260395E-05  0.2356768E+04  0.7818609E-02  0.8455868E-01
       -1   -1    0    0    0  501  0.00000000000E+00  0.00000000000E+00  0.10901177800E+04  0.10901177800E+04  0.50400001928E-02 0. -1.
        1   -1    0    0  501    0  0.00000000000E+00  0.00000000000E+00 -0.12737975548E+04  0.12737975548E+04  0.50400001928E-02 0.  1.
    10030    2    1    2    0    0  0.00000000000E+00  0.00000000000E+00 -0.18367977486E+03  0.23639153348E+04  0.23567684338E+04 0.  0.
        4    1    3    3  502    0 -0.30637153958E+03 -0.10068694352E+04 -0.62348322986E+03  0.12232671543E+04  0.12699999809E+01 0.  1.
       -4    1    3    3    0  502  0.30637153958E+03  0.10068694352E+04  0.43980345501E+03  0.11406481805E+04  0.12699999809E+01 0. -1.
</event>
<event>
 5   0  0.4208577E-05  0.2541300E+04  0.7818609E-02  0.8388418E-01
       -1   -1    0    0    0  501  0.00000000000E+00  0.00000000000E+00  0.12090351277E+04  0.12090351277E+04  0.50400001928E-02 0.  1.
        1   -1    0    0  501    0  0.00000000000E+00  0.00000000000E+00 -0.13354047448E+04  0.13354047448E+04  0.50400001928E-02 0. -1.
    10030    2    1    2    0    0  0.00000000000E+00  0.00000000000E+00 -0.12636961710E+03  0.25444398725E+04  0.25412998612E+04 0.  0.
        1    1    3    3  502    0  0.81909789342E+03 -0.14110284590E+03 -0.10254758077E+04  0.13200121228E+04  0.50400001928E-02 0. -1.
       -1    1    3    3    0  502 -0.81909789342E+03  0.14110284590E+03  0.89910619062E+03  0.12244277497E+04  0.50400001928E-02 0.  1.
</event>
<event>
 5   0  0.4018942E-05  0.2407155E+04  0.7818609E-02  0.8436830E-01
       -1   -1    0    0    0  501  0.00000000000E+00  0.00000000000E+00  0.12917037115E+04  0.12917037115E+04  0.50400001928E-02 0.  1.
        1   -1    0    0  501    0  0.00000000000E+00  0.00000000000E+00 -0.11214636389E+04  0.11214636389E+04  0.50400001928E-02 0. -1.
    10030    2    1    2    0    0  0.00000000000E+00  0.00000000000E+00  0.17024007258E+03  0.24131673504E+04  0.24071549553E+04 0.  0.
        5    1    3    3  502    0  0.10017106638E+04  0.31486249232E+03  0.67481882499E+03  0.12481847538E+04  0.46999998093E+01 0.  1.
       -5    1    3    3    0  502 -0.10017106638E+04 -0.31486249232E+03 -0.50457875241E+03  0.11649825966E+04  0.46999998093E+01 0. -1.
</event>
<event>
 5   0  0.9519092E-05  0.1570387E+04  0.7818609E-02  0.8838950E-01
       -2   -1    0    0    0  501  0.00000000000E+00  0.00000000000E+00  0.74950175703E+03  0.74950175703E+03  0.25500000920E-02 0.  1.
        2   -1    0    0  501    0  0.00000000000E+00  0.00000000000E+00 -0.82258508414E+03  0.82258508415E+03  0.25500000920E-02 0. -1.
    10030    2    1    2    0    0  0.00000000000E+00  0.00000000000E+00 -0.73083327113E+02  0.15720868412E+04  0.15703871699E+04 0.  0.
        4    1    3    3  502    0  0.36645116310E+03  0.39699368633E+03  0.53384418606E+03  0.75952726732E+03  0.12699999809E+01 0.  1.
       -4    1    3    3    0  502 -0.36645116310E+03 -0.39699368633E+03 -0.60692751317E+03  0.81255957386E+03  0.12699999809E+01 0. -1.
</event>
<event>
 5   0  0.4018942E-05  0.2316286E+04  0.7818609E-02  0.8471527E-01
        1   -1    0    0  501    0  0.00000000000E+00  0.00000000000E+00  0.16594010756E+04  0.16594010756E+04  0.50400001928E-02 0. -1.
       -1   -1    0    0    0  501  0.00000000000E+00  0.00000000000E+00 -0.80830065311E+03  0.80830065312E+03  0.50400001928E-02 0.  1.
    10030    2    1    2    0    0  0.00000000000E+00  0.00000000000E+00  0.85110042253E+03  0.24677017288E+04  0.23162857969E+04 0.  0.
        5    1    3    3  502    0 -0.69094082464E+03 -0.51767680078E+03  0.12479472266E+04  0.15174922944E+04  0.46999998093E+01 0. -1.
       -5    1    3    3    0  502  0.69094082464E+03  0.51767680078E+03 -0.39684680408E+03  0.95020943435E+03  0.46999998093E+01 0.  1.
</event>
<event>
 5   0  0.9519092E-05  0.2296362E+04  0.7818609E-02  0.8479357E-01
       -2   -1    0    0    0  501  0.00000000000E+00  0.00000000000E+00  0.86498489043E+03  0.86498489043E+03  0.25500000920E-02 0.  1.
        2   -1    0    0  501    0  0.00000000000E+00  0.00000000000E+00 -0.15240959051E+04  0.15240959051E+04  0.25500000920E-02 0. -1.
    10030    2    1    2    0    0  0.00000000000E+00  0.00000000000E+00 -0.65911101467E+03  0.23890807955E+04  0.22963622793E+04 0.  0.
        4    1    3    3  502    0 -0.10029792596E+04 -0.52302795047E+03 -0.53446654337E+03  0.12510722326E+04  0.12699999809E+01 0. -1.
       -4    1    3    3    0  502  0.10029792596E+04  0.52302795047E+03 -0.12464447130E+03  0.11380085630E+04  0.12699999809E+01 0.  1.
</event>
<event>
 5   0  0.4208577E-05  0.1921321E+04  0.7818609E-02  0.8644316E-01
        1   -1    0    0  501    0  0.00000000000E+00  0.00000000000E+00  0.10949519865E+04  0.10949519865E+04  0.50400001928E-02 0. -1.
       -1   -1    0    0    0  501  0.00000000000E+00  0.00000000000E+00 -0.84283907746E+03  0.84283907748E+03  0.50400001928E-02 0.  1.
    10030    2    1    2    0    0  0.00000000000E+00  0.00000000000E+00  0.25211290901E+03  0.19377910640E+04  0.19213207147E+04 0.  0.
        1    1    3    3  502    0  0.79184327605E+03  0.42940765433E+02  0.67293026981E+03  0.10400455909E+04  0.50400001928E-02 0. -1.
       -1    1    3    3    0  502 -0.79184327605E+03 -0.42940765433E+02 -0.42081736080E+03  0.89774547303E+03  0.50400001928E-02 0.  1.
</event>
<event>
 5   0  0.9144244E-05  0.2396537E+04  0.7818609E-02  0.8440801E-01
        2   -1    0    0  501    0  0.00000000000E+00  0.00000000000E+00  0.16698232773E+04  0.16698232773E+04  0.25500000920E-02 0. -1.
       -2   -1    0    0    0  501  0.00000000000E+00  0.00000000000E+00 -0.85988013753E+03  0.85988013754E+03  0.25500000920E-02 0.  1.
    10030    2    1    2    0    0  0.00000000000E+00  0.00000000000E+00  0.80994313976E+03  0.25297034148E+04  0.23965373933E+04 0.  0.
        1    1    3    3  502    0  0.11952719217E+04 -0.35188374125E+02  0.48628908138E+03  0.12908873921E+04  0.50400001928E-02 0. -1.
       -1    1    3    3    0  502 -0.11952719217E+04  0.35188374125E+02  0.32365405838E+03  0.12388160227E+04  0.50400001928E-02 0.  1.
</event>
<event>
 5   0  0.4061631E-05  0.2575957E+04  0.7818609E-02  0.8376414E-01
       -1   -1    0    0    0  501  0.00000000000E+00  0.00000000000E+00  0.13758289877E+04  0.13758289877E+04  0.50400001928E-02 0.  1.
        1   -1    0    0  501    0  0.00000000000E+00  0.00000000000E+00 -0.12057378299E+04  0.12057378299E+04  0.50400001928E-02 0. -1.
    10030    2    1    2    0    0  0.00000000000E+00  0.00000000000E+00  0.17009115786E+03  0.25815668176E+04  0.25759573428E+04 0.  0.
        3    1    3    3  502    0 -0.18182327158E+03  0.90285786415E+03 -0.81729114967E+03  0.12313313358E+04  0.10100000352E+00 0.  1.
       -3    1    3    3    0  502  0.18182327158E+03 -0.90285786415E+03  0.98738230753E+03  0.13502354818E+04  0.10100000352E+00 0. -1.
</event>
<event>
 5   0  0.9750757E-05  0.2412660E+04  0.7818609E-02  0.8434779E-01
       -2   -1    0    0    0  501  0.00000000000E+00  0.00000000000E+00  0.54831044158E+03  0.54831044159E+03  0.25500000920E-02 0. -1.
        2   -1    0    0  501    0  0.00000000000E+00  0.00000000000E+00 -0.26540292733E+04  0.26540292733E+04  0.25500000920E-02 0.  1.
    10030    2    1    2    0    0  0.00000000000E+00  0.00000000000E+00 -0.21057188317E+04  0.32023397149E+04  0.24126599120E+04 0.  0.
        2    1    3    3  502    0  0.13649151616E+03 -0.17626723652E+03 -0.26264496264E+04  0.26358941012E+04  0.25500000920E-02 0.  1.
       -2    1    3    3    0  502 -0.13649151616E+03  0.17626723652E+03  0.52073079472E+03  0.56644561366E+03  0.25500000920E-02 0. -1.
</event>
<event>
 5   0  0.4208577E-05  0.2125411E+04  0.7818609E-02  0.8550132E-01
        1   -1    0    0  501    0  0.00000000000E+00  0.00000000000E+00  0.16992066197E+04  0.16992066197E+04  0.50400001928E-02 0.  1.
       -1   -1    0    0    0  501  0.00000000000E+00  0.00000000000E+00 -0.66462938438E+03  0.66462938440E+03  0.50400001928E-02 0. -1.
    10030    2    1    2    0    0  0.00000000000E+00  0.00000000000E+00  0.10345772353E+04  0.23638360041E+04  0.21254106894E+04 0.  0.
        1    1    3    3  502    0 -0.10522735157E+04 -0.70727485202E+02  0.37201954367E+03  0.11183382627E+04  0.50400001928E-02 0. -1.
       -1    1    3    3    0  502  0.10522735157E+04  0.70727485202E+02  0.66255769165E+03  0.12454977414E+04  0.50400001928E-02 0.  1.
</event>
<event>
 5   0  0.4061631E-05  0.2415425E+04  0.7818609E-02  0.8433751E-01
        1   -1    0    0  501    0  0.00000000000E+00  0.00000000000E+00  0.11439495927E+04  0.11439495927E+04  0.50400001928E-02 0.  1.
       -1   -1    0    0    0  501  0.00000000000E+00  0.00000000000E+00 -0.12750292037E+04  0.12750292037E+04  0.50400001928E-02 0. -1.
    10030    2    1    2    0    0  0.00000000000E+00  0.00000000000E+00 -0.13107961104E+03  0.24189787964E+04  0.24154247148E+04 0.  0.
        3    1    3    3  502    0 -0.47357526563E+03 -0.51799627485E+03  0.91874685982E+03  0.11561528773E+04  0.10100000352E+00 0.  1.
       -3    1    3    3    0  502  0.47357526563E+03  0.51799627485E+03 -0.10498264709E+04  0.12628259192E+04  0.10100000352E+00 0. -1.
</event>
<event>
 5   0  0.4208577E-05  0.2407626E+04  0.7818609E-02  0.8436654E-01
        1   -1    0    0  501    0  0.00000000000E+00  0.00000000000E+00  0.12491889293E+04  0.12491889293E+04  0.50400001928E-02 0. -1.
       -1   -1    0    0    0  501  0.00000000000E+00  0.00000000000E+00 -0.11600852484E+04  0.11600852484E+04  0.50400001928E-02 0.  1.
    10030    2    1    2    0    0  0.00000000000E+00  0.00000000000E+00  0.89103680950E+02  0.24092741777E+04  0.24076259256E+04 0.  0.
        1    1    3    3  502    0 -0.23370506799E+03  0.54031332795E+03 -0.10062189716E+04  0.11657757803E+04  0.50400001928E-02 0.  1.
       -1    1    3    3    0  502  0.23370506799E+03 -0.54031332795E+03  0.10953226525E+04  0.12434983974E+04  0.50400001928E-02 0. -1.
</event>
<event>
 5   0  0.9491680E-05  0.2305075E+04  0.7818609E-02  0.8475923E-01
       -2   -1    0    0    0  501  0.00000000000E+00  0.00000000000E+00  0.12448268739E+04  0.12448268739E+04  0.25500000920E-02 0. -1.
        2   -1    0    0  501    0  0.00000000000E+00  0.00000000000E+00 -0.10670906916E+04  0.10670906916E+04  0.25500000920E-02 0.  1.
    10030    2    1    2    0    0  0.00000000000E+00  0.00000000000E+00  0.17773618234E+03  0.23119175655E+04  0.23050754173E+04 0.  0.
        5    1    3    3  502    0  0.10417509280E+03  0.34153769494E+03  0.11879404261E+04  0.12404535432E+04  0.46999998093E+01 0. -1.
       -5    1    3    3    0  502 -0.10417509280E+03 -0.34153769494E+03 -0.10102042437E+04  0.10714640223E+04  0.46999998093E+01 0.  1.
</event>
<event>
 5   0  0.9182865E-05  0.2326806E+04  0.7818609E-02  0.8467426E-01
       -2   -1    0    0    0  501  0.00000000000E+00  0.00000000000E+00  0.65835981531E+03  0.65835981531E+03  0.25500000920E-02 0.  1.
        2   -1    0    0  501    0  0.00000000000E+00  0.00000000000E+00 -0.20558769778E+04  0.20558769778E+04  0.25500000920E-02 0. -1.
    10030    2    1    2    0    0  0.00000000000E+00  0.00000000000E+00 -0.13975171625E+04  0.27142367931E+04  0.23268062123E+04 0.  0.
        3    1    3    3  502    0  0.46044677338E+03 -0.75388492435E+03 -0.15818849026E+04  0.18118260307E+04  0.10100000352E+00 0. -1.
       -3    1    3    3    0  502 -0.46044677338E+03  0.75388492435E+03  0.18436774012E+03  0.90241076239E+03  0.10100000352E+00 0.  1.
</event>
<event>
 5   0  0.9144244E-05  0.2392600E+04  0.7818609E-02  0.8442279E-01
        2   -1    0    0  501    0  0.00000000000E+00  0.00000000000E+00  0.12257485280E+04  0.12257485280E+04  0.25500000920E-02 0. -1.
       -2   -1    0    0    0  501  0.00000000000E+00  0.00000000000E+00 -0.11675591049E+04  0.11675591049E+04  0.25500000920E-02 0.  1.
    10030    2    1    2    0    0  0.00000000000E+00  0.00000000000E+00  0.58189423089E+02  0.23933076330E+04  0.23926001373E+04 0.  0.
        1    1    3    3  502    0 -0.35034636387E+03  0.95814609417E+03  0.65405729329E+03  0.12118487758E+04  0.50400001928E-02 0.  1.
       -1    1    3    3    0  502  0.35034636387E+03 -0.95814609417E+03 -0.59586787020E+03  0.11814588572E+04  0.50400001928E-02 0. -1.
</event>
<event>
 5   0  0.3934906E-05  0.2138760E+04  0.7818609E-02  0.8544359E-01
        1   -1    0    0  501    0  0.00000000000E+00  0.00000000000E+00  0.15595763868E+04  0.15595763868E+04  0.50400001928E-02 0. -1.
       -1   -1    0    0    0  501  0.00000000000E+00  0.00000000000E+00 -0.73325943425E+03  0.73325943427E+03  0.50400001928E-02 0.  1.
    10030    2    1    2    0    0  0.00000000000E+00  0.00000000000E+00  0.82631695252E+03  0.22928358210E+04  0.21387604813E+04 0.  0.
        2    1    3    3  502    0 -0.80686564239E+03 -0.26513891819E+02 -0.33867604957E+03  0.87546365881E+03  0.25500000920E-02 0.  1.
       -2    1    3    3    0  502  0.80686564239E+03  0.26513891819E+02  0.11649930021E+04  0.14173721622E+04  0.25500000920E-02 0. -1.
</event>
<event>
 5   0  0.4208577E-05  0.2339991E+04  0.7818609E-02  0.8462318E-01
       -1   -1    0    0    0  501  0.00000000000E+00  0.00000000000E+00  0.93360064889E+03  0.93360064890E+03  0.50400001928E-02 0.  1.
        1   -1    0    0  501    0  0.00000000000E+00  0.00000000000E+00 -0.14662479176E+04  0.14662479176E+04  0.50400001928E-02 0. -1.
    10030    2    1    2    0    0  0.00000000000E+00  0.00000000000E+00 -0.53264726875E+03  0.23998485665E+04  0.23399914593E+04 0.  0.
        1    1    3    3  502    0 -0.68294722919E+02  0.11029483561E+04  0.12786585012E+03  0.11124337827E+04  0.50400001928E-02 0.  1.
       -1    1    3    3    0  502  0.68294722919E+02 -0.11029483561E+04 -0.66051311887E+03  0.12874147838E+04  0.50400001928E-02 0. -1.
</event>
<event>
 5   0  0.9491680E-05  0.2382443E+04  0.7818609E-02  0.8446106E-01
        2   -1    0    0  501    0  0.00000000000E+00  0.00000000000E+00  0.17315286873E+04  0.17315286873E+04  0.25500000920E-02 0.  1.
       -2   -1    0    0    0  501  0.00000000000E+00  0.00000000000E+00 -0.81951184604E+03  0.81951184604E+03  0.25500000920E-02 0. -1.
    10030    2    1    2    0    0  0.00000000000E+00  0.00000000000E+00  0.91201684130E+03  0.25510405334E+04  0.23824426717E+04 0.  0.
        5    1    3    3  502    0 -0.72077097453E+03 -0.41262587143E+02 -0.55855247080E+03  0.91280685332E+03  0.46999998093E+01 0. -1.
       -5    1    3    3    0  502  0.72077097453E+03  0.41262587143E+02  0.14705693121E+04  0.16382336801E+04  0.46999998093E+01 0.  1.
</event>
<event>
 5   0  0.4018942E-05  0.2391281E+04  0.7818609E-02  0.8442775E-01
        1   -1    0    0  501    0  0.00000000000E+00  0.00000000000E+00  0.94191900756E+03  0.94191900757E+03  0.50400001928E-02 0. -1.
       -1   -1    0    0    0  501  0.00000000000E+00  0.00000000000E+00 -0.15177060092E+04  0.15177060092E+04  0.50400001928E-02 0.  1.
    10030    2    1    2    0    0  0.00000000000E+00  0.00000000000E+00 -0.57578700166E+03  0.24596250168E+04  0.23912809438E+04 0.  0.
        5    1    3    3  502    0 -0.90697581071E+03  0.21390404792E+03 -0.10584190852E+04  0.14101890345E+04  0.46999998093E+01 0.  1.
       -5    1    3    3    0  502  0.90697581071E+03 -0.21390404792E+03  0.48263208357E+03  0.10494359823E+04  0.46999998093E+01 0. -1.
</event>
<event>
 5   0  0.4260395E-05  0.2307887E+04  0.7818609E-02  0.8474818E-01
        1   -1    0    0  501    0  0.00000000000E+00  0.00000000000E+00  0.12867440089E+04  0.12867440089E+04  0.50400001928E-02 0. -1.
       -1   -1    0    0    0  501  0.00000000000E+00  0.00000000000E+00 -0.10348486582E+04  0.10348486582E+04  0.50400001928E-02 0.  1.
    10030    2    1    2    0    0  0.00000000000E+00  0.00000000000E+00  0.25189535066E+03  0.23215926671E+04  0.23078867486E+04 0.  0.
        4    1    3    3  502    0  0.72459689079E+03  0.26053599431E+03  0.99050741608E+03  0.12546020137E+04  0.12699999809E+01 0. -1.
       -4    1    3    3    0  502 -0.72459689079E+03 -0.26053599431E+03 -0.73861206541E+03  0.10669906535E+04  0.12699999809E+01 0.  1.
</event>
<event>
 5   0  0.9491680E-05  0.2392728E+04  0.7818609E-02  0.8442231E-01
        2   -1    0    0  501    0  0.00000000000E+00  0.00000000000E+00  0.15634233707E+04  0.15634233707E+04  0.25500000920E-02 0. -1.
       -2   -1    0    0    0  501  0.00000000000E+00  0.00000000000E+00 -0.91548286747E+03  0.91548286747E+03  0.25500000920E-02 0.  1.
    10030    2    1    2    0    0  0.00000000000E+00  0.00000000000E+00  0.64794050327E+03  0.24789062382E+04  0.23927284096E+04 0.  0.
        5    1    3    3  502    0  0.49540268241E+03  0.84846635302E+03 -0.38321729607E+03  0.10546072994E+04  0.46999998093E+01 0.  1.
       -5    1    3    3    0  502 -0.49540268241E+03 -0.84846635302E+03  0.10311577993E+04  0.14242989388E+04  0.46999998093E+01 0. -1.
</event>
<event>
 5   0  0.3234750E-05  0.2467768E+04  0.7818609E-02  0.8414559E-01
        3   -1    0    0  501    0  0.00000000000E+00  0.00000000000E+00  0.14597875924E+04  0.14597875959E+04  0.10100000352E+00 0. -1.
       -3   -1    0    0    0  501  0.00000000000E+00  0.00000000000E+00 -0.10429394027E+04  0.10429394076E+04  0.10100000352E+00 0.  1.
    10030    2    1    2    0    0  0.00000000000E+00  0.00000000000E+00  0.41684818973E+03  0.25027270034E+04  0.24677682307E+04 0.  0.
        4    1    3    3  502    0 -0.10236146844E+04 -0.12407099331E+03 -0.47888414119E+03  0.11368870952E+04  0.12699999809E+01 0.  1.
       -4    1    3    3    0  502  0.10236146844E+04  0.12407099331E+03  0.89573233091E+03  0.13658399083E+04  0.12699999809E+01 0. -1.
</event>
<event>
 5   0  0.9491680E-05  0.2302723E+04  0.7818609E-02  0.8476848E-01
        2   -1    0    0  501    0  0.00000000000E+00  0.00000000000E+00  0.13063566006E+04  0.13063566006E+04  0.25500000920E-02 0.  1.
       -2   -1    0    0    0  501  0.00000000000E+00  0.00000000000E+00 -0.10147556605E+04  0.10147556605E+04  0.25500000920E-02 0. -1.
    10030    2    1    2    0    0  0.00000000000E+00  0.00000000000E+00  0.29160094009E+03  0.23211122611E+04  0.23027225236E+04 0.  0.
        5    1    3    3  502    0 -0.81674665460E+03 -0.79003328031E+01  0.96374447355E+03  0.12633142971E+04  0.46999998093E+01 0.  1.
       -5    1    3    3    0  502  0.81674665460E+03  0.79003328031E+01 -0.67214353346E+03  0.10577979640E+04  0.46999998093E+01 0. -1.
</event>
<event>
 5   0  0.9519092E-05  0.2498091E+04  0.7818609E-02  0.8403666E-01
       -2   -1    0    0    0  501  0.00000000000E+00  0.00000000000E+00  0.15412588947E+04  0.15412588947E+04  0.25500000920E-02 0. -1.
        2   -1    0    0  501    0  0.00000000000E+00  0.00000000000E+00 -0.10122339482E+04  0.10122339482E+04  0.25500000920E-02 0.  1.
    10030    2    1    2    0    0  0.00000000000E+00  0.00000000000E+00  0.52902494647E+03  0.25534928430E+04  0.24980909321E+04 0.  0.
        4    1    3    3  502    0 -0.61511442220E+03 -0.49241546476E+03 -0.72614290927E+03  0.10715054269E+04  0.12699999809E+01 0.  1.
       -4    1    3    3    0  502  0.61511442220E+03  0.49241546476E+03  0.12551678557E+04  0.14819874161E+04  0.12699999809E+01 0. -1.
</event>
<event>
 5   0  0.9144244E-05  0.2404334E+04  0.7818609E-02  0.8437883E-01
        2   -1    0    0  501    0  0.00000000000E+00  0.00000000000E+00  0.15453867462E+04  0.15453867462E+04  0.25500000920E-02 0. -1.
       -2   -1    0    0    0  501  0.00000000000E+00  0.00000000000E+00 -0.93517399064E+03  0.93517399064E+03  0.25500000920E-02 0.  1.
    10030    2    1    2    0    0  0.00000000000E+00  0.00000000000E+00  0.61021275560E+03  0.24805607369E+04  0.24043339956E+04 0.  0.
        1    1    3    3  502    0  0.51618610750E+03 -0.44592863137E+03 -0.71617888674E+03  0.98904632838E+03  0.50400001928E-02 0.  1.
       -1    1    3    3    0  502 -0.51618610750E+03  0.44592863137E+03  0.13263916423E+04  0.14915144085E+04  0.50400001928E-02 0. -1.
</event>
<event>
 5   0  0.9144244E-05  0.2388791E+04  0.7818609E-02  0.8443712E-01
       -2   -1    0    0    0  501  0.00000000000E+00  0.00000000000E+00  0.99078415675E+03  0.99078415675E+03  0.25500000920E-02 0.  1.
        2   -1    0    0  501    0  0.00000000000E+00  0.00000000000E+00 -0.14398505358E+04  0.14398505358E+04  0.25500000920E-02 0. -1.
    10030    2    1    2    0    0  0.00000000000E+00  0.00000000000E+00 -0.44906637904E+03  0.24306346925E+04  0.23887914090E+04 0.  0.
        1    1    3    3  502    0 -0.51740792680E+03  0.92895501325E+03  0.32897401807E+03  0.11130553822E+04  0.50400001928E-02 0.  1.
       -1    1    3    3    0  502  0.51740792680E+03 -0.92895501325E+03 -0.77804039711E+03  0.13175793103E+04  0.50400001928E-02 0. -1.
</event>
<event>
 5   0  0.3934906E-05  0.2265088E+04  0.7818609E-02  0.8491815E-01
        1   -1    0    0  501    0  0.00000000000E+00  0.00000000000E+00  0.12568648421E+04  0.12568648421E+04  0.50400001928E-02 0.  1.
       -1   -1    0    0    0  501  0.00000000000E+00  0.00000000000E+00 -0.10205200012E+04  0.10205200012E+04  0.50400001928E-02 0. -1.
    10030    2    1    2    0    0  0.00000000000E+00  0.00000000000E+00  0.23634484089E+03  0.22773848433E+04  0.22650878218E+04 0.  0.
        2    1    3    3  502    0 -0.16091061264E+03 -0.32213247871E+02  0.12448477584E+04  0.12556177205E+04  0.25500000920E-02 0.  1.
       -2    1    3    3    0  502  0.16091061264E+03  0.32213247871E+02 -0.10085029175E+04  0.10217671228E+04  0.25500000920E-02 0. -1.
</event>
<event>
 5   0  0.9144244E-05  0.2374978E+04  0.7818609E-02  0.8448931E-01
        2   -1    0    0  501    0  0.00000000000E+00  0.00000000000E+00  0.20128044456E+04  0.20128044457E+04  0.25500000920E-02 0.  1.
       -2   -1    0    0    0  501  0.00000000000E+00  0.00000000000E+00 -0.70058005483E+03  0.70058005484E+03  0.25500000920E-02 0. -1.
    10030    2    1    2    0    0  0.00000000000E+00  0.00000000000E+00  0.13122243908E+04  0.27133845005E+04  0.23749784411E+04 0.  0.
        1    1    3    3  502    0 -0.11231219239E+04  0.11850884692E+03  0.10753966669E+04  0.15594631108E+04  0.50400001928E-02 0. -1.
       -1    1    3    3    0  502  0.11231219239E+04 -0.11850884692E+03  0.23682772395E+03  0.11539213897E+04  0.50400001928E-02 0.  1.
</event>
<event>
 5   0  0.4018942E-05  0.2233626E+04  0.7818609E-02  0.8504561E-01
        1   -1    0    0  501    0  0.00000000000E+00  0.00000000000E+00  0.12106605634E+04  0.12106605634E+04  0.50400001928E-02 0.  1.
       -1   -1    0    0    0  501  0.00000000000E+00  0.00000000000E+00 -0.10302400735E+04  0.10302400735E+04  0.50400001928E-02 0. -1.
    10030    2    1    2    0    0  0.00000000000E+00  0.00000000000E+00  0.18042048989E+03  0.22409006370E+04  0.22336257770E+04 0.  0.
        5    1    3    3  502    0  0.10515969262E+04  0.11436855950E+03  0.44958450449E+03  0.11493844349E+04  0.46999998093E+01 0.  1.
       -5    1    3    3    0  502 -0.10515969262E+04 -0.11436855950E+03 -0.26916401460E+03  0.10915162020E+04  0.46999998093E+01 0. -1.
</event>
<event>
 5   0  0.4061631E-05  0.2400230E+04  0.7818609E-02  0.8439417E-01
       -1   -1    0    0    0  501  0.00000000000E+00  0.00000000000E+00  0.56957140771E+03  0.56957140773E+03  0.50400001928E-02 0.  1.
        1   -1    0    0  501    0  0.00000000000E+00  0.00000000000E+00 -0.25287021790E+04  0.25287021790E+04  0.50400001928E-02 0. -1.
    10030    2    1    2    0    0  0.00000000000E+00  0.00000000000E+00 -0.19591307713E+04  0.30982735867E+04  0.24002303721E+04 0.  0.
        3    1    3    3  502    0 -0.42148222874E+03  0.42621027202E+03  0.36250242101E+03  0.70050730228E+03  0.10100000352E+00 0.  1.
       -3    1    3    3    0  502  0.42148222874E+03 -0.42621027202E+03 -0.23216331923E+04  0.23977662844E+04  0.10100000352E+00 0. -1.
</event>
<event>
 5   0  0.9519092E-05  0.2403323E+04  0.7818609E-02  0.8438261E-01
        2   -1    0    0  501    0  0.00000000000E+00  0.00000000000E+00  0.12056068145E+04  0.12056068145E+04  0.25500000920E-02 0. -1.
       -2   -1    0    0    0  501  0.00000000000E+00  0.00000000000E+00 -0.11977289296E+04  0.11977289296E+04  0.25500000920E-02 0.  1.
    10030    2    1    2    0    0  0.00000000000E+00  0.00000000000E+00  0.78778848751E+01  0.24033357441E+04  0.24033228327E+04 0.  0.
        4    1    3    3  502    0 -0.83757565162E+03 -0.38938650682E+03  0.77260016239E+03  0.12041874637E+04  0.12699999809E+01 0. -1.
       -4    1    3    3    0  502  0.83757565162E+03  0.38938650682E+03 -0.76472227751E+03  0.11991482805E+04  0.12699999809E+01 0.  1.
</event>
<event>
 5   0  0.4208577E-05  0.1245289E+04  0.7818609E-02  0.9074113E-01
        1   -1    0    0  501    0  0.00000000000E+00  0.00000000000E+00  0.80097729842E+03  0.80097729844E+03  0.50400001928E-02 0. -1.
       -1   -1    0    0    0  501  0.00000000000E+00  0.00000000000E+00 -0.48401640846E+03  0.48401640848E+03  0.50400001928E-02 0.  1.
    10030    2    1    2    0    0  0.00000000000E+00  0.00000000000E+00  0.31696088996E+03  0.12849937069E+04  0.12452889709E+04 0.  0.
        1    1    3    3  502    0  0.45903298947E+03 -0.34520557696E+03  0.40657929656E+03  0.70369375456E+03  0.50400001928E-02 0. -1.
       -1    1    3    3    0  502 -0.45903298947E+03  0.34520557696E+03 -0.89618406595E+02  0.58129995236E+03  0.50400001928E-02 0.  1.
</event>
<event>
 5   0  0.9182865E-05  0.2417986E+04  0.7818609E-02  0.8432801E-01
       -2   -1    0    0    0  501  0.00000000000E+00  0.00000000000E+00  0.10249636136E+04  0.10249636136E+04  0.25500000920E-02 0.  1.
        2   -1    0    0  501    0  0.00000000000E+00  0.00000000000E+00 -0.14260639030E+04  0.14260639030E+04  0.25500000920E-02 0. -1.
    10030    2    1    2    0    0  0.00000000000E+00  0.00000000000E+00 -0.40110028941E+03  0.24510275166E+04  0.24179856172E+04 0.  0.
        3    1    3    3  502    0 -0.10021595062E+04  0.26555895686E+03  0.42989603358E+03  0.11223439069E+04  0.10100000352E+00 0.  1.
       -3    1    3    3    0  502  0.10021595062E+04 -0.26555895686E+03 -0.83099632299E+03  0.13286836096E+04  0.10100000352E+00 0. -1.
</event>
<event>
 5   0  0.9182865E-05  0.2391374E+04  0.7818609E-02  0.8442740E-01
       -2   -1    0    0    0  501  0.00000000000E+00  0.00000000000E+00  0.89070505218E+03  0.89070505218E+03  0.25500000920E-02 0.  1.
        2   -1    0    0  501    0  0.00000000000E+00  0.00000000000E+00 -0.16050957021E+04  0.16050957021E+04  0.25500000920E-02 0. -1.
    10030    2    1    2    0    0  0.00000000000E+00  0.00000000000E+00 -0.71439064989E+03  0.24958007543E+04  0.23913735393E+04 0.  0.
        3    1    3    3  502    0 -0.96253455794E+03 -0.13998820820E+03 -0.10829744221E+04  0.14556452462E+04  0.10100000352E+00 0. -1.
       -3    1    3    3    0  502  0.96253455794E+03  0.13998820820E+03  0.36858377218E+03  0.10401555081E+04  0.10100000352E+00 0.  1.
</event>
<event>
 5   0  0.9182865E-05  0.2516602E+04  0.7818609E-02  0.8397095E-01
        2   -1    0    0  501    0  0.00000000000E+00  0.00000000000E+00  0.12394979872E+04  0.12394979872E+04  0.25500000920E-02 0. -1.
       -2   -1    0    0    0  501  0.00000000000E+00  0.00000000000E+00 -0.12773889879E+04  0.12773889879E+04  0.25500000920E-02 0.  1.
    10030    2    1    2    0    0  0.00000000000E+00  0.00000000000E+00 -0.37891000709E+02  0.25168869751E+04  0.25166017400E+04 0.  0.
        3    1    3    3  502    0  0.41483839541E+02 -0.57094405002E+03 -0.11396183769E+04  0.12753148915E+04  0.10100000352E+00 0.  1.
       -3    1    3    3    0  502 -0.41483839541E+02  0.57094405002E+03  0.11017273762E+04  0.12415720837E+04  0.10100000352E+00 0. -1.
</event>
<event>
 5   0  0.3934906E-05  0.2402506E+04  0.7818609E-02  0.8438566E-01
       -1   -1    0    0    0  501  0.00000000000E+00  0.00000000000E+00  0.99007829225E+03  0.99007829226E+03  0.50400001928E-02 0. -1.
        1   -1    0    0  501    0  0.00000000000E+00  0.00000000000E+00 -0.14574699222E+04  0.14574699222E+04  0.50400001928E-02 0.  1.
    10030    2    1    2    0    0  0.00000000000E+00  0.00000000000E+00 -0.46739162992E+03  0.24475482144E+04  0.24025064675E+04 0.  0.
        2    1    3    3  502    0 -0.11807360197E+03 -0.94964030134E+03  0.50603804985E+03  0.10825121640E+04  0.25500000920E-02 0. -1.
       -2    1    3    3    0  502  0.11807360197E+03  0.94964030134E+03 -0.97342967976E+03  0.13650360504E+04  0.25500000920E-02 0.  1.
</event>
<event>
 5   0  0.9491680E-05  0.2147394E+04  0.7818609E-02  0.8540649E-01
       -2   -1    0    0    0  501  0.00000000000E+00  0.00000000000E+00  0.61222827268E+03  0.61222827268E+03  0.25500000920E-02 0.  1.
        2   -1    0    0  501    0  0.00000000000E+00  0.00000000000E+00 -0.18829981804E+04  0.18829981804E+04  0.25500000920E-02 0. -1.
    10030    2    1    2    0    0  0.00000000000E+00  0.00000000000E+00 -0.12707699077E+04  0.24952264531E+04  0.21473935116E+04 0.  0.
        5    1    3    3  502    0  0.25651921487E+03  0.10309118587E+04 -0.45454401885E+03  0.11555144842E+04  0.46999998093E+01 0.  1.
       -5    1    3    3    0  502 -0.25651921487E+03 -0.10309118587E+04 -0.81622588884E+03  0.13397119689E+04  0.46999998093E+01 0. -1.
</event>
<event>
 5   0  0.9491680E-05  0.2410357E+04  0.7818609E-02  0.8435636E-01
        2   -1    0    0  501    0  0.00000000000E+00  0.00000000000E+00  0.14953722806E+04  0.14953722806E+04  0.25500000920E-02 0.  1.
       -2   -1    0    0    0  501  0.00000000000E+00  0.00000000000E+00 -0.97129970863E+03  0.97129970863E+03  0.25500000920E-02 0. -1.
    10030    2    1    2    0    0  0.00000000000E+00  0.00000000000E+00  0.52407257195E+03  0.24666719892E+04  0.24103565383E+04 0.  0.
        5    1    3    3  502    0 -0.11494645605E+04  0.23458082118E+03 -0.20337317173E+02  0.11733425050E+04  0.46999998093E+01 0. -1.
       -5    1    3    3    0  502  0.11494645605E+04 -0.23458082118E+03  0.54440988912E+03  0.12933294843E+04  0.46999998093E+01 0.  1.
</event>
<event>
 5   0  0.9519092E-05  0.2481076E+04  0.7818609E-02  0.8409759E-01
        2   -1    0    0  501    0  0.00000000000E+00  0.00000000000E+00  0.26443653696E+04  0.26443653696E+04  0.25500000920E-02 0. -1.
       -2   -1    0    0    0  501  0.00000000000E+00  0.00000000000E+00 -0.58196731531E+03  0.58196731532E+03  0.25500000920E-02 0.  1.
    10030    2    1    2    0    0  0.00000000000E+00  0.00000000000E+00  0.20623980543E+04  0.32263326849E+04  0.24810757464E+04 0.  0.
        4    1    3    3  502    0  0.91506472835E+03  0.80085055024E+03  0.71206971898E+03  0.14091664055E+04  0.12699999809E+01 0. -1.
       -4    1    3    3    0  502 -0.91506472835E+03 -0.80085055024E+03  0.13503283353E+04  0.18171662794E+04  0.12699999809E+01 0.  1.
</event>
<event>
 5   0  0.9519092E-05  0.2298903E+04  0.7818609E-02  0.8478354E-01
        2   -1    0    0  501    0  0.00000000000E+00  0.00000000000E+00  0.15477491776E+04  0.15477491776E+04  0.25500000920E-02 0. -1.
       -2   -1    0    0    0  501  0.00000000000E+00  0.00000000000E+00 -0.85365182309E+03  0.85365182309E+03  0.25500000920E-02 0.  1.
    10030    2    1    2    0    0  0.00000000000E+00  0.00000000000E+00  0.69409735447E+03  0.24014010006E+04  0.22989031359E+04 0.  0.
        4    1    3    3  502    0 -0.11156796846E+04 -0.24694014778E+03  0.47716856542E+03  0.12383101582E+04  0.12699999809E+01 0.  1.
       -4    1    3    3    0  502  0.11156796846E+04  0.24694014778E+03  0.21692878904E+03  0.11630908424E+04  0.12699999809E+01 0. -1.
</event>
<event>
 5   0  0.3934906E-05  0.1709067E+04  0.7818609E-02  0.8756210E-01
        1   -1    0    0  501    0  0.00000000000E+00  0.00000000000E+00  0.65773245983E+03  0.65773245985E+03  0.50400001928E-02 0.  1.
       -1   -1    0    0    0  501  0.00000000000E+00  0.00000000000E+00 -0.11102190819E+04  0.11102190819E+04  0.50400001928E-02 0. -1.
    10030    2    1    2    0    0  0.00000000000E+00  0.00000000000E+00 -0.45248662205E+03  0.17679515417E+04  0.17090665613E+04 0.  0.
        2    1    3    3  502    0 -0.49501636951E+03 -0.59330051621E+03  0.15126939093E+03  0.78735578822E+03  0.25500000920E-02 0.  1.
       -2    1    3    3    0  502  0.49501636951E+03  0.59330051621E+03 -0.60375601297E+03  0.98059575352E+03  0.25500000920E-02 0. -1.
</event>
<event>
 5   0  0.9182865E-05  0.2374159E+04  0.7818609E-02  0.8449242E-01
        2   -1    0    0  501    0  0.00000000000E+00  0.00000000000E+00  0.19014523894E+04  0.19014523894E+04  0.25500000920E-02 0. -1.
       -2   -1    0    0    0  501  0.00000000000E+00  0.00000000000E+00 -0.74109537332E+03  0.74109537332E+03  0.25500000920E-02 0.  1.
    10030    2    1    2    0    0  0.00000000000E+00  0.00000000000E+00  0.11603570161E+04  0.26425477627E+04  0.23741588560E+04 0.  0.
        3    1    3    3  502    0  0.78957467383E+03 -0.24973443532E+03 -0.36647478040E+03  0.90559330199E+03  0.10100000352E+00 0.  1.
       -3    1    3    3    0  502 -0.78957467383E+03  0.24973443532E+03  0.15268317965E+04  0.17369544608E+04  0.10100000352E+00 0. -1.
</event>
<event>
 5   0  0.4260395E-05  0.2365570E+04  0.7818609E-02  0.8452507E-01
        1   -1    0    0  501    0  0.00000000000E+00  0.00000000000E+00  0.75254253751E+03  0.75254253753E+03  0.50400001928E-02 0.  1.
       -1   -1    0    0    0  501  0.00000000000E+00  0.00000000000E+00 -0.18590043163E+04  0.18590043163E+04  0.50400001928E-02 0. -1.
    10030    2    1    2    0    0  0.00000000000E+00  0.00000000000E+00 -0.11064617788E+04  0.26115468538E+04  0.23655695512E+04 0.  0.
        4    1    3    3  502    0 -0.41363747072E+03 -0.10721244105E+03 -0.17708126086E+04  0.18216391993E+04  0.12699999809E+01 0. -1.
       -4    1    3    3    0  502  0.41363747072E+03  0.10721244105E+03  0.66435082982E+03  0.78990765453E+03  0.12699999809E+01 0.  1.
</event>
<event>
 5   0  0.9144244E-05  0.2474524E+04  0.7818609E-02  0.8412118E-01
        2   -1    0    0  501    0  0.00000000000E+00  0.00000000000E+00  0.19285618496E+04  0.19285618496E+04  0.25500000920E-02 0.  1.
       -2   -1    0    0    0  501  0.00000000000E+00  0.00000000000E+00 -0.79376072872E+03  0.79376072873E+03  0.25500000920E-02 0. -1.
    10030    2    1    2    0    0  0.00000000000E+00  0.00000000000E+00  0.11348011209E+04  0.27223225784E+04  0.24745235171E+04 0.  0.
        1    1    3    3  502    0 -0.20168709773E+03  0.11513090988E+04  0.10137732873E+04  0.15472319168E+04  0.50400001928E-02 0.  1.
       -1    1    3    3    0  502  0.20168709773E+03 -0.11513090988E+04  0.12102783356E+03  0.11750906615E+04  0.50400001928E-02 0. -1.
</event>
<event>
 5   0  0.9750757E-05  0.2349112E+04  0.7818609E-02  0.8458805E-01
       -2   -1    0    0    0  501  0.00000000000E+00  0.00000000000E+00  0.70969133286E+03  0.70969133287E+03  0.25500000920E-02 0.  1.
        2   -1    0    0  501    0  0.00000000000E+00  0.00000000000E+00 -0.19439179293E+04  0.19439179293E+04  0.25500000920E-02 0. -1.
    10030    2    1    2    0    0  0.00000000000E+00  0.00000000000E+00 -0.12342265965E+04  0.26536092622E+04  0.23491119226E+04 0.  0.
        2    1    3    3  502    0  0.13079064438E+03  0.11633139142E+04 -0.50890367156E+03  0.12764749910E+04  0.25500000920E-02 0.  1.
       -2    1    3    3    0  502 -0.13079064438E+03 -0.11633139142E+04 -0.72532292492E+03  0.13771342712E+04  0.25500000920E-02 0. -1.
</event>
<event>
 5   0  0.4208577E-05  0.2425932E+04  0.7818609E-02  0.8429859E-01
        1   -1    0    0  501    0  0.00000000000E+00  0.00000000000E+00  0.18147992490E+04  0.18147992491E+04  0.50400001928E-02 0. -1.
       -1   -1    0    0    0  501  0.00000000000E+00  0.00000000000E+00 -0.81071555779E+03  0.81071555781E+03  0.50400001928E-02 0.  1.
    10030    2    1    2    0    0  0.00000000000E+00  0.00000000000E+00  0.10040836913E+04  0.26255148069E+04  0.24259315617E+04 0.  0.
        1    1    3    3  502    0 -0.85758146857E+03  0.26533284464E+03 -0.38081418200E+03  0.97512406129E+03  0.50400001928E-02 0.  1.
       -1    1    3    3    0  502  0.85758146857E+03 -0.26533284464E+03  0.13848978733E+04  0.16503907456E+04  0.50400001928E-02 0. -1.
</event>
<event>
 5   0  0.3934906E-05  0.1285241E+04  0.7818609E-02  0.9041352E-01
        1   -1    0    0  501    0  0.00000000000E+00  0.00000000000E+00  0.73549197595E+03  0.73549197596E+03  0.50400001928E-02 0. -1.
       -1   -1    0    0    0  501  0.00000000000E+00  0.00000000000E+00 -0.56147601251E+03  0.56147601253E+03  0.50400001928E-02 0.  1.
    10030    2    1    2    0    0  0.00000000000E+00  0.00000000000E+00  0.17401596344E+03  0.12969679885E+04  0.12852409920E+04 0.  0.
        2    1    3    3  502    0  0.59460752645E+03 -0.15482097797E+03  0.27696329510E+03  0.67397055765E+03  0.25500000920E-02 0. -1.
       -2    1    3    3    0  502 -0.59460752645E+03  0.15482097797E+03 -0.10294733166E+03  0.62299743084E+03  0.25500000920E-02 0.  1.
</event>
<event>
 5   0  0.9519092E-05  0.2387525E+04  0.7818609E-02  0.8444189E-01
        2   -1    0    0  501    0  0.00000000000E+00  0.00000000000E+00  0.14175810149E+04  0.14175810149E+04  0.25500000920E-02 0. -1.
       -2   -1    0    0    0  501  0.00000000000E+00  0.00000000000E+00 -0.10052820197E+04  0.10052820197E+04  0.25500000920E-02 0.  1.
    10030    2    1    2    0    0  0.00000000000E+00  0.00000000000E+00  0.41229899521E+03  0.24228630346E+04  0.23875248319E+04 0.  0.
        4    1    3    3  502    0  0.54183502480E+03  0.31276778966E+02  0.12851383393E+04  0.13950432233E+04  0.12699999809E+01 0. -1.
       -4    1    3    3    0  502 -0.54183502480E+03 -0.31276778966E+02 -0.87283934407E+03  0.10278198113E+04  0.12699999809E+01 0.  1.
</event>
<event>
 5   0  0.9519092E-05  0.2379097E+04  0.7818609E-02  0.8447371E-01
       -2   -1    0    0    0  501  0.00000000000E+00  0.00000000000E+00  0.66130006830E+03  0.66130006831E+03  0.25500000920E-02 0. -1.
        2   -1    0    0  501    0  0.00000000000E+00  0.00000000000E+00 -0.21397636247E+04  0.21397636247E+04  0.25500000920E-02 0.  1.
    10030    2    1    2    0    0  0.00000000000E+00  0.00000000000E+00 -0.14784635564E+04  0.28010636930E+04  0.23790971659E+04 0.  0.
        4    1    3    3  502    0 -0.98917301050E+03 -0.57623113933E+03 -0.11198658804E+04  0.16014389697E+04  0.12699999809E+01 0.  1.
       -4    1    3    3    0  502  0.98917301050E+03  0.57623113933E+03 -0.35859767596E+03  0.11996247233E+04  0.12699999809E+01 0. -1.
</event>
<event>
 5   0  0.4260395E-05  0.2530566E+04  0.7818609E-02  0.8392176E-01
       -1   -1    0    0    0  501  0.00000000000E+00  0.00000000000E+00  0.70585216130E+03  0.70585216132E+03  0.50400001928E-02 0. -1.
        1   -1    0    0  501    0  0.00000000000E+00  0.00000000000E+00 -0.22680973878E+04  0.22680973878E+04  0.50400001928E-02 0.  1.
    10030    2    1    2    0    0  0.00000000000E+00  0.00000000000E+00 -0.15622452265E+04  0.29739495491E+04  0.25305662949E+04 0.  0.
        4    1    3    3  502    0  0.11705513533E+03  0.50258509863E+02  0.69829590926E+03  0.70982153554E+03  0.12699999809E+01 0. -1.
       -4    1    3    3    0  502 -0.11705513533E+03 -0.50258509863E+02 -0.22605411357E+04  0.22641280135E+04  0.12699999809E+01 0.  1.
</event>
<event>
 5   0  0.3934906E-05  0.2407472E+04  0.7818609E-02  0.8436712E-01
        1   -1    0    0  501    0  0.00000000000E+00  0.00000000000E+00  0.13003064690E+04  0.13003064690E+04  0.50400001928E-02 0.  1.
       -1   -1    0    0    0  501  0.00000000000E+00  0.00000000000E+00 -0.11143374533E+04  0.11143374533E+04  0.50400001928E-02 0. -1.
    10030    2    1    2    0    0  0.00000000000E+00  0.00000000000E+00  0.18596901571E+03  0.24146439223E+04  0.24074718683E+04 0.  0.
        2    1    3    3  502    0  0.11560412367E+04 -0.54701430284E+02  0.42496393524E+03  0.12328900736E+04  0.25500000920E-02 0.  1.
       -2    1    3    3    0  502 -0.11560412367E+04  0.54701430284E+02 -0.23899491953E+03  0.11817538487E+04  0.25500000920E-02 0. -1.
</event>
<event>
 5   0  0.9491680E-05  0.2415700E+04  0.7818609E-02  0.8433649E-01
       -2   -1    0    0    0  501  0.00000000000E+00  0.00000000000E+00  0.49565986429E+03  0.49565986430E+03  0.25500000920E-02 0.  1.
        2   -1    0    0  501    0  0.00000000000E+00  0.00000000000E+00 -0.29433525939E+04  0.29433525939E+04  0.25500000920E-02 0. -1.
    10030    2    1    2    0    0  0.00000000000E+00  0.00000000000E+00 -0.24476927296E+04  0.34390124582E+04  0.24157001033E+04 0.  0.
        5    1    3    3  502    0  0.43652822817E+03  0.63718008372E+03 -0.25458298950E+04  0.26604186319E+04  0.46999998093E+01 0. -1.
       -5    1    3    3    0  502 -0.43652822817E+03 -0.63718008372E+03  0.98137165360E+02  0.77859382626E+03  0.46999998093E+01 0.  1.
</event>
<event>
 5   0  0.3234750E-05  0.2099257E+04  0.7818609E-02  0.8561571E-01
       -4   -1    0    0    0  501  0.00000000000E+00  0.00000000000E+00  0.10397439789E+04  0.10397447545E+04  0.12699999809E+01 0.  1.
        4   -1    0    0  501    0  0.00000000000E+00  0.00000000000E+00 -0.10596053525E+04  0.10596061136E+04  0.12699999809E+01 0. -1.
    10030    2    1    2    0    0  0.00000000000E+00  0.00000000000E+00 -0.19861373649E+02  0.20993508682E+04  0.20992569146E+04 0.  0.
        4    1    3    3  502    0 -0.10008798413E+04 -0.25698940006E+03  0.17423584874E+03  0.10479330858E+04  0.12699999809E+01 0.  1.
       -4    1    3    3    0  502  0.10008798413E+04  0.25698940006E+03 -0.19409722239E+03  0.10514177824E+04  0.12699999809E+01 0. -1.
</event>
<event>
 5   0  0.4018942E-05  0.2408963E+04  0.7818609E-02  0.8436156E-01
        1   -1    0    0  501    0  0.00000000000E+00  0.00000000000E+00  0.19322473796E+04  0.19322473797E+04  0.50400001928E-02 0.  1.
       -1   -1    0    0    0  501  0.00000000000E+00  0.00000000000E+00 -0.75082289198E+03  0.75082289200E+03  0.50400001928E-02 0. -1.
    10030    2    1    2    0    0  0.00000000000E+00  0.00000000000E+00  0.11814244877E+04  0.26830702717E+04  0.24089629019E+04 0.  0.
        5    1    3    3  502    0 -0.86016531695E+02 -0.10917144134E+04  0.32134983202E+02  0.10955792766E+04  0.46999998093E+01 0. -1.
       -5    1    3    3    0  502  0.86016531695E+02  0.10917144134E+04  0.11492895045E+04  0.15874909950E+04  0.46999998093E+01 0.  1.
</event>
<event>
 5   0  0.9750757E-05  0.2356271E+04  0.7818609E-02  0.8456059E-01
       -2   -1    0    0    0  501  0.00000000000E+00  0.00000000000E+00  0.11281058290E+04  0.11281058290E+04  0.25500000920E-02 0.  1.
        2   -1    0    0  501    0  0.00000000000E+00  0.00000000000E+00 -0.12303834301E+04  0.12303834301E+04  0.25500000920E-02 0. -1.
    10030    2    1    2    0    0  0.00000000000E+00  0.00000000000E+00 -0.10227760108E+03  0.23584892590E+04  0.23562705442E+04 0.  0.
        2    1    3    3  502    0  0.54114590630E+03  0.69654974161E+03 -0.83288784627E+03  0.12131457451E+04  0.25500000920E-02 0. -1.
       -2    1    3    3    0  502 -0.54114590630E+03 -0.69654974161E+03  0.73061024519E+03  0.11453435139E+04  0.25500000920E-02 0.  1.
</event>
<event>
 5   0  0.4260395E-05  0.2390800E+04  0.7818609E-02  0.8442956E-01
        1   -1    0    0  501    0  0.00000000000E+00  0.00000000000E+00  0.95304979212E+03  0.95304979213E+03  0.50400001928E-02 0.  1.
       -1   -1    0    0    0  501  0.00000000000E+00  0.00000000000E+00 -0.14993778061E+04  0.14993778061E+04  0.50400001928E-02 0. -1.
    10030    2    1    2    0    0  0.00000000000E+00  0.00000000000E+00 -0.54632801401E+03  0.24524275983E+04  0.23908004571E+04 0.  0.
        4    1    3    3  502    0  0.10432917592E+04 -0.55885018924E+03 -0.44544829364E+03  0.12645936201E+04  0.12699999809E+01 0. -1.
       -4    1    3    3    0  502 -0.10432917592E+04  0.55885018924E+03 -0.10087972037E+03  0.11878339782E+04  0.12699999809E+01 0.  1.
</event>
<event>
 5   0  0.9182865E-05  0.2324307E+04  0.7818609E-02  0.8468398E-01
       -2   -1    0    0    0  501  0.00000000000E+00  0.00000000000E+00  0.11245126699E+04  0.11245126699E+04  0.25500000920E-02 0. -1.
        2   -1    0    0  501    0  0.00000000000E+00  0.00000000000E+00 -0.12010546275E+04  0.12010546275E+04  0.25500000920E-02 0.  1.
    10030    2    1    2    0    0  0.00000000000E+00  0.00000000000E+00 -0.76541957601E+02  0.23255672974E+04  0.23243073342E+04 0.  0.
        3    1    3    3  502    0  0.83937844366E+02  0.38351613606E+03  0.10561551118E+04  0.11267625387E+04  0.10100000352E+00 0. -1.
       -3    1    3    3    0  502 -0.83937844366E+02 -0.38351613606E+03 -0.11326970694E+04  0.11988047587E+04  0.10100000352E+00 0.  1.
</event>
<event>
 5   0  0.3234750E-05  0.2372353E+04  0.7818609E-02  0.8449927E-01
        4   -1    0    0  501    0  0.00000000000E+00  0.00000000000E+00  0.11419030773E+04  0.11419037835E+04  0.12699999809E+01 0.  1.
       -4   -1    0    0    0  501  0.00000000000E+00  0.00000000000E+00 -0.12321654577E+04  0.12321661122E+04  0.12699999809E+01 0. -1.
    10030    2    1    2    0    0  0.00000000000E+00  0.00000000000E+00 -0.90262380459E+02  0.23740698957E+04  0.23723533827E+04 0.  0.
        5    1    3    3  502    0  0.24676393407E+03  0.49361640756E+03  0.10056015904E+04  0.11470859800E+04  0.46999998093E+01 0.  1.
       -5    1    3    3    0  502 -0.24676393407E+03 -0.49361640756E+03 -0.10958639708E+04  0.12269839157E+04  0.46999998093E+01 0. -1.
</event>
<event>
 5   0  0.9750757E-05  0.2302895E+04  0.7818609E-02  0.8476781E-01
       -2   -1    0    0    0  501  0.00000000000E+00  0.00000000000E+00  0.77708035446E+03  0.77708035447E+03  0.25500000920E-02 0.  1.
        2   -1    0    0  501    0  0.00000000000E+00  0.00000000000E+00 -0.17061695004E+04  0.17061695004E+04  0.25500000920E-02 0. -1.
    10030    2    1    2    0    0  0.00000000000E+00  0.00000000000E+00 -0.92908914594E+03  0.24832498549E+04  0.23028945266E+04 0.  0.
        2    1    3    3  502    0  0.76702141333E+03  0.42935101670E+03  0.33745542660E+03  0.94156269520E+03  0.25500000920E-02 0.  1.
       -2    1    3    3    0  502 -0.76702141333E+03 -0.42935101670E+03 -0.12665445725E+04  0.15416871597E+04  0.25500000920E-02 0. -1.
</event>
<event>
 5   0  0.4061631E-05  0.2487306E+04  0.7818609E-02  0.8407522E-01
       -1   -1    0    0    0  501  0.00000000000E+00  0.00000000000E+00  0.12012036618E+04  0.12012036618E+04  0.50400001928E-02 0.  1.
        1   -1    0    0  501    0  0.00000000000E+00  0.00000000000E+00 -0.12876025993E+04  0.12876025993E+04  0.50400001928E-02 0. -1.
    10030    2    1    2    0    0  0.00000000000E+00  0.00000000000E+00 -0.86398937538E+02  0.24888062611E+04  0.24873061389E+04 0.  0.
        3    1    3    3  502    0  0.10729878169E+04  0.28440821210E+03  0.51792574926E+03  0.12249236622E+04  0.10100000352E+00 0. -1.
       -3    1    3    3    0  502 -0.10729878169E+04 -0.28440821210E+03 -0.60432468680E+03  0.12638825988E+04  0.10100000352E+00 0.  1.
</event>
<event>
 5   0  0.9750757E-05  0.2291003E+04  0.7818609E-02  0.8481477E-01
        2   -1    0    0  501    0  0.00000000000E+00  0.00000000000E+00  0.69322526788E+03  0.69322526788E+03  0.25500000920E-02 0. -1.
       -2   -1    0    0    0  501  0.00000000000E+00  0.00000000000E+00 -0.18928528945E+04  0.18928528945E+04  0.25500000920E-02 0.  1.
    10030    2    1    2    0    0  0.00000000000E+00  0.00000000000E+00 -0.11996276266E+04  0.25860781624E+04  0.22910027978E+04 0.  0.
        2    1    3    3  502    0 -0.74105720836E+03  0.52440781898E+03  0.18873351831E+03  0.92724844977E+03  0.25500000920E-02 0. -1.
       -2    1    3    3    0  502  0.74105720836E+03 -0.52440781898E+03 -0.13883611449E+04  0.16588297126E+04  0.25500000920E-02 0.  1.
</event>
<event>
 5   0  0.4018942E-05  0.1755075E+04  0.7818609E-02  0.8730562E-01
       -1   -1    0    0    0  501  0.00000000000E+00  0.00000000000E+00  0.68011447535E+03  0.68011447537E+03  0.50400001928E-02 0.  1.
        1   -1    0    0  501    0  0.00000000000E+00  0.00000000000E+00 -0.11322676937E+04  0.11322676937E+04  0.50400001928E-02 0. -1.
    10030    2    1    2    0    0  0.00000000000E+00  0.00000000000E+00 -0.45215321832E+03  0.18123821691E+04  0.17550745266E+04 0.  0.
        5    1    3    3  502    0  0.59198289336E+03  0.15932314846E+02  0.44264223819E+03  0.73935906414E+03  0.46999998093E+01 0.  1.
       -5    1    3    3    0  502 -0.59198289336E+03 -0.15932314846E+02 -0.89479545651E+03  0.10730231049E+04  0.46999998093E+01 0. -1.
</event>
<event>
 5   0  0.4260395E-05  0.2284880E+04  0.7818609E-02  0.8483907E-01
       -1   -1    0    0    0  501  0.00000000000E+00  0.00000000000E+00  0.12444577957E+04  0.12444577957E+04  0.50400001928E-02 0.  1.
        1   -1    0    0  501    0  0.00000000000E+00  0.00000000000E+00 -0.10487854772E+04  0.10487854772E+04  0.50400001928E-02 0. -1.
    10030    2    1    2    0    0  0.00000000000E+00  0.00000000000E+00  0.19567231851E+03  0.22932432729E+04  0.22848800958E+04 0.  0.
        4    1    3    3  502    0 -0.81719054463E+03 -0.79803371501E+03  0.75182463442E+02  0.11446886966E+04  0.12699999809E+01 0. -1.
       -4    1    3    3    0  502  0.81719054463E+03  0.79803371501E+03  0.12048985506E+03  0.11485545762E+04  0.12699999809E+01 0.  1.
</event>
<event>
 5   0  0.9182865E-05  0.2440493E+04  0.7818609E-02  0.8424497E-01
       -2   -1    0    0    0  501  0.00000000000E+00  0.00000000000E+00  0.11833286733E+04  0.11833286733E+04  0.25500000920E-02 0.  1.
        2   -1    0    0  501    0  0.00000000000E+00  0.00000000000E+00 -0.12583158077E+04  0.12583158077E+04  0.25500000920E-02 0. -1.
    10030    2    1    2    0    0  0.00000000000E+00  0.00000000000E+00 -0.74987134345E+02  0.24416444810E+04  0.24404927169E+04 0.  0.
        3    1    3    3  502    0  0.93923334653E+02  0.19739776123E+03  0.11635785987E+04  0.11839352323E+04  0.10100000352E+00 0.  1.
       -3    1    3    3    0  502 -0.93923334653E+02 -0.19739776123E+03 -0.12385657330E+04  0.12577092486E+04  0.10100000352E+00 0. -1.
</event>
<event>
 5   0  0.4061631E-05  0.2361943E+04  0.7818609E-02  0.8453890E-01
        1   -1    0    0  501    0  0.00000000000E+00  0.00000000000E+00  0.20235952483E+04  0.20235952483E+04  0.50400001928E-02 0.  1.
       -1   -1    0    0    0  501  0.00000000000E+00  0.00000000000E+00 -0.68921592227E+03  0.68921592229E+03  0.50400001928E-02 0. -1.
    10030    2    1    2    0    0  0.00000000000E+00  0.00000000000E+00  0.13343793260E+04  0.27128111706E+04  0.23619433231E+04 0.  0.
        3    1    3    3  502    0  0.48936449946E+03 -0.78337262292E+03 -0.17802471675E+03  0.94066098550E+03  0.10100000352E+00 0. -1.
       -3    1    3    3    0  502 -0.48936449946E+03  0.78337262292E+03  0.15124040428E+04  0.17721501851E+04  0.10100000352E+00 0.  1.
</event>
<event>
 5   0  0.3934906E-05  0.2415579E+04  0.7818609E-02  0.8433694E-01
        1   -1    0    0  501    0  0.00000000000E+00  0.00000000000E+00  0.16535853831E+04  0.16535853831E+04  0.50400001928E-02 0. -1.
       -1   -1    0    0    0  501  0.00000000000E+00  0.00000000000E+00 -0.88217757270E+03  0.88217757272E+03  0.50400001928E-02 0.  1.
    10030    2    1    2    0    0  0.00000000000E+00  0.00000000000E+00  0.77140781039E+03  0.25357629558E+04  0.24155793835E+04 0.  0.
        2    1    3    3  502    0  0.25331977006E+03  0.11749211269E+04  0.51055565555E+03  0.13058627944E+04  0.25500000920E-02 0.  1.
       -2    1    3    3    0  502 -0.25331977006E+03 -0.11749211269E+04  0.26085215484E+03  0.12299001614E+04  0.25500000920E-02 0. -1.
</event>
<event>
 5   0  0.3934906E-05  0.2031888E+04  0.7818609E-02  0.8591856E-01
        1   -1    0    0  501    0  0.00000000000E+00  0.00000000000E+00  0.25225105380E+04  0.25225105380E+04  0.50400001928E-02 0.  1.
       -1   -1    0    0    0  501  0.00000000000E+00  0.00000000000E+00 -0.40917250695E+03  0.40917250698E+03  0.50400001928E-02 0. -1.
    10030    2    1    2    0    0  0.00000000000E+00  0.00000000000E+00  0.21133380310E+04  0.29316830449E+04  0.20318877535E+04 0.  0.
        2    1    3    3  502    0 -0.77639577592E+03 -0.48000296118E+03  0.17002272832E+04  0.19297580310E+04  0.25500000920E-02 0.  1.
       -2    1    3    3    0  502  0.77639577592E+03  0.48000296118E+03  0.41311074778E+03  0.10019250139E+04  0.25500000920E-02 0. -1.
</event>
<event>
 5   0  0.9519092E-05  0.1829170E+04  0.7818609E-02  0.8690939E-01
       -2   -1    0    0    0  501  0.00000000000E+00  0.00000000000E+00  0.15086288275E+04  0.15086288275E+04  0.25500000920E-02 0.  1.
        2   -1    0    0  501    0  0.00000000000E+00  0.00000000000E+00 -0.55445435733E+03  0.55445435733E+03  0.25500000920E-02 0. -1.
    10030    2    1    2    0    0  0.00000000000E+00  0.00000000000E+00  0.95417447015E+03  0.20630831848E+04  0.18291701146E+04 0.  0.
        4    1    3    3  502    0 -0.55230849834E+03  0.72038987342E+03  0.60297578486E+03  0.10897649550E+04  0.12699999809E+01 0.  1.
       -4    1    3    3    0  502  0.55230849834E+03 -0.72038987342E+03  0.35119868529E+03  0.97331822983E+03  0.12699999809E+01 0. -1.
</event>
<event>
 5   0  0.4208577E-05  0.1523989E+04  0.7818609E-02  0.8868656E-01
        1   -1    0    0  501    0  0.00000000000E+00  0.00000000000E+00  0.18316345735E+04  0.18316345736E+04  0.50400001928E-02 0.  1.
       -1   -1    0    0    0  501  0.00000000000E+00  0.00000000000E+00 -0.31700387071E+03  0.31700387075E+03  0.50400001928E-02 0. -1.
    10030    2    1    2    0    0  0.00000000000E+00  0.00000000000E+00  0.15146307028E+04  0.21486384443E+04  0.15239885165E+04 0.  0.
        1    1    3    3  502    0 -0.27126034454E+02 -0.17706453360E+03  0.18015276374E+04  0.18104114171E+04  0.50400001928E-02 0.  1.
       -1    1    3    3    0  502  0.27126034454E+02  0.17706453360E+03 -0.28689693460E+03  0.33822702717E+03  0.50400001928E-02 0. -1.
</event>
<event>
 5   0  0.4208577E-05  0.2342165E+04  0.7818609E-02  0.8461479E-01
        1   -1    0    0  501    0  0.00000000000E+00  0.00000000000E+00  0.11214184704E+04  0.11214184704E+04  0.50400001928E-02 0. -1.
       -1   -1    0    0    0  501  0.00000000000E+00  0.00000000000E+00 -0.12229464894E+04  0.12229464894E+04  0.50400001928E-02 0.  1.
    10030    2    1    2    0    0  0.00000000000E+00  0.00000000000E+00 -0.10152801904E+03  0.23443649598E+04  0.23421654780E+04 0.  0.
        1    1    3    3  502    0 -0.37602166545E+03 -0.91712809134E+03 -0.67498299938E+03  0.11992156930E+04  0.50400001928E-02 0.  1.
       -1    1    3    3    0  502  0.37602166545E+03  0.91712809134E+03  0.57345498034E+03  0.11451492668E+04  0.50400001928E-02 0. -1.
</event>
<event>
 5   0  0.9491680E-05  0.2307342E+04  0.7818609E-02  0.8475032E-01
       -2   -1    0    0    0  501  0.00000000000E+00  0.00000000000E+00  0.92147419085E+03  0.92147419085E+03  0.25500000920E-02 0.  1.
        2   -1    0    0  501    0  0.00000000000E+00  0.00000000000E+00 -0.14443774286E+04  0.14443774286E+04  0.25500000920E-02 0. -1.
    10030    2    1    2    0    0  0.00000000000E+00  0.00000000000E+00 -0.52290323780E+03  0.23658516195E+04  0.23073417799E+04 0.  0.
        5    1    3    3  502    0 -0.82295816654E+02  0.37233320704E+02  0.91783303250E+03  0.92227896384E+03  0.46999998093E+01 0.  1.
       -5    1    3    3    0  502  0.82295816654E+02 -0.37233320704E+02 -0.14407362703E+04  0.14435726557E+04  0.46999998093E+01 0. -1.
</event>
<event>
 5   0  0.9144244E-05  0.1230655E+04  0.7818609E-02  0.9086440E-01
        2   -1    0    0  501    0  0.00000000000E+00  0.00000000000E+00  0.11094882090E+04  0.11094882090E+04  0.25500000920E-02 0. -1.
       -2   -1    0    0    0  501  0.00000000000E+00  0.00000000000E+00 -0.34126333968E+03  0.34126333969E+03  0.25500000920E-02 0.  1.
    10030    2    1    2    0    0  0.00000000000E+00  0.00000000000E+00  0.76822486929E+03  0.14507515487E+04  0.12306545438E+04 0.  0.
        1    1    3    3  502    0  0.15093984874E+03 -0.28794792010E+03  0.99997408928E+03  0.10514965629E+04  0.50400001928E-02 0. -1.
       -1    1    3    3    0  502 -0.15093984874E+03  0.28794792010E+03 -0.23174921999E+03  0.39925498572E+03  0.50400001928E-02 0.  1.
</event>
<event>
 5   0  0.9144244E-05  0.2456520E+04  0.7818609E-02  0.8418641E-01
        2   -1    0    0  501    0  0.00000000000E+00  0.00000000000E+00  0.24859460401E+04  0.24859460401E+04  0.25500000920E-02 0.  1.
       -2   -1    0    0    0  501  0.00000000000E+00  0.00000000000E+00 -0.60686047886E+03  0.60686047887E+03  0.25500000920E-02 0. -1.
    10030    2    1    2    0    0  0.00000000000E+00  0.00000000000E+00  0.18790855612E+04  0.30928065189E+04  0.24565198182E+04 0.  0.
        1    1    3    3  502    0 -0.68842748256E+03 -0.10140942190E+04  0.83958804004E+03  0.14856741099E+04  0.50400001928E-02 0. -1.
       -1    1    3    3    0  502  0.68842748256E+03  0.10140942190E+04  0.10394975212E+04  0.16071324091E+04  0.50400001928E-02 0.  1.
</event>
<event>
 5   0  0.4061631E-05  0.2385589E+04  0.7818609E-02  0.8444919E-01
       -1   -1    0    0    0  501  0.00000000000E+00  0.00000000000E+00  0.21389955443E+04  0.21389955443E+04  0.50400001928E-02 0. -1.
        1   -1    0    0  501    0  0.00000000000E+00  0.00000000000E+00 -0.66515245637E+03  0.66515245639E+03  0.50400001928E-02 0.  1.
    10030    2    1    2    0    0  0.00000000000E+00  0.00000000000E+00  0.14738430879E+04  0.28041480007E+04  0.23855885148E+04 0.  0.
        3    1    3    3  502    0  0.60167603843E+03 -0.82771377219E+03  0.14573449860E+04  0.17807241679E+04  0.10100000352E+00 0. -1.
       -3    1    3    3    0  502 -0.60167603843E+03  0.82771377219E+03  0.16498101945E+02  0.10234238328E+04  0.10100000352E+00 0.  1.
</event>
<event>
 5   0  0.9491680E-05  0.2364810E+04  0.7818609E-02  0.8452797E-01
       -2   -1    0    0    0  501  0.00000000000E+00  0.00000000000E+00  0.60407069568E+03  0.60407069569E+03  0.25500000920E-02 0. -1.
        2   -1    0    0  501    0  0.00000000000E+00  0.00000000000E+00 -0.23144337626E+04  0.23144337626E+04  0.25500000920E-02 0.  1.
    10030    2    1    2    0    0  0.00000000000E+00  0.00000000000E+00 -0.17103630669E+04  0.29185044583E+04  0.23648100246E+04 0.  0.
        5    1    3    3  502    0 -0.70417146941E+02  0.61861115216E+03  0.38537147496E+03  0.73223739038E+03  0.46999998093E+01 0.  1.
       -5    1    3    3    0  502  0.70417146941E+02 -0.61861115216E+03 -0.20957345419E+04  0.21862670679E+04  0.46999998093E+01 0. -1.
</event>
<event>
 5   0  0.9750757E-05  0.2398534E+04  0.7818609E-02  0.8440052E-01
       -2   -1    0    0    0  501  0.00000000000E+00  0.00000000000E+00  0.97358483776E+03  0.97358483776E+03  0.25500000920E-02 0. -1.
        2   -1    0    0  501    0  0.00000000000E+00  0.00000000000E+00 -0.14772639207E+04  0.14772639207E+04  0.25500000920E-02 0.  1.
    10030    2    1    2    0    0  0.00000000000E+00  0.00000000000E+00 -0.50367908292E+03  0.24508487584E+04  0.23985343479E+04 0.  0.
        2    1    3    3  502    0  0.11854810800E+04  0.99442989572E+02 -0.96916498811E+02  0.11935858189E+04  0.25500000920E-02 0. -1.
       -2    1    3    3    0  502 -0.11854810800E+04 -0.99442989572E+02 -0.40676258411E+03  0.12572629395E+04  0.25500000920E-02 0.  1.
</event>
<event>
 5   0  0.4018942E-05  0.2301710E+04  0.7818609E-02  0.8477247E-01
       -1   -1    0    0    0  501  0.00000000000E+00  0.00000000000E+00  0.16955041126E+04  0.16955041126E+04  0.50400001928E-02 0. -1.
        1   -1    0    0  501    0  0.00000000000E+00  0.00000000000E+00 -0.78116426904E+03  0.78116426906E+03  0.50400001928E-02 0.  1.
    10030    2    1    2    0    0  0.00000000000E+00  0.00000000000E+00  0.91433984355E+03  0.24766683817E+04  0.23017099998E+04 0.  0.
        5    1    3    3  502    0 -0.51245238136E+03  0.55890498060E+03 -0.47435039351E+03  0.89443423812E+03  0.46999998093E+01 0.  1.
       -5    1    3    3    0  502  0.51245238136E+03 -0.55890498060E+03  0.13886902371E+04  0.15822341435E+04  0.46999998093E+01 0. -1.
</event>
<event>
 5   0  0.9144244E-05  0.2420231E+04  0.7818609E-02  0.8431968E-01
       -2   -1    0    0    0  501  0.00000000000E+00  0.00000000000E+00  0.11108440394E+04  0.11108440394E+04  0.25500000920E-02 0.  1.
        2   -1    0    0  501    0  0.00000000000E+00  0.00000000000E+00 -0.13182586966E+04  0.13182586966E+04  0.25500000920E-02 0. -1.
    10030    2    1    2    0    0  0.00000000000E+00  0.00000000000E+00 -0.20741465720E+03  0.24291027361E+04  0.24202312415E+04 0.  0.
        1    1    3    3  502    0  0.12171181811E+03  0.22765303262E+03  0.10828869227E+04  0.11132312237E+04  0.50400001928E-02 0.  1.
       -1    1    3    3    0  502 -0.12171181811E+03 -0.22765303262E+03 -0.12903015799E+04  0.13158715124E+04  0.50400001928E-02 0. -1.
</event>
<event>
 5   0  0.9519092E-05  0.2278028E+04  0.7818609E-02  0.8486635E-01
       -2   -1    0    0    0  501  0.00000000000E+00  0.00000000000E+00  0.76238256438E+03  0.76238256438E+03  0.25500000920E-02 0. -1.
        2   -1    0    0  501    0  0.00000000000E+00  0.00000000000E+00 -0.17017092133E+04  0.17017092133E+04  0.25500000920E-02 0.  1.
    10030    2    1    2    0    0  0.00000000000E+00  0.00000000000E+00 -0.93932664892E+03  0.24640917777E+04  0.22780284756E+04 0.  0.
        4    1    3    3  502    0  0.21759186858E+01  0.10495505034E+04  0.89600470897E+01  0.10495917726E+04  0.12699999809E+01 0. -1.
       -4    1    3    3    0  502 -0.21759186858E+01 -0.10495505034E+04 -0.94828669601E+03  0.14145000051E+04  0.12699999809E+01 0.  1.
</event>
<event>
 5   0  0.9144244E-05  0.2533476E+04  0.7818609E-02  0.8391156E-01
        2   -1    0    0  501    0  0.00000000000E+00  0.00000000000E+00  0.21577538638E+04  0.21577538638E+04  0.25500000920E-02 0. -1.
       -2   -1    0    0    0  501  0.00000000000E+00  0.00000000000E+00 -0.74365540445E+03  0.74365540445E+03  0.25500000920E-02 0.  1.
    10030    2    1    2    0    0  0.00000000000E+00  0.00000000000E+00  0.14140984594E+04  0.29014092683E+04  0.25334761276E+04 0.  0.
        1    1    3    3  502    0 -0.22163084288E+03  0.41855455572E+03  0.20525427905E+04  0.21064757424E+04  0.50400001928E-02 0. -1.
       -1    1    3    3    0  502  0.22163084288E+03 -0.41855455572E+03 -0.63844433109E+03  0.79493352587E+03  0.50400001928E-02 0.  1.
</event>
<event>
 5   0  0.9750757E-05  0.2338402E+04  0.7818609E-02  0.8462932E-01
        2   -1    0    0  501    0  0.00000000000E+00  0.00000000000E+00  0.17232055815E+04  0.17232055815E+04  0.25500000920E-02 0.  1.
       -2   -1    0    0    0  501  0.00000000000E+00  0.00000000000E+00 -0.79330668490E+03  0.79330668491E+03  0.25500000920E-02 0. -1.
    10030    2    1    2    0    0  0.00000000000E+00  0.00000000000E+00  0.92989889659E+03  0.25165122664E+04  0.23384015970E+04 0.  0.
        2    1    3    3  502    0 -0.15081771512E+03  0.11193608087E+04  0.79015141555E+03  0.13784244131E+04  0.25500000920E-02 0.  1.
       -2    1    3    3    0  502  0.15081771512E+03 -0.11193608087E+04  0.13974748104E+03  0.11380878533E+04  0.25500000920E-02 0. -1.
</event>
<event>
 5   0  0.3934906E-05  0.2369071E+04  0.7818609E-02  0.8451174E-01
       -1   -1    0    0    0  501  0.00000000000E+00  0.00000000000E+00  0.82525812287E+03  0.82525812289E+03  0.50400001928E-02 0. -1.
        1   -1    0    0  501    0  0.00000000000E+00  0.00000000000E+00 -0.17002251035E+04  0.17002251035E+04  0.50400001928E-02 0.  1.
    10030    2    1    2    0    0  0.00000000000E+00  0.00000000000E+00 -0.87496698067E+03  0.25254832264E+04  0.23690711914E+04 0.  0.
        2    1    3    3  502    0  0.81214491125E+03 -0.11404813656E+03 -0.13486292423E+04  0.15784128635E+04  0.25500000920E-02 0.  1.
       -2    1    3    3    0  502 -0.81214491125E+03  0.11404813656E+03  0.47366226164E+03  0.94707036297E+03  0.25500000920E-02 0. -1.
</event>
<event>
 5   0  0.3934906E-05  0.2321966E+04  0.7818609E-02  0.8469310E-01
        1   -1    0    0  501    0  0.00000000000E+00  0.00000000000E+00  0.21947119515E+04  0.21947119515E+04  0.50400001928E-02 0. -1.
       -1   -1    0    0    0  501  0.00000000000E+00  0.00000000000E+00 -0.61414956407E+03  0.61414956409E+03  0.50400001928E-02 0.  1.
    10030    2    1    2    0    0  0.00000000000E+00  0.00000000000E+00  0.15805623875E+04  0.28088615156E+04  0.23219658812E+04 0.  0.
        2    1    3    3  502    0  0.42493937753E+03 -0.10225170857E+03 -0.51082723105E+03  0.67228962990E+03  0.25500000920E-02 0.  1.
       -2    1    3    3    0  502 -0.42493937753E+03  0.10225170857E+03  0.20913896185E+04  0.21365718857E+04  0.25500000920E-02 0. -1.
</event>
<event>
 5   0  0.9144244E-05  0.2419772E+04  0.7818609E-02  0.8432138E-01
       -2   -1    0    0    0  501  0.00000000000E+00  0.00000000000E+00  0.12098897323E+04  0.12098897323E+04  0.25500000920E-02 0.  1.
        2   -1    0    0  501    0  0.00000000000E+00  0.00000000000E+00 -0.12098820936E+04  0.12098820937E+04  0.25500000920E-02 0. -1.
    10030    2    1    2    0    0  0.00000000000E+00  0.00000000000E+00  0.76386266625E-02  0.24197718259E+04  0.24197718259E+04 0.  0.
        1    1    3    3  502    0 -0.87940392222E+03  0.84152559300E+02  0.82667848973E+03  0.12098885226E+04  0.50400001928E-02 0.  1.
       -1    1    3    3    0  502  0.87940392222E+03 -0.84152559300E+02 -0.82667085110E+03  0.12098833034E+04  0.50400001928E-02 0. -1.
</event>
<event>
 5   0  0.4061631E-05  0.2223519E+04  0.7818609E-02  0.8508702E-01
       -1   -1    0    0    0  501  0.00000000000E+00  0.00000000000E+00  0.71775180064E+03  0.71775180066E+03  0.50400001928E-02 0.  1.
        1   -1    0    0  501    0  0.00000000000E+00  0.00000000000E+00 -0.17220559389E+04  0.17220559390E+04  0.50400001928E-02 0. -1.
    10030    2    1    2    0    0  0.00000000000E+00  0.00000000000E+00 -0.10043041383E+04  0.24398077396E+04  0.22235186089E+04 0.  0.
        3    1    3    3  502    0 -0.23611388523E+02 -0.10347957645E+04 -0.94739224335E+03  0.14031791920E+04  0.10100000352E+00 0. -1.
       -3    1    3    3    0  502  0.23611388523E+02  0.10347957645E+04 -0.56911894956E+02  0.10366285476E+04  0.10100000352E+00 0.  1.
</event>
<event>
 5   0  0.4018942E-05  0.2399228E+04  0.7818609E-02  0.8439793E-01
       -1   -1    0    0    0  501  0.00000000000E+00  0.00000000000E+00  0.15518995546E+04  0.15518995546E+04  0.50400001928E-02 0.  1.
        1   -1    0    0  501    0  0.00000000000E+00  0.00000000000E+00 -0.92729789176E+03  0.92729789177E+03  0.50400001928E-02 0. -1.
    10030    2    1    2    0    0  0.00000000000E+00  0.00000000000E+00  0.62460166286E+03  0.24791974464E+04  0.23992275301E+04 0.  0.
        5    1    3    3  502    0  0.33197481412E+02  0.65905062039E+03  0.13474913554E+04  0.15004015583E+04  0.46999998093E+01 0.  1.
       -5    1    3    3    0  502 -0.33197481412E+02 -0.65905062039E+03 -0.72288969258E+03  0.97879588814E+03  0.46999998093E+01 0. -1.
</event>
<event>
 5   0  0.9182865E-05  0.2289731E+04  0.7818609E-02  0.8481981E-01
        2   -1    0    0  501    0  0.00000000000E+00  0.00000000000E+00  0.90139493208E+03  0.90139493208E+03  0.25500000920E-02 0.  1.
       -2   -1    0    0    0  501  0.00000000000E+00  0.00000000000E+00 -0.14540984147E+04  0.14540984147E+04  0.25500000920E-02 0. -1.
    10030    2    1    2    0    0  0.00000000000E+00  0.00000000000E+00 -0.55270348263E+03  0.23554933468E+04  0.22897309377E+04 0.  0.
        3    1    3    3  502    0 -0.10449133012E+04  0.35695834462E+03 -0.58745063123E+03  0.12507443068E+04  0.10100000352E+00 0. -1.
       -3    1    3    3    0  502  0.10449133012E+04 -0.35695834462E+03  0.34747148599E+02  0.11047490400E+04  0.10100000352E+00 0.  1.
</event>
<event>
 5   0  0.4260395E-05  0.1514716E+04  0.7818609E-02  0.8874726E-01
        1   -1    0    0  501    0  0.00000000000E+00  0.00000000000E+00  0.11092776765E+04  0.11092776765E+04  0.50400001928E-02 0. -1.
       -1   -1    0    0    0  501  0.00000000000E+00  0.00000000000E+00 -0.51708504780E+03  0.51708504783E+03  0.50400001928E-02 0.  1.
    10030    2    1    2    0    0  0.00000000000E+00  0.00000000000E+00  0.59219262870E+03  0.16263627243E+04  0.15147156834E+04 0.  0.
        4    1    3    3  502    0 -0.32244333556E+03 -0.30574060436E+03  0.95460628915E+03  0.10529585946E+04  0.12699999809E+01 0. -1.
       -4    1    3    3    0  502  0.32244333556E+03  0.30574060436E+03 -0.36241366045E+03  0.57340412972E+03  0.12699999809E+01 0.  1.
</event>
<event>
 5   0  0.9750757E-05  0.2126878E+04  0.7818609E-02  0.8549495E-01
        2   -1    0    0  501    0  0.00000000000E+00  0.00000000000E+00  0.21890430192E+04  0.21890430192E+04  0.25500000920E-02 0. -1.
       -2   -1    0    0    0  501  0.00000000000E+00  0.00000000000E+00 -0.51661971545E+03  0.51661971546E+03  0.25500000920E-02 0.  1.
    10030    2    1    2    0    0  0.00000000000E+00  0.00000000000E+00  0.16724233038E+04  0.27056627347E+04  0.21268782586E+04 0.  0.
        2    1    3    3  502    0  0.10178351284E+03  0.68465432232E+03  0.18632468480E+04  0.19876620038E+04  0.25500000920E-02 0. -1.
       -2    1    3    3    0  502 -0.10178351284E+03 -0.68465432232E+03 -0.19082354424E+03  0.71800073092E+03  0.25500000920E-02 0.  1.
</event>
<event>
 5   0  0.4208577E-05  0.2263546E+04  0.7818609E-02  0.8492435E-01
        1   -1    0    0  501    0  0.00000000000E+00  0.00000000000E+00  0.17044534780E+04  0.17044534780E+04  0.50400001928E-02 0. -1.
       -1   -1    0    0    0  501  0.00000000000E+00  0.00000000000E+00 -0.75150784111E+03  0.75150784113E+03  0.50400001928E-02 0.  1.
    10030    2    1    2    0    0  0.00000000000E+00  0.00000000000E+00  0.95294563688E+03  0.24559613191E+04  0.22635460265E+04 0.  0.
        1    1    3    3  502    0 -0.67191325837E+03  0.52209182913E+03  0.12861395876E+04  0.15421421282E+04  0.50400001928E-02 0.  1.
       -1    1    3    3    0  502  0.67191325837E+03 -0.52209182913E+03 -0.33319395073E+03  0.91381919089E+03  0.50400001928E-02 0. -1.
</event>
<event>
 5   0  0.4208577E-05  0.2003362E+04  0.7818609E-02  0.8605050E-01
        1   -1    0    0  501    0  0.00000000000E+00  0.00000000000E+00  0.20482895759E+04  0.20482895759E+04  0.50400001928E-02 0. -1.
       -1   -1    0    0    0  501  0.00000000000E+00  0.00000000000E+00 -0.48985501638E+03  0.48985501641E+03  0.50400001928E-02 0.  1.
    10030    2    1    2    0    0  0.00000000000E+00  0.00000000000E+00  0.15584345595E+04  0.25381445923E+04  0.20033620979E+04 0.  0.
        1    1    3    3  502    0 -0.59032599006E+03  0.59765554664E+03  0.87963421954E+02  0.84463867458E+03  0.50400001928E-02 0. -1.
       -1    1    3    3    0  502  0.59032599006E+03 -0.59765554664E+03  0.14704711375E+04  0.16935059177E+04  0.50400001928E-02 0.  1.
</event>
<event>
 5   0  0.9491680E-05  0.2438970E+04  0.7818609E-02  0.8425056E-01
       -2   -1    0    0    0  501  0.00000000000E+00  0.00000000000E+00  0.10452943910E+04  0.10452943911E+04  0.25500000920E-02 0.  1.
        2   -1    0    0  501    0  0.00000000000E+00  0.00000000000E+00 -0.14227035752E+04  0.14227035752E+04  0.25500000920E-02 0. -1.
    10030    2    1    2    0    0  0.00000000000E+00  0.00000000000E+00 -0.37740918411E+03  0.24679979662E+04  0.24389703297E+04 0.  0.
        5    1    3    3  502    0 -0.25930935456E+03  0.49580162326E+03 -0.12851415922E+04  0.14016674331E+04  0.46999998093E+01 0. -1.
       -5    1    3    3    0  502  0.25930935456E+03 -0.49580162326E+03  0.90773240814E+03  0.10663305331E+04  0.46999998093E+01 0.  1.
</event>
<event>
 5   0  0.4061631E-05  0.1522545E+04  0.7818609E-02  0.8869597E-01
        1   -1    0    0  501    0  0.00000000000E+00  0.00000000000E+00  0.97205281595E+03  0.97205281596E+03  0.50400001928E-02 0. -1.
       -1   -1    0    0    0  501  0.00000000000E+00  0.00000000000E+00 -0.59619811420E+03  0.59619811422E+03  0.50400001928E-02 0.  1.
    10030    2    1    2    0    0  0.00000000000E+00  0.00000000000E+00  0.37585470175E+03  0.15682509302E+04  0.15225453107E+04 0.  0.
        3    1    3    3  502    0  0.72971694672E+03  0.21265934630E+02  0.41027074364E+03  0.83741337199E+03  0.10100000352E+00 0. -1.
       -3    1    3    3    0  502 -0.72971694672E+03 -0.21265934630E+02 -0.34416041886E+02  0.73083755818E+03  0.10100000352E+00 0.  1.
</event>
<event>
 5   0  0.4018942E-05  0.2386770E+04  0.7818609E-02  0.8444473E-01
        1   -1    0    0  501    0  0.00000000000E+00  0.00000000000E+00  0.10331183175E+04  0.10331183175E+04  0.50400001928E-02 0.  1.
       -1   -1    0    0    0  501  0.00000000000E+00  0.00000000000E+00 -0.13785141480E+04  0.13785141481E+04  0.50400001928E-02 0. -1.
    10030    2    1    2    0    0  0.00000000000E+00  0.00000000000E+00 -0.34539583056E+03  0.24116324656E+04  0.23867703847E+04 0.  0.
        5    1    3    3  502    0 -0.72560896243E+03  0.94706438992E+03 -0.14583522829E+03  0.12019689384E+04  0.46999998093E+01 0.  1.
       -5    1    3    3    0  502  0.72560896243E+03 -0.94706438992E+03 -0.19956060226E+03  0.12096635272E+04  0.46999998093E+01 0. -1.
</event>
<event>
 5   0  0.9750757E-05  0.2388583E+04  0.7818609E-02  0.8443790E-01
        2   -1    0    0  501    0  0.00000000000E+00  0.00000000000E+00  0.23797725774E+04  0.23797725774E+04  0.25500000920E-02 0. -1.
       -2   -1    0    0    0  501  0.00000000000E+00  0.00000000000E+00 -0.59935638995E+03  0.59935638995E+03  0.25500000920E-02 0.  1.
    10030    2    1    2    0    0  0.00000000000E+00  0.00000000000E+00  0.17804161874E+04  0.29791289674E+04  0.23885827605E+04 0.  0.
        2    1    3    3  502    0 -0.92603612399E+03 -0.33548102362E+03  0.47753709143E+02  0.98608865570E+03  0.25500000920E-02 0.  1.
       -2    1    3    3    0  502  0.92603612399E+03  0.33548102362E+03  0.17326624783E+04  0.19930403117E+04  0.25500000920E-02 0. -1.
</event>
<event>
 5   0  0.9519092E-05  0.2414136E+04  0.7818609E-02  0.8434230E-01
        2   -1    0    0  501    0  0.00000000000E+00  0.00000000000E+00  0.14156743023E+04  0.14156743023E+04  0.25500000920E-02 0. -1.
       -2   -1    0    0    0  501  0.00000000000E+00  0.00000000000E+00 -0.10292011014E+04  0.10292011014E+04  0.25500000920E-02 0.  1.
    10030    2    1    2    0    0  0.00000000000E+00  0.00000000000E+00  0.38647320087E+03  0.24448754038E+04  0.24141363269E+04 0.  0.
        4    1    3    3  502    0 -0.13706868434E+03  0.72422400609E+03  0.11612968463E+04  0.13754636357E+04  0.12699999809E+01 0. -1.
       -4    1    3    3    0  502  0.13706868434E+03 -0.72422400609E+03 -0.77482364539E+03  0.10694117680E+04  0.12699999809E+01 0.  1.
</event>
<event>
 5   0  0.4061631E-05  0.2407973E+04  0.7818609E-02  0.8436525E-01
        1   -1    0    0  501    0  0.00000000000E+00  0.00000000000E+00  0.11652838261E+04  0.11652838261E+04  0.50400001928E-02 0.  1.
       -1   -1    0    0    0  501  0.00000000000E+00  0.00000000000E+00 -0.12439745839E+04  0.12439745839E+04  0.50400001928E-02 0. -1.
    10030    2    1    2    0    0  0.00000000000E+00  0.00000000000E+00 -0.78690757848E+02  0.24092584100E+04  0.24079729755E+04 0.  0.
        3    1    3    3  502    0 -0.88791085479E+03  0.53956404982E+03  0.56931184076E+03  0.11847493541E+04  0.10100000352E+00 0.  1.
       -3    1    3    3    0  502  0.88791085479E+03 -0.53956404982E+03 -0.64800259861E+03  0.12245090559E+04  0.10100000352E+00 0. -1.
</event>
<event>
 5   0  0.9750757E-05  0.2413072E+04  0.7818609E-02  0.8434626E-01
       -2   -1    0    0    0  501  0.00000000000E+00  0.00000000000E+00  0.72528050314E+03  0.72528050315E+03  0.25500000920E-02 0. -1.
        2   -1    0    0  501    0  0.00000000000E+00  0.00000000000E+00 -0.20071261154E+04  0.20071261155E+04  0.25500000920E-02 0.  1.
    10030    2    1    2    0    0  0.00000000000E+00  0.00000000000E+00 -0.12818456123E+04  0.27324066186E+04  0.24130722649E+04 0.  0.
        2    1    3    3  502    0  0.87509691339E+03 -0.45894557581E+03 -0.14248584872E+04  0.17339686727E+04  0.25500000920E-02 0.  1.
       -2    1    3    3    0  502 -0.87509691339E+03  0.45894557581E+03  0.14301287490E+03  0.99843794588E+03  0.25500000920E-02 0. -1.
</event>
<event>
 5   0  0.9519092E-05  0.2399198E+04  0.7818609E-02  0.8439804E-01
        2   -1    0    0  501    0  0.00000000000E+00  0.00000000000E+00  0.24314645857E+04  0.24314645857E+04  0.25500000920E-02 0.  1.
       -2   -1    0    0    0  501  0.00000000000E+00  0.00000000000E+00 -0.59183995257E+03  0.59183995257E+03  0.25500000920E-02 0. -1.
    10030    2    1    2    0    0  0.00000000000E+00  0.00000000000E+00  0.18396246332E+04  0.30233045383E+04  0.23991981036E+04 0.  0.
        4    1    3    3  502    0  0.49463312920E+02 -0.11143744583E+04  0.36369707354E+03  0.11732664774E+04  0.12699999809E+01 0. -1.
       -4    1    3    3    0  502 -0.49463312920E+02  0.11143744583E+04  0.14759275596E+04  0.18500380609E+04  0.12699999809E+01 0.  1.
</event>
<event>
 5   0  0.9182865E-05  0.2369958E+04  0.7818609E-02  0.8450837E-01
       -2   -1    0    0    0  501  0.00000000000E+00  0.00000000000E+00  0.20826516441E+04  0.20826516441E+04  0.25500000920E-02 0. -1.
        2   -1    0    0  501    0  0.00000000000E+00  0.00000000000E+00 -0.67422486995E+03  0.67422486995E+03  0.25500000920E-02 0.  1.
    10030    2    1    2    0    0  0.00000000000E+00  0.00000000000E+00  0.14084267742E+04  0.27568765141E+04  0.23699582561E+04 0.  0.
        3    1    3    3  502    0  0.99079556056E+03  0.14991657159E+03 -0.31519251323E+02  0.10025688478E+04  0.10100000352E+00 0.  1.
       -3    1    3    3    0  502 -0.99079556056E+03 -0.14991657159E+03  0.14399460255E+04  0.17543076662E+04  0.10100000352E+00 0. -1.
</event>
<event>
 5   0  0.4018942E-05  0.2319710E+04  0.7818609E-02  0.8470190E-01
        1   -1    0    0  501    0  0.00000000000E+00  0.00000000000E+00  0.75670049991E+03  0.75670049993E+03  0.50400001928E-02 0. -1.
       -1   -1    0    0    0  501  0.00000000000E+00  0.00000000000E+00 -0.17778018100E+04  0.17778018100E+04  0.50400001928E-02 0.  1.
    10030    2    1    2    0    0  0.00000000000E+00  0.00000000000E+00 -0.10211013101E+04  0.25345023099E+04  0.23197099115E+04 0.  0.
        5    1    3    3  502    0  0.76954031436E+03 -0.50103584973E+03  0.26358336523E+03  0.95536772950E+03  0.46999998093E+01 0. -1.
       -5    1    3    3    0  502 -0.76954031436E+03  0.50103584973E+03 -0.12846846753E+04  0.15791345804E+04  0.46999998093E+01 0.  1.
</event>
<event>
 5   0  0.9750757E-05  0.2414935E+04  0.7818609E-02  0.8433933E-01
       -2   -1    0    0    0  501  0.00000000000E+00  0.00000000000E+00  0.16810731582E+04  0.16810731582E+04  0.25500000920E-02 0.  1.
        2   -1    0    0  501    0  0.00000000000E+00  0.00000000000E+00 -0.86729014425E+03  0.86729014426E+03  0.25500000920E-02 0. -1.
    10030    2    1    2    0    0  0.00000000000E+00  0.00000000000E+00  0.81378301397E+03  0.25483633025E+04  0.24149353465E+04 0.  0.
        2    1    3    3  502    0 -0.20434928229E+03  0.10120343558E+04  0.10675883018E+04  0.14851656301E+04  0.25500000920E-02 0.  1.
       -2    1    3    3    0  502  0.20434928229E+03 -0.10120343558E+04 -0.25380528785E+03  0.10631976724E+04  0.25500000920E-02 0. -1.
</event>
<event>
 5   0  0.3234750E-05  0.1209320E+04  0.7818609E-02  0.9104738E-01
       -3   -1    0    0    0  501  0.00000000000E+00  0.00000000000E+00  0.42110855709E+03  0.42110856920E+03  0.10100000352E+00 0. -1.
        3   -1    0    0  501    0  0.00000000000E+00  0.00000000000E+00 -0.86821744392E+03  0.86821744979E+03  0.10100000352E+00 0.  1.
    10030    2    1    2    0    0  0.00000000000E+00  0.00000000000E+00 -0.44710888683E+03  0.12893260190E+04  0.12093201506E+04 0.  0.
        1    1    3    3  502    0 -0.45513517489E+03  0.30616669268E+03  0.47693631229E+02  0.55060035744E+03  0.50400001928E-02 0.  1.
       -1    1    3    3    0  502  0.45513517489E+03 -0.30616669268E+03 -0.49480251806E+03  0.73872566155E+03  0.50400001928E-02 0. -1.
</event>
<event>
 5   0  0.4260395E-05  0.2455743E+04  0.7818609E-02  0.8418924E-01
       -1   -1    0    0    0  501  0.00000000000E+00  0.00000000000E+00  0.15232935698E+04  0.15232935698E+04  0.50400001928E-02 0. -1.
        1   -1    0    0  501    0  0.00000000000E+00  0.00000000000E+00 -0.98974212954E+03  0.98974212955E+03  0.50400001928E-02 0.  1.
    10030    2    1    2    0    0  0.00000000000E+00  0.00000000000E+00  0.53355144027E+03  0.25130356994E+04  0.24557425123E+04 0.  0.
        4    1    3    3  502    0  0.81275005035E+03  0.88508885633E+03  0.52509574754E+03  0.13113626825E+04  0.12699999809E+01 0. -1.
       -4    1    3    3    0  502 -0.81275005035E+03 -0.88508885633E+03  0.84556927324E+01  0.12016730169E+04  0.12699999809E+01 0.  1.
</event>
<event>
 5   0  0.9750757E-05  0.2413357E+04  0.7818609E-02  0.8434520E-01
       -2   -1    0    0    0  501  0.00000000000E+00  0.00000000000E+00  0.70622191609E+03  0.70622191609E+03  0.25500000920E-02 0. -1.
        2   -1    0    0  501    0  0.00000000000E+00  0.00000000000E+00 -0.20617780352E+04  0.20617780352E+04  0.25500000920E-02 0.  1.
    10030    2    1    2    0    0  0.00000000000E+00  0.00000000000E+00 -0.13555561191E+04  0.27679999513E+04  0.24133568609E+04 0.  0.
        2    1    3    3  502    0 -0.57295695680E+03  0.99908102142E+02  0.53485338450E+03  0.79014520573E+03  0.25500000920E-02 0. -1.
       -2    1    3    3    0  502  0.57295695680E+03 -0.99908102142E+02 -0.18904095036E+04  0.19778547455E+04  0.25500000920E-02 0.  1.
</event>
<event>
 5   0  0.4018942E-05  0.2412746E+04  0.7818609E-02  0.8434747E-01
        1   -1    0    0  501    0  0.00000000000E+00  0.00000000000E+00  0.17254586311E+04  0.17254586311E+04  0.50400001928E-02 0.  1.
       -1   -1    0    0    0  501  0.00000000000E+00  0.00000000000E+00 -0.84344860441E+03  0.84344860443E+03  0.50400001928E-02 0. -1.
    10030    2    1    2    0    0  0.00000000000E+00  0.00000000000E+00  0.88201002670E+03  0.25689072355E+04  0.24127458834E+04 0.  0.
        5    1    3    3  502    0  0.16982768219E+03 -0.11633800006E+04  0.72871512621E+03  0.13832361666E+04  0.46999998093E+01 0. -1.
       -5    1    3    3    0  502 -0.16982768219E+03  0.11633800006E+04  0.15329490049E+03  0.11856710690E+04  0.46999998093E+01 0.  1.
</event>
<event>
 5   0  0.4018942E-05  0.2373195E+04  0.7818609E-02  0.8449608E-01
       -1   -1    0    0    0  501  0.00000000000E+00  0.00000000000E+00  0.50540265448E+03  0.50540265451E+03  0.50400001928E-02 0.  1.
        1   -1    0    0  501    0  0.00000000000E+00  0.00000000000E+00 -0.27859238631E+04  0.27859238631E+04  0.50400001928E-02 0. -1.
    10030    2    1    2    0    0  0.00000000000E+00  0.00000000000E+00 -0.22805212086E+04  0.32913265176E+04  0.23731947376E+04 0.  0.
        5    1    3    3  502    0 -0.96570276744E+03 -0.68938341085E+03 -0.11577980556E+04  0.16578147514E+04  0.46999998093E+01 0. -1.
       -5    1    3    3    0  502  0.96570276744E+03  0.68938341085E+03 -0.11227231530E+04  0.16335117662E+04  0.46999998093E+01 0.  1.
</event>
<event>
 5   0  0.4061631E-05  0.2142677E+04  0.7818609E-02  0.8542673E-01
       -1   -1    0    0    0  501  0.00000000000E+00  0.00000000000E+00  0.74841140001E+03  0.74841140003E+03  0.50400001928E-02 0. -1.
        1   -1    0    0  501    0  0.00000000000E+00  0.00000000000E+00 -0.15336039567E+04  0.15336039567E+04  0.50400001928E-02 0.  1.
    10030    2    1    2    0    0  0.00000000000E+00  0.00000000000E+00 -0.78519255665E+03  0.22820153567E+04  0.21426774692E+04 0.  0.
        3    1    3    3  502    0 -0.79904179799E+03 -0.45288935857E+03 -0.97999676675E+03  0.13431195922E+04  0.10100000352E+00 0.  1.
       -3    1    3    3    0  502  0.79904179799E+03  0.45288935857E+03  0.19480421010E+03  0.93889576446E+03  0.10100000352E+00 0. -1.
</event>
<event>
 5   0  0.3934906E-05  0.1515981E+04  0.7818609E-02  0.8873895E-01
        1   -1    0    0  501    0  0.00000000000E+00  0.00000000000E+00  0.14506658505E+04  0.14506658505E+04  0.50400001928E-02 0. -1.
       -1   -1    0    0    0  501  0.00000000000E+00  0.00000000000E+00 -0.39605917087E+03  0.39605917091E+03  0.50400001928E-02 0.  1.
    10030    2    1    2    0    0  0.00000000000E+00  0.00000000000E+00  0.10546066796E+04  0.18467250214E+04  0.15159808890E+04 0.  0.
        2    1    3    3  502    0 -0.18176223663E+03 -0.70390313130E+03  0.26594266321E+03  0.77410763402E+03  0.25500000920E-02 0. -1.
       -2    1    3    3    0  502  0.18176223663E+03  0.70390313130E+03  0.78866401638E+03  0.10726173874E+04  0.25500000920E-02 0.  1.
</event>
<event>
 5   0  0.9491680E-05  0.2419709E+04  0.7818609E-02  0.8432161E-01
        2   -1    0    0  501    0  0.00000000000E+00  0.00000000000E+00  0.27230377704E+04  0.27230377704E+04  0.25500000920E-02 0. -1.
       -2   -1    0    0    0  501  0.00000000000E+00  0.00000000000E+00 -0.53754229211E+03  0.53754229211E+03  0.25500000920E-02 0.  1.
    10030    2    1    2    0    0  0.00000000000E+00  0.00000000000E+00  0.21854954783E+04  0.32605800625E+04  0.24197090442E+04 0.  0.
        5    1    3    3  502    0  0.21038655095E+03  0.11725390639E+04  0.13773738169E+04  0.18210686639E+04  0.46999998093E+01 0. -1.
       -5    1    3    3    0  502 -0.21038655095E+03 -0.11725390639E+04  0.80812166142E+03  0.14395113986E+04  0.46999998093E+01 0.  1.
</event>
<event>
 5   0  0.4260395E-05  0.2414794E+04  0.7818609E-02  0.8433986E-01
       -1   -1    0    0    0  501  0.00000000000E+00  0.00000000000E+00  0.88462456530E+03  0.88462456532E+03  0.50400001928E-02 0.  1.
        1   -1    0    0  501    0  0.00000000000E+00  0.00000000000E+00 -0.16479386461E+04  0.16479386461E+04  0.50400001928E-02 0. -1.
    10030    2    1    2    0    0  0.00000000000E+00  0.00000000000E+00 -0.76331408076E+03  0.25325632114E+04  0.24147935799E+04 0.  0.
        4    1    3    3  502    0  0.24457933979E+03 -0.42291115762E+03 -0.15396495093E+04  0.16153003204E+04  0.12699999809E+01 0. -1.
       -4    1    3    3    0  502 -0.24457933979E+03  0.42291115762E+03  0.77633542854E+03  0.91726289099E+03  0.12699999809E+01 0.  1.
</event>
<event>
 5   0  0.4018942E-05  0.2101074E+04  0.7818609E-02  0.8560770E-01
        1   -1    0    0  501    0  0.00000000000E+00  0.00000000000E+00  0.81513401798E+03  0.81513401800E+03  0.50400001928E-02 0. -1.
       -1   -1    0    0    0  501  0.00000000000E+00  0.00000000000E+00 -0.13539224741E+04  0.13539224741E+04  0.50400001928E-02 0.  1.
    10030    2    1    2    0    0  0.00000000000E+00  0.00000000000E+00 -0.53878845612E+03  0.21690564921E+04  0.21010742646E+04 0.  0.
        5    1    3    3  502    0  0.92790943455E+03  0.19040127127E+03 -0.73833572080E+03  0.12010121937E+04  0.46999998093E+01 0.  1.
       -5    1    3    3    0  502 -0.92790943455E+03 -0.19040127127E+03  0.19954726468E+03  0.96804429840E+03  0.46999998093E+01 0. -1.
</event>
<event>
 5   0  0.9750757E-05  0.2412248E+04  0.7818609E-02  0.8434932E-01
       -2   -1    0    0    0  501  0.00000000000E+00  0.00000000000E+00  0.12030909823E+04  0.12030909823E+04  0.25500000920E-02 0. -1.
        2   -1    0    0  501    0  0.00000000000E+00  0.00000000000E+00 -0.12091643447E+04  0.12091643447E+04  0.25500000920E-02 0.  1.
    10030    2    1    2    0    0  0.00000000000E+00  0.00000000000E+00 -0.60733624309E+01  0.24122553270E+04  0.24122476815E+04 0.  0.
        2    1    3    3  502    0 -0.67879356103E+03 -0.14459206895E+03  0.98340810816E+03  0.12036440803E+04  0.25500000920E-02 0. -1.
       -2    1    3    3    0  502  0.67879356103E+03  0.14459206895E+03 -0.98948147059E+03  0.12086112467E+04  0.25500000920E-02 0.  1.
</event>
<event>
 5   0  0.3934906E-05  0.1838908E+04  0.7818609E-02  0.8685878E-01
        1   -1    0    0  501    0  0.00000000000E+00  0.00000000000E+00  0.96562793723E+03  0.96562793724E+03  0.50400001928E-02 0.  1.
       -1   -1    0    0    0  501  0.00000000000E+00  0.00000000000E+00 -0.87548776697E+03  0.87548776698E+03  0.50400001928E-02 0. -1.
    10030    2    1    2    0    0  0.00000000000E+00  0.00000000000E+00  0.90140170256E+02  0.18411157042E+04  0.18389077699E+04 0.  0.
        2    1    3    3  502    0  0.12823439090E+03  0.91043370027E+03  0.52944953239E+02  0.92094340200E+03  0.25500000920E-02 0. -1.
       -2    1    3    3    0  502 -0.12823439090E+03 -0.91043370027E+03  0.37195217017E+02  0.92017230222E+03  0.25500000920E-02 0.  1.
</event>
<event>
 5   0  0.9491680E-05  0.2355995E+04  0.7818609E-02  0.8456165E-01
       -2   -1    0    0    0  501  0.00000000000E+00  0.00000000000E+00  0.12694341803E+04  0.12694341803E+04  0.25500000920E-02 0.  1.
        2   -1    0    0  501    0  0.00000000000E+00  0.00000000000E+00 -0.10931470499E+04  0.10931470499E+04  0.25500000920E-02 0. -1.
    10030    2    1    2    0    0  0.00000000000E+00  0.00000000000E+00  0.17628713037E+03  0.23625812302E+04  0.23559951012E+04 0.  0.
        5    1    3    3  502    0  0.19740281934E+03  0.46703796499E+03 -0.97810854832E+03  0.11017308002E+04  0.46999998093E+01 0. -1.
       -5    1    3    3    0  502 -0.19740281934E+03 -0.46703796499E+03  0.11543956787E+04  0.12608504300E+04  0.46999998093E+01 0.  1.
</event>
<event>
 5   0  0.4208577E-05  0.2423614E+04  0.7818609E-02  0.8430715E-01
        1   -1    0    0  501    0  0.00000000000E+00  0.00000000000E+00  0.17683252163E+04  0.17683252163E+04  0.50400001928E-02 0. -1.
       -1   -1    0    0    0  501  0.00000000000E+00  0.00000000000E+00 -0.83043355442E+03  0.83043355443E+03  0.50400001928E-02 0.  1.
    10030    2    1    2    0    0  0.00000000000E+00  0.00000000000E+00  0.93789166189E+03  0.25987587708E+04  0.24236143214E+04 0.  0.
        1    1    3    3  502    0 -0.24854808614E+03  0.45177627720E+03 -0.70693364983E+03  0.87500465201E+03  0.50400001928E-02 0.  1.
       -1    1    3    3    0  502  0.24854808614E+03 -0.45177627720E+03  0.16448253117E+04  0.17237541187E+04  0.50400001928E-02 0. -1.
</event>
<event>
 5   0  0.9182865E-05  0.2388242E+04  0.7818609E-02  0.8443919E-01
        2   -1    0    0  501    0  0.00000000000E+00  0.00000000000E+00  0.10843111815E+04  0.10843111815E+04  0.25500000920E-02 0. -1.
       -2   -1    0    0    0  501  0.00000000000E+00  0.00000000000E+00 -0.13150511438E+04  0.13150511438E+04  0.25500000920E-02 0.  1.
    10030    2    1    2    0    0  0.00000000000E+00  0.00000000000E+00 -0.23073996233E+03  0.23993623253E+04  0.23882417461E+04 0.  0.
        3    1    3    3  502    0  0.36923115493E+03  0.70137926519E+03  0.78190692932E+03  0.11133925524E+04  0.10100000352E+00 0. -1.
       -3    1    3    3    0  502 -0.36923115493E+03 -0.70137926519E+03 -0.10126468917E+04  0.12859697729E+04  0.10100000352E+00 0.  1.
</event>
<event>
 5   0  0.9491680E-05  0.1826056E+04  0.7818609E-02  0.8692565E-01
       -2   -1    0    0    0  501  0.00000000000E+00  0.00000000000E+00  0.53082336371E+03  0.53082336372E+03  0.25500000920E-02 0. -1.
        2   -1    0    0  501    0  0.00000000000E+00  0.00000000000E+00 -0.15704283652E+04  0.15704283652E+04  0.25500000920E-02 0.  1.
    10030    2    1    2    0    0  0.00000000000E+00  0.00000000000E+00 -0.10396050014E+04  0.21012517289E+04  0.18260559326E+04 0.  0.
        5    1    3    3  502    0 -0.67299140001E+03  0.51525387740E+03 -0.12925044586E+03  0.85739824493E+03  0.46999998093E+01 0. -1.
       -5    1    3    3    0  502  0.67299140001E+03 -0.51525387740E+03 -0.91035455558E+03  0.12438534839E+04  0.46999998093E+01 0.  1.
</event>
<event>
 5   0  0.4208577E-05  0.2311027E+04  0.7818609E-02  0.8473586E-01
       -1   -1    0    0    0  501  0.00000000000E+00  0.00000000000E+00  0.96591929517E+03  0.96591929519E+03  0.50400001928E-02 0. -1.
        1   -1    0    0  501    0  0.00000000000E+00  0.00000000000E+00 -0.13823222575E+04  0.13823222575E+04  0.50400001928E-02 0.  1.
    10030    2    1    2    0    0  0.00000000000E+00  0.00000000000E+00 -0.41640296237E+03  0.23482415527E+04  0.23110272527E+04 0.  0.
        1    1    3    3  502    0 -0.11140327549E+03  0.60030417388E+03  0.78863430394E+03  0.99735643395E+03  0.50400001928E-02 0. -1.
       -1    1    3    3    0  502  0.11140327549E+03 -0.60030417388E+03 -0.12050372663E+04  0.13508851188E+04  0.50400001928E-02 0.  1.
</event>
<event>
 5   0  0.9750757E-05  0.1709432E+04  0.7818609E-02  0.8756003E-01
        2   -1    0    0  501    0  0.00000000000E+00  0.00000000000E+00  0.33234846454E+03  0.33234846455E+03  0.25500000920E-02 0.  1.
       -2   -1    0    0    0  501  0.00000000000E+00  0.00000000000E+00 -0.21981124439E+04  0.21981124439E+04  0.25500000920E-02 0. -1.
    10030    2    1    2    0    0  0.00000000000E+00  0.00000000000E+00 -0.18657639793E+04  0.25304609084E+04  0.17094318303E+04 0.  0.
        2    1    3    3  502    0 -0.81598563253E+03  0.75992347495E+02 -0.57352748710E+03  0.10002705473E+04  0.25500000920E-02 0. -1.
       -2    1    3    3    0  502  0.81598563253E+03 -0.75992347495E+02 -0.12922364922E+04  0.15301903611E+04  0.25500000920E-02 0.  1.
</event>
<event>
 5   0  0.9491680E-05  0.2373945E+04  0.7818609E-02  0.8449323E-01
        2   -1    0    0  501    0  0.00000000000E+00  0.00000000000E+00  0.34921534718E+04  0.34921534718E+04  0.25500000920E-02 0.  1.
       -2   -1    0    0    0  501  0.00000000000E+00  0.00000000000E+00 -0.40344848293E+03  0.40344848294E+03  0.25500000920E-02 0. -1.
    10030    2    1    2    0    0  0.00000000000E+00  0.00000000000E+00  0.30887049888E+04  0.38956019547E+04  0.23739452566E+04 0.  0.
        5    1    3    3  502    0 -0.20892796004E+03 -0.11680498122E+04  0.15933262397E+04  0.19866307791E+04  0.46999998093E+01 0.  1.
       -5    1    3    3    0  502  0.20892796004E+03  0.11680498122E+04  0.14953787491E+04  0.19089711757E+04  0.46999998093E+01 0. -1.
</event>
<event>
 5   0  0.3934906E-05  0.2353985E+04  0.7818609E-02  0.8456935E-01
       -1   -1    0    0    0  501  0.00000000000E+00  0.00000000000E+00  0.94153081187E+03  0.94153081189E+03  0.50400001928E-02 0.  1.
        1   -1    0    0  501    0  0.00000000000E+00  0.00000000000E+00 -0.14713390750E+04  0.14713390750E+04  0.50400001928E-02 0. -1.
    10030    2    1    2    0    0  0.00000000000E+00  0.00000000000E+00 -0.52980826313E+03  0.24128698869E+04  0.23539847696E+04 0.  0.
        2    1    3    3  502    0 -0.77589119261E+03 -0.52287367192E+03 -0.99684460886E+03  0.13671514890E+04  0.25500000920E-02 0. -1.
       -2    1    3    3    0  502  0.77589119261E+03  0.52287367192E+03  0.46703634572E+03  0.10457183979E+04  0.25500000920E-02 0.  1.
</event>
<event>
 5   0  0.9491680E-05  0.2390248E+04  0.7818609E-02  0.8443163E-01
        2   -1    0    0  501    0  0.00000000000E+00  0.00000000000E+00  0.12413841397E+04  0.12413841397E+04  0.25500000920E-02 0.  1.
       -2   -1    0    0    0  501  0.00000000000E+00  0.00000000000E+00 -0.11505880652E+04  0.11505880652E+04  0.25500000920E-02 0. -1.
    10030    2    1    2    0    0  0.00000000000E+00  0.00000000000E+00  0.90796074473E+02  0.23919722049E+04  0.23902483348E+04 0.  0.
        5    1    3    3  502    0  0.24492251518E+03  0.39721990929E+02 -0.11245194496E+04  0.11515775951E+04  0.46999998093E+01 0. -1.
       -5    1    3    3    0  502 -0.24492251518E+03 -0.39721990929E+02  0.12153155241E+04  0.12403946098E+04  0.46999998093E+01 0.  1.
</event>
<event>
 5   0  0.4260395E-05  0.2358284E+04  0.7818609E-02  0.8455289E-01
        1   -1    0    0  501    0  0.00000000000E+00  0.00000000000E+00  0.13111496629E+04  0.13111496629E+04  0.50400001928E-02 0.  1.
       -1   -1    0    0    0  501  0.00000000000E+00  0.00000000000E+00 -0.10604248130E+04  0.10604248130E+04  0.50400001928E-02 0. -1.
    10030    2    1    2    0    0  0.00000000000E+00  0.00000000000E+00  0.25072484990E+03  0.23715744759E+04  0.23582838134E+04 0.  0.
        4    1    3    3  502    0 -0.11146811024E+03  0.10636520872E+04 -0.37401761087E+03  0.11329923602E+04  0.12699999809E+01 0. -1.
       -4    1    3    3    0  502  0.11146811024E+03 -0.10636520872E+04  0.62474246077E+03  0.12385821157E+04  0.12699999809E+01 0.  1.
</event>
<event>
 5   0  0.4018942E-05  0.1335040E+04  0.7818609E-02  0.9002230E-01
        1   -1    0    0  501    0  0.00000000000E+00  0.00000000000E+00  0.11950896850E+04  0.11950896851E+04  0.50400001928E-02 0.  1.
       -1   -1    0    0    0  501  0.00000000000E+00  0.00000000000E+00 -0.37284480576E+03  0.37284480579E+03  0.50400001928E-02 0. -1.
    10030    2    1    2    0    0  0.00000000000E+00  0.00000000000E+00  0.82224487929E+03  0.15679344909E+04  0.13350400466E+04 0.  0.
        5    1    3    3  502    0 -0.37126750643E+03 -0.24950544819E+03  0.99299969586E+03  0.10891111128E+04  0.46999998093E+01 0.  1.
       -5    1    3    3    0  502  0.37126750643E+03  0.24950544819E+03 -0.17075481657E+03  0.47882337807E+03  0.46999998093E+01 0. -1.
</event>
<event>
 5   0  0.4018942E-05  0.2398439E+04  0.7818609E-02  0.8440088E-01
       -1   -1    0    0    0  501  0.00000000000E+00  0.00000000000E+00  0.18570241017E+04  0.18570241017E+04  0.50400001928E-02 0.  1.
        1   -1    0    0  501    0  0.00000000000E+00  0.00000000000E+00 -0.77442575871E+03  0.77442575873E+03  0.50400001928E-02 0. -1.
    10030    2    1    2    0    0  0.00000000000E+00  0.00000000000E+00  0.10825983430E+04  0.26314498604E+04  0.23984389081E+04 0.  0.
        5    1    3    3  502    0  0.89757928219E+03  0.54111149311E+03 -0.98119686172E+02  0.10526631838E+04  0.46999998093E+01 0. -1.
       -5    1    3    3    0  502 -0.89757928219E+03 -0.54111149311E+03  0.11807180291E+04  0.15787866766E+04  0.46999998093E+01 0.  1.
</event>
<event>
 5   0  0.3234750E-05  0.2353113E+04  0.7818609E-02  0.8457269E-01
        3   -1    0    0  501    0  0.00000000000E+00  0.00000000000E+00  0.20199175779E+04  0.20199175804E+04  0.10100000352E+00 0. -1.
       -3   -1    0    0    0  501  0.00000000000E+00  0.00000000000E+00 -0.68531788868E+03  0.68531789612E+03  0.10100000352E+00 0.  1.
    10030    2    1    2    0    0  0.00000000000E+00  0.00000000000E+00  0.13345996892E+04  0.27052354766E+04  0.23531133957E+04 0.  0.
        3    1    3    3  502    0 -0.11233220442E+04  0.34809356262E+03  0.62642514114E+03  0.13324526299E+04  0.10100000352E+00 0.  1.
       -3    1    3    3    0  502  0.11233220442E+04 -0.34809356262E+03  0.70817454810E+03  0.13727828467E+04  0.10100000352E+00 0. -1.
</event>
<event>
 5   0  0.9182865E-05  0.2385397E+04  0.7818609E-02  0.8444991E-01
       -2   -1    0    0    0  501  0.00000000000E+00  0.00000000000E+00  0.11123816385E+04  0.11123816385E+04  0.25500000920E-02 0.  1.
        2   -1    0    0  501    0  0.00000000000E+00  0.00000000000E+00 -0.12788141406E+04  0.12788141406E+04  0.25500000920E-02 0. -1.
    10030    2    1    2    0    0  0.00000000000E+00  0.00000000000E+00 -0.16643250208E+03  0.23911957792E+04  0.23853967126E+04 0.  0.
        3    1    3    3  502    0 -0.26929437027E+03  0.11552467857E+04 -0.20767429656E+03  0.12042604441E+04  0.10100000352E+00 0. -1.
       -3    1    3    3    0  502  0.26929437027E+03 -0.11552467857E+04  0.41241794475E+02  0.11869353350E+04  0.10100000352E+00 0.  1.
</event>
<event>
 5   0  0.4018942E-05  0.2469675E+04  0.7818609E-02  0.8413869E-01
        1   -1    0    0  501    0  0.00000000000E+00  0.00000000000E+00  0.19322392335E+04  0.19322392335E+04  0.50400001928E-02 0.  1.
       -1   -1    0    0    0  501  0.00000000000E+00  0.00000000000E+00 -0.78914860007E+03  0.78914860009E+03  0.50400001928E-02 0. -1.
    10030    2    1    2    0    0  0.00000000000E+00  0.00000000000E+00  0.11430906335E+04  0.27213878336E+04  0.24696751901E+04 0.  0.
        5    1    3    3  502    0  0.75544791513E+03 -0.87213616305E+03  0.10562388707E+04  0.15642843992E+04  0.46999998093E+01 0.  1.
       -5    1    3    3    0  502 -0.75544791513E+03  0.87213616305E+03  0.86851762725E+02  0.11571034345E+04  0.46999998093E+01 0. -1.
</event>
<event>
 5   0  0.4018942E-05  0.2445020E+04  0.7818609E-02  0.8422839E-01
        1   -1    0    0  501    0  0.00000000000E+00  0.00000000000E+00  0.18656322669E+04  0.18656322669E+04  0.50400001928E-02 0.  1.
       -1   -1    0    0    0  501  0.00000000000E+00  0.00000000000E+00 -0.80108528886E+03  0.80108528888E+03  0.50400001928E-02 0. -1.
    10030    2    1    2    0    0  0.00000000000E+00  0.00000000000E+00  0.10645469781E+04  0.26667175558E+04  0.24450198883E+04 0.  0.
        5    1    3    3  502    0  0.27507895008E+02  0.35060952934E+03 -0.74471091126E+03  0.82358979941E+03  0.46999998093E+01 0. -1.
       -5    1    3    3    0  502 -0.27507895008E+02 -0.35060952934E+03  0.18092578893E+04  0.18431277564E+04  0.46999998093E+01 0.  1.
</event>
<event>
 5   0  0.9182865E-05  0.2384848E+04  0.7818609E-02  0.8445198E-01
       -2   -1    0    0    0  501  0.00000000000E+00  0.00000000000E+00  0.70596800478E+03  0.70596800478E+03  0.25500000920E-02 0. -1.
        2   -1    0    0  501    0  0.00000000000E+00  0.00000000000E+00 -0.20140781588E+04  0.20140781588E+04  0.25500000920E-02 0.  1.
    10030    2    1    2    0    0  0.00000000000E+00  0.00000000000E+00 -0.13081101541E+04  0.27200461636E+04  0.23848477849E+04 0.  0.
        3    1    3    3  502    0 -0.32577779307E+02 -0.97948963171E+03  0.12069343038E+03  0.98743514454E+03  0.10100000352E+00 0. -1.
       -3    1    3    3    0  502  0.32577779307E+02  0.97948963171E+03 -0.14288035844E+04  0.17326110191E+04  0.10100000352E+00 0.  1.
</event>
<event>
 5   0  0.9144244E-05  0.2661389E+04  0.7818609E-02  0.8347643E-01
        2   -1    0    0  501    0  0.00000000000E+00  0.00000000000E+00  0.17665618291E+04  0.17665618291E+04  0.25500000920E-02 0.  1.
       -2   -1    0    0    0  501  0.00000000000E+00  0.00000000000E+00 -0.10023692202E+04  0.10023692203E+04  0.25500000920E-02 0. -1.
    10030    2    1    2    0    0  0.00000000000E+00  0.00000000000E+00  0.76419260889E+03  0.27689310494E+04  0.26613885122E+04 0.  0.
        1    1    3    3  502    0  0.35824063701E+03 -0.93105122307E+03  0.12983379249E+04  0.16373375037E+04  0.50400001928E-02 0.  1.
       -1    1    3    3    0  502 -0.35824063701E+03  0.93105122307E+03 -0.53414531596E+03  0.11315935457E+04  0.50400001928E-02 0. -1.
</event>
<event>
 5   0  0.9519092E-05  0.2204684E+04  0.7818609E-02  0.8516481E-01
        2   -1    0    0  501    0  0.00000000000E+00  0.00000000000E+00  0.16638180699E+04  0.16638180699E+04  0.25500000920E-02 0.  1.
       -2   -1    0    0    0  501  0.00000000000E+00  0.00000000000E+00 -0.73034308537E+03  0.73034308537E+03  0.25500000920E-02 0. -1.
    10030    2    1    2    0    0  0.00000000000E+00  0.00000000000E+00  0.93347498453E+03  0.23941611553E+04  0.22046841249E+04 0.  0.
        4    1    3    3  502    0  0.10255441704E+04  0.25382564466E+03  0.12507404886E+03  0.10638672069E+04  0.12699999809E+01 0. -1.
       -4    1    3    3    0  502 -0.10255441704E+04 -0.25382564466E+03  0.80840093568E+03  0.13302939484E+04  0.12699999809E+01 0.  1.
</event>
<event>
 5   0  0.3934906E-05  0.2371439E+04  0.7818609E-02  0.8450274E-01
       -1   -1    0    0    0  501  0.00000000000E+00  0.00000000000E+00  0.11355750273E+04  0.11355750273E+04  0.50400001928E-02 0.  1.
        1   -1    0    0  501    0  0.00000000000E+00  0.00000000000E+00 -0.12380783077E+04  0.12380783077E+04  0.50400001928E-02 0. -1.
    10030    2    1    2    0    0  0.00000000000E+00  0.00000000000E+00 -0.10250328037E+03  0.23736533350E+04  0.23714390636E+04 0.  0.
        2    1    3    3  502    0  0.49372925839E+02  0.11084161236E+04 -0.46986076742E+03  0.12049037844E+04  0.25500000920E-02 0. -1.
       -2    1    3    3    0  502 -0.49372925839E+02 -0.11084161236E+04  0.36735748705E+03  0.11687495506E+04  0.25500000920E-02 0.  1.
</event>
<event>
 5   0  0.9491680E-05  0.2282844E+04  0.7818609E-02  0.8484716E-01
       -2   -1    0    0    0  501  0.00000000000E+00  0.00000000000E+00  0.11962481050E+04  0.11962481050E+04  0.25500000920E-02 0.  1.
        2   -1    0    0  501    0  0.00000000000E+00  0.00000000000E+00 -0.10891085760E+04  0.10891085760E+04  0.25500000920E-02 0. -1.
    10030    2    1    2    0    0  0.00000000000E+00  0.00000000000E+00  0.10713952899E+03  0.22853566810E+04  0.22828439020E+04 0.  0.
        5    1    3    3  502    0 -0.10672805930E+04 -0.23299818216E+03  0.38476009510E+03  0.11582048342E+04  0.46999998093E+01 0.  1.
       -5    1    3    3    0  502  0.10672805930E+04  0.23299818216E+03 -0.27762056611E+03  0.11271518469E+04  0.46999998093E+01 0. -1.
</event>
<event>
 5   0  0.4260395E-05  0.2400005E+04  0.7818609E-02  0.8439502E-01
       -1   -1    0    0    0  501  0.00000000000E+00  0.00000000000E+00  0.92157194178E+03  0.92157194179E+03  0.50400001928E-02 0.  1.
        1   -1    0    0  501    0  0.00000000000E+00  0.00000000000E+00 -0.15625538958E+04  0.15625538958E+04  0.50400001928E-02 0. -1.
    10030    2    1    2    0    0  0.00000000000E+00  0.00000000000E+00 -0.64098195405E+03  0.24841258376E+04  0.24000048566E+04 0.  0.
        4    1    3    3  502    0  0.23939662752E+03 -0.82531610549E+03 -0.11874324795E+04  0.14657608692E+04  0.12699999809E+01 0. -1.
       -4    1    3    3    0  502 -0.23939662752E+03  0.82531610549E+03  0.54645052550E+03  0.10183649684E+04  0.12699999809E+01 0.  1.
</event>
<event>
 5   0  0.9144244E-05  0.2412761E+04  0.7818609E-02  0.8434741E-01
        2   -1    0    0  501    0  0.00000000000E+00  0.00000000000E+00  0.15987849360E+04  0.15987849360E+04  0.25500000920E-02 0.  1.
       -2   -1    0    0    0  501  0.00000000000E+00  0.00000000000E+00 -0.91028756353E+03  0.91028756353E+03  0.25500000920E-02 0. -1.
    10030    2    1    2    0    0  0.00000000000E+00  0.00000000000E+00  0.68849737248E+03  0.25090724996E+04  0.24127611104E+04 0.  0.
        1    1    3    3  502    0 -0.47862215879E+03  0.90492130758E+03  0.10079998484E+04  0.14366716529E+04  0.50400001928E-02 0.  1.
       -1    1    3    3    0  502  0.47862215879E+03 -0.90492130758E+03 -0.31950247592E+03  0.10724008467E+04  0.50400001928E-02 0. -1.
</event>
<event>
 5   0  0.3234750E-05  0.1661079E+04  0.7818609E-02  0.8783879E-01
       -4   -1    0    0    0  501  0.00000000000E+00  0.00000000000E+00  0.52109501024E+03  0.52109655784E+03  0.12699999809E+01 0. -1.
        4   -1    0    0  501    0  0.00000000000E+00  0.00000000000E+00 -0.13237396584E+04  0.13237402676E+04  0.12699999809E+01 0.  1.
    10030    2    1    2    0    0  0.00000000000E+00  0.00000000000E+00 -0.80264464812E+03  0.18448368254E+04  0.16610793122E+04 0.  0.
        2    1    3    3  502    0 -0.53473961895E+03 -0.62487017494E+03 -0.27282088236E+03  0.86651049010E+03  0.25500000920E-02 0. -1.
       -2    1    3    3    0  502  0.53473961895E+03  0.62487017494E+03 -0.52982376576E+03  0.97832633532E+03  0.25500000920E-02 0.  1.
</event>
<event>
 5   0  0.9750757E-05  0.2410891E+04  0.7818609E-02  0.8435437E-01
       -2   -1    0    0    0  501  0.00000000000E+00  0.00000000000E+00  0.87470578728E+03  0.87470578729E+03  0.25500000920E-02 0.  1.
        2   -1    0    0  501    0  0.00000000000E+00  0.00000000000E+00 -0.16612425329E+04  0.16612425329E+04  0.25500000920E-02 0. -1.
    10030    2    1    2    0    0  0.00000000000E+00  0.00000000000E+00 -0.78653674558E+03  0.25359483201E+04  0.24108906716E+04 0.  0.
        2    1    3    3  502    0 -0.14945336997E+03  0.11695734192E+04 -0.65699297133E+03  0.13497696311E+04  0.25500000920E-02 0. -1.
       -2    1    3    3    0  502  0.14945336997E+03 -0.11695734192E+04 -0.12954377424E+03  0.11861786890E+04  0.25500000920E-02 0.  1.
</event>
<event>
 5   0  0.4208577E-05  0.1333117E+04  0.7818609E-02  0.9003708E-01
       -1   -1    0    0    0  501  0.00000000000E+00  0.00000000000E+00  0.11143344549E+04  0.11143344550E+04  0.50400001928E-02 0.  1.
        1   -1    0    0  501    0  0.00000000000E+00  0.00000000000E+00 -0.39871350729E+03  0.39871350733E+03  0.50400001928E-02 0. -1.
    10030    2    1    2    0    0  0.00000000000E+00  0.00000000000E+00  0.71562094765E+03  0.15130479623E+04  0.13331169474E+04 0.  0.
        1    1    3    3  502    0  0.18294338640E+02  0.18431887354E+03 -0.36891799455E+03  0.41280578569E+03  0.50400001928E-02 0. -1.
       -1    1    3    3    0  502 -0.18294338640E+02 -0.18431887354E+03  0.10845389422E+04  0.11002421766E+04  0.50400001928E-02 0.  1.
</event>
<event>
 5   0  0.4260395E-05  0.2439296E+04  0.7818609E-02  0.8424936E-01
        1   -1    0    0  501    0  0.00000000000E+00  0.00000000000E+00  0.23992979184E+04  0.23992979184E+04  0.50400001928E-02 0.  1.
       -1   -1    0    0    0  501  0.00000000000E+00  0.00000000000E+00 -0.61999034093E+03  0.61999034095E+03  0.50400001928E-02 0. -1.
    10030    2    1    2    0    0  0.00000000000E+00  0.00000000000E+00  0.17793075775E+04  0.30192882593E+04  0.24392962382E+04 0.  0.
        4    1    3    3  502    0  0.15538673144E+03 -0.88225915186E+03 -0.13479358321E+03  0.90592337994E+03  0.12699999809E+01 0. -1.
       -4    1    3    3    0  502 -0.15538673144E+03  0.88225915186E+03  0.19141011607E+04  0.21133648794E+04  0.12699999809E+01 0.  1.
</event>
<event>
 5   0  0.9750757E-05  0.2335827E+04  0.7818609E-02  0.8463927E-01
        2   -1    0    0  501    0  0.00000000000E+00  0.00000000000E+00  0.15753843479E+04  0.15753843479E+04  0.25500000920E-02 0. -1.
       -2   -1    0    0    0  501  0.00000000000E+00  0.00000000000E+00 -0.86583463770E+03  0.86583463770E+03  0.25500000920E-02 0.  1.
    10030    2    1    2    0    0  0.00000000000E+00  0.00000000000E+00  0.70954971020E+03  0.24412189856E+04  0.23358273362E+04 0.  0.
        2    1    3    3  502    0  0.94145897552E+03  0.10267041337E+03  0.10690864942E+04  0.14282269247E+04  0.25500000920E-02 0. -1.
       -2    1    3    3    0  502 -0.94145897552E+03 -0.10267041337E+03 -0.35953678401E+03  0.10129920609E+04  0.25500000920E-02 0.  1.
</event>
<event>
 5   0  0.9491680E-05  0.2345844E+04  0.7818609E-02  0.8460062E-01
       -2   -1    0    0    0  501  0.00000000000E+00  0.00000000000E+00  0.12578679408E+04  0.12578679408E+04  0.25500000920E-02 0. -1.
        2   -1    0    0  501    0  0.00000000000E+00  0.00000000000E+00 -0.10937123577E+04  0.10937123577E+04  0.25500000920E-02 0.  1.
    10030    2    1    2    0    0  0.00000000000E+00  0.00000000000E+00  0.16415558315E+03  0.23515802985E+04  0.23458437384E+04 0.  0.
        5    1    3    3  502    0  0.81718502036E+03  0.83063985861E+03  0.21645667071E+03  0.11851706681E+04  0.46999998093E+01 0. -1.
       -5    1    3    3    0  502 -0.81718502036E+03 -0.83063985861E+03 -0.52301087557E+02  0.11664096304E+04  0.46999998093E+01 0.  1.
</event>
<event>
 5   0  0.4208577E-05  0.1770465E+04  0.7818609E-02  0.8722166E-01
        1   -1    0    0  501    0  0.00000000000E+00  0.00000000000E+00  0.14495152461E+04  0.14495152461E+04  0.50400001928E-02 0. -1.
       -1   -1    0    0    0  501  0.00000000000E+00  0.00000000000E+00 -0.54061953387E+03  0.54061953390E+03  0.50400001928E-02 0.  1.
    10030    2    1    2    0    0  0.00000000000E+00  0.00000000000E+00  0.90889571223E+03  0.19901347800E+04  0.17704646359E+04 0.  0.
        1    1    3    3  502    0  0.76978927315E+02 -0.70361476449E+03  0.10520464401E+04  0.12679910111E+04  0.50400001928E-02 0. -1.
       -1    1    3    3    0  502 -0.76978927315E+02  0.70361476449E+03 -0.14315072788E+03  0.72214376891E+03  0.50400001928E-02 0.  1.
</event>
<event>
 5   0  0.3934906E-05  0.2135716E+04  0.7818609E-02  0.8545671E-01
        1   -1    0    0  501    0  0.00000000000E+00  0.00000000000E+00  0.17568487568E+04  0.17568487568E+04  0.50400001928E-02 0. -1.
       -1   -1    0    0    0  501  0.00000000000E+00  0.00000000000E+00 -0.64907166352E+03  0.64907166354E+03  0.50400001928E-02 0.  1.
    10030    2    1    2    0    0  0.00000000000E+00  0.00000000000E+00  0.11077770932E+04  0.24059204203E+04  0.21357160346E+04 0.  0.
        2    1    3    3  502    0 -0.46459296357E+03 -0.85543708367E+03  0.10484045142E+04  0.14306541341E+04  0.25500000920E-02 0. -1.
       -2    1    3    3    0  502  0.46459296357E+03  0.85543708367E+03  0.59372579033E+02  0.97526628623E+03  0.25500000920E-02 0.  1.
</event>
<event>
 5   0  0.9519092E-05  0.2533814E+04  0.7818609E-02  0.8391037E-01
       -2   -1    0    0    0  501  0.00000000000E+00  0.00000000000E+00  0.11585776689E+04  0.11585776690E+04  0.25500000920E-02 0.  1.
        2   -1    0    0  501    0  0.00000000000E+00  0.00000000000E+00 -0.13853651771E+04  0.13853651771E+04  0.25500000920E-02 0. -1.
    10030    2    1    2    0    0  0.00000000000E+00  0.00000000000E+00 -0.22678750819E+03  0.25439428461E+04  0.25338138508E+04 0.  0.
        4    1    3    3  502    0  0.11484215272E+04  0.52005681196E+03  0.12488690961E+02  0.12607492503E+04  0.12699999809E+01 0. -1.
       -4    1    3    3    0  502 -0.11484215272E+04 -0.52005681196E+03 -0.23927619915E+03  0.12831935958E+04  0.12699999809E+01 0.  1.
</event>
<event>
 5   0  0.3234750E-05  0.2393888E+04  0.7818609E-02  0.8441796E-01
        3   -1    0    0  501    0  0.00000000000E+00  0.00000000000E+00  0.14672066570E+04  0.14672066605E+04  0.10100000352E+00 0. -1.
       -3   -1    0    0    0  501  0.00000000000E+00  0.00000000000E+00 -0.97646390909E+03  0.97646391432E+03  0.10100000352E+00 0.  1.
    10030    2    1    2    0    0  0.00000000000E+00  0.00000000000E+00  0.49074274790E+03  0.24436705748E+04  0.23938875148E+04 0.  0.
        4    1    3    3  502    0  0.32986198024E+03  0.11360748821E+04  0.59380001940E+02  0.11844841330E+04  0.12699999809E+01 0. -1.
       -4    1    3    3    0  502 -0.32986198024E+03 -0.11360748821E+04  0.43136274596E+03  0.12591864418E+04  0.12699999809E+01 0.  1.
</event>
<event>
 5   0  0.9519092E-05  0.2423847E+04  0.7818609E-02  0.8430629E-01
        2   -1    0    0  501    0  0.00000000000E+00  0.00000000000E+00  0.24233543470E+04  0.24233543470E+04  0.25500000920E-02 0.  1.
       -2   -1    0    0    0  501  0.00000000000E+00  0.00000000000E+00 -0.60608476465E+03  0.60608476466E+03  0.25500000920E-02 0. -1.
    10030    2    1    2    0    0  0.00000000000E+00  0.00000000000E+00  0.18172695823E+04  0.30294391116E+04  0.24238466528E+04 0.  0.
        4    1    3    3  502    0 -0.98206150065E+03  0.60823710430E+03  0.13667672548E+04  0.17895394681E+04  0.12699999809E+01 0.  1.
       -4    1    3    3    0  502  0.98206150065E+03 -0.60823710430E+03  0.45050232752E+03  0.12398996436E+04  0.12699999809E+01 0. -1.
</event>
<event>
 5   0  0.9519092E-05  0.1190938E+04  0.7818609E-02  0.9120826E-01
        2   -1    0    0  501    0  0.00000000000E+00  0.00000000000E+00  0.19861672648E+04  0.19861672648E+04  0.25500000920E-02 0.  1.
       -2   -1    0    0    0  501  0.00000000000E+00  0.00000000000E+00 -0.17852641751E+03  0.17852641753E+03  0.25500000920E-02 0. -1.
    10030    2    1    2    0    0  0.00000000000E+00  0.00000000000E+00  0.18076408472E+04  0.21646936823E+04  0.11909379940E+04 0.  0.
        4    1    3    3  502    0 -0.22259033582E+03 -0.47594234037E+03  0.39451154097E+03  0.65704530880E+03  0.12699999809E+01 0. -1.
       -4    1    3    3    0  502  0.22259033582E+03  0.47594234037E+03  0.14131293063E+04  0.15076483735E+04  0.12699999809E+01 0.  1.
</event>
<event>
 5   0  0.9182865E-05  0.2403358E+04  0.7818609E-02  0.8438247E-01
       -2   -1    0    0    0  501  0.00000000000E+00  0.00000000000E+00  0.16761986089E+04  0.16761986089E+04  0.25500000920E-02 0. -1.
        2   -1    0    0  501    0  0.00000000000E+00  0.00000000000E+00 -0.86149242203E+03  0.86149242204E+03  0.25500000920E-02 0.  1.
    10030    2    1    2    0    0  0.00000000000E+00  0.00000000000E+00  0.81470618682E+03  0.25376910309E+04  0.24033579836E+04 0.  0.
        3    1    3    3  502    0  0.10884551780E+04 -0.47839504719E+03  0.59156313808E+03  0.13279847334E+04  0.10100000352E+00 0.  1.
       -3    1    3    3    0  502 -0.10884551780E+04  0.47839504719E+03  0.22314304874E+03  0.12097062975E+04  0.10100000352E+00 0. -1.
</event>
<event>
 5   0  0.3934906E-05  0.2266402E+04  0.7818609E-02  0.8491287E-01
        1   -1    0    0  501    0  0.00000000000E+00  0.00000000000E+00  0.17559461653E+04  0.17559461653E+04  0.50400001928E-02 0. -1.
       -1   -1    0    0    0  501  0.00000000000E+00  0.00000000000E+00 -0.73131177380E+03  0.73131177382E+03  0.50400001928E-02 0.  1.
    10030    2    1    2    0    0  0.00000000000E+00  0.00000000000E+00  0.10246343915E+04  0.24872579391E+04  0.22664016457E+04 0.  0.
        2    1    3    3  502    0  0.10618307028E+04  0.28635808667E+03  0.81218109809E+03  0.13671589269E+04  0.25500000920E-02 0. -1.
       -2    1    3    3    0  502 -0.10618307028E+04 -0.28635808667E+03  0.21245329343E+03  0.11200990122E+04  0.25500000920E-02 0.  1.
</event>
<event>
 5   0  0.4208577E-05  0.2434042E+04  0.7818609E-02  0.8426868E-01
       -1   -1    0    0    0  501  0.00000000000E+00  0.00000000000E+00  0.10343199031E+04  0.10343199031E+04  0.50400001928E-02 0.  1.
        1   -1    0    0  501    0  0.00000000000E+00  0.00000000000E+00 -0.14319938200E+04  0.14319938200E+04  0.50400001928E-02 0. -1.
    10030    2    1    2    0    0  0.00000000000E+00  0.00000000000E+00 -0.39767391687E+03  0.24663137231E+04  0.24340416670E+04 0.  0.
        1    1    3    3  502    0 -0.48683634773E+03 -0.34656218531E+03  0.87542017073E+03  0.10599412498E+04  0.50400001928E-02 0.  1.
       -1    1    3    3    0  502  0.48683634773E+03  0.34656218531E+03 -0.12730940876E+04  0.14063724733E+04  0.50400001928E-02 0. -1.
</event>
<event>
 5   0  0.4018942E-05  0.2466645E+04  0.7818609E-02  0.8414966E-01
       -1   -1    0    0    0  501  0.00000000000E+00  0.00000000000E+00  0.79213580167E+03  0.79213580168E+03  0.50400001928E-02 0.  1.
        1   -1    0    0  501    0  0.00000000000E+00  0.00000000000E+00 -0.19202314528E+04  0.19202314528E+04  0.50400001928E-02 0. -1.
    10030    2    1    2    0    0  0.00000000000E+00  0.00000000000E+00 -0.11280956512E+04  0.27123672545E+04  0.24666447505E+04 0.  0.
        5    1    3    3  502    0  0.48548452406E+03  0.11300360953E+04 -0.66474061646E+03  0.13980625798E+04  0.46999998093E+01 0. -1.
       -5    1    3    3    0  502 -0.48548452406E+03 -0.11300360953E+04 -0.46335503469E+03  0.13143046747E+04  0.46999998093E+01 0.  1.
</event>
<event>
 5   0  0.9144244E-05  0.2387052E+04  0.7818609E-02  0.8444367E-01
        2   -1    0    0  501    0  0.00000000000E+00  0.00000000000E+00  0.17777242327E+04  0.17777242327E+04  0.25500000920E-02 0. -1.
       -2   -1    0    0    0  501  0.00000000000E+00  0.00000000000E+00 -0.80130762950E+03  0.80130762950E+03  0.25500000920E-02 0.  1.
    10030    2    1    2    0    0  0.00000000000E+00  0.00000000000E+00  0.97641660317E+03  0.25790318622E+04  0.23870517303E+04 0.  0.
        1    1    3    3  502    0  0.15014881200E+03  0.55251759932E+03 -0.64324219329E+03  0.86115090580E+03  0.50400001928E-02 0.  1.
       -1    1    3    3    0  502 -0.15014881200E+03 -0.55251759932E+03  0.16196587965E+04  0.17178809564E+04  0.50400001928E-02 0. -1.
</event>
<event>
 5   0  0.9491680E-05  0.2466682E+04  0.7818609E-02  0.8414952E-01
        2   -1    0    0  501    0  0.00000000000E+00  0.00000000000E+00  0.12946546830E+04  0.12946546830E+04  0.25500000920E-02 0.  1.
       -2   -1    0    0    0  501  0.00000000000E+00  0.00000000000E+00 -0.11749310404E+04  0.11749310404E+04  0.25500000920E-02 0. -1.
    10030    2    1    2    0    0  0.00000000000E+00  0.00000000000E+00  0.11972364257E+03  0.24695857234E+04  0.24666819606E+04 0.  0.
        5    1    3    3  502    0 -0.63705603532E+03  0.21486954225E+03  0.10950512365E+04  0.12849780593E+04  0.46999998093E+01 0.  1.
       -5    1    3    3    0  502  0.63705603532E+03 -0.21486954225E+03 -0.97532759394E+03  0.11846076641E+04  0.46999998093E+01 0. -1.
</event>
<event>
 5   0  0.9519092E-05  0.2390677E+04  0.7818609E-02  0.8443002E-01
       -2   -1    0    0    0  501  0.00000000000E+00  0.00000000000E+00  0.87959522666E+03  0.87959522667E+03  0.25500000920E-02 0.  1.
        2   -1    0    0  501    0  0.00000000000E+00  0.00000000000E+00 -0.16244221776E+04  0.16244221776E+04  0.25500000920E-02 0. -1.
    10030    2    1    2    0    0  0.00000000000E+00  0.00000000000E+00 -0.74482695092E+03  0.25040174042E+04  0.23906768861E+04 0.  0.
        4    1    3    3  502    0  0.11294916810E+04  0.36883069714E+03 -0.50915893804E+03  0.12926840208E+04  0.12699999809E+01 0. -1.
       -4    1    3    3    0  502 -0.11294916810E+04 -0.36883069714E+03 -0.23566801288E+03  0.12113333834E+04  0.12699999809E+01 0.  1.
</event>
<event>
 5   0  0.4018942E-05  0.2430225E+04  0.7818609E-02  0.8428274E-01
       -1   -1    0    0    0  501  0.00000000000E+00  0.00000000000E+00  0.96950971688E+03  0.96950971689E+03  0.50400001928E-02 0.  1.
        1   -1    0    0  501    0  0.00000000000E+00  0.00000000000E+00 -0.15229330618E+04  0.15229330618E+04  0.50400001928E-02 0. -1.
    10030    2    1    2    0    0  0.00000000000E+00  0.00000000000E+00 -0.55342334488E+03  0.24924427787E+04  0.24302250114E+04 0.  0.
        5    1    3    3  502    0  0.80309232423E+02 -0.81031853969E+03  0.64827105906E+03  0.10408377225E+04  0.46999998093E+01 0.  1.
       -5    1    3    3    0  502 -0.80309232423E+02  0.81031853969E+03 -0.12016944039E+04  0.14516050561E+04  0.46999998093E+01 0. -1.
</event>
<event>
 5   0  0.4061631E-05  0.2374663E+04  0.7818609E-02  0.8449051E-01
        1   -1    0    0  501    0  0.00000000000E+00  0.00000000000E+00  0.18342112898E+04  0.18342112898E+04  0.50400001928E-02 0. -1.
       -1   -1    0    0    0  501  0.00000000000E+00  0.00000000000E+00 -0.76858988894E+03  0.76858988895E+03  0.50400001928E-02 0.  1.
    10030    2    1    2    0    0  0.00000000000E+00  0.00000000000E+00  0.10656214009E+04  0.26028011788E+04  0.23746631353E+04 0.  0.
        3    1    3    3  502    0 -0.61905228607E+03  0.98194952541E+03  0.80640223691E+03  0.14134126012E+04  0.10100000352E+00 0. -1.
       -3    1    3    3    0  502  0.61905228607E+03 -0.98194952541E+03  0.25921916399E+03  0.11893885776E+04  0.10100000352E+00 0.  1.
</event>
<event>
 5   0  0.3934906E-05  0.2407739E+04  0.7818609E-02  0.8436612E-01
       -1   -1    0    0    0  501  0.00000000000E+00  0.00000000000E+00  0.14102835691E+04  0.14102835691E+04  0.50400001928E-02 0. -1.
        1   -1    0    0  501    0  0.00000000000E+00  0.00000000000E+00 -0.10276667797E+04  0.10276667797E+04  0.50400001928E-02 0.  1.
    10030    2    1    2    0    0  0.00000000000E+00  0.00000000000E+00  0.38261678940E+03  0.24379503488E+04  0.24077388346E+04 0.  0.
        2    1    3    3  502    0 -0.70614998828E+03 -0.96946333201E+03  0.86107586872E+02  0.12024647498E+04  0.25500000920E-02 0.  1.
       -2    1    3    3    0  502  0.70614998828E+03  0.96946333201E+03  0.29650920253E+03  0.12354855990E+04  0.25500000920E-02 0. -1.
</event>
<event>
 5   0  0.3934906E-05  0.2429748E+04  0.7818609E-02  0.8428450E-01
        1   -1    0    0  501    0  0.00000000000E+00  0.00000000000E+00  0.11416628182E+04  0.11416628182E+04  0.50400001928E-02 0.  1.
       -1   -1    0    0    0  501  0.00000000000E+00  0.00000000000E+00 -0.12927797041E+04  0.12927797041E+04  0.50400001928E-02 0. -1.
    10030    2    1    2    0    0  0.00000000000E+00  0.00000000000E+00 -0.15111688591E+03  0.24344425222E+04  0.24297477402E+04 0.  0.
        2    1    3    3  502    0  0.95516433435E+02 -0.11011849104E+04 -0.58070214335E+03  0.12485778211E+04  0.25500000920E-02 0. -1.
       -2    1    3    3    0  502 -0.95516433435E+02  0.11011849104E+04  0.42958525744E+03  0.11858647011E+04  0.25500000920E-02 0.  1.
</event>
<event>
 5   0  0.4018942E-05  0.2394518E+04  0.7818609E-02  0.8441559E-01
       -1   -1    0    0    0  501  0.00000000000E+00  0.00000000000E+00  0.77708557419E+03  0.77708557420E+03  0.50400001928E-02 0.  1.
        1   -1    0    0  501    0  0.00000000000E+00  0.00000000000E+00 -0.18446215126E+04  0.18446215126E+04  0.50400001928E-02 0. -1.
    10030    2    1    2    0    0  0.00000000000E+00  0.00000000000E+00 -0.10675359384E+04  0.26217070868E+04  0.23945177112E+04 0.  0.
        5    1    3    3  502    0  0.29941915133E+03 -0.30451023392E+03  0.69084736431E+03  0.81220101054E+03  0.46999998093E+01 0.  1.
       -5    1    3    3    0  502 -0.29941915133E+03  0.30451023392E+03 -0.17583833028E+04  0.18095060763E+04  0.46999998093E+01 0. -1.
</event>
<event>
 5   0  0.9144244E-05  0.2412332E+04  0.7818609E-02  0.8434901E-01
        2   -1    0    0  501    0  0.00000000000E+00  0.00000000000E+00  0.12469802092E+04  0.12469802092E+04  0.25500000920E-02 0. -1.
       -2   -1    0    0    0  501  0.00000000000E+00  0.00000000000E+00 -0.11666875426E+04  0.11666875426E+04  0.25500000920E-02 0.  1.
    10030    2    1    2    0    0  0.00000000000E+00  0.00000000000E+00  0.80292666570E+02  0.24136677518E+04  0.24123318810E+04 0.  0.
        1    1    3    3  502    0 -0.11568533699E+04  0.33246683011E+03  0.11759955731E+03  0.12094104219E+04  0.50400001928E-02 0. -1.
       -1    1    3    3    0  502  0.11568533699E+04 -0.33246683011E+03 -0.37306890739E+02  0.12042573300E+04  0.50400001928E-02 0.  1.
</event>
<event>
 5   0  0.4260395E-05  0.2871291E+04  0.7818609E-02  0.8281471E-01
       -1   -1    0    0    0  501  0.00000000000E+00  0.00000000000E+00  0.12488402684E+04  0.12488402684E+04  0.50400001928E-02 0. -1.
        1   -1    0    0  501    0  0.00000000000E+00  0.00000000000E+00 -0.16503930423E+04  0.16503930423E+04  0.50400001928E-02 0.  1.
    10030    2    1    2    0    0  0.00000000000E+00  0.00000000000E+00 -0.40155277388E+03  0.28992333107E+04  0.28712905042E+04 0.  0.
        4    1    3    3  502    0 -0.10735137826E+04  0.85849652114E+03 -0.61908763603E+03  0.15075540562E+04  0.12699999809E+01 0.  1.
       -4    1    3    3    0  502  0.10735137826E+04 -0.85849652114E+03  0.21753486215E+03  0.13916792545E+04  0.12699999809E+01 0. -1.
</event>
<event>
 5   0  0.4208577E-05  0.2441601E+04  0.7818609E-02  0.8424091E-01
       -1   -1    0    0    0  501  0.00000000000E+00  0.00000000000E+00  0.84360852796E+03  0.84360852798E+03  0.50400001928E-02 0. -1.
        1   -1    0    0  501    0  0.00000000000E+00  0.00000000000E+00 -0.17666414555E+04  0.17666414555E+04  0.50400001928E-02 0.  1.
    10030    2    1    2    0    0  0.00000000000E+00  0.00000000000E+00 -0.92303292751E+03  0.26102499835E+04  0.24416009483E+04 0.  0.
        1    1    3    3  502    0  0.10644873322E+04  0.35789297045E+03 -0.97325882538E+03  0.14860866058E+04  0.50400001928E-02 0. -1.
       -1    1    3    3    0  502 -0.10644873322E+04 -0.35789297045E+03  0.50225897865E+02  0.11241633776E+04  0.50400001928E-02 0.  1.
</event>
<event>
 5   0  0.9519092E-05  0.2394653E+04  0.7818609E-02  0.8441508E-01
       -2   -1    0    0    0  501  0.00000000000E+00  0.00000000000E+00  0.98868422172E+03  0.98868422173E+03  0.25500000920E-02 0. -1.
        2   -1    0    0  501    0  0.00000000000E+00  0.00000000000E+00 -0.14499991544E+04  0.14499991544E+04  0.25500000920E-02 0.  1.
    10030    2    1    2    0    0  0.00000000000E+00  0.00000000000E+00 -0.46131493263E+03  0.24386833761E+04  0.23946534492E+04 0.  0.
        4    1    3    3  502    0 -0.27900553401E+03  0.93419313016E+03  0.47712410387E+03  0.10854537834E+04  0.12699999809E+01 0. -1.
       -4    1    3    3    0  502  0.27900553401E+03 -0.93419313016E+03 -0.93843903650E+03  0.13532295927E+04  0.12699999809E+01 0.  1.
</event>
<event>
 5   0  0.4018942E-05  0.2391784E+04  0.7818609E-02  0.8442586E-01
       -1   -1    0    0    0  501  0.00000000000E+00  0.00000000000E+00  0.64035460551E+03  0.64035460553E+03  0.50400001928E-02 0. -1.
        1   -1    0    0  501    0  0.00000000000E+00  0.00000000000E+00 -0.22333836021E+04  0.22333836022E+04  0.50400001928E-02 0.  1.
    10030    2    1    2    0    0  0.00000000000E+00  0.00000000000E+00 -0.15930289966E+04  0.28737382077E+04  0.23917838327E+04 0.  0.
        5    1    3    3  502    0  0.30248558766E+03 -0.11485534598E+04 -0.62889366710E+03  0.13439501164E+04  0.46999998093E+01 0.  1.
       -5    1    3    3    0  502 -0.30248558766E+03  0.11485534598E+04 -0.96413532954E+03  0.15297880913E+04  0.46999998093E+01 0. -1.
</event>
<event>
 5   0  0.4018942E-05  0.2388700E+04  0.7818609E-02  0.8443746E-01
       -1   -1    0    0    0  501  0.00000000000E+00  0.00000000000E+00  0.10084431559E+04  0.10084431559E+04  0.50400001928E-02 0. -1.
        1   -1    0    0  501    0  0.00000000000E+00  0.00000000000E+00 -0.14145288625E+04  0.14145288625E+04  0.50400001928E-02 0.  1.
    10030    2    1    2    0    0  0.00000000000E+00  0.00000000000E+00 -0.40608570657E+03  0.24229720184E+04  0.23887000233E+04 0.  0.
        5    1    3    3  502    0 -0.72332253736E+03  0.86024092129E+03 -0.61286929717E+03  0.12801721764E+04  0.46999998093E+01 0.  1.
       -5    1    3    3    0  502  0.72332253736E+03 -0.86024092129E+03  0.20678359060E+03  0.11427998421E+04  0.46999998093E+01 0. -1.
</event>
<event>
 5   0  0.3934906E-05  0.2388506E+04  0.7818609E-02  0.8443819E-01
       -1   -1    0    0    0  501  0.00000000000E+00  0.00000000000E+00  0.97503589245E+03  0.97503589247E+03  0.50400001928E-02 0.  1.
        1   -1    0    0  501    0  0.00000000000E+00  0.00000000000E+00 -0.14627560928E+04  0.14627560929E+04  0.50400001928E-02 0. -1.
    10030    2    1    2    0    0  0.00000000000E+00  0.00000000000E+00 -0.48772020040E+03  0.24377919853E+04  0.23885055516E+04 0.  0.
        2    1    3    3  502    0  0.63086968632E+03 -0.10135429674E+04 -0.21201065746E+03  0.12125239902E+04  0.25500000920E-02 0.  1.
       -2    1    3    3    0  502 -0.63086968632E+03  0.10135429674E+04 -0.27570954294E+03  0.12252679952E+04  0.25500000920E-02 0. -1.
</event>
<event>
 5   0  0.9144244E-05  0.2263716E+04  0.7818609E-02  0.8492366E-01
        2   -1    0    0  501    0  0.00000000000E+00  0.00000000000E+00  0.18087275147E+04  0.18087275147E+04  0.25500000920E-02 0.  1.
       -2   -1    0    0    0  501  0.00000000000E+00  0.00000000000E+00 -0.70828919449E+03  0.70828919449E+03  0.25500000920E-02 0. -1.
    10030    2    1    2    0    0  0.00000000000E+00  0.00000000000E+00  0.11004383202E+04  0.25170167092E+04  0.22637156663E+04 0.  0.
        1    1    3    3  502    0  0.37188343031E+03  0.33856563278E+03  0.16776720754E+04  0.17514301488E+04  0.50400001928E-02 0.  1.
       -1    1    3    3    0  502 -0.37188343031E+03 -0.33856563278E+03 -0.57723375515E+03  0.76558656046E+03  0.50400001928E-02 0. -1.
</event>
<event>
 5   0  0.4260395E-05  0.2371244E+04  0.7818609E-02  0.8450349E-01
        1   -1    0    0  501    0  0.00000000000E+00  0.00000000000E+00  0.12111007651E+04  0.12111007651E+04  0.50400001928E-02 0.  1.
       -1   -1    0    0    0  501  0.00000000000E+00  0.00000000000E+00 -0.11606791826E+04  0.11606791827E+04  0.50400001928E-02 0. -1.
    10030    2    1    2    0    0  0.00000000000E+00  0.00000000000E+00  0.50421582462E+02  0.23717799478E+04  0.23712439319E+04 0.  0.
        4    1    3    3  502    0 -0.11581978889E+04  0.11678084266E+03  0.25028991955E+03  0.11906749228E+04  0.12699999809E+01 0.  1.
       -4    1    3    3    0  502  0.11581978889E+04 -0.11678084266E+03 -0.19986833709E+03  0.11811050250E+04  0.12699999809E+01 0. -1.
</event>
<event>
 5   0  0.9144244E-05  0.1759741E+04  0.7818609E-02  0.8728006E-01
       -2   -1    0    0    0  501  0.00000000000E+00  0.00000000000E+00  0.47018475544E+03  0.47018475545E+03  0.25500000920E-02 0. -1.
        2   -1    0    0  501    0  0.00000000000E+00  0.00000000000E+00 -0.16465282275E+04  0.16465282275E+04  0.25500000920E-02 0.  1.
    10030    2    1    2    0    0  0.00000000000E+00  0.00000000000E+00 -0.11763434721E+04  0.21167129830E+04  0.17597414264E+04 0.  0.
        1    1    3    3  502    0 -0.63783645487E+02 -0.76108402444E+03 -0.11136625687E+04  0.13503931141E+04  0.50400001928E-02 0.  1.
       -1    1    3    3    0  502  0.63783645487E+02  0.76108402444E+03 -0.62680903347E+02  0.76631986883E+03  0.50400001928E-02 0. -1.
</event>
<event>
 5   0  0.9182865E-05  0.1292160E+04  0.7818609E-02  0.9035806E-01
        2   -1    0    0  501    0  0.00000000000E+00  0.00000000000E+00  0.59723244293E+03  0.59723244294E+03  0.25500000920E-02 0. -1.
       -2   -1    0    0    0  501  0.00000000000E+00  0.00000000000E+00 -0.69892273411E+03  0.69892273411E+03  0.25500000920E-02 0.  1.
    10030    2    1    2    0    0  0.00000000000E+00  0.00000000000E+00 -0.10169029118E+03  0.12961551771E+04  0.12921599466E+04 0.  0.
        3    1    3    3  502    0  0.27841507435E+03 -0.44576710002E+03 -0.42776760297E+03  0.67764916693E+03  0.10100000352E+00 0.  1.
       -3    1    3    3    0  502 -0.27841507435E+03  0.44576710002E+03  0.32607731179E+03  0.61850601012E+03  0.10100000352E+00 0. -1.
</event>
<event>
 5   0  0.9182865E-05  0.2419032E+04  0.7818609E-02  0.8432412E-01
        2   -1    0    0  501    0  0.00000000000E+00  0.00000000000E+00  0.23033386786E+04  0.23033386786E+04  0.25500000920E-02 0. -1.
       -2   -1    0    0    0  501  0.00000000000E+00  0.00000000000E+00 -0.63513425578E+03  0.63513425578E+03  0.25500000920E-02 0.  1.
    10030    2    1    2    0    0  0.00000000000E+00  0.00000000000E+00  0.16682044228E+04  0.29384729344E+04  0.24190322837E+04 0.  0.
        3    1    3    3  502    0  0.52984111816E+03  0.97854002908E+03  0.14098603603E+04  0.17961009005E+04  0.10100000352E+00 0.  1.
       -3    1    3    3    0  502 -0.52984111816E+03 -0.97854002908E+03  0.25834406255E+03  0.11423720339E+04  0.10100000352E+00 0. -1.
</event>
<event>
 5   0  0.4208577E-05  0.2411461E+04  0.7818609E-02  0.8435225E-01
        1   -1    0    0  501    0  0.00000000000E+00  0.00000000000E+00  0.10839132759E+04  0.10839132759E+04  0.50400001928E-02 0.  1.
       -1   -1    0    0    0  501  0.00000000000E+00  0.00000000000E+00 -0.13412378404E+04  0.13412378404E+04  0.50400001928E-02 0. -1.
    10030    2    1    2    0    0  0.00000000000E+00  0.00000000000E+00 -0.25732456450E+03  0.24251511163E+04  0.24114605544E+04 0.  0.
        1    1    3    3  502    0 -0.10957704431E+04  0.50305913666E+03 -0.12661545391E+03  0.12123583761E+04  0.50400001928E-02 0.  1.
       -1    1    3    3    0  502  0.10957704431E+04 -0.50305913666E+03 -0.13070911059E+03  0.12127927402E+04  0.50400001928E-02 0. -1.
</event>
<event>
 5   0  0.4018942E-05  0.2119718E+04  0.7818609E-02  0.8552607E-01
       -1   -1    0    0    0  501  0.00000000000E+00  0.00000000000E+00  0.58733844871E+03  0.58733844873E+03  0.50400001928E-02 0. -1.
        1   -1    0    0  501    0  0.00000000000E+00  0.00000000000E+00 -0.19125285142E+04  0.19125285142E+04  0.50400001928E-02 0.  1.
    10030    2    1    2    0    0  0.00000000000E+00  0.00000000000E+00 -0.13251900655E+04  0.24998669629E+04  0.21197184065E+04 0.  0.
        5    1    3    3  502    0  0.54624430779E+03  0.15758708696E+03  0.39227946728E+03  0.69074004098E+03  0.46999998093E+01 0. -1.
       -5    1    3    3    0  502 -0.54624430779E+03 -0.15758708696E+03 -0.17174695327E+04  0.18091269219E+04  0.46999998093E+01 0.  1.
</event>
<event>
 5   0  0.9182865E-05  0.2411441E+04  0.7818609E-02  0.8435233E-01
        2   -1    0    0  501    0  0.00000000000E+00  0.00000000000E+00  0.16615351041E+04  0.16615351041E+04  0.25500000920E-02 0. -1.
       -2   -1    0    0    0  501  0.00000000000E+00  0.00000000000E+00 -0.87495106867E+03  0.87495106868E+03  0.25500000920E-02 0.  1.
    10030    2    1    2    0    0  0.00000000000E+00  0.00000000000E+00  0.78658403543E+03  0.25364861728E+04  0.24114409924E+04 0.  0.
        3    1    3    3  502    0  0.76572408151E+03 -0.73324596353E+03 -0.21075019202E+03  0.10809249121E+04  0.10100000352E+00 0.  1.
       -3    1    3    3    0  502 -0.76572408151E+03  0.73324596353E+03  0.99733422745E+03  0.14555612606E+04  0.10100000352E+00 0. -1.
</event>
<event>
 5   0  0.4018942E-05  0.2259941E+04  0.7818609E-02  0.8493886E-01
       -1   -1    0    0    0  501  0.00000000000E+00  0.00000000000E+00  0.78811287685E+03  0.78811287686E+03  0.50400001928E-02 0. -1.
        1   -1    0    0  501    0  0.00000000000E+00  0.00000000000E+00 -0.16201141742E+04  0.16201141742E+04  0.50400001928E-02 0.  1.
    10030    2    1    2    0    0  0.00000000000E+00  0.00000000000E+00 -0.83200129735E+03  0.24082270511E+04  0.22599405680E+04 0.  0.
        5    1    3    3  502    0  0.20963796450E+03  0.71979871943E+03 -0.13169040938E+04  0.15153602723E+04  0.46999998093E+01 0.  1.
       -5    1    3    3    0  502 -0.20963796450E+03 -0.71979871943E+03  0.48490279642E+03  0.89286677877E+03  0.46999998093E+01 0. -1.
</event>
<event>
 5   0  0.9750757E-05  0.2304297E+04  0.7818609E-02  0.8476229E-01
        2   -1    0    0  501    0  0.00000000000E+00  0.00000000000E+00  0.14987396029E+04  0.14987396029E+04  0.25500000920E-02 0.  1.
       -2   -1    0    0    0  501  0.00000000000E+00  0.00000000000E+00 -0.88570844102E+03  0.88570844103E+03  0.25500000920E-02 0. -1.
    10030    2    1    2    0    0  0.00000000000E+00  0.00000000000E+00  0.61303116184E+03  0.23844480439E+04  0.23042971312E+04 0.  0.
        2    1    3    3  502    0 -0.71754788581E+03  0.63761901159E+03  0.96587093748E+03  0.13617413999E+04  0.25500000920E-02 0.  1.
       -2    1    3    3    0  502  0.71754788581E+03 -0.63761901159E+03 -0.35283977563E+03  0.10227066440E+04  0.25500000920E-02 0. -1.
</event>
<event>
 5   0  0.4061631E-05  0.2319740E+04  0.7818609E-02  0.8470178E-01
       -1   -1    0    0    0  501  0.00000000000E+00  0.00000000000E+00  0.77626475393E+03  0.77626475395E+03  0.50400001928E-02 0.  1.
        1   -1    0    0  501    0  0.00000000000E+00  0.00000000000E+00 -0.17330414388E+04  0.17330414388E+04  0.50400001928E-02 0. -1.
    10030    2    1    2    0    0  0.00000000000E+00  0.00000000000E+00 -0.95677668491E+03  0.25093061928E+04  0.23197404907E+04 0.  0.
        3    1    3    3  502    0  0.28568220146E+03  0.11982065037E+03 -0.16874610955E+04  0.17156620493E+04  0.10100000352E+00 0. -1.
       -3    1    3    3    0  502 -0.28568220146E+03 -0.11982065037E+03  0.73068441055E+03  0.79364414350E+03  0.10100000352E+00 0.  1.
</event>
<event>
 5   0  0.4061631E-05  0.2435414E+04  0.7818609E-02  0.8426363E-01
        1   -1    0    0  501    0  0.00000000000E+00  0.00000000000E+00  0.17594137982E+04  0.17594137982E+04  0.50400001928E-02 0. -1.
       -1   -1    0    0    0  501  0.00000000000E+00  0.00000000000E+00 -0.84278683789E+03  0.84278683791E+03  0.50400001928E-02 0.  1.
    10030    2    1    2    0    0  0.00000000000E+00  0.00000000000E+00  0.91662696028E+03  0.26022006361E+04  0.24354143726E+04 0.  0.
        3    1    3    3  502    0 -0.47505498849E+03  0.74082767630E+03  0.13575603914E+04  0.16178606598E+04  0.10100000352E+00 0. -1.
       -3    1    3    3    0  502  0.47505498849E+03 -0.74082767630E+03 -0.44093343110E+03  0.98433997629E+03  0.10100000352E+00 0.  1.
</event>
<event>
 5   0  0.4260395E-05  0.2280797E+04  0.7818609E-02  0.8485531E-01
       -1   -1    0    0    0  501  0.00000000000E+00  0.00000000000E+00  0.93709094452E+03  0.93709094453E+03  0.50400001928E-02 0. -1.
        1   -1    0    0  501    0  0.00000000000E+00  0.00000000000E+00 -0.13878144660E+04  0.13878144660E+04  0.50400001928E-02 0.  1.
    10030    2    1    2    0    0  0.00000000000E+00  0.00000000000E+00 -0.45072352143E+03  0.23249054105E+04  0.22807966755E+04 0.  0.
        4    1    3    3  502    0 -0.87984186665E+03 -0.60429689587E+03  0.18391314738E+03  0.10831076158E+04  0.12699999809E+01 0. -1.
       -4    1    3    3    0  502  0.87984186665E+03  0.60429689587E+03 -0.63463666881E+03  0.12417977947E+04  0.12699999809E+01 0.  1.
</event>
<event>
 5   0  0.9519092E-05  0.2467619E+04  0.7818609E-02  0.8414613E-01
        2   -1    0    0  501    0  0.00000000000E+00  0.00000000000E+00  0.19169164378E+04  0.19169164378E+04  0.25500000920E-02 0.  1.
       -2   -1    0    0    0  501  0.00000000000E+00  0.00000000000E+00 -0.79413249257E+03  0.79413249257E+03  0.25500000920E-02 0. -1.
    10030    2    1    2    0    0  0.00000000000E+00  0.00000000000E+00  0.11227839453E+04  0.27110489304E+04  0.24676187946E+04 0.  0.
        4    1    3    3  502    0 -0.91991803830E+02 -0.62532596776E+03 -0.60275644750E+03  0.87339109558E+03  0.12699999809E+01 0. -1.
       -4    1    3    3    0  502  0.91991803830E+02  0.62532596776E+03  0.17255403928E+04  0.18376578348E+04  0.12699999809E+01 0.  1.
</event>
<event>
 5   0  0.4061631E-05  0.2380096E+04  0.7818609E-02  0.8446993E-01
        1   -1    0    0  501    0  0.00000000000E+00  0.00000000000E+00  0.17510673846E+04  0.17510673846E+04  0.50400001928E-02 0.  1.
       -1   -1    0    0    0  501  0.00000000000E+00  0.00000000000E+00 -0.80877220063E+03  0.80877220065E+03  0.50400001928E-02 0. -1.
    10030    2    1    2    0    0  0.00000000000E+00  0.00000000000E+00  0.94229518395E+03  0.25598395852E+04  0.23800963192E+04 0.  0.
        3    1    3    3  502    0  0.88132322281E+03 -0.76012489503E+03  0.73828834754E+03  0.13782562075E+04  0.10100000352E+00 0.  1.
       -3    1    3    3    0  502 -0.88132322281E+03  0.76012489503E+03  0.20400683641E+03  0.11815833778E+04  0.10100000352E+00 0. -1.
</event>
<event>
 5   0  0.4018942E-05  0.2007931E+04  0.7818609E-02  0.8602922E-01
        1   -1    0    0  501    0  0.00000000000E+00  0.00000000000E+00  0.16708721211E+04  0.16708721211E+04  0.50400001928E-02 0. -1.
       -1   -1    0    0    0  501  0.00000000000E+00  0.00000000000E+00 -0.60324578478E+03  0.60324578480E+03  0.50400001928E-02 0.  1.
    10030    2    1    2    0    0  0.00000000000E+00  0.00000000000E+00  0.10676263364E+04  0.22741179059E+04  0.20079308395E+04 0.  0.
        5    1    3    3  502    0  0.71947790196E+03  0.41867393648E+03 -0.10182701007E+03  0.83864601977E+03  0.46999998093E+01 0. -1.
       -5    1    3    3    0  502 -0.71947790196E+03 -0.41867393648E+03  0.11694533464E+04  0.14354718862E+04  0.46999998093E+01 0.  1.
</event>
<event>
 5   0  0.4260395E-05  0.2376821E+04  0.7818609E-02  0.8448233E-01
       -1   -1    0    0    0  501  0.00000000000E+00  0.00000000000E+00  0.94627054329E+03  0.94627054330E+03  0.50400001928E-02 0. -1.
        1   -1    0    0  501    0  0.00000000000E+00  0.00000000000E+00 -0.14925112368E+04  0.14925112368E+04  0.50400001928E-02 0.  1.
    10030    2    1    2    0    0  0.00000000000E+00  0.00000000000E+00 -0.54624069352E+03  0.24387817801E+04  0.23768209179E+04 0.  0.
        4    1    3    3  502    0  0.82740404476E+03  0.84153309135E+03 -0.12968191470E+03  0.11872634118E+04  0.12699999809E+01 0.  1.
       -4    1    3    3    0  502 -0.82740404476E+03 -0.84153309135E+03 -0.41655877882E+03  0.12515183683E+04  0.12699999809E+01 0. -1.
</event>
<event>
 5   0  0.9750757E-05  0.2637947E+04  0.7818609E-02  0.8355424E-01
        2   -1    0    0  501    0  0.00000000000E+00  0.00000000000E+00  0.23421567382E+04  0.23421567382E+04  0.25500000920E-02 0.  1.
       -2   -1    0    0    0  501  0.00000000000E+00  0.00000000000E+00 -0.74277327146E+03  0.74277327146E+03  0.25500000920E-02 0. -1.
    10030    2    1    2    0    0  0.00000000000E+00  0.00000000000E+00  0.15993834667E+04  0.30849300097E+04  0.26379472494E+04 0.  0.
        2    1    3    3  502    0  0.11766842582E+04  0.56164722935E+03  0.56680516417E+03  0.14217248495E+04  0.25500000920E-02 0. -1.
       -2    1    3    3    0  502 -0.11766842582E+04 -0.56164722935E+03  0.10325783026E+04  0.16632051601E+04  0.25500000920E-02 0.  1.
</event>
<event>
 5   0  0.9519092E-05  0.2286072E+04  0.7818609E-02  0.8483433E-01
        2   -1    0    0  501    0  0.00000000000E+00  0.00000000000E+00  0.14913152169E+04  0.14913152169E+04  0.25500000920E-02 0.  1.
       -2   -1    0    0    0  501  0.00000000000E+00  0.00000000000E+00 -0.87609338396E+03  0.87609338396E+03  0.25500000920E-02 0. -1.
    10030    2    1    2    0    0  0.00000000000E+00  0.00000000000E+00  0.61522183297E+03  0.23674086009E+04  0.22860720854E+04 0.  0.
        4    1    3    3  502    0  0.32760277098E+03  0.87162251465E+02  0.14380578455E+04  0.14774751482E+04  0.12699999809E+01 0.  1.
       -4    1    3    3    0  502 -0.32760277098E+03 -0.87162251465E+02 -0.82283601258E+03  0.88993345264E+03  0.12699999809E+01 0. -1.
</event>
<event>
 5   0  0.9519092E-05  0.2286471E+04  0.7818609E-02  0.8483274E-01
       -2   -1    0    0    0  501  0.00000000000E+00  0.00000000000E+00  0.86875522574E+03  0.86875522574E+03  0.25500000920E-02 0. -1.
        2   -1    0    0  501    0  0.00000000000E+00  0.00000000000E+00 -0.15044370987E+04  0.15044370987E+04  0.25500000920E-02 0.  1.
    10030    2    1    2    0    0  0.00000000000E+00  0.00000000000E+00 -0.63568187295E+03  0.23731923244E+04  0.22864711599E+04 0.  0.
        4    1    3    3  502    0  0.48621319736E+03 -0.88229187900E+03  0.24316247673E+03  0.10363261244E+04  0.12699999809E+01 0. -1.
       -4    1    3    3    0  502 -0.48621319736E+03  0.88229187900E+03 -0.87884434968E+03  0.13368662001E+04  0.12699999809E+01 0.  1.
</event>
<event>
 5   0  0.4260395E-05  0.1530155E+04  0.7818609E-02  0.8864644E-01
       -1   -1    0    0    0  501  0.00000000000E+00  0.00000000000E+00  0.88827777598E+03  0.88827777600E+03  0.50400001928E-02 0.  1.
        1   -1    0    0  501    0  0.00000000000E+00  0.00000000000E+00 -0.65896441668E+03  0.65896441670E+03  0.50400001928E-02 0. -1.
    10030    2    1    2    0    0  0.00000000000E+00  0.00000000000E+00  0.22931335930E+03  0.15472421927E+04  0.15301548242E+04 0.  0.
        4    1    3    3  502    0  0.26876087791E+03 -0.43828341214E+03  0.68756745501E+03  0.85853094117E+03  0.12699999809E+01 0.  1.
       -4    1    3    3    0  502 -0.26876087791E+03  0.43828341214E+03 -0.45825409571E+03  0.68871125153E+03  0.12699999809E+01 0. -1.
</event>
<event>
 5   0  0.9750757E-05  0.1703087E+04  0.7818609E-02  0.8759606E-01
        2   -1    0    0  501    0  0.00000000000E+00  0.00000000000E+00  0.13925801415E+04  0.13925801415E+04  0.25500000920E-02 0. -1.
       -2   -1    0    0    0  501  0.00000000000E+00  0.00000000000E+00 -0.52070699921E+03  0.52070699922E+03  0.25500000920E-02 0.  1.
    10030    2    1    2    0    0  0.00000000000E+00  0.00000000000E+00  0.87187314226E+03  0.19132871407E+04  0.17030868758E+04 0.  0.
        2    1    3    3  502    0  0.31674750559E+03  0.79040800415E+03  0.42780192494E+03  0.95293666228E+03  0.25500000920E-02 0.  1.
       -2    1    3    3    0  502 -0.31674750559E+03 -0.79040800415E+03  0.44407121732E+03  0.96035047841E+03  0.25500000920E-02 0. -1.
</event>
<event>
 5   0  0.9519092E-05  0.2437733E+04  0.7818609E-02  0.8425511E-01
       -2   -1    0    0    0  501  0.00000000000E+00  0.00000000000E+00  0.98475373993E+03  0.98475373993E+03  0.25500000920E-02 0. -1.
        2   -1    0    0  501    0  0.00000000000E+00  0.00000000000E+00 -0.15086361675E+04  0.15086361675E+04  0.25500000920E-02 0.  1.
    10030    2    1    2    0    0  0.00000000000E+00  0.00000000000E+00 -0.52388242759E+03  0.24933899075E+04  0.24377326418E+04 0.  0.
        4    1    3    3  502    0 -0.10095552367E+04  0.43170691798E+03 -0.80323162122E+03  0.13604246724E+04  0.12699999809E+01 0. -1.
       -4    1    3    3    0  502  0.10095552367E+04 -0.43170691798E+03  0.27934919363E+03  0.11329652351E+04  0.12699999809E+01 0.  1.
</event>
<event>
 5   0  0.9491680E-05  0.2367793E+04  0.7818609E-02  0.8451661E-01
       -2   -1    0    0    0  501  0.00000000000E+00  0.00000000000E+00  0.86109892202E+03  0.86109892203E+03  0.25500000920E-02 0.  1.
        2   -1    0    0  501    0  0.00000000000E+00  0.00000000000E+00 -0.16277000774E+04  0.16277000774E+04  0.25500000920E-02 0. -1.
    10030    2    1    2    0    0  0.00000000000E+00  0.00000000000E+00 -0.76660115541E+03  0.24887989995E+04  0.23677928812E+04 0.  0.
        5    1    3    3  502    0 -0.62328244865E+03  0.91906175121E+03  0.48079352109E+02  0.11115256306E+04  0.46999998093E+01 0.  1.
       -5    1    3    3    0  502  0.62328244865E+03 -0.91906175121E+03 -0.81468050752E+03  0.13772733689E+04  0.46999998093E+01 0. -1.
</event>
<event>
 5   0  0.3934906E-05  0.2409131E+04  0.7818609E-02  0.8436093E-01
        1   -1    0    0  501    0  0.00000000000E+00  0.00000000000E+00  0.11258575456E+04  0.11258575457E+04  0.50400001928E-02 0. -1.
       -1   -1    0    0    0  501  0.00000000000E+00  0.00000000000E+00 -0.12887761432E+04  0.12887761432E+04  0.50400001928E-02 0.  1.
    10030    2    1    2    0    0  0.00000000000E+00  0.00000000000E+00 -0.16291859759E+03  0.24146336889E+04  0.24091312505E+04 0.  0.
        2    1    3    3  502    0  0.11638451717E+04 -0.19598544516E+02 -0.39210049803E+03  0.12282762259E+04  0.25500000920E-02 0.  1.
       -2    1    3    3    0  502 -0.11638451717E+04  0.19598544516E+02  0.22918190043E+03  0.11863574630E+04  0.25500000920E-02 0. -1.
</event>
<event>
 5   0  0.9491680E-05  0.2395448E+04  0.7818609E-02  0.8441210E-01
       -2   -1    0    0    0  501  0.00000000000E+00  0.00000000000E+00  0.10403312794E+04  0.10403312794E+04  0.25500000920E-02 0. -1.
        2   -1    0    0  501    0  0.00000000000E+00  0.00000000000E+00 -0.13789283123E+04  0.13789283123E+04  0.25500000920E-02 0.  1.
    10030    2    1    2    0    0  0.00000000000E+00  0.00000000000E+00 -0.33859703289E+03  0.24192595917E+04  0.23954475618E+04 0.  0.
        5    1    3    3  502    0  0.51172629380E+03  0.10126154752E+04 -0.55686609479E+03  0.12638733473E+04  0.46999998093E+01 0. -1.
       -5    1    3    3    0  502 -0.51172629380E+03 -0.10126154752E+04  0.21826906190E+03  0.11553862444E+04  0.46999998093E+01 0.  1.
</event>
<event>
 5   0  0.3234750E-05  0.2417133E+04  0.7818609E-02  0.8433117E-01
        3   -1    0    0  501    0  0.00000000000E+00  0.00000000000E+00  0.99591862101E+03  0.99591862614E+03  0.10100000352E+00 0.  1.
       -3   -1    0    0    0  501  0.00000000000E+00  0.00000000000E+00 -0.14666192816E+04  0.14666192851E+04  0.10100000352E+00 0. -1.
    10030    2    1    2    0    0  0.00000000000E+00  0.00000000000E+00 -0.47070066059E+03  0.24625379112E+04  0.24171333956E+04 0.  0.
        2    1    3    3  502    0 -0.61343074655E+03 -0.67023895500E+03  0.57656138486E+03  0.10760764695E+04  0.25500000920E-02 0. -1.
       -2    1    3    3    0  502  0.61343074655E+03  0.67023895500E+03 -0.10472620454E+04  0.13864614417E+04  0.25500000920E-02 0.  1.
</event>
<event>
 5   0  0.3934906E-05  0.2395145E+04  0.7818609E-02  0.8441323E-01
       -1   -1    0    0    0  501  0.00000000000E+00  0.00000000000E+00  0.13829454620E+04  0.13829454620E+04  0.50400001928E-02 0.  1.
        1   -1    0    0  501    0  0.00000000000E+00  0.00000000000E+00 -0.10370477375E+04  0.10370477375E+04  0.50400001928E-02 0. -1.
    10030    2    1    2    0    0  0.00000000000E+00  0.00000000000E+00  0.34589772446E+03  0.24199931995E+04  0.23951454757E+04 0.  0.
        2    1    3    3  502    0 -0.58130904706E+03  0.76986357999E+03  0.88993756476E+03  0.13124781938E+04  0.25500000920E-02 0. -1.
       -2    1    3    3    0  502  0.58130904706E+03 -0.76986357999E+03 -0.54403984030E+03  0.11075150057E+04  0.25500000920E-02 0.  1.
</event>
<event>
 5   0  0.9144244E-05  0.1697184E+04  0.7818609E-02  0.8762972E-01
        2   -1    0    0  501    0  0.00000000000E+00  0.00000000000E+00  0.10814853418E+04  0.10814853418E+04  0.25500000920E-02 0.  1.
       -2   -1    0    0    0  501  0.00000000000E+00  0.00000000000E+00 -0.66585152318E+03  0.66585152318E+03  0.25500000920E-02 0. -1.
    10030    2    1    2    0    0  0.00000000000E+00  0.00000000000E+00  0.41563381858E+03  0.17473368649E+04  0.16971843295E+04 0.  0.
        1    1    3    3  502    0  0.46211950462E+03 -0.18407142079E+01 -0.52493868917E+03  0.69937003953E+03  0.50400001928E-02 0. -1.
       -1    1    3    3    0  502 -0.46211950462E+03  0.18407142079E+01  0.94057250775E+03  0.10479668254E+04  0.50400001928E-02 0.  1.
</event>
<event>
 5   0  0.4260395E-05  0.2371459E+04  0.7818609E-02  0.8450267E-01
       -1   -1    0    0    0  501  0.00000000000E+00  0.00000000000E+00  0.13758245401E+04  0.13758245401E+04  0.50400001928E-02 0. -1.
        1   -1    0    0  501    0  0.00000000000E+00  0.00000000000E+00 -0.10218995755E+04  0.10218995755E+04  0.50400001928E-02 0.  1.
    10030    2    1    2    0    0  0.00000000000E+00  0.00000000000E+00  0.35392496465E+03  0.23977241156E+04  0.23714590559E+04 0.  0.
        4    1    3    3  502    0  0.28842852741E+03  0.85772851477E+03  0.95164933729E+03  0.13132125854E+04  0.12699999809E+01 0.  1.
       -4    1    3    3    0  502 -0.28842852741E+03 -0.85772851477E+03 -0.59772437264E+03  0.10845115301E+04  0.12699999809E+01 0. -1.
</event>
<event>
 5   0  0.9182865E-05  0.2413663E+04  0.7818609E-02  0.8434406E-01
       -2   -1    0    0    0  501  0.00000000000E+00  0.00000000000E+00  0.11268675610E+04  0.11268675610E+04  0.25500000920E-02 0.  1.
        2   -1    0    0  501    0  0.00000000000E+00  0.00000000000E+00 -0.12924695660E+04  0.12924695660E+04  0.25500000920E-02 0. -1.
    10030    2    1    2    0    0  0.00000000000E+00  0.00000000000E+00 -0.16560200493E+03  0.24193371270E+04  0.24136627996E+04 0.  0.
        3    1    3    3  502    0  0.45132923655E+03  0.80521085727E+03  0.69644507428E+03  0.11563296918E+04  0.10100000352E+00 0.  1.
       -3    1    3    3    0  502 -0.45132923655E+03 -0.80521085727E+03 -0.86204707921E+03  0.12630074352E+04  0.10100000352E+00 0. -1.
</event>
<event>
 5   0  0.4018942E-05  0.2343252E+04  0.7818609E-02  0.8461060E-01
       -1   -1    0    0    0  501  0.00000000000E+00  0.00000000000E+00  0.72685581687E+03  0.72685581688E+03  0.50400001928E-02 0.  1.
        1   -1    0    0  501    0  0.00000000000E+00  0.00000000000E+00 -0.18885557102E+04  0.18885557102E+04  0.50400001928E-02 0. -1.
    10030    2    1    2    0    0  0.00000000000E+00  0.00000000000E+00 -0.11616998933E+04  0.26154115270E+04  0.23432521874E+04 0.  0.
        5    1    3    3  502    0  0.15200799038E+03 -0.95766781354E+03  0.15313935188E+03  0.98168621327E+03  0.46999998093E+01 0.  1.
       -5    1    3    3    0  502 -0.15200799038E+03  0.95766781354E+03 -0.13148392452E+04  0.16337253138E+04  0.46999998093E+01 0. -1.
</event>
<event>
 5   0  0.4061631E-05  0.1343097E+04  0.7818609E-02  0.8996070E-01
       -1   -1    0    0    0  501  0.00000000000E+00  0.00000000000E+00  0.79389298196E+03  0.79389298198E+03  0.50400001928E-02 0. -1.
        1   -1    0    0  501    0  0.00000000000E+00  0.00000000000E+00 -0.56805850779E+03  0.56805850782E+03  0.50400001928E-02 0.  1.
    10030    2    1    2    0    0  0.00000000000E+00  0.00000000000E+00  0.22583447417E+03  0.13619514898E+04  0.13430974093E+04 0.  0.
        3    1    3    3  502    0 -0.65244030424E+03 -0.15453000601E+03  0.15112613629E+03  0.68731142332E+03  0.10100000352E+00 0.  1.
       -3    1    3    3    0  502  0.65244030424E+03  0.15453000601E+03  0.74708337878E+02  0.67464006648E+03  0.10100000352E+00 0. -1.
</event>
<event>
 5   0  0.3234750E-05  0.2423374E+04  0.7818609E-02  0.8430804E-01
       -3   -1    0    0    0  501  0.00000000000E+00  0.00000000000E+00  0.16248404101E+04  0.16248404133E+04  0.10100000352E+00 0. -1.
        3   -1    0    0  501    0  0.00000000000E+00  0.00000000000E+00 -0.90358748912E+03  0.90358749477E+03  0.10100000352E+00 0.  1.
    10030    2    1    2    0    0  0.00000000000E+00  0.00000000000E+00  0.72125292102E+03  0.25284279080E+04  0.24233740756E+04 0.  0.
        3    1    3    3  502    0  0.72510705494E+03  0.90877458515E+03  0.71679569798E+03  0.13658138858E+04  0.10100000352E+00 0. -1.
       -3    1    3    3    0  502 -0.72510705494E+03 -0.90877458515E+03  0.44572230399E+01  0.11626140223E+04  0.10100000352E+00 0.  1.
</event>
<event>
 5   0  0.9750757E-05  0.2415814E+04  0.7818609E-02  0.8433607E-01
        2   -1    0    0  501    0  0.00000000000E+00  0.00000000000E+00  0.13217290403E+04  0.13217290403E+04  0.25500000920E-02 0.  1.
       -2   -1    0    0    0  501  0.00000000000E+00  0.00000000000E+00 -0.11038865738E+04  0.11038865738E+04  0.25500000920E-02 0. -1.
    10030    2    1    2    0    0  0.00000000000E+00  0.00000000000E+00  0.21784246646E+03  0.24256156141E+04  0.24158136864E+04 0.  0.
        2    1    3    3  502    0  0.35869882419E+03 -0.10827149568E+04  0.50815548856E+03  0.12486626945E+04  0.25500000920E-02 0.  1.
       -2    1    3    3    0  502 -0.35869882419E+03  0.10827149568E+04 -0.29031302210E+03  0.11769529196E+04  0.25500000920E-02 0. -1.
</event>
<event>
 5   0  0.9491680E-05  0.2457582E+04  0.7818609E-02  0.8418255E-01
        2   -1    0    0  501    0  0.00000000000E+00  0.00000000000E+00  0.66373482963E+03  0.66373482964E+03  0.25500000920E-02 0. -1.
       -2   -1    0    0    0  501  0.00000000000E+00  0.00000000000E+00 -0.22748955077E+04  0.22748955077E+04  0.25500000920E-02 0.  1.
    10030    2    1    2    0    0  0.00000000000E+00  0.00000000000E+00 -0.16111606780E+04  0.29386303373E+04  0.24575820493E+04 0.  0.
        5    1    3    3  502    0 -0.96665766115E+02 -0.10799504674E+04 -0.11425203264E+03  0.10902811103E+04  0.46999998093E+01 0.  1.
       -5    1    3    3    0  502  0.96665766115E+02  0.10799504674E+04 -0.14969086454E+04  0.18483492270E+04  0.46999998093E+01 0. -1.
</event>
<event>
 5   0  0.4260395E-05  0.2309158E+04  0.7818609E-02  0.8474319E-01
        1   -1    0    0  501    0  0.00000000000E+00  0.00000000000E+00  0.10433499131E+04  0.10433499131E+04  0.50400001928E-02 0.  1.
       -1   -1    0    0    0  501  0.00000000000E+00  0.00000000000E+00 -0.12776664556E+04  0.12776664556E+04  0.50400001928E-02 0. -1.
    10030    2    1    2    0    0  0.00000000000E+00  0.00000000000E+00 -0.23431654244E+03  0.23210163687E+04  0.23091584488E+04 0.  0.
        4    1    3    3  502    0  0.56008988520E+03  0.11337424493E+03 -0.11255534229E+04  0.12623099935E+04  0.12699999809E+01 0. -1.
       -4    1    3    3    0  502 -0.56008988520E+03 -0.11337424493E+03  0.89123688048E+03  0.10587063752E+04  0.12699999809E+01 0.  1.
</event>
<event>
 5   0  0.9519092E-05  0.2267756E+04  0.7818609E-02  0.8490744E-01
        2   -1    0    0  501    0  0.00000000000E+00  0.00000000000E+00  0.14051042892E+04  0.14051042892E+04  0.25500000920E-02 0.  1.
       -2   -1    0    0    0  501  0.00000000000E+00  0.00000000000E+00 -0.91500632201E+03  0.91500632202E+03  0.25500000920E-02 0. -1.
    10030    2    1    2    0    0  0.00000000000E+00  0.00000000000E+00  0.49009796721E+03  0.23201106112E+04  0.22677559902E+04 0.  0.
        4    1    3    3  502    0 -0.74727347519E+03  0.66969644353E+03  0.78522193238E+03  0.12741609275E+04  0.12699999809E+01 0.  1.
       -4    1    3    3    0  502  0.74727347519E+03 -0.66969644353E+03 -0.29512396517E+03  0.10459496837E+04  0.12699999809E+01 0. -1.
</event>
<event>
 5   0  0.4018942E-05  0.2512302E+04  0.7818609E-02  0.8398616E-01
       -1   -1    0    0    0  501  0.00000000000E+00  0.00000000000E+00  0.83511116928E+03  0.83511116930E+03  0.50400001928E-02 0.  1.
        1   -1    0    0  501    0  0.00000000000E+00  0.00000000000E+00 -0.18894679844E+04  0.18894679844E+04  0.50400001928E-02 0. -1.
    10030    2    1    2    0    0  0.00000000000E+00  0.00000000000E+00 -0.10543568151E+04  0.27245791537E+04  0.25123023845E+04 0.  0.
        5    1    3    3  502    0 -0.12361196408E+04 -0.53349829740E+02 -0.76243072054E+03  0.14533274456E+04  0.46999998093E+01 0. -1.
       -5    1    3    3    0  502  0.12361196408E+04  0.53349829740E+02 -0.29192609460E+03  0.12712517081E+04  0.46999998093E+01 0.  1.
</event>
<event>
 5   0  0.9750757E-05  0.2366249E+04  0.7818609E-02  0.8452249E-01
        2   -1    0    0  501    0  0.00000000000E+00  0.00000000000E+00  0.11533175363E+04  0.11533175363E+04  0.25500000920E-02 0. -1.
       -2   -1    0    0    0  501  0.00000000000E+00  0.00000000000E+00 -0.12137015168E+04  0.12137015169E+04  0.25500000920E-02 0.  1.
    10030    2    1    2    0    0  0.00000000000E+00  0.00000000000E+00 -0.60383980541E+02  0.23670190532E+04  0.23662487132E+04 0.  0.
        2    1    3    3  502    0  0.58853376808E+03 -0.66601270844E+03 -0.81136767701E+03  0.12034377555E+04  0.25500000920E-02 0.  1.
       -2    1    3    3    0  502 -0.58853376808E+03  0.66601270844E+03  0.75098369647E+03  0.11635812977E+04  0.25500000920E-02 0. -1.
</event>
<event>
 5   0  0.9182865E-05  0.2399663E+04  0.7818609E-02  0.8439630E-01
        2   -1    0    0  501    0  0.00000000000E+00  0.00000000000E+00  0.12647154497E+04  0.12647154497E+04  0.25500000920E-02 0. -1.
       -2   -1    0    0    0  501  0.00000000000E+00  0.00000000000E+00 -0.11382766047E+04  0.11382766047E+04  0.25500000920E-02 0.  1.
    10030    2    1    2    0    0  0.00000000000E+00  0.00000000000E+00  0.12643884508E+03  0.24029920544E+04  0.23996633164E+04 0.  0.
        3    1    3    3  502    0 -0.30168853340E+03  0.11248059139E+04  0.35239618464E+03  0.12167117146E+04  0.10100000352E+00 0. -1.
       -3    1    3    3    0  502  0.30168853340E+03 -0.11248059139E+04 -0.22595733956E+03  0.11862803398E+04  0.10100000352E+00 0.  1.
</event>
<event>
 5   0  0.3934906E-05  0.2383064E+04  0.7818609E-02  0.8445871E-01
       -1   -1    0    0    0  501  0.00000000000E+00  0.00000000000E+00  0.12477183564E+04  0.12477183564E+04  0.50400001928E-02 0. -1.
        1   -1    0    0  501    0  0.00000000000E+00  0.00000000000E+00 -0.11378760760E+04  0.11378760760E+04  0.50400001928E-02 0.  1.
    10030    2    1    2    0    0  0.00000000000E+00  0.00000000000E+00  0.10984228033E+03  0.23855944324E+04  0.23830643024E+04 0.  0.
        2    1    3    3  502    0 -0.76437685892E+02 -0.44799570546E+03  0.11575468771E+04  0.12435665019E+04  0.25500000920E-02 0. -1.
       -2    1    3    3    0  502  0.76437685892E+02  0.44799570546E+03 -0.10477045968E+04  0.11420279305E+04  0.25500000920E-02 0.  1.
</event>
<event>
 5   0  0.4018942E-05  0.2439714E+04  0.7818609E-02  0.8424783E-01
        1   -1    0    0  501    0  0.00000000000E+00  0.00000000000E+00  0.16795476204E+04  0.16795476204E+04  0.50400001928E-02 0. -1.
       -1   -1    0    0    0  501  0.00000000000E+00  0.00000000000E+00 -0.88598314134E+03  0.88598314135E+03  0.50400001928E-02 0.  1.
    10030    2    1    2    0    0  0.00000000000E+00  0.00000000000E+00  0.79356447905E+03  0.25655307618E+04  0.24397138166E+04 0.  0.
        5    1    3    3  502    0  0.50532139860E+03 -0.19139773165E+03  0.15468204717E+04  0.16384927431E+04  0.46999998093E+01 0. -1.
       -5    1    3    3    0  502 -0.50532139860E+03  0.19139773165E+03 -0.75325599264E+03  0.92703801865E+03  0.46999998093E+01 0.  1.
</event>
<event>
 5   0  0.9182865E-05  0.2388534E+04  0.7818609E-02  0.8443809E-01
        2   -1    0    0  501    0  0.00000000000E+00  0.00000000000E+00  0.86902917501E+03  0.86902917501E+03  0.25500000920E-02 0. -1.
       -2   -1    0    0    0  501  0.00000000000E+00  0.00000000000E+00 -0.16412258070E+04  0.16412258070E+04  0.25500000920E-02 0.  1.
    10030    2    1    2    0    0  0.00000000000E+00  0.00000000000E+00 -0.77219663200E+03  0.25102549820E+04  0.23885335326E+04 0.  0.
        3    1    3    3  502    0  0.10346558902E+04  0.59557653604E+03 -0.42013512780E+03  0.12655977865E+04  0.10100000352E+00 0. -1.
       -3    1    3    3    0  502 -0.10346558902E+04 -0.59557653604E+03 -0.35206150421E+03  0.12446571955E+04  0.10100000352E+00 0.  1.
</event>
<event>
 5   0  0.9182865E-05  0.2415620E+04  0.7818609E-02  0.8433679E-01
        2   -1    0    0  501    0  0.00000000000E+00  0.00000000000E+00  0.22236041563E+04  0.22236041563E+04  0.25500000920E-02 0.  1.
       -2   -1    0    0    0  501  0.00000000000E+00  0.00000000000E+00 -0.65605439672E+03  0.65605439672E+03  0.25500000920E-02 0. -1.
    10030    2    1    2    0    0  0.00000000000E+00  0.00000000000E+00  0.15675497596E+04  0.28796585530E+04  0.24156202378E+04 0.  0.
        3    1    3    3  502    0 -0.34549297383E+03 -0.28615319079E+03 -0.55305468806E+03  0.71212256090E+03  0.10100000352E+00 0. -1.
       -3    1    3    3    0  502  0.34549297383E+03  0.28615319079E+03  0.21206044477E+04  0.21675359921E+04  0.10100000352E+00 0.  1.
</event>
<event>
 5   0  0.9750757E-05  0.2408379E+04  0.7818609E-02  0.8436373E-01
       -2   -1    0    0    0  501  0.00000000000E+00  0.00000000000E+00  0.11176954661E+04  0.11176954661E+04  0.25500000920E-02 0. -1.
        2   -1    0    0  501    0  0.00000000000E+00  0.00000000000E+00 -0.12973771301E+04  0.12973771301E+04  0.25500000920E-02 0.  1.
    10030    2    1    2    0    0  0.00000000000E+00  0.00000000000E+00 -0.17968166406E+03  0.24150725962E+04  0.24083791530E+04 0.  0.
        2    1    3    3  502    0 -0.10159496016E+04 -0.29756894032E+03 -0.66534497034E+03  0.12503538686E+04  0.25500000920E-02 0.  1.
       -2    1    3    3    0  502  0.10159496016E+04  0.29756894032E+03  0.48566330627E+03  0.11647187276E+04  0.25500000920E-02 0. -1.
</event>
<event>
 5   0  0.4208577E-05  0.2372925E+04  0.7818609E-02  0.8449710E-01
        1   -1    0    0  501    0  0.00000000000E+00  0.00000000000E+00  0.16326729984E+04  0.16326729984E+04  0.50400001928E-02 0.  1.
       -1   -1    0    0    0  501  0.00000000000E+00  0.00000000000E+00 -0.86220166949E+03  0.86220166951E+03  0.50400001928E-02 0. -1.
    10030    2    1    2    0    0  0.00000000000E+00  0.00000000000E+00  0.77047132893E+03  0.24948746679E+04  0.23729251021E+04 0.  0.
        1    1    3    3  502    0 -0.14348120621E+03  0.10731583833E+04 -0.12491989707E+03  0.10898902481E+04  0.50400001928E-02 0. -1.
       -1    1    3    3    0  502  0.14348120621E+03 -0.10731583833E+04  0.89539122599E+03  0.14049844198E+04  0.50400001928E-02 0.  1.
</event>
<event>
 5   0  0.9519092E-05  0.2240149E+04  0.7818609E-02  0.8501901E-01
        2   -1    0    0  501    0  0.00000000000E+00  0.00000000000E+00  0.17238941933E+04  0.17238941933E+04  0.25500000920E-02 0.  1.
       -2   -1    0    0    0  501  0.00000000000E+00  0.00000000000E+00 -0.72775141714E+03  0.72775141714E+03  0.25500000920E-02 0. -1.
    10030    2    1    2    0    0  0.00000000000E+00  0.00000000000E+00  0.99614277616E+03  0.24516456104E+04  0.22401486042E+04 0.  0.
        4    1    3    3  502    0 -0.10956267563E+04  0.54955116064E+02  0.25056295965E+03  0.11252561768E+04  0.12699999809E+01 0.  1.
       -4    1    3    3    0  502  0.10956267563E+04 -0.54955116064E+02  0.74557981651E+03  0.13263894336E+04  0.12699999809E+01 0. -1.
</event>
<event>
 5   0  0.9182865E-05  0.2425805E+04  0.7818609E-02  0.8429905E-01
        2   -1    0    0  501    0  0.00000000000E+00  0.00000000000E+00  0.10432737620E+04  0.10432737620E+04  0.25500000920E-02 0. -1.
       -2   -1    0    0    0  501  0.00000000000E+00  0.00000000000E+00 -0.14101114522E+04  0.14101114522E+04  0.25500000920E-02 0.  1.
    10030    2    1    2    0    0  0.00000000000E+00  0.00000000000E+00 -0.36683769020E+03  0.24533852142E+04  0.24258048393E+04 0.  0.
        3    1    3    3  502    0 -0.37030956409E+03 -0.63607893956E+03  0.79159948409E+03  0.10809048728E+04  0.10100000352E+00 0. -1.
       -3    1    3    3    0  502  0.37030956409E+03  0.63607893956E+03 -0.11584371743E+04  0.13724803414E+04  0.10100000352E+00 0.  1.
</event>
<event>
 5   0  0.3934906E-05  0.2317650E+04  0.7818609E-02  0.8470994E-01
       -1   -1    0    0    0  501  0.00000000000E+00  0.00000000000E+00  0.83944131340E+03  0.83944131341E+03  0.50400001928E-02 0. -1.
        1   -1    0    0  501    0  0.00000000000E+00  0.00000000000E+00 -0.15997247732E+04  0.15997247732E+04  0.50400001928E-02 0.  1.
    10030    2    1    2    0    0  0.00000000000E+00  0.00000000000E+00 -0.76028345979E+03  0.24391660866E+04  0.23176497274E+04 0.  0.
        2    1    3    3  502    0 -0.36929048780E+03 -0.10516760169E+04 -0.71374264943E+03  0.13235658195E+04  0.25500000920E-02 0.  1.
       -2    1    3    3    0  502  0.36929048780E+03  0.10516760169E+04 -0.46540810357E+02  0.11156002671E+04  0.25500000920E-02 0. -1.
</event>
<event>
 5   0  0.4208577E-05  0.2360595E+04  0.7818609E-02  0.8454405E-01
        1   -1    0    0  501    0  0.00000000000E+00  0.00000000000E+00  0.18060480255E+04  0.18060480255E+04  0.50400001928E-02 0.  1.
       -1   -1    0    0    0  501  0.00000000000E+00  0.00000000000E+00 -0.77135376145E+03  0.77135376146E+03  0.50400001928E-02 0. -1.
    10030    2    1    2    0    0  0.00000000000E+00  0.00000000000E+00  0.10346942640E+04  0.25774017869E+04  0.23605947876E+04 0.  0.
        1    1    3    3  502    0 -0.25852338782E+03  0.56097580712E+02  0.17732625916E+04  0.17928863599E+04  0.50400001928E-02 0.  1.
       -1    1    3    3    0  502  0.25852338782E+03 -0.56097580712E+02 -0.73856832763E+03  0.78451542701E+03  0.50400001928E-02 0. -1.
</event>
<event>
 5   0  0.9144244E-05  0.2385725E+04  0.7818609E-02  0.8444867E-01
       -2   -1    0    0    0  501  0.00000000000E+00  0.00000000000E+00  0.59938595834E+03  0.59938595835E+03  0.25500000920E-02 0.  1.
        2   -1    0    0  501    0  0.00000000000E+00  0.00000000000E+00 -0.23739640771E+04  0.23739640771E+04  0.25500000920E-02 0. -1.
    10030    2    1    2    0    0  0.00000000000E+00  0.00000000000E+00 -0.17745781187E+04  0.29733500354E+04  0.23857248235E+04 0.  0.
        1    1    3    3  502    0 -0.10679123361E+04 -0.24467227976E+03 -0.14753295670E+04  0.18376339715E+04  0.50400001928E-02 0. -1.
       -1    1    3    3    0  502  0.10679123361E+04  0.24467227976E+03 -0.29924855169E+03  0.11357160639E+04  0.50400001928E-02 0.  1.
</event>
<event>
 5   0  0.4018942E-05  0.2408225E+04  0.7818609E-02  0.8436431E-01
        1   -1    0    0  501    0  0.00000000000E+00  0.00000000000E+00  0.16452379840E+04  0.16452379840E+04  0.50400001928E-02 0.  1.
       -1   -1    0    0    0  501  0.00000000000E+00  0.00000000000E+00 -0.88126258369E+03  0.88126258370E+03  0.50400001928E-02 0. -1.
    10030    2    1    2    0    0  0.00000000000E+00  0.00000000000E+00  0.76397540034E+03  0.25265005677E+04  0.24082248040E+04 0.  0.
        5    1    3    3  502    0 -0.68940542986E+03  0.38153843020E+03 -0.57323160041E+03  0.97440647481E+03  0.46999998093E+01 0. -1.
       -5    1    3    3    0  502  0.68940542986E+03 -0.38153843020E+03  0.13372070007E+04  0.15520940929E+04  0.46999998093E+01 0.  1.
</event>
<event>
 5   0  0.4208577E-05  0.2379610E+04  0.7818609E-02  0.8447177E-01
        1   -1    0    0  501    0  0.00000000000E+00  0.00000000000E+00  0.27353900800E+04  0.27353900800E+04  0.50400001928E-02 0.  1.
       -1   -1    0    0    0  501  0.00000000000E+00  0.00000000000E+00 -0.51752611426E+03  0.51752611429E+03  0.50400001928E-02 0. -1.
    10030    2    1    2    0    0  0.00000000000E+00  0.00000000000E+00  0.22178639657E+04  0.32529161943E+04  0.23796098833E+04 0.  0.
        1    1    3    3  502    0  0.90876076727E+02  0.86763386311E+03  0.22149224953E+04  0.23805311680E+04  0.50400001928E-02 0.  1.
       -1    1    3    3    0  502 -0.90876076727E+02 -0.86763386311E+03  0.29414704155E+01  0.87238502624E+03  0.50400001928E-02 0. -1.
</event>
<event>
 5   0  0.9182865E-05  0.2488219E+04  0.7818609E-02  0.8407195E-01
        2   -1    0    0  501    0  0.00000000000E+00  0.00000000000E+00  0.20248926588E+04  0.20248926588E+04  0.25500000920E-02 0. -1.
       -2   -1    0    0    0  501  0.00000000000E+00  0.00000000000E+00 -0.76439029374E+03  0.76439029375E+03  0.25500000920E-02 0.  1.
    10030    2    1    2    0    0  0.00000000000E+00  0.00000000000E+00  0.12605023650E+04  0.27892829525E+04  0.24882188764E+04 0.  0.
        3    1    3    3  502    0 -0.15291879562E+02 -0.10076681735E+04 -0.18752221528E+03  0.10250822313E+04  0.10100000352E+00 0.  1.
       -3    1    3    3    0  502  0.15291879562E+02  0.10076681735E+04  0.14480245803E+04  0.17642007212E+04  0.10100000352E+00 0. -1.
</event>
<event>
 5   0  0.4208577E-05  0.2437064E+04  0.7818609E-02  0.8425756E-01
       -1   -1    0    0    0  501  0.00000000000E+00  0.00000000000E+00  0.67456336673E+03  0.67456336675E+03  0.50400001928E-02 0.  1.
        1   -1    0    0  501    0  0.00000000000E+00  0.00000000000E+00 -0.22011572383E+04  0.22011572383E+04  0.50400001928E-02 0. -1.
    10030    2    1    2    0    0  0.00000000000E+00  0.00000000000E+00 -0.15265938716E+04  0.28757206050E+04  0.24370638378E+04 0.  0.
        1    1    3    3  502    0  0.58720455300E+02 -0.91605700819E+03 -0.17089216713E+04  0.19398509770E+04  0.50400001928E-02 0. -1.
       -1    1    3    3    0  502 -0.58720455300E+02  0.91605700819E+03  0.18232779977E+03  0.93586962806E+03  0.50400001928E-02 0.  1.
</event>
<event>
 5   0  0.4208577E-05  0.2385321E+04  0.7818609E-02  0.8445019E-01
        1   -1    0    0  501    0  0.00000000000E+00  0.00000000000E+00  0.18653986947E+04  0.18653986947E+04  0.50400001928E-02 0. -1.
       -1   -1    0    0    0  501  0.00000000000E+00  0.00000000000E+00 -0.76253918403E+03  0.76253918404E+03  0.50400001928E-02 0.  1.
    10030    2    1    2    0    0  0.00000000000E+00  0.00000000000E+00  0.11028595106E+04  0.26279378787E+04  0.23853214446E+04 0.  0.
        1    1    3    3  502    0 -0.94275941226E+03  0.37544309123E+03 -0.13895520109E+03  0.10242369707E+04  0.50400001928E-02 0.  1.
       -1    1    3    3    0  502  0.94275941226E+03 -0.37544309123E+03  0.12418147117E+04  0.16037009081E+04  0.50400001928E-02 0. -1.
</event>
<event>
 5   0  0.3934906E-05  0.2500957E+04  0.7818609E-02  0.8402645E-01
        1   -1    0    0  501    0  0.00000000000E+00  0.00000000000E+00  0.16713203558E+04  0.16713203558E+04  0.50400001928E-02 0. -1.
       -1   -1    0    0    0  501  0.00000000000E+00  0.00000000000E+00 -0.93560522672E+03  0.93560522673E+03  0.50400001928E-02 0.  1.
    10030    2    1    2    0    0  0.00000000000E+00  0.00000000000E+00  0.73571512910E+03  0.26069255826E+04  0.25009566653E+04 0.  0.
        2    1    3    3  502    0 -0.38826838563E+03  0.58192260817E+03 -0.71254905363E+03  0.99855516373E+03  0.25500000920E-02 0.  1.
       -2    1    3    3    0  502  0.38826838563E+03 -0.58192260817E+03  0.14482641827E+04  0.16083704188E+04  0.25500000920E-02 0. -1.
</event>
<event>
 5   0  0.9144244E-05  0.2389645E+04  0.7818609E-02  0.8443391E-01
        2   -1    0    0  501    0  0.00000000000E+00  0.00000000000E+00  0.14424921314E+04  0.14424921314E+04  0.25500000920E-02 0. -1.
       -2   -1    0    0    0  501  0.00000000000E+00  0.00000000000E+00 -0.98967649656E+03  0.98967649656E+03  0.25500000920E-02 0.  1.
    10030    2    1    2    0    0  0.00000000000E+00  0.00000000000E+00  0.45281563486E+03  0.24321686280E+04  0.23896447928E+04 0.  0.
        1    1    3    3  502    0  0.33284331914E+03 -0.23132546816E+03  0.13703770348E+04  0.14290659064E+04  0.50400001928E-02 0. -1.
       -1    1    3    3    0  502 -0.33284331914E+03  0.23132546816E+03 -0.91756139995E+03  0.10031027216E+04  0.50400001928E-02 0.  1.
</event>
<event>
 5   0  0.3234750E-05  0.2377959E+04  0.7818609E-02  0.8447802E-01
       -3   -1    0    0    0  501  0.00000000000E+00  0.00000000000E+00  0.13718231039E+04  0.13718231076E+04  0.10100000352E+00 0.  1.
        3   -1    0    0  501    0  0.00000000000E+00  0.00000000000E+00 -0.10305064931E+04  0.10305064980E+04  0.10100000352E+00 0. -1.
    10030    2    1    2    0    0  0.00000000000E+00  0.00000000000E+00  0.34131661081E+03  0.24023296056E+04  0.23779593153E+04 0.  0.
        3    1    3    3  502    0 -0.78710755372E+03 -0.87180203024E+03  0.35720043407E+03  0.12276682131E+04  0.10100000352E+00 0. -1.
       -3    1    3    3    0  502  0.78710755372E+03  0.87180203024E+03 -0.15883823261E+02  0.11746613925E+04  0.10100000352E+00 0.  1.
</event>
<event>
 5   0  0.9182865E-05  0.2397583E+04  0.7818609E-02  0.8440409E-01
       -2   -1    0    0    0  501  0.00000000000E+00  0.00000000000E+00  0.79327415077E+03  0.79327415077E+03  0.25500000920E-02 0. -1.
        2   -1    0    0  501    0  0.00000000000E+00  0.00000000000E+00 -0.18116069800E+04  0.18116069800E+04  0.25500000920E-02 0.  1.
    10030    2    1    2    0    0  0.00000000000E+00  0.00000000000E+00 -0.10183328292E+04  0.26048811307E+04  0.23975829400E+04 0.  0.
        3    1    3    3  502    0  0.10179877335E+04  0.31275413283E+03 -0.11072007621E+04  0.15362316593E+04  0.10100000352E+00 0.  1.
       -3    1    3    3    0  502 -0.10179877335E+04 -0.31275413283E+03  0.88867932881E+02  0.10686494715E+04  0.10100000352E+00 0. -1.
</event>
<event>
 5   0  0.9750757E-05  0.2373480E+04  0.7818609E-02  0.8449500E-01
        2   -1    0    0  501    0  0.00000000000E+00  0.00000000000E+00  0.21162695884E+04  0.21162695885E+04  0.25500000920E-02 0. -1.
       -2   -1    0    0    0  501  0.00000000000E+00  0.00000000000E+00 -0.66548763246E+03  0.66548763246E+03  0.25500000920E-02 0.  1.
    10030    2    1    2    0    0  0.00000000000E+00  0.00000000000E+00  0.14507819560E+04  0.27817572209E+04  0.23734795032E+04 0.  0.
        2    1    3    3  502    0  0.11256239468E+04  0.43059080248E+02  0.11630852311E+04  0.16191512001E+04  0.25500000920E-02 0. -1.
       -2    1    3    3    0  502 -0.11256239468E+04 -0.43059080248E+02  0.28769672493E+03  0.11626060208E+04  0.25500000920E-02 0.  1.
</event>
<event>
 5   0  0.9144244E-05  0.2308348E+04  0.7818609E-02  0.8474637E-01
        2   -1    0    0  501    0  0.00000000000E+00  0.00000000000E+00  0.21659013898E+04  0.21659013898E+04  0.25500000920E-02 0.  1.
       -2   -1    0    0    0  501  0.00000000000E+00  0.00000000000E+00 -0.61504053766E+03  0.61504053766E+03  0.25500000920E-02 0. -1.
    10030    2    1    2    0    0  0.00000000000E+00  0.00000000000E+00  0.15508608522E+04  0.27809419275E+04  0.23083475954E+04 0.  0.
        1    1    3    3  502    0  0.81351089339E+03  0.66673190745E+03  0.20297856265E+03  0.10712290637E+04  0.50400001928E-02 0. -1.
       -1    1    3    3    0  502 -0.81351089339E+03 -0.66673190745E+03  0.13478822895E+04  0.17097128638E+04  0.50400001928E-02 0.  1.
</event>
<event>
 5   0  0.9182865E-05  0.2319142E+04  0.7818609E-02  0.8470412E-01
        2   -1    0    0  501    0  0.00000000000E+00  0.00000000000E+00  0.19868114902E+04  0.19868114902E+04  0.25500000920E-02 0.  1.
       -2   -1    0    0    0  501  0.00000000000E+00  0.00000000000E+00 -0.67676539931E+03  0.67676539931E+03  0.25500000920E-02 0. -1.
    10030    2    1    2    0    0  0.00000000000E+00  0.00000000000E+00  0.13100460909E+04  0.26635768895E+04  0.23191423169E+04 0.  0.
        3    1    3    3  502    0  0.10252428892E+03  0.63754883132E+03  0.17611989177E+04  0.18758468434E+04  0.10100000352E+00 0.  1.
       -3    1    3    3    0  502 -0.10252428892E+03 -0.63754883132E+03 -0.45115282681E+03  0.78773004607E+03  0.10100000352E+00 0. -1.
</event>
<event>
 5   0  0.4208577E-05  0.2508926E+04  0.7818609E-02  0.8399813E-01
       -1   -1    0    0    0  501  0.00000000000E+00  0.00000000000E+00  0.13005659747E+04  0.13005659747E+04  0.50400001928E-02 0. -1.
        1   -1    0    0  501    0  0.00000000000E+00  0.00000000000E+00 -0.12099939683E+04  0.12099939683E+04  0.50400001928E-02 0.  1.
    10030    2    1    2    0    0  0.00000000000E+00  0.00000000000E+00  0.90572006368E+02  0.25105599430E+04  0.25089256543E+04 0.  0.
        1    1    3    3  502    0  0.74588600613E+03  0.69709851328E+03 -0.68415022845E+03  0.12289645261E+04  0.50400001928E-02 0.  1.
       -1    1    3    3    0  502 -0.74588600613E+03 -0.69709851328E+03  0.77472223482E+03  0.12815954169E+04  0.50400001928E-02 0. -1.
</event>
<event>
 5   0  0.3234750E-05  0.2278887E+04  0.7818609E-02  0.8486292E-01
       -3   -1    0    0    0  501  0.00000000000E+00  0.00000000000E+00  0.14492912558E+04  0.14492912593E+04  0.10100000352E+00 0.  1.
        3   -1    0    0  501    0  0.00000000000E+00  0.00000000000E+00 -0.89583907559E+03  0.89583908129E+03  0.10100000352E+00 0. -1.
    10030    2    1    2    0    0  0.00000000000E+00  0.00000000000E+00  0.55345218017E+03  0.23451303406E+04  0.22788872281E+04 0.  0.
        3    1    3    3  502    0 -0.20730530909E+03  0.40480747897E+03 -0.79838530576E+03  0.91883822997E+03  0.10100000352E+00 0. -1.
       -3    1    3    3    0  502  0.20730530909E+03 -0.40480747897E+03  0.13518374859E+04  0.14262921106E+04  0.10100000352E+00 0.  1.
</event>
<event>
 5   0  0.9519092E-05  0.1780574E+04  0.7818609E-02  0.8716699E-01
        2   -1    0    0  501    0  0.00000000000E+00  0.00000000000E+00  0.10666135350E+04  0.10666135350E+04  0.25500000920E-02 0.  1.
       -2   -1    0    0    0  501  0.00000000000E+00  0.00000000000E+00 -0.74310995738E+03  0.74310995738E+03  0.25500000920E-02 0. -1.
    10030    2    1    2    0    0  0.00000000000E+00  0.00000000000E+00  0.32350357758E+03  0.18097234923E+04  0.17805742203E+04 0.  0.
        4    1    3    3  502    0  0.23568622525E+03 -0.34156963326E+03  0.96229566065E+03  0.10479658213E+04  0.12699999809E+01 0.  1.
       -4    1    3    3    0  502 -0.23568622525E+03  0.34156963326E+03 -0.63879208307E+03  0.76175767107E+03  0.12699999809E+01 0. -1.
</event>
<event>
 5   0  0.9750757E-05  0.2433569E+04  0.7818609E-02  0.8427042E-01
        2   -1    0    0  501    0  0.00000000000E+00  0.00000000000E+00  0.94205195436E+03  0.94205195437E+03  0.25500000920E-02 0.  1.
       -2   -1    0    0    0  501  0.00000000000E+00  0.00000000000E+00 -0.15716374661E+04  0.15716374661E+04  0.25500000920E-02 0. -1.
    10030    2    1    2    0    0  0.00000000000E+00  0.00000000000E+00 -0.62958551176E+03  0.25136894205E+04  0.24335686935E+04 0.  0.
        2    1    3    3  502    0  0.56703601808E+03  0.73584991619E+03  0.49692922407E+03  0.10535386081E+04  0.25500000920E-02 0.  1.
       -2    1    3    3    0  502 -0.56703601808E+03 -0.73584991619E+03 -0.11265147358E+04  0.14601508124E+04  0.25500000920E-02 0. -1.
</event>
<event>
 5   0  0.3934906E-05  0.2364259E+04  0.7818609E-02  0.8453007E-01
        1   -1    0    0  501    0  0.00000000000E+00  0.00000000000E+00  0.18124886906E+04  0.18124886906E+04  0.50400001928E-02 0. -1.
       -1   -1    0    0    0  501  0.00000000000E+00  0.00000000000E+00 -0.77100052917E+03  0.77100052919E+03  0.50400001928E-02 0.  1.
    10030    2    1    2    0    0  0.00000000000E+00  0.00000000000E+00  0.10414881614E+04  0.25834892198E+04  0.23642586488E+04 0.  0.
        2    1    3    3  502    0  0.11482394819E+04  0.15780543853E+02  0.21414349225E+03  0.11681439845E+04  0.25500000920E-02 0. -1.
       -2    1    3    3    0  502 -0.11482394819E+04 -0.15780543853E+02  0.82734466916E+03  0.14153452352E+04  0.25500000920E-02 0.  1.
</event>
<event>
 5   0  0.3934906E-05  0.2426973E+04  0.7818609E-02  0.8429474E-01
        1   -1    0    0  501    0  0.00000000000E+00  0.00000000000E+00  0.10473771818E+04  0.10473771819E+04  0.50400001928E-02 0.  1.
       -1   -1    0    0    0  501  0.00000000000E+00  0.00000000000E+00 -0.14059400001E+04  0.14059400001E+04  0.50400001928E-02 0. -1.
    10030    2    1    2    0    0  0.00000000000E+00  0.00000000000E+00 -0.35856281827E+03  0.24533171820E+04  0.24269729914E+04 0.  0.
        2    1    3    3  502    0  0.47514710174E+03  0.72568188214E+03 -0.10371216696E+04  0.13520356208E+04  0.25500000920E-02 0. -1.
       -2    1    3    3    0  502 -0.47514710174E+03 -0.72568188214E+03  0.67855885130E+03  0.11012815612E+04  0.25500000920E-02 0.  1.
</event>
<event>
 5   0  0.9144244E-05  0.2379087E+04  0.7818609E-02  0.8447375E-01
       -2   -1    0    0    0  501  0.00000000000E+00  0.00000000000E+00  0.68080119875E+03  0.68080119876E+03  0.25500000920E-02 0. -1.
        2   -1    0    0  501    0  0.00000000000E+00  0.00000000000E+00 -0.20784531379E+04  0.20784531379E+04  0.25500000920E-02 0.  1.
    10030    2    1    2    0    0  0.00000000000E+00  0.00000000000E+00 -0.13976519391E+04  0.27592543366E+04  0.23790867053E+04 0.  0.
        1    1    3    3  502    0 -0.42119071624E+03  0.97792446231E+03 -0.13139283779E+04  0.16911965160E+04  0.50400001928E-02 0.  1.
       -1    1    3    3    0  502  0.42119071624E+03 -0.97792446231E+03 -0.83723561195E+02  0.10680578206E+04  0.50400001928E-02 0. -1.
</event>
<event>
 5   0  0.4208577E-05  0.2163135E+04  0.7818609E-02  0.8533931E-01
       -1   -1    0    0    0  501  0.00000000000E+00  0.00000000000E+00  0.20831298392E+04  0.20831298392E+04  0.50400001928E-02 0.  1.
        1   -1    0    0  501    0  0.00000000000E+00  0.00000000000E+00 -0.56155305893E+03  0.56155305895E+03  0.50400001928E-02 0. -1.
    10030    2    1    2    0    0  0.00000000000E+00  0.00000000000E+00  0.15215767803E+04  0.26446828982E+04  0.21631347008E+04 0.  0.
        1    1    3    3  502    0  0.62342216846E+03  0.29459731686E+03 -0.25798536164E+03  0.73620596715E+03  0.50400001928E-02 0. -1.
       -1    1    3    3    0  502 -0.62342216846E+03 -0.29459731686E+03  0.17795621419E+04  0.19084769310E+04  0.50400001928E-02 0.  1.
</event>
<event>
 5   0  0.4018942E-05  0.2346166E+04  0.7818609E-02  0.8459938E-01
       -1   -1    0    0    0  501  0.00000000000E+00  0.00000000000E+00  0.25024884764E+04  0.25024884764E+04  0.50400001928E-02 0.  1.
        1   -1    0    0  501    0  0.00000000000E+00  0.00000000000E+00 -0.54990203293E+03  0.54990203295E+03  0.50400001928E-02 0. -1.
    10030    2    1    2    0    0  0.00000000000E+00  0.00000000000E+00  0.19525864434E+04  0.30523905093E+04  0.23461658088E+04 0.  0.
        5    1    3    3  502    0 -0.12024630115E+03 -0.99631217934E+03  0.18598391866E+03  0.10206415824E+04  0.46999998093E+01 0. -1.
       -5    1    3    3    0  502  0.12024630115E+03  0.99631217934E+03  0.17666025248E+04  0.20317489270E+04  0.46999998093E+01 0.  1.
</event>
<event>
 5   0  0.4208577E-05  0.2347271E+04  0.7818609E-02  0.8459513E-01
       -1   -1    0    0    0  501  0.00000000000E+00  0.00000000000E+00  0.64107436932E+03  0.64107436934E+03  0.50400001928E-02 0. -1.
        1   -1    0    0  501    0  0.00000000000E+00  0.00000000000E+00 -0.21486123483E+04  0.21486123483E+04  0.50400001928E-02 0.  1.
    10030    2    1    2    0    0  0.00000000000E+00  0.00000000000E+00 -0.15075379790E+04  0.27896867177E+04  0.23472710164E+04 0.  0.
        1    1    3    3  502    0  0.92948405399E+03 -0.50907939319E+03 -0.13531191666E+04  0.17187303204E+04  0.50400001928E-02 0.  1.
       -1    1    3    3    0  502 -0.92948405399E+03  0.50907939319E+03 -0.15441881237E+03  0.10709563973E+04  0.50400001928E-02 0. -1.
</event>
<event>
 5   0  0.4061631E-05  0.2450684E+04  0.7818609E-02  0.8420768E-01
        1   -1    0    0  501    0  0.00000000000E+00  0.00000000000E+00  0.17688092473E+04  0.17688092473E+04  0.50400001928E-02 0.  1.
       -1   -1    0    0    0  501  0.00000000000E+00  0.00000000000E+00 -0.84885494594E+03  0.84885494596E+03  0.50400001928E-02 0. -1.
    10030    2    1    2    0    0  0.00000000000E+00  0.00000000000E+00  0.91995430140E+03  0.26176641933E+04  0.24506835602E+04 0.  0.
        3    1    3    3  502    0 -0.94715269537E+03 -0.45782761113E+03  0.11310848632E+04  0.15446868058E+04  0.10100000352E+00 0.  1.
       -3    1    3    3    0  502  0.94715269537E+03  0.45782761113E+03 -0.21113056183E+03  0.10729773876E+04  0.10100000352E+00 0. -1.
</event>
<event>
 5   0  0.9182865E-05  0.2364949E+04  0.7818609E-02  0.8452744E-01
       -2   -1    0    0    0  501  0.00000000000E+00  0.00000000000E+00  0.85499342922E+03  0.85499342923E+03  0.25500000920E-02 0. -1.
        2   -1    0    0  501    0  0.00000000000E+00  0.00000000000E+00 -0.16353881955E+04  0.16353881955E+04  0.25500000920E-02 0.  1.
    10030    2    1    2    0    0  0.00000000000E+00  0.00000000000E+00 -0.78039476629E+03  0.24903816247E+04  0.23649491846E+04 0.  0.
        3    1    3    3  502    0 -0.98238389033E+02 -0.43247523971E+02 -0.16302475802E+04  0.16337773142E+04  0.10100000352E+00 0.  1.
       -3    1    3    3    0  502  0.98238389033E+02  0.43247523971E+02  0.84985281389E+03  0.85660431057E+03  0.10100000352E+00 0. -1.
</event>
<event>
 5   0  0.9144244E-05  0.1388753E+04  0.7818609E-02  0.8962000E-01
       -2   -1    0    0    0  501  0.00000000000E+00  0.00000000000E+00  0.79695795592E+03  0.79695795592E+03  0.25500000920E-02 0. -1.
        2   -1    0    0  501    0  0.00000000000E+00  0.00000000000E+00 -0.60499921845E+03  0.60499921845E+03  0.25500000920E-02 0.  1.
    10030    2    1    2    0    0  0.00000000000E+00  0.00000000000E+00  0.19195873747E+03  0.14019571744E+04  0.13887533121E+04 0.  0.
        1    1    3    3  502    0 -0.43768938349E+03 -0.53167078554E+02 -0.44555373169E+03  0.62683080853E+03  0.50400001928E-02 0.  1.
       -1    1    3    3    0  502  0.43768938349E+03  0.53167078554E+02  0.63751246917E+03  0.77512636585E+03  0.50400001928E-02 0. -1.
</event>
<event>
 5   0  0.3234750E-05  0.2327446E+04  0.7818609E-02  0.8467177E-01
        3   -1    0    0  501    0  0.00000000000E+00  0.00000000000E+00  0.14732076488E+04  0.14732076523E+04  0.10100000352E+00 0.  1.
       -3   -1    0    0    0  501  0.00000000000E+00  0.00000000000E+00 -0.91925352014E+03  0.91925352568E+03  0.10100000352E+00 0. -1.
    10030    2    1    2    0    0  0.00000000000E+00  0.00000000000E+00  0.55395412871E+03  0.23924611780E+04  0.23274460921E+04 0.  0.
        5    1    3    3  502    0  0.12356498700E+03  0.23074809657E+03  0.14425456523E+04  0.14661081266E+04  0.46999998093E+01 0.  1.
       -5    1    3    3    0  502 -0.12356498700E+03 -0.23074809657E+03 -0.88859152355E+03  0.92635305138E+03  0.46999998093E+01 0. -1.
</event>
<event>
 5   0  0.9519092E-05  0.2410553E+04  0.7818609E-02  0.8435563E-01
        2   -1    0    0  501    0  0.00000000000E+00  0.00000000000E+00  0.14409172136E+04  0.14409172136E+04  0.25500000920E-02 0. -1.
       -2   -1    0    0    0  501  0.00000000000E+00  0.00000000000E+00 -0.10081710242E+04  0.10081710242E+04  0.25500000920E-02 0.  1.
    10030    2    1    2    0    0  0.00000000000E+00  0.00000000000E+00  0.43274618941E+03  0.24490882377E+04  0.24105526196E+04 0.  0.
        4    1    3    3  502    0  0.97032443880E+03  0.50528907245E+03  0.73026812988E+03  0.13153477554E+04  0.12699999809E+01 0. -1.
       -4    1    3    3    0  502 -0.97032443880E+03 -0.50528907245E+03 -0.29752194047E+03  0.11337404823E+04  0.12699999809E+01 0.  1.
</event>
<event>
 5   0  0.3934906E-05  0.1191345E+04  0.7818609E-02  0.9120466E-01
       -1   -1    0    0    0  501  0.00000000000E+00  0.00000000000E+00  0.65746147611E+03  0.65746147613E+03  0.50400001928E-02 0.  1.
        1   -1    0    0  501    0  0.00000000000E+00  0.00000000000E+00 -0.53969063285E+03  0.53969063287E+03  0.50400001928E-02 0. -1.
    10030    2    1    2    0    0  0.00000000000E+00  0.00000000000E+00  0.11777084326E+03  0.11971521090E+04  0.11913451224E+04 0.  0.
        2    1    3    3  502    0  0.47951326269E+03 -0.33126038246E+03  0.18260903856E+03  0.61074746913E+03  0.25500000920E-02 0. -1.
       -2    1    3    3    0  502 -0.47951326269E+03  0.33126038246E+03 -0.64838195296E+02  0.58640463987E+03  0.25500000920E-02 0.  1.
</event>
<event>
 5   0  0.9491680E-05  0.2228893E+04  0.7818609E-02  0.8506498E-01
        2   -1    0    0  501    0  0.00000000000E+00  0.00000000000E+00  0.19187112252E+04  0.19187112252E+04  0.25500000920E-02 0.  1.
       -2   -1    0    0    0  501  0.00000000000E+00  0.00000000000E+00 -0.64730457516E+03  0.64730457517E+03  0.25500000920E-02 0. -1.
    10030    2    1    2    0    0  0.00000000000E+00  0.00000000000E+00  0.12714066500E+04  0.25660158004E+04  0.22288925990E+04 0.  0.
        5    1    3    3  502    0  0.28801099389E+03 -0.72123904049E+03 -0.28445729717E+03  0.82708774023E+03  0.46999998093E+01 0. -1.
       -5    1    3    3    0  502 -0.28801099389E+03  0.72123904049E+03  0.15558639472E+04  0.17389280601E+04  0.46999998093E+01 0.  1.
</event>
<event>
 5   0  0.9491680E-05  0.2409240E+04  0.7818609E-02  0.8436052E-01
        2   -1    0    0  501    0  0.00000000000E+00  0.00000000000E+00  0.12455504678E+04  0.12455504678E+04  0.25500000920E-02 0.  1.
       -2   -1    0    0    0  501  0.00000000000E+00  0.00000000000E+00 -0.11650342966E+04  0.11650342966E+04  0.25500000920E-02 0. -1.
    10030    2    1    2    0    0  0.00000000000E+00  0.00000000000E+00  0.80516171136E+02  0.24105847644E+04  0.24092397250E+04 0.  0.
        5    1    3    3  502    0  0.10783130935E+04 -0.32354892624E+03 -0.38851807493E+03  0.11909707888E+04  0.46999998093E+01 0. -1.
       -5    1    3    3    0  502 -0.10783130935E+04  0.32354892624E+03  0.46903424606E+03  0.12196139755E+04  0.46999998093E+01 0.  1.
</event>
<event>
 5   0  0.9182865E-05  0.2384792E+04  0.7818609E-02  0.8445219E-01
       -2   -1    0    0    0  501  0.00000000000E+00  0.00000000000E+00  0.82255469474E+03  0.82255469474E+03  0.25500000920E-02 0. -1.
        2   -1    0    0  501    0  0.00000000000E+00  0.00000000000E+00 -0.17285265772E+04  0.17285265772E+04  0.25500000920E-02 0.  1.
    10030    2    1    2    0    0  0.00000000000E+00  0.00000000000E+00 -0.90597188245E+03  0.25510812719E+04  0.23847915222E+04 0.  0.
        3    1    3    3  502    0 -0.74591854082E+03 -0.71636483070E+03  0.18189148134E+03  0.10500750266E+04  0.10100000352E+00 0. -1.
       -3    1    3    3    0  502  0.74591854082E+03  0.71636483070E+03 -0.10878633638E+04  0.15010062454E+04  0.10100000352E+00 0.  1.
</event>
<event>
 5   0  0.9491680E-05  0.2363516E+04  0.7818609E-02  0.8453290E-01
        2   -1    0    0  501    0  0.00000000000E+00  0.00000000000E+00  0.19211554130E+04  0.19211554130E+04  0.25500000920E-02 0. -1.
       -2   -1    0    0    0  501  0.00000000000E+00  0.00000000000E+00 -0.72693327629E+03  0.72693327630E+03  0.25500000920E-02 0.  1.
    10030    2    1    2    0    0  0.00000000000E+00  0.00000000000E+00  0.11942221367E+04  0.26480886893E+04  0.23635158545E+04 0.  0.
        5    1    3    3  502    0 -0.11330219757E+04 -0.29515297752E+03  0.77664005080E+03  0.14050074506E+04  0.46999998093E+01 0.  1.
       -5    1    3    3    0  502  0.11330219757E+04  0.29515297752E+03  0.41758208593E+03  0.12430812388E+04  0.46999998093E+01 0. -1.
</event>
<event>
 5   0  0.9750757E-05  0.2336154E+04  0.7818609E-02  0.8463801E-01
       -2   -1    0    0    0  501  0.00000000000E+00  0.00000000000E+00  0.68727298681E+03  0.68727298681E+03  0.25500000920E-02 0. -1.
        2   -1    0    0  501    0  0.00000000000E+00  0.00000000000E+00 -0.19852431409E+04  0.19852431409E+04  0.25500000920E-02 0.  1.
    10030    2    1    2    0    0  0.00000000000E+00  0.00000000000E+00 -0.12979701541E+04  0.26725161278E+04  0.23361540900E+04 0.  0.
        2    1    3    3  502    0  0.22141084023E+03 -0.36749252372E+03  0.59387048043E+03  0.73263610524E+03  0.25500000920E-02 0. -1.
       -2    1    3    3    0  502 -0.22141084023E+03  0.36749252372E+03 -0.18918406346E+04  0.19398800225E+04  0.25500000920E-02 0.  1.
</event>
<event>
 5   0  0.9491680E-05  0.2354614E+04  0.7818609E-02  0.8456694E-01
        2   -1    0    0  501    0  0.00000000000E+00  0.00000000000E+00  0.16620552564E+04  0.16620552564E+04  0.25500000920E-02 0.  1.
       -2   -1    0    0    0  501  0.00000000000E+00  0.00000000000E+00 -0.83393812613E+03  0.83393812614E+03  0.25500000920E-02 0. -1.
    10030    2    1    2    0    0  0.00000000000E+00  0.00000000000E+00  0.82811713026E+03  0.24959933825E+04  0.23546135531E+04 0.  0.
        5    1    3    3  502    0  0.71879413185E+03  0.83879856929E+03  0.84566838258E+03  0.13911955819E+04  0.46999998093E+01 0.  1.
       -5    1    3    3    0  502 -0.71879413185E+03 -0.83879856929E+03 -0.17551252315E+02  0.11047978006E+04  0.46999998093E+01 0. -1.
</event>
<event>
 5   0  0.9750757E-05  0.2394905E+04  0.7818609E-02  0.8441413E-01
        2   -1    0    0  501    0  0.00000000000E+00  0.00000000000E+00  0.14537896021E+04  0.14537896021E+04  0.25500000920E-02 0. -1.
       -2   -1    0    0    0  501  0.00000000000E+00  0.00000000000E+00 -0.98631367234E+03  0.98631367234E+03  0.25500000920E-02 0.  1.
    10030    2    1    2    0    0  0.00000000000E+00  0.00000000000E+00  0.46747592975E+03  0.24401032744E+04  0.23949050597E+04 0.  0.
        2    1    3    3  502    0  0.36502022288E+02  0.49388804750E+03  0.13445590620E+04  0.14328631730E+04  0.25500000920E-02 0. -1.
       -2    1    3    3    0  502 -0.36502022288E+02 -0.49388804750E+03 -0.87708313229E+03  0.10072401015E+04  0.25500000920E-02 0.  1.
</event>
<event>
 5   0  0.9519092E-05  0.2726205E+04  0.7818609E-02  0.8326552E-01
        2   -1    0    0  501    0  0.00000000000E+00  0.00000000000E+00  0.17875049763E+04  0.17875049763E+04  0.25500000920E-02 0. -1.
       -2   -1    0    0    0  501  0.00000000000E+00  0.00000000000E+00 -0.10394650229E+04  0.10394650229E+04  0.25500000920E-02 0.  1.
    10030    2    1    2    0    0  0.00000000000E+00  0.00000000000E+00  0.74803995342E+03  0.28269699993E+04  0.27262053490E+04 0.  0.
        4    1    3    3  502    0 -0.42228406954E+03  0.90910864384E+03  0.13318743609E+04  0.16669412970E+04  0.12699999809E+01 0. -1.
       -4    1    3    3    0  502  0.42228406954E+03 -0.90910864384E+03 -0.58383440747E+03  0.11600287022E+04  0.12699999809E+01 0.  1.
</event>
<event>
 5   0  0.9144244E-05  0.2426885E+04  0.7818609E-02  0.8429506E-01
        2   -1    0    0  501    0  0.00000000000E+00  0.00000000000E+00  0.11799133613E+04  0.11799133613E+04  0.25500000920E-02 0. -1.
       -2   -1    0    0    0  501  0.00000000000E+00  0.00000000000E+00 -0.12479244868E+04  0.12479244868E+04  0.25500000920E-02 0.  1.
    10030    2    1    2    0    0  0.00000000000E+00  0.00000000000E+00 -0.68011125534E+02  0.24278378482E+04  0.24268850619E+04 0.  0.
        1    1    3    3  502    0  0.76713839548E+03  0.75428457859E+03  0.52746003182E+03  0.11981905644E+04  0.50400001928E-02 0.  1.
       -1    1    3    3    0  502 -0.76713839548E+03 -0.75428457859E+03 -0.59547115735E+03  0.12296472838E+04  0.50400001928E-02 0. -1.
</event>
<event>
 5   0  0.4208577E-05  0.2212175E+04  0.7818609E-02  0.8513378E-01
        1   -1    0    0  501    0  0.00000000000E+00  0.00000000000E+00  0.10148399975E+04  0.10148399975E+04  0.50400001928E-02 0.  1.
       -1   -1    0    0    0  501  0.00000000000E+00  0.00000000000E+00 -0.12055390657E+04  0.12055390657E+04  0.50400001928E-02 0. -1.
    10030    2    1    2    0    0  0.00000000000E+00  0.00000000000E+00 -0.19069906825E+03  0.22203790632E+04  0.22121747331E+04 0.  0.
        1    1    3    3  502    0  0.26003760021E+03  0.30158638455E+03  0.94039585093E+03  0.10212336938E+04  0.50400001928E-02 0.  1.
       -1    1    3    3    0  502 -0.26003760021E+03 -0.30158638455E+03 -0.11310949192E+04  0.11991453695E+04  0.50400001928E-02 0. -1.
</event>
<event>
 5   0  0.4018942E-05  0.2477010E+04  0.7818609E-02  0.8411222E-01
       -1   -1    0    0    0  501  0.00000000000E+00  0.00000000000E+00  0.16768322665E+04  0.16768322665E+04  0.50400001928E-02 0. -1.
        1   -1    0    0  501    0  0.00000000000E+00  0.00000000000E+00 -0.91475710202E+03  0.91475710203E+03  0.50400001928E-02 0.  1.
    10030    2    1    2    0    0  0.00000000000E+00  0.00000000000E+00  0.76207516447E+03  0.25915893685E+04  0.24770096687E+04 0.  0.
        5    1    3    3  502    0  0.10049610394E+04  0.24413918561E+03 -0.33189405212E+03  0.10861521000E+04  0.46999998093E+01 0.  1.
       -5    1    3    3    0  502 -0.10049610394E+04 -0.24413918561E+03  0.10939692166E+04  0.15054372685E+04  0.46999998093E+01 0. -1.
</event>
<event>
 5   0  0.3934906E-05  0.2329235E+04  0.7818609E-02  0.8466483E-01
       -1   -1    0    0    0  501  0.00000000000E+00  0.00000000000E+00  0.91372438844E+03  0.91372438845E+03  0.50400001928E-02 0. -1.
        1   -1    0    0  501    0  0.00000000000E+00  0.00000000000E+00 -0.14844009755E+04  0.14844009756E+04  0.50400001928E-02 0.  1.
    10030    2    1    2    0    0  0.00000000000E+00  0.00000000000E+00 -0.57067658711E+03  0.23981253640E+04  0.23292345297E+04 0.  0.
        2    1    3    3  502    0  0.10720687117E+04 -0.43969737959E+03 -0.40570749116E+03  0.12277066736E+04  0.25500000920E-02 0.  1.
       -2    1    3    3    0  502 -0.10720687117E+04  0.43969737959E+03 -0.16496909595E+03  0.11704186904E+04  0.25500000920E-02 0. -1.
</event>
<event>
 5   0  0.4018942E-05  0.2412514E+04  0.7818609E-02  0.8434833E-01
        1   -1    0    0  501    0  0.00000000000E+00  0.00000000000E+00  0.22708614311E+04  0.22708614311E+04  0.50400001928E-02 0.  1.
       -1   -1    0    0    0  501  0.00000000000E+00  0.00000000000E+00 -0.64075056184E+03  0.64075056186E+03  0.50400001928E-02 0. -1.
    10030    2    1    2    0    0  0.00000000000E+00  0.00000000000E+00  0.16301108693E+04  0.29116119930E+04  0.24125138241E+04 0.  0.
        5    1    3    3  502    0  0.92961274170E+03 -0.31629295663E+03 -0.30459970280E+02  0.98243115980E+03  0.46999998093E+01 0. -1.
       -5    1    3    3    0  502 -0.92961274170E+03  0.31629295663E+03  0.16605708395E+04  0.19291808332E+04  0.46999998093E+01 0.  1.
</event>
<event>
 5   0  0.9144244E-05  0.2329135E+04  0.7818609E-02  0.8466522E-01
       -2   -1    0    0    0  501  0.00000000000E+00  0.00000000000E+00  0.13132334367E+04  0.13132334367E+04  0.25500000920E-02 0. -1.
        2   -1    0    0  501    0  0.00000000000E+00  0.00000000000E+00 -0.10327310757E+04  0.10327310757E+04  0.25500000920E-02 0.  1.
    10030    2    1    2    0    0  0.00000000000E+00  0.00000000000E+00  0.28050236099E+03  0.23459645124E+04  0.23291345859E+04 0.  0.
        1    1    3    3  502    0 -0.67177768027E+03 -0.77443776851E+03 -0.41616964105E+03  0.11064521134E+04  0.50400001928E-02 0. -1.
       -1    1    3    3    0  502  0.67177768027E+03  0.77443776851E+03  0.69667200204E+03  0.12395123991E+04  0.50400001928E-02 0.  1.
</event>
<event>
 5   0  0.9519092E-05  0.2398233E+04  0.7818609E-02  0.8440165E-01
        2   -1    0    0  501    0  0.00000000000E+00  0.00000000000E+00  0.10027509742E+04  0.10027509742E+04  0.25500000920E-02 0. -1.
       -2   -1    0    0    0  501  0.00000000000E+00  0.00000000000E+00 -0.14339360338E+04  0.14339360338E+04  0.25500000920E-02 0.  1.
    10030    2    1    2    0    0  0.00000000000E+00  0.00000000000E+00 -0.43118505966E+03  0.24366870080E+04  0.23982333121E+04 0.  0.
        4    1    3    3  502    0  0.93084705951E+03  0.22853089376E+03  0.51649977162E+03  0.10887957773E+04  0.12699999809E+01 0. -1.
       -4    1    3    3    0  502 -0.93084705951E+03 -0.22853089376E+03 -0.94768483129E+03  0.13478912308E+04  0.12699999809E+01 0.  1.
</event>
<event>
 5   0  0.4260395E-05  0.1719207E+04  0.7818609E-02  0.8750485E-01
        1   -1    0    0  501    0  0.00000000000E+00  0.00000000000E+00  0.13006701374E+04  0.13006701374E+04  0.50400001928E-02 0. -1.
       -1   -1    0    0    0  501  0.00000000000E+00  0.00000000000E+00 -0.56810606270E+03  0.56810606273E+03  0.50400001928E-02 0.  1.
    10030    2    1    2    0    0  0.00000000000E+00  0.00000000000E+00  0.73256407468E+03  0.18687762001E+04  0.17192074810E+04 0.  0.
        4    1    3    3  502    0  0.34327098729E+02  0.66046920877E+03  0.96316115081E+03  0.11683659276E+04  0.12699999809E+01 0. -1.
       -4    1    3    3    0  502 -0.34327098729E+02 -0.66046920877E+03 -0.23059707613E+03  0.70041027253E+03  0.12699999809E+01 0.  1.
</event>
<event>
 5   0  0.3934906E-05  0.2797203E+04  0.7818609E-02  0.8304137E-01
       -1   -1    0    0    0  501  0.00000000000E+00  0.00000000000E+00  0.20558993325E+04  0.20558993326E+04  0.50400001928E-02 0. -1.
        1   -1    0    0  501    0  0.00000000000E+00  0.00000000000E+00 -0.95145054029E+03  0.95145054031E+03  0.50400001928E-02 0.  1.
    10030    2    1    2    0    0  0.00000000000E+00  0.00000000000E+00  0.11044487923E+04  0.30073498729E+04  0.27972032681E+04 0.  0.
        2    1    3    3  502    0  0.41942221902E+03 -0.13160499650E+04  0.31622469333E+03  0.14170040808E+04  0.25500000920E-02 0. -1.
       -2    1    3    3    0  502 -0.41942221902E+03  0.13160499650E+04  0.78822409893E+03  0.15903457921E+04  0.25500000920E-02 0.  1.
</event>
<event>
 5   0  0.3934906E-05  0.1227288E+04  0.7818609E-02  0.9089301E-01
       -1   -1    0    0    0  501  0.00000000000E+00  0.00000000000E+00  0.98000287908E+03  0.98000287909E+03  0.50400001928E-02 0.  1.
        1   -1    0    0  501    0  0.00000000000E+00  0.00000000000E+00 -0.38424278837E+03  0.38424278840E+03  0.50400001928E-02 0. -1.
    10030    2    1    2    0    0  0.00000000000E+00  0.00000000000E+00  0.59576009071E+03  0.13642456675E+04  0.12272881306E+04 0.  0.
        2    1    3    3  502    0 -0.32952314680E+03  0.24665897719E+03 -0.20802682207E+03  0.46119552688E+03  0.25500000920E-02 0. -1.
       -2    1    3    3    0  502  0.32952314680E+03 -0.24665897719E+03  0.80378691278E+03  0.90305014062E+03  0.25500000920E-02 0.  1.
</event>
<event>
 5   0  0.9750757E-05  0.2504862E+04  0.7818609E-02  0.8401256E-01
        2   -1    0    0  501    0  0.00000000000E+00  0.00000000000E+00  0.14596973573E+04  0.14596973573E+04  0.25500000920E-02 0. -1.
       -2   -1    0    0    0  501  0.00000000000E+00  0.00000000000E+00 -0.10745947203E+04  0.10745947203E+04  0.25500000920E-02 0.  1.
    10030    2    1    2    0    0  0.00000000000E+00  0.00000000000E+00  0.38510263705E+03  0.25342920776E+04  0.25048617314E+04 0.  0.
        2    1    3    3  502    0  0.10318910062E+04  0.18599105679E+03  0.88557473197E+03  0.13724555832E+04  0.25500000920E-02 0. -1.
       -2    1    3    3    0  502 -0.10318910062E+04 -0.18599105679E+03 -0.50047209492E+03  0.11618364944E+04  0.25500000920E-02 0.  1.
</event>
<event>
 5   0  0.4208577E-05  0.2415558E+04  0.7818609E-02  0.8433702E-01
       -1   -1    0    0    0  501  0.00000000000E+00  0.00000000000E+00  0.81881244887E+03  0.81881244888E+03  0.50400001928E-02 0.  1.
        1   -1    0    0  501    0  0.00000000000E+00  0.00000000000E+00 -0.17815186055E+04  0.17815186056E+04  0.50400001928E-02 0. -1.
    10030    2    1    2    0    0  0.00000000000E+00  0.00000000000E+00 -0.96270615668E+03  0.26003310544E+04  0.24155575854E+04 0.  0.
        1    1    3    3  502    0 -0.11521993841E+04 -0.17296097468E+03 -0.82389225421E+03  0.14269819081E+04  0.50400001928E-02 0. -1.
       -1    1    3    3    0  502  0.11521993841E+04  0.17296097468E+03 -0.13881390247E+03  0.11733491463E+04  0.50400001928E-02 0.  1.
</event>
<event>
 5   0  0.4260395E-05  0.1754007E+04  0.7818609E-02  0.8731148E-01
       -1   -1    0    0    0  501  0.00000000000E+00  0.00000000000E+00  0.29556463500E+03  0.29556463505E+03  0.50400001928E-02 0. -1.
        1   -1    0    0  501    0  0.00000000000E+00  0.00000000000E+00 -0.26022570764E+04  0.26022570764E+04  0.50400001928E-02 0.  1.
    10030    2    1    2    0    0  0.00000000000E+00  0.00000000000E+00 -0.23066924413E+04  0.28978217114E+04  0.17540070274E+04 0.  0.
        4    1    3    3  502    0  0.92510745016E+02 -0.42978633354E+03  0.10036761813E+03  0.45094323602E+03  0.12699999809E+01 0. -1.
       -4    1    3    3    0  502 -0.92510745016E+02  0.42978633354E+03 -0.24070600595E+04  0.24468784754E+04  0.12699999809E+01 0.  1.
</event>
<event>
 5   0  0.4061631E-05  0.2444616E+04  0.7818609E-02  0.8422986E-01
        1   -1    0    0  501    0  0.00000000000E+00  0.00000000000E+00  0.13139810729E+04  0.13139810729E+04  0.50400001928E-02 0. -1.
       -1   -1    0    0    0  501  0.00000000000E+00  0.00000000000E+00 -0.11370305354E+04  0.11370305354E+04  0.50400001928E-02 0.  1.
    10030    2    1    2    0    0  0.00000000000E+00  0.00000000000E+00  0.17695053755E+03  0.24510116083E+04  0.24446158004E+04 0.  0.
        3    1    3    3  502    0  0.93620554526E+03 -0.67569463293E+03 -0.31381323331E+03  0.11964626261E+04  0.10100000352E+00 0.  1.
       -3    1    3    3    0  502 -0.93620554526E+03  0.67569463293E+03  0.49076377086E+03  0.12545489823E+04  0.10100000352E+00 0. -1.
</event>
<event>
 5   0  0.4260395E-05  0.2285559E+04  0.7818609E-02  0.8483637E-01
        1   -1    0    0  501    0  0.00000000000E+00  0.00000000000E+00  0.15919885322E+04  0.15919885322E+04  0.50400001928E-02 0.  1.
       -1   -1    0    0    0  501  0.00000000000E+00  0.00000000000E+00 -0.82032328710E+03  0.82032328711E+03  0.50400001928E-02 0. -1.
    10030    2    1    2    0    0  0.00000000000E+00  0.00000000000E+00  0.77166524506E+03  0.24123118193E+04  0.22855592451E+04 0.  0.
        4    1    3    3  502    0 -0.86051840790E+02  0.11133158647E+04  0.64234696333E+03  0.12882113057E+04  0.12699999809E+01 0.  1.
       -4    1    3    3    0  502  0.86051840790E+02 -0.11133158647E+04  0.12931828173E+03  0.11241005136E+04  0.12699999809E+01 0. -1.
</event>
<event>
 5   0  0.9519092E-05  0.2405129E+04  0.7818609E-02  0.8437586E-01
        2   -1    0    0  501    0  0.00000000000E+00  0.00000000000E+00  0.19968554824E+04  0.19968554824E+04  0.25500000920E-02 0. -1.
       -2   -1    0    0    0  501  0.00000000000E+00  0.00000000000E+00 -0.72421963364E+03  0.72421963364E+03  0.25500000920E-02 0.  1.
    10030    2    1    2    0    0  0.00000000000E+00  0.00000000000E+00  0.12726358487E+04  0.27210751160E+04  0.24051294733E+04 0.  0.
        4    1    3    3  502    0 -0.66546997341E+03 -0.19401349684E+03 -0.47545520357E+03  0.84056575351E+03  0.12699999809E+01 0.  1.
       -4    1    3    3    0  502  0.66546997341E+03  0.19401349684E+03  0.17480910523E+04  0.18805093625E+04  0.12699999809E+01 0. -1.
</event>
<event>
 5   0  0.9750757E-05  0.2442605E+04  0.7818609E-02  0.8423723E-01
       -2   -1    0    0    0  501  0.00000000000E+00  0.00000000000E+00  0.10200541841E+04  0.10200541841E+04  0.25500000920E-02 0.  1.
        2   -1    0    0  501    0  0.00000000000E+00  0.00000000000E+00 -0.14622555099E+04  0.14622555099E+04  0.25500000920E-02 0. -1.
    10030    2    1    2    0    0  0.00000000000E+00  0.00000000000E+00 -0.44220132581E+03  0.24823096941E+04  0.24426050448E+04 0.  0.
        2    1    3    3  502    0  0.27402359698E+03  0.65322746053E+02  0.98658659935E+03  0.10260161358E+04  0.25500000920E-02 0.  1.
       -2    1    3    3    0  502 -0.27402359698E+03 -0.65322746053E+02 -0.14287879252E+04  0.14562935583E+04  0.25500000920E-02 0. -1.
</event>
<event>
 5   0  0.9491680E-05  0.2540927E+04  0.7818609E-02  0.8388549E-01
       -2   -1    0    0    0  501  0.00000000000E+00  0.00000000000E+00  0.95784593417E+03  0.95784593417E+03  0.25500000920E-02 0. -1.
        2   -1    0    0  501    0  0.00000000000E+00  0.00000000000E+00 -0.16851116446E+04  0.16851116446E+04  0.25500000920E-02 0.  1.
    10030    2    1    2    0    0  0.00000000000E+00  0.00000000000E+00 -0.72726571042E+03  0.26429575788E+04  0.25409268682E+04 0.  0.
        5    1    3    3  502    0 -0.44692850151E+03  0.30546111264E+03  0.83186840730E+03  0.99251131674E+03  0.46999998093E+01 0. -1.
       -5    1    3    3    0  502  0.44692850151E+03 -0.30546111264E+03 -0.15591341177E+04  0.16504462620E+04  0.46999998093E+01 0.  1.
</event>
<event>
 5   0  0.9182865E-05  0.1819641E+04  0.7818609E-02  0.8695924E-01
       -2   -1    0    0    0  501  0.00000000000E+00  0.00000000000E+00  0.45751802195E+03  0.45751802196E+03  0.25500000920E-02 0.  1.
        2   -1    0    0  501    0  0.00000000000E+00  0.00000000000E+00 -0.18092697887E+04  0.18092697887E+04  0.25500000920E-02 0. -1.
    10030    2    1    2    0    0  0.00000000000E+00  0.00000000000E+00 -0.13517517668E+04  0.22667878107E+04  0.18196412118E+04 0.  0.
        3    1    3    3  502    0  0.76373663679E+03 -0.96500833446E+02 -0.12799826799E+04  0.14936404294E+04  0.10100000352E+00 0. -1.
       -3    1    3    3    0  502 -0.76373663679E+03  0.96500833446E+02 -0.71769086915E+02  0.77314738134E+03  0.10100000352E+00 0.  1.
</event>
<event>
 5   0  0.9144244E-05  0.2340918E+04  0.7818609E-02  0.8461960E-01
        2   -1    0    0  501    0  0.00000000000E+00  0.00000000000E+00  0.15022957115E+04  0.15022957115E+04  0.25500000920E-02 0.  1.
       -2   -1    0    0    0  501  0.00000000000E+00  0.00000000000E+00 -0.91192020891E+03  0.91192020892E+03  0.25500000920E-02 0. -1.
    10030    2    1    2    0    0  0.00000000000E+00  0.00000000000E+00  0.59037550256E+03  0.24142159204E+04  0.23409176141E+04 0.  0.
        1    1    3    3  502    0  0.35916238589E+03 -0.68941391434E+03 -0.60724521440E+03  0.98642582852E+03  0.50400001928E-02 0. -1.
       -1    1    3    3    0  502 -0.35916238589E+03  0.68941391434E+03  0.11976207170E+04  0.14277900919E+04  0.50400001928E-02 0.  1.
</event>
<event>
 5   0  0.4061631E-05  0.2448594E+04  0.7818609E-02  0.8421531E-01
        1   -1    0    0  501    0  0.00000000000E+00  0.00000000000E+00  0.10468440494E+04  0.10468440494E+04  0.50400001928E-02 0.  1.
       -1   -1    0    0    0  501  0.00000000000E+00  0.00000000000E+00 -0.14318307783E+04  0.14318307783E+04  0.50400001928E-02 0. -1.
    10030    2    1    2    0    0  0.00000000000E+00  0.00000000000E+00 -0.38498672889E+03  0.24786748277E+04  0.24485943151E+04 0.  0.
        3    1    3    3  502    0  0.56423027098E+03 -0.10761257961E+04 -0.34433943329E+03  0.12629220812E+04  0.10100000352E+00 0.  1.
       -3    1    3    3    0  502 -0.56423027098E+03  0.10761257961E+04 -0.40647295600E+02  0.12157527465E+04  0.10100000352E+00 0. -1.
</event>
<event>
 5   0  0.4061631E-05  0.2192236E+04  0.7818609E-02  0.8521666E-01
       -1   -1    0    0    0  501  0.00000000000E+00  0.00000000000E+00  0.76941084738E+03  0.76941084739E+03  0.50400001928E-02 0.  1.
        1   -1    0    0  501    0  0.00000000000E+00  0.00000000000E+00 -0.15615520520E+04  0.15615520520E+04  0.50400001928E-02 0. -1.
    10030    2    1    2    0    0  0.00000000000E+00  0.00000000000E+00 -0.79214120464E+03  0.23309628994E+04  0.21922363810E+04 0.  0.
        3    1    3    3  502    0  0.13719740693E+03  0.81294366004E+03  0.37197928253E+03  0.90447173516E+03  0.10100000352E+00 0.  1.
       -3    1    3    3    0  502 -0.13719740693E+03 -0.81294366004E+03 -0.11641204872E+04  0.14264911643E+04  0.10100000352E+00 0. -1.
</event>
<event>
 5   0  0.9491680E-05  0.2349058E+04  0.7818609E-02  0.8458825E-01
        2   -1    0    0  501    0  0.00000000000E+00  0.00000000000E+00  0.16653050102E+04  0.16653050102E+04  0.25500000920E-02 0. -1.
       -2   -1    0    0    0  501  0.00000000000E+00  0.00000000000E+00 -0.82838802657E+03  0.82838802658E+03  0.25500000920E-02 0.  1.
    10030    2    1    2    0    0  0.00000000000E+00  0.00000000000E+00  0.83691698360E+03  0.24936930368E+04  0.23490583058E+04 0.  0.
        5    1    3    3  502    0  0.68516874729E+02  0.24602954810E+03 -0.79854478594E+03  0.83840382025E+03  0.46999998093E+01 0.  1.
       -5    1    3    3    0  502 -0.68516874729E+02 -0.24602954810E+03  0.16354617695E+04  0.16552892165E+04  0.46999998093E+01 0. -1.
</event>
<event>
 5   0  0.4260395E-05  0.2188580E+04  0.7818609E-02  0.8523196E-01
       -1   -1    0    0    0  501  0.00000000000E+00  0.00000000000E+00  0.99448007436E+03  0.99448007437E+03  0.50400001928E-02 0. -1.
        1   -1    0    0  501    0  0.00000000000E+00  0.00000000000E+00 -0.12041171689E+04  0.12041171689E+04  0.50400001928E-02 0.  1.
    10030    2    1    2    0    0  0.00000000000E+00  0.00000000000E+00 -0.20963709457E+03  0.21985972433E+04  0.21885799339E+04 0.  0.
        4    1    3    3  502    0 -0.36704527370E+03  0.85798742174E+03 -0.67892733594E+03  0.11540401159E+04  0.12699999809E+01 0.  1.
       -4    1    3    3    0  502  0.36704527370E+03 -0.85798742174E+03  0.46929024137E+03  0.10445571274E+04  0.12699999809E+01 0. -1.
</event>
<event>
 5   0  0.9144244E-05  0.2472596E+04  0.7818609E-02  0.8412814E-01
        2   -1    0    0  501    0  0.00000000000E+00  0.00000000000E+00  0.85402696345E+03  0.85402696345E+03  0.25500000920E-02 0. -1.
       -2   -1    0    0    0  501  0.00000000000E+00  0.00000000000E+00 -0.17896771120E+04  0.17896771120E+04  0.25500000920E-02 0.  1.
    10030    2    1    2    0    0  0.00000000000E+00  0.00000000000E+00 -0.93565014858E+03  0.26437040755E+04  0.24725958097E+04 0.  0.
        1    1    3    3  502    0 -0.51273847645E+03  0.10915735601E+04 -0.17697282742E+03  0.12189146665E+04  0.50400001928E-02 0. -1.
       -1    1    3    3    0  502  0.51273847645E+03 -0.10915735601E+04 -0.75867732116E+03  0.14247894090E+04  0.50400001928E-02 0.  1.
</event>
<event>
 5   0  0.9182865E-05  0.2319755E+04  0.7818609E-02  0.8470172E-01
        2   -1    0    0  501    0  0.00000000000E+00  0.00000000000E+00  0.17511634523E+04  0.17511634523E+04  0.25500000920E-02 0. -1.
       -2   -1    0    0    0  501  0.00000000000E+00  0.00000000000E+00 -0.76824114273E+03  0.76824114273E+03  0.25500000920E-02 0.  1.
    10030    2    1    2    0    0  0.00000000000E+00  0.00000000000E+00  0.98292230961E+03  0.25194045951E+04  0.23197549972E+04 0.  0.
        3    1    3    3  502    0 -0.92227863547E+03  0.51163903091E+03  0.10156418516E+04  0.14642065293E+04  0.10100000352E+00 0. -1.
       -3    1    3    3    0  502  0.92227863547E+03 -0.51163903091E+03 -0.32719542037E+02  0.10551980658E+04  0.10100000352E+00 0.  1.
</event>
<event>
 5   0  0.4061631E-05  0.2318803E+04  0.7818609E-02  0.8470544E-01
        1   -1    0    0  501    0  0.00000000000E+00  0.00000000000E+00  0.21174721594E+04  0.21174721594E+04  0.50400001928E-02 0. -1.
       -1   -1    0    0    0  501  0.00000000000E+00  0.00000000000E+00 -0.63481928423E+03  0.63481928425E+03  0.50400001928E-02 0.  1.
    10030    2    1    2    0    0  0.00000000000E+00  0.00000000000E+00  0.14826528752E+04  0.27522914437E+04  0.23188032781E+04 0.  0.
        3    1    3    3  502    0 -0.45667706225E+03 -0.10588098187E+04  0.59800572320E+03  0.12989391928E+04  0.10100000352E+00 0. -1.
       -3    1    3    3    0  502  0.45667706225E+03  0.10588098187E+04  0.88464715201E+03  0.14533522509E+04  0.10100000352E+00 0.  1.
</event>
<event>
 5   0  0.9182865E-05  0.1627065E+04  0.7818609E-02  0.8804091E-01
       -2   -1    0    0    0  501  0.00000000000E+00  0.00000000000E+00  0.68996421947E+03  0.68996421947E+03  0.25500000920E-02 0.  1.
        2   -1    0    0  501    0  0.00000000000E+00  0.00000000000E+00 -0.95923099705E+03  0.95923099705E+03  0.25500000920E-02 0. -1.
    10030    2    1    2    0    0  0.00000000000E+00  0.00000000000E+00 -0.26926677758E+03  0.16491952165E+04  0.16270649233E+04 0.  0.
        3    1    3    3  502    0 -0.51892175353E+03  0.60717937177E+03  0.22027809439E+02  0.79901928036E+03  0.10100000352E+00 0.  1.
       -3    1    3    3    0  502  0.51892175353E+03 -0.60717937177E+03 -0.29129458702E+03  0.85017593616E+03  0.10100000352E+00 0. -1.
</event>
<event>
 5   0  0.9144244E-05  0.2413178E+04  0.7818609E-02  0.8434586E-01
       -2   -1    0    0    0  501  0.00000000000E+00  0.00000000000E+00  0.56947718331E+03  0.56947718332E+03  0.25500000920E-02 0. -1.
        2   -1    0    0  501    0  0.00000000000E+00  0.00000000000E+00 -0.25564792915E+04  0.25564792915E+04  0.25500000920E-02 0.  1.
    10030    2    1    2    0    0  0.00000000000E+00  0.00000000000E+00 -0.19870021082E+04  0.31259564748E+04  0.24131776778E+04 0.  0.
        1    1    3    3  502    0  0.60206639157E+03  0.23005431591E+03  0.32780600173E+03  0.72309453249E+03  0.50400001928E-02 0. -1.
       -1    1    3    3    0  502 -0.60206639157E+03 -0.23005431591E+03 -0.23148081099E+04  0.24028619424E+04  0.50400001928E-02 0.  1.
</event>
<event>
 5   0  0.3934906E-05  0.2400344E+04  0.7818609E-02  0.8439375E-01
        1   -1    0    0  501    0  0.00000000000E+00  0.00000000000E+00  0.11923363154E+04  0.11923363154E+04  0.50400001928E-02 0. -1.
       -1   -1    0    0    0  501  0.00000000000E+00  0.00000000000E+00 -0.12080590985E+04  0.12080590985E+04  0.50400001928E-02 0.  1.
    10030    2    1    2    0    0  0.00000000000E+00  0.00000000000E+00 -0.15722783136E+02  0.24003954139E+04  0.24003439206E+04 0.  0.
        2    1    3    3  502    0  0.41084590338E+03  0.22108179234E+03 -0.11136614102E+04  0.12074407861E+04  0.25500000920E-02 0.  1.
       -2    1    3    3    0  502 -0.41084590338E+03 -0.22108179234E+03  0.10979386271E+04  0.11929546278E+04  0.25500000920E-02 0. -1.
</event>
<event>
 5   0  0.9519092E-05  0.2392550E+04  0.7818609E-02  0.8442298E-01
        2   -1    0    0  501    0  0.00000000000E+00  0.00000000000E+00  0.23769891024E+04  0.23769891024E+04  0.25500000920E-02 0.  1.
       -2   -1    0    0    0  501  0.00000000000E+00  0.00000000000E+00 -0.60205330043E+03  0.60205330043E+03  0.25500000920E-02 0. -1.
    10030    2    1    2    0    0  0.00000000000E+00  0.00000000000E+00  0.17749358019E+04  0.29790424028E+04  0.23925502161E+04 0.  0.
        4    1    3    3  502    0 -0.11637539547E+04 -0.21973546387E+02  0.54360739644E+03  0.12846465344E+04  0.12699999809E+01 0. -1.
       -4    1    3    3    0  502  0.11637539547E+04  0.21973546387E+02  0.12313284055E+04  0.16943958684E+04  0.12699999809E+01 0.  1.
</event>
<event>
 5   0  0.9750757E-05  0.2335438E+04  0.7818609E-02  0.8464078E-01
       -2   -1    0    0    0  501  0.00000000000E+00  0.00000000000E+00  0.93740788717E+03  0.93740788717E+03  0.25500000920E-02 0.  1.
        2   -1    0    0  501    0  0.00000000000E+00  0.00000000000E+00 -0.14546152745E+04  0.14546152745E+04  0.25500000920E-02 0. -1.
    10030    2    1    2    0    0  0.00000000000E+00  0.00000000000E+00 -0.51720738732E+03  0.23920231617E+04  0.23354381440E+04 0.  0.
        2    1    3    3  502    0 -0.58177048892E+03 -0.76573150042E+03  0.41983966123E+03  0.10493173846E+04  0.25500000920E-02 0.  1.
       -2    1    3    3    0  502  0.58177048892E+03  0.76573150042E+03 -0.93704704855E+03  0.13427057770E+04  0.25500000920E-02 0. -1.
</event>
<event>
 5   0  0.4061631E-05  0.1537716E+04  0.7818609E-02  0.8859752E-01
        1   -1    0    0  501    0  0.00000000000E+00  0.00000000000E+00  0.82689008190E+03  0.82689008192E+03  0.50400001928E-02 0. -1.
       -1   -1    0    0    0  501  0.00000000000E+00  0.00000000000E+00 -0.71489869516E+03  0.71489869518E+03  0.50400001928E-02 0.  1.
    10030    2    1    2    0    0  0.00000000000E+00  0.00000000000E+00  0.11199138674E+03  0.15417887771E+04  0.15377160214E+04 0.  0.
        3    1    3    3  502    0 -0.58468059602E+03  0.39732103887E+03 -0.24717450327E+03  0.74887292150E+03  0.10100000352E+00 0.  1.
       -3    1    3    3    0  502  0.58468059602E+03 -0.39732103887E+03  0.35916589001E+03  0.79291585559E+03  0.10100000352E+00 0. -1.
</event>
<event>
 5   0  0.4260395E-05  0.2158962E+04  0.7818609E-02  0.8535706E-01
       -1   -1    0    0    0  501  0.00000000000E+00  0.00000000000E+00  0.87179406602E+03  0.87179406603E+03  0.50400001928E-02 0. -1.
        1   -1    0    0  501    0  0.00000000000E+00  0.00000000000E+00 -0.13366444627E+04  0.13366444628E+04  0.50400001928E-02 0.  1.
    10030    2    1    2    0    0  0.00000000000E+00  0.00000000000E+00 -0.46485039673E+03  0.22084385288E+04  0.21589615198E+04 0.  0.
        4    1    3    3  502    0 -0.59744904818E+02 -0.39876180611E+03  0.79187014676E+03  0.88861711321E+03  0.12699999809E+01 0. -1.
       -4    1    3    3    0  502  0.59744904818E+02  0.39876180611E+03 -0.12567205435E+04  0.13198214156E+04  0.12699999809E+01 0.  1.
</event>
<event>
 5   0  0.4018942E-05  0.2340137E+04  0.7818609E-02  0.8462262E-01
        1   -1    0    0  501    0  0.00000000000E+00  0.00000000000E+00  0.14989078293E+04  0.14989078293E+04  0.50400001928E-02 0.  1.
       -1   -1    0    0    0  501  0.00000000000E+00  0.00000000000E+00 -0.91337152156E+03  0.91337152157E+03  0.50400001928E-02 0. -1.
    10030    2    1    2    0    0  0.00000000000E+00  0.00000000000E+00  0.58553630773E+03  0.24122793509E+04  0.23401365129E+04 0.  0.
        5    1    3    3  502    0 -0.60799680072E+02  0.77911723101E+03  0.11904282287E+04  0.14240300975E+04  0.46999998093E+01 0.  1.
       -5    1    3    3    0  502  0.60799680072E+02 -0.77911723101E+03 -0.60489192100E+03  0.98824925339E+03  0.46999998093E+01 0. -1.
</event>
<event>
 5   0  0.4260395E-05  0.2478157E+04  0.7818609E-02  0.8410809E-01
        1   -1    0    0  501    0  0.00000000000E+00  0.00000000000E+00  0.12044297735E+04  0.12044297735E+04  0.50400001928E-02 0. -1.
       -1   -1    0    0    0  501  0.00000000000E+00  0.00000000000E+00 -0.12747235857E+04  0.12747235857E+04  0.50400001928E-02 0.  1.
    10030    2    1    2    0    0  0.00000000000E+00  0.00000000000E+00 -0.70293812265E+02  0.24791533592E+04  0.24781566049E+04 0.  0.
        4    1    3    3  502    0  0.86291007514E+03 -0.54153948997E+03  0.67042721650E+03  0.12195708600E+04  0.12699999809E+01 0. -1.
       -4    1    3    3    0  502 -0.86291007514E+03  0.54153948997E+03 -0.74072102877E+03  0.12595824992E+04  0.12699999809E+01 0.  1.
</event>
<event>
 5   0  0.4208577E-05  0.2511014E+04  0.7818609E-02  0.8399072E-01
        1   -1    0    0  501    0  0.00000000000E+00  0.00000000000E+00  0.19858349354E+04  0.19858349354E+04  0.50400001928E-02 0.  1.
       -1   -1    0    0    0  501  0.00000000000E+00  0.00000000000E+00 -0.79377074098E+03  0.79377074100E+03  0.50400001928E-02 0. -1.
    10030    2    1    2    0    0  0.00000000000E+00  0.00000000000E+00  0.11920641944E+04  0.27796056764E+04  0.25110138734E+04 0.  0.
        1    1    3    3  502    0  0.74299550939E+02  0.91099201415E+03 -0.35677572821E+03  0.98118081585E+03  0.50400001928E-02 0. -1.
       -1    1    3    3    0  502 -0.74299550939E+02 -0.91099201415E+03  0.15488399226E+04  0.17984248605E+04  0.50400001928E-02 0.  1.
</event>
<event>
 5   0  0.9491680E-05  0.1864147E+04  0.7818609E-02  0.8672911E-01
        2   -1    0    0  501    0  0.00000000000E+00  0.00000000000E+00  0.92597482886E+03  0.92597482886E+03  0.25500000920E-02 0.  1.
       -2   -1    0    0    0  501  0.00000000000E+00  0.00000000000E+00 -0.93821280122E+03  0.93821280122E+03  0.25500000920E-02 0. -1.
    10030    2    1    2    0    0  0.00000000000E+00  0.00000000000E+00 -0.12237972358E+02  0.18641876301E+04  0.18641474599E+04 0.  0.
        5    1    3    3  502    0  0.83017744758E+03 -0.42372292074E+03 -0.42110604380E+01  0.93208128994E+03  0.46999998093E+01 0. -1.
       -5    1    3    3    0  502 -0.83017744758E+03  0.42372292074E+03 -0.80269119198E+01  0.93210634015E+03  0.46999998093E+01 0.  1.
</event>
<event>
 5   0  0.4260395E-05  0.2400351E+04  0.7818609E-02  0.8439372E-01
       -1   -1    0    0    0  501  0.00000000000E+00  0.00000000000E+00  0.78274842238E+03  0.78274842240E+03  0.50400001928E-02 0.  1.
        1   -1    0    0  501    0  0.00000000000E+00  0.00000000000E+00 -0.18402104382E+04  0.18402104382E+04  0.50400001928E-02 0. -1.
    10030    2    1    2    0    0  0.00000000000E+00  0.00000000000E+00 -0.10574620158E+04  0.26229588606E+04  0.24003514887E+04 0.  0.
        4    1    3    3  502    0  0.77940226988E+03  0.14525947634E+03  0.45585819267E+03  0.91453623137E+03  0.12699999809E+01 0.  1.
       -4    1    3    3    0  502 -0.77940226988E+03 -0.14525947634E+03 -0.15133202085E+04  0.17084226292E+04  0.12699999809E+01 0. -1.
</event>
<event>
 5   0  0.3234750E-05  0.2315289E+04  0.7818609E-02  0.8471917E-01
        4   -1    0    0  501    0  0.00000000000E+00  0.00000000000E+00  0.10070969803E+04  0.10070977811E+04  0.12699999809E+01 0.  1.
       -4   -1    0    0    0  501  0.00000000000E+00  0.00000000000E+00 -0.13306947307E+04  0.13306953367E+04  0.12699999809E+01 0. -1.
    10030    2    1    2    0    0  0.00000000000E+00  0.00000000000E+00 -0.32359775037E+03  0.23377931178E+04  0.23152885690E+04 0.  0.
        5    1    3    3  502    0  0.20813807838E+03 -0.13910066086E+02  0.98795399157E+03  0.10097475571E+04  0.46999998093E+01 0.  1.
       -5    1    3    3    0  502 -0.20813807838E+03  0.13910066086E+02 -0.13115517419E+04  0.13280455607E+04  0.46999998093E+01 0. -1.
</event>
<event>
 5   0  0.9182865E-05  0.1926582E+04  0.7818609E-02  0.8641737E-01
       -2   -1    0    0    0  501  0.00000000000E+00  0.00000000000E+00  0.64266151010E+03  0.64266151010E+03  0.25500000920E-02 0. -1.
        2   -1    0    0  501    0  0.00000000000E+00  0.00000000000E+00 -0.14438856540E+04  0.14438856540E+04  0.25500000920E-02 0.  1.
    10030    2    1    2    0    0  0.00000000000E+00  0.00000000000E+00 -0.80122414390E+03  0.20865471641E+04  0.19265821911E+04 0.  0.
        3    1    3    3  502    0  0.57084174183E+03  0.12882319408E+03  0.42808246681E+03  0.72505883771E+03  0.10100000352E+00 0. -1.
       -3    1    3    3    0  502 -0.57084174183E+03 -0.12882319408E+03 -0.12293066107E+04  0.13614883264E+04  0.10100000352E+00 0.  1.
</event>
<event>
 5   0  0.9182865E-05  0.2082572E+04  0.7818609E-02  0.8568960E-01
       -2   -1    0    0    0  501  0.00000000000E+00  0.00000000000E+00  0.12006872943E+04  0.12006872943E+04  0.25500000920E-02 0.  1.
        2   -1    0    0  501    0  0.00000000000E+00  0.00000000000E+00 -0.90304654344E+03  0.90304654344E+03  0.25500000920E-02 0. -1.
    10030    2    1    2    0    0  0.00000000000E+00  0.00000000000E+00  0.29764075088E+03  0.21037338378E+04  0.20825719780E+04 0.  0.
        3    1    3    3  502    0 -0.60888660216E+03 -0.73189649039E+03  0.57484166258E+03  0.11121413193E+04  0.10100000352E+00 0. -1.
       -3    1    3    3    0  502  0.60888660216E+03  0.73189649039E+03 -0.27720091170E+03  0.99159251842E+03  0.10100000352E+00 0.  1.
</event>
<event>
 5   0  0.4018942E-05  0.2366571E+04  0.7818609E-02  0.8452126E-01
       -1   -1    0    0    0  501  0.00000000000E+00  0.00000000000E+00  0.14676743621E+04  0.14676743621E+04  0.50400001928E-02 0. -1.
        1   -1    0    0  501    0  0.00000000000E+00  0.00000000000E+00 -0.95400229038E+03  0.95400229039E+03  0.50400001928E-02 0.  1.
    10030    2    1    2    0    0  0.00000000000E+00  0.00000000000E+00  0.51367207172E+03  0.24216766525E+04  0.23665711086E+04 0.  0.
        5    1    3    3  502    0  0.11657917655E+04  0.84724677330E+02  0.68446239084E+02  0.11708781701E+04  0.46999998093E+01 0.  1.
       -5    1    3    3    0  502 -0.11657917655E+04 -0.84724677330E+02  0.44522583263E+03  0.12507984824E+04  0.46999998093E+01 0. -1.
</event>
<event>
 5   0  0.9491680E-05  0.2103481E+04  0.7818609E-02  0.8559711E-01
        2   -1    0    0  501    0  0.00000000000E+00  0.00000000000E+00  0.95953707080E+03  0.95953707081E+03  0.25500000920E-02 0.  1.
       -2   -1    0    0    0  501  0.00000000000E+00  0.00000000000E+00 -0.11528041376E+04  0.11528041376E+04  0.25500000920E-02 0. -1.
    10030    2    1    2    0    0  0.00000000000E+00  0.00000000000E+00 -0.19326706678E+03  0.21123412084E+04  0.21034812149E+04 0.  0.
        5    1    3    3  502    0  0.51909759142E+03 -0.25452170769E+03  0.78564126504E+03  0.97544753649E+03  0.46999998093E+01 0.  1.
       -5    1    3    3    0  502 -0.51909759142E+03  0.25452170769E+03 -0.97890833182E+03  0.11368936719E+04  0.46999998093E+01 0. -1.
</event>
<event>
 5   0  0.9182865E-05  0.2530507E+04  0.7818609E-02  0.8392197E-01
        2   -1    0    0  501    0  0.00000000000E+00  0.00000000000E+00  0.15824586303E+04  0.15824586303E+04  0.25500000920E-02 0. -1.
       -2   -1    0    0    0  501  0.00000000000E+00  0.00000000000E+00 -0.10116321784E+04  0.10116321784E+04  0.25500000920E-02 0.  1.
    10030    2    1    2    0    0  0.00000000000E+00  0.00000000000E+00  0.57082645191E+03  0.25940908086E+04  0.25305067250E+04 0.  0.
        3    1    3    3  502    0 -0.77571610685E+03 -0.28708775266E+03  0.12669214637E+04  0.15130250697E+04  0.10100000352E+00 0. -1.
       -3    1    3    3    0  502  0.77571610685E+03  0.28708775266E+03 -0.69609501183E+03  0.10810657389E+04  0.10100000352E+00 0.  1.
</event>
<event>
 5   0  0.4061631E-05  0.2341542E+04  0.7818609E-02  0.8461719E-01
        1   -1    0    0  501    0  0.00000000000E+00  0.00000000000E+00  0.20247850970E+04  0.20247850970E+04  0.50400001928E-02 0. -1.
       -1   -1    0    0    0  501  0.00000000000E+00  0.00000000000E+00 -0.67696333245E+03  0.67696333246E+03  0.50400001928E-02 0.  1.
    10030    2    1    2    0    0  0.00000000000E+00  0.00000000000E+00  0.13478217645E+04  0.27017484294E+04  0.23415424547E+04 0.  0.
        3    1    3    3  502    0 -0.66713889152E+02  0.67099158424E+03  0.17782348268E+04  0.19017885157E+04  0.10100000352E+00 0. -1.
       -3    1    3    3    0  502  0.66713889152E+02 -0.67099158424E+03 -0.43041306229E+03  0.79995991369E+03  0.10100000352E+00 0.  1.
</event>
<event>
 5   0  0.4061631E-05  0.2371149E+04  0.7818609E-02  0.8450385E-01
        1   -1    0    0  501    0  0.00000000000E+00  0.00000000000E+00  0.10695097660E+04  0.10695097660E+04  0.50400001928E-02 0. -1.
       -1   -1    0    0    0  501  0.00000000000E+00  0.00000000000E+00 -0.13142347001E+04  0.13142347001E+04  0.50400001928E-02 0.  1.
    10030    2    1    2    0    0  0.00000000000E+00  0.00000000000E+00 -0.24472493403E+03  0.23837444661E+04  0.23711489591E+04 0.  0.
        3    1    3    3  502    0  0.81802265677E+03 -0.75438220685E+03  0.28887435097E+03  0.11496529832E+04  0.10100000352E+00 0. -1.
       -3    1    3    3    0  502 -0.81802265677E+03  0.75438220685E+03 -0.53359928500E+03  0.12340914829E+04  0.10100000352E+00 0.  1.
</event>
<event>
 5   0  0.4260395E-05  0.2409376E+04  0.7818609E-02  0.8436002E-01
        1   -1    0    0  501    0  0.00000000000E+00  0.00000000000E+00  0.18775679652E+04  0.18775679652E+04  0.50400001928E-02 0. -1.
       -1   -1    0    0    0  501  0.00000000000E+00  0.00000000000E+00 -0.77295399234E+03  0.77295399236E+03  0.50400001928E-02 0.  1.
    10030    2    1    2    0    0  0.00000000000E+00  0.00000000000E+00  0.11046139729E+04  0.26505219576E+04  0.24093763962E+04 0.  0.
        4    1    3    3  502    0  0.10122850140E+04 -0.23000745807E+03 -0.12013974844E+03  0.10450165321E+04  0.12699999809E+01 0.  1.
       -4    1    3    3    0  502 -0.10122850140E+04  0.23000745807E+03  0.12247537213E+04  0.16055054254E+04  0.12699999809E+01 0. -1.
</event>
<event>
 5   0  0.9144244E-05  0.2300609E+04  0.7818609E-02  0.8477681E-01
        2   -1    0    0  501    0  0.00000000000E+00  0.00000000000E+00  0.14863406959E+04  0.14863406959E+04  0.25500000920E-02 0.  1.
       -2   -1    0    0    0  501  0.00000000000E+00  0.00000000000E+00 -0.89024057683E+03  0.89024057683E+03  0.25500000920E-02 0. -1.
    10030    2    1    2    0    0  0.00000000000E+00  0.00000000000E+00  0.59610011902E+03  0.23765812727E+04  0.23006093092E+04 0.  0.
        1    1    3    3  502    0  0.35008532778E+03  0.23540390897E+03  0.14035415629E+04  0.14655728081E+04  0.50400001928E-02 0.  1.
       -1    1    3    3    0  502 -0.35008532778E+03 -0.23540390897E+03 -0.80744144391E+03  0.91100846453E+03  0.50400001928E-02 0. -1.
</event>
<event>
 5   0  0.3234750E-05  0.2047090E+04  0.7818609E-02  0.8584915E-01
       -4   -1    0    0    0  501  0.00000000000E+00  0.00000000000E+00  0.14726827276E+04  0.14726832752E+04  0.12699999809E+01 0. -1.
        4   -1    0    0  501    0  0.00000000000E+00  0.00000000000E+00 -0.71138401837E+03  0.71138515200E+03  0.12699999809E+01 0.  1.
    10030    2    1    2    0    0  0.00000000000E+00  0.00000000000E+00  0.76129870921E+03  0.21840684272E+04  0.20470904157E+04 0.  0.
        3    1    3    3  502    0  0.93934606975E+03  0.17695712720E+03  0.77114541197E+03  0.12281490627E+04  0.10100000352E+00 0. -1.
       -3    1    3    3    0  502 -0.93934606975E+03 -0.17695712720E+03 -0.98467027641E+01  0.95591936448E+03  0.10100000352E+00 0.  1.
</event>
<event>
 5   0  0.9750757E-05  0.1315546E+04  0.7818609E-02  0.9017327E-01
        2   -1    0    0  501    0  0.00000000000E+00  0.00000000000E+00  0.17128688970E+04  0.17128688970E+04  0.25500000920E-02 0.  1.
       -2   -1    0    0    0  501  0.00000000000E+00  0.00000000000E+00 -0.25259700592E+03  0.25259700593E+03  0.25500000920E-02 0. -1.
    10030    2    1    2    0    0  0.00000000000E+00  0.00000000000E+00  0.14602718910E+04  0.19654659029E+04  0.13155463579E+04 0.  0.
        2    1    3    3  502    0 -0.11643371147E+02 -0.55426541123E+03  0.12590307181E+04  0.13756831260E+04  0.25500000920E-02 0.  1.
       -2    1    3    3    0  502  0.11643371147E+02  0.55426541123E+03  0.20124117296E+03  0.58978277686E+03  0.25500000920E-02 0. -1.
</event>
<event>
 5   0  0.9182865E-05  0.2319429E+04  0.7818609E-02  0.8470300E-01
        2   -1    0    0  501    0  0.00000000000E+00  0.00000000000E+00  0.20026188871E+04  0.20026188871E+04  0.25500000920E-02 0.  1.
       -2   -1    0    0    0  501  0.00000000000E+00  0.00000000000E+00 -0.67158953535E+03  0.67158953536E+03  0.25500000920E-02 0. -1.
    10030    2    1    2    0    0  0.00000000000E+00  0.00000000000E+00  0.13310293517E+04  0.26742084224E+04  0.23194291434E+04 0.  0.
        3    1    3    3  502    0 -0.59885126144E+03 -0.47783662976E+03  0.16693097920E+04  0.18367215004E+04  0.10100000352E+00 0.  1.
       -3    1    3    3    0  502  0.59885126144E+03  0.47783662976E+03 -0.33828044031E+03  0.83748692203E+03  0.10100000352E+00 0. -1.
</event>
<event>
 5   0  0.3934906E-05  0.2430918E+04  0.7818609E-02  0.8428018E-01
       -1   -1    0    0    0  501  0.00000000000E+00  0.00000000000E+00  0.13942804527E+04  0.13942804527E+04  0.50400001928E-02 0.  1.
        1   -1    0    0  501    0  0.00000000000E+00  0.00000000000E+00 -0.10595721174E+04  0.10595721174E+04  0.50400001928E-02 0. -1.
    10030    2    1    2    0    0  0.00000000000E+00  0.00000000000E+00  0.33470833531E+03  0.24538525701E+04  0.24309180912E+04 0.  0.
        2    1    3    3  502    0  0.53514975170E+03  0.22456884009E+03  0.12453830746E+04  0.13739706777E+04  0.25500000920E-02 0.  1.
       -2    1    3    3    0  502 -0.53514975170E+03 -0.22456884009E+03 -0.91067473930E+03  0.10798818924E+04  0.25500000920E-02 0. -1.
</event>
<event>
 5   0  0.4208577E-05  0.2348828E+04  0.7818609E-02  0.8458914E-01
       -1   -1    0    0    0  501  0.00000000000E+00  0.00000000000E+00  0.18136001717E+04  0.18136001717E+04  0.50400001928E-02 0.  1.
        1   -1    0    0  501    0  0.00000000000E+00  0.00000000000E+00 -0.76050314908E+03  0.76050314909E+03  0.50400001928E-02 0. -1.
    10030    2    1    2    0    0  0.00000000000E+00  0.00000000000E+00  0.10530970226E+04  0.25741033208E+04  0.23488283392E+04 0.  0.
        1    1    3    3  502    0 -0.15729945472E+03 -0.92439300311E+03  0.13014759609E+04  0.16040839191E+04  0.50400001928E-02 0.  1.
       -1    1    3    3    0  502  0.15729945472E+03  0.92439300311E+03 -0.24837893830E+03  0.97001940170E+03  0.50400001928E-02 0. -1.
</event>
<event>
 5   0  0.9182865E-05  0.2418136E+04  0.7818609E-02  0.8432745E-01
        2   -1    0    0  501    0  0.00000000000E+00  0.00000000000E+00  0.17745412301E+04  0.17745412301E+04  0.25500000920E-02 0.  1.
       -2   -1    0    0    0  501  0.00000000000E+00  0.00000000000E+00 -0.82378803475E+03  0.82378803475E+03  0.25500000920E-02 0. -1.
    10030    2    1    2    0    0  0.00000000000E+00  0.00000000000E+00  0.95075319535E+03  0.25983292649E+04  0.24181363341E+04 0.  0.
        3    1    3    3  502    0 -0.11412537036E+04  0.19444248947E+03  0.85003956196E+03  0.14362573463E+04  0.10100000352E+00 0.  1.
       -3    1    3    3    0  502  0.11412537036E+04 -0.19444248947E+03  0.10071363339E+03  0.11620719185E+04  0.10100000352E+00 0. -1.
</event>
<event>
 5   0  0.9491680E-05  0.2460473E+04  0.7818609E-02  0.8417204E-01
        2   -1    0    0  501    0  0.00000000000E+00  0.00000000000E+00  0.12938986253E+04  0.12938986253E+04  0.25500000920E-02 0.  1.
       -2   -1    0    0    0  501  0.00000000000E+00  0.00000000000E+00 -0.11697068081E+04  0.11697068081E+04  0.25500000920E-02 0. -1.
    10030    2    1    2    0    0  0.00000000000E+00  0.00000000000E+00  0.12419181719E+03  0.24636054334E+04  0.24604731504E+04 0.  0.
        5    1    3    3  502    0 -0.84061584105E+03  0.70932713947E+03 -0.48967727324E+03  0.12039875020E+04  0.46999998093E+01 0. -1.
       -5    1    3    3    0  502  0.84061584105E+03 -0.70932713947E+03  0.61386909043E+03  0.12596179314E+04  0.46999998093E+01 0.  1.
</event>
<event>
 5   0  0.4061631E-05  0.2551265E+04  0.7818609E-02  0.8384946E-01
       -1   -1    0    0    0  501  0.00000000000E+00  0.00000000000E+00  0.13863737387E+04  0.13863737387E+04  0.50400001928E-02 0.  1.
        1   -1    0    0  501    0  0.00000000000E+00  0.00000000000E+00 -0.11737375353E+04  0.11737375353E+04  0.50400001928E-02 0. -1.
    10030    2    1    2    0    0  0.00000000000E+00  0.00000000000E+00  0.21263620339E+03  0.25601112740E+04  0.25512654860E+04 0.  0.
        3    1    3    3  502    0 -0.95661871733E+03  0.80420611650E+02 -0.73662544243E+03  0.12100429322E+04  0.10100000352E+00 0. -1.
       -3    1    3    3    0  502  0.95661871733E+03 -0.80420611650E+02  0.94926164582E+03  0.13500683418E+04  0.10100000352E+00 0.  1.
</event>
<event>
 5   0  0.4260395E-05  0.2320394E+04  0.7818609E-02  0.8469923E-01
       -1   -1    0    0    0  501  0.00000000000E+00  0.00000000000E+00  0.70465074039E+03  0.70465074041E+03  0.50400001928E-02 0. -1.
        1   -1    0    0  501    0  0.00000000000E+00  0.00000000000E+00 -0.19102478010E+04  0.19102478010E+04  0.50400001928E-02 0.  1.
    10030    2    1    2    0    0  0.00000000000E+00  0.00000000000E+00 -0.12055970606E+04  0.26148985414E+04  0.23203943866E+04 0.  0.
        4    1    3    3  502    0 -0.33964609028E+03 -0.75501732370E+03  0.31316294465E+03  0.88514590240E+03  0.12699999809E+01 0. -1.
       -4    1    3    3    0  502  0.33964609028E+03  0.75501732370E+03 -0.15187600052E+04  0.17297526390E+04  0.12699999809E+01 0.  1.
</event>
<event>
 5   0  0.3934906E-05  0.1739415E+04  0.7818609E-02  0.8739198E-01
       -1   -1    0    0    0  501  0.00000000000E+00  0.00000000000E+00  0.86721530720E+03  0.86721530721E+03  0.50400001928E-02 0.  1.
        1   -1    0    0  501    0  0.00000000000E+00  0.00000000000E+00 -0.87220682686E+03  0.87220682688E+03  0.50400001928E-02 0. -1.
    10030    2    1    2    0    0  0.00000000000E+00  0.00000000000E+00 -0.49915196631E+01  0.17394221341E+04  0.17394149721E+04 0.  0.
        2    1    3    3  502    0 -0.42664136455E+03  0.46984382618E+03 -0.59715360125E+03  0.87141752245E+03  0.25500000920E-02 0. -1.
       -2    1    3    3    0  502  0.42664136455E+03 -0.46984382618E+03  0.59216208159E+03  0.86800461164E+03  0.25500000920E-02 0.  1.
</event>
<event>
 5   0  0.9519092E-05  0.2343342E+04  0.7818609E-02  0.8461026E-01
        2   -1    0    0  501    0  0.00000000000E+00  0.00000000000E+00  0.25889375650E+04  0.25889375650E+04  0.25500000920E-02 0. -1.
       -2   -1    0    0    0  501  0.00000000000E+00  0.00000000000E+00 -0.53026092227E+03  0.53026092227E+03  0.25500000920E-02 0.  1.
    10030    2    1    2    0    0  0.00000000000E+00  0.00000000000E+00  0.20586766427E+04  0.31191984873E+04  0.23433415636E+04 0.  0.
        4    1    3    3  502    0  0.33377520289E+03 -0.10999641942E+04  0.13313628838E+04  0.17589360011E+04  0.12699999809E+01 0. -1.
       -4    1    3    3    0  502 -0.33377520289E+03  0.10999641942E+04  0.72731375891E+03  0.13602624862E+04  0.12699999809E+01 0.  1.
</event>
<event>
 5   0  0.4018942E-05  0.2445003E+04  0.7818609E-02  0.8422845E-01
       -1   -1    0    0    0  501  0.00000000000E+00  0.00000000000E+00  0.10705743275E+04  0.10705743275E+04  0.50400001928E-02 0.  1.
        1   -1    0    0  501    0  0.00000000000E+00  0.00000000000E+00 -0.13959889063E+04  0.13959889064E+04  0.50400001928E-02 0. -1.
    10030    2    1    2    0    0  0.00000000000E+00  0.00000000000E+00 -0.32541457884E+03  0.24665632339E+04  0.24450029731E+04 0.  0.
        5    1    3    3  502    0 -0.52421396531E+03  0.10326779692E+04 -0.55764858878E+03  0.12853863653E+04  0.46999998093E+01 0. -1.
       -5    1    3    3    0  502  0.52421396531E+03 -0.10326779692E+04  0.23223400994E+03  0.11811768686E+04  0.46999998093E+01 0.  1.
</event>
<event>
 5   0  0.9491680E-05  0.2474599E+04  0.7818609E-02  0.8412091E-01
        2   -1    0    0  501    0  0.00000000000E+00  0.00000000000E+00  0.20065135594E+04  0.20065135594E+04  0.25500000920E-02 0.  1.
       -2   -1    0    0    0  501  0.00000000000E+00  0.00000000000E+00 -0.76297036393E+03  0.76297036394E+03  0.25500000920E-02 0. -1.
    10030    2    1    2    0    0  0.00000000000E+00  0.00000000000E+00  0.12435431955E+04  0.27694839234E+04  0.24745992651E+04 0.  0.
        5    1    3    3  502    0  0.10260611412E+04 -0.66245803890E+03  0.84345709560E+03  0.14842823454E+04  0.46999998093E+01 0. -1.
       -5    1    3    3    0  502 -0.10260611412E+04  0.66245803890E+03  0.40008609990E+03  0.12852015780E+04  0.46999998093E+01 0.  1.
</event>
<event>
 5   0  0.3934906E-05  0.2596393E+04  0.7818609E-02  0.8369427E-01
        1   -1    0    0  501    0  0.00000000000E+00  0.00000000000E+00  0.12246141084E+04  0.12246141084E+04  0.50400001928E-02 0. -1.
       -1   -1    0    0    0  501  0.00000000000E+00  0.00000000000E+00 -0.13762003990E+04  0.13762003990E+04  0.50400001928E-02 0.  1.
    10030    2    1    2    0    0  0.00000000000E+00  0.00000000000E+00 -0.15158629066E+03  0.26008145074E+04  0.25963932095E+04 0.  0.
        2    1    3    3  502    0 -0.11772682244E+04 -0.40015012713E+03 -0.44956904594E+03  0.13221924684E+04  0.25500000920E-02 0.  1.
       -2    1    3    3    0  502  0.11772682244E+04  0.40015012713E+03  0.29798275528E+03  0.12786220391E+04  0.25500000920E-02 0. -1.
</event>
<event>
 5   0  0.9144244E-05  0.2395818E+04  0.7818609E-02  0.8441071E-01
       -2   -1    0    0    0  501  0.00000000000E+00  0.00000000000E+00  0.73662893167E+03  0.73662893168E+03  0.25500000920E-02 0.  1.
        2   -1    0    0  501    0  0.00000000000E+00  0.00000000000E+00 -0.19480445179E+04  0.19480445179E+04  0.25500000920E-02 0. -1.
    10030    2    1    2    0    0  0.00000000000E+00  0.00000000000E+00 -0.12114155862E+04  0.26846734496E+04  0.23958179831E+04 0.  0.
        1    1    3    3  502    0 -0.30863681788E+03 -0.48114618231E+03  0.57393938149E+03  0.81003996677E+03  0.50400001928E-02 0.  1.
       -1    1    3    3    0  502  0.30863681788E+03  0.48114618231E+03 -0.17853549677E+04  0.18746334828E+04  0.50400001928E-02 0. -1.
</event>
<event>
 5   0  0.4018942E-05  0.2449558E+04  0.7818609E-02  0.8421180E-01
       -1   -1    0    0    0  501  0.00000000000E+00  0.00000000000E+00  0.56322545165E+03  0.56322545168E+03  0.50400001928E-02 0. -1.
        1   -1    0    0  501    0  0.00000000000E+00  0.00000000000E+00 -0.26633794500E+04  0.26633794500E+04  0.50400001928E-02 0.  1.
    10030    2    1    2    0    0  0.00000000000E+00  0.00000000000E+00 -0.21001539983E+04  0.32266049016E+04  0.24495575875E+04 0.  0.
        5    1    3    3  502    0  0.79814825247E+03  0.88211676260E+03 -0.14338614669E+04  0.18631026306E+04  0.46999998093E+01 0.  1.
       -5    1    3    3    0  502 -0.79814825247E+03 -0.88211676260E+03 -0.66629253139E+03  0.13635022711E+04  0.46999998093E+01 0. -1.
</event>
<event>
 5   0  0.3934906E-05  0.2411259E+04  0.7818609E-02  0.8435300E-01
        1   -1    0    0  501    0  0.00000000000E+00  0.00000000000E+00  0.83916354927E+03  0.83916354929E+03  0.50400001928E-02 0.  1.
       -1   -1    0    0    0  501  0.00000000000E+00  0.00000000000E+00 -0.17321324432E+04  0.17321324432E+04  0.50400001928E-02 0. -1.
    10030    2    1    2    0    0  0.00000000000E+00  0.00000000000E+00 -0.89296889390E+03  0.25712959925E+04  0.24112589316E+04 0.  0.
        2    1    3    3  502    0  0.38790252169E+03  0.94116308700E+03 -0.11353352604E+04  0.15248745772E+04  0.25500000920E-02 0. -1.
       -2    1    3    3    0  502 -0.38790252169E+03 -0.94116308700E+03  0.24236636652E+03  0.10464214153E+04  0.25500000920E-02 0.  1.
</event>
<event>
 5   0  0.9750757E-05  0.2409924E+04  0.7818609E-02  0.8435798E-01
       -2   -1    0    0    0  501  0.00000000000E+00  0.00000000000E+00  0.11603809379E+04  0.11603809379E+04  0.25500000920E-02 0. -1.
        2   -1    0    0  501    0  0.00000000000E+00  0.00000000000E+00 -0.12512553748E+04  0.12512553748E+04  0.25500000920E-02 0.  1.
    10030    2    1    2    0    0  0.00000000000E+00  0.00000000000E+00 -0.90874436924E+02  0.24116363127E+04  0.24099235551E+04 0.  0.
        2    1    3    3  502    0 -0.56572785019E+03  0.36828409244E+03 -0.10442706921E+04  0.12434558503E+04  0.25500000920E-02 0.  1.
       -2    1    3    3    0  502  0.56572785019E+03 -0.36828409244E+03  0.95339625520E+03  0.11681804624E+04  0.25500000920E-02 0. -1.
</event>
<event>
 5   0  0.9750757E-05  0.2482261E+04  0.7818609E-02  0.8409333E-01
       -2   -1    0    0    0  501  0.00000000000E+00  0.00000000000E+00  0.66063364069E+03  0.66063364069E+03  0.25500000920E-02 0. -1.
        2   -1    0    0  501    0  0.00000000000E+00  0.00000000000E+00 -0.23317075964E+04  0.23317075964E+04  0.25500000920E-02 0.  1.
    10030    2    1    2    0    0  0.00000000000E+00  0.00000000000E+00 -0.16710739557E+04  0.29923412371E+04  0.24822606458E+04 0.  0.
        2    1    3    3  502    0  0.39999901676E+03 -0.91094873120E+03 -0.17300219200E+04  0.19956960310E+04  0.25500000920E-02 0.  1.
       -2    1    3    3    0  502 -0.39999901676E+03  0.91094873120E+03  0.58947964366E+02  0.99664520607E+03  0.25500000920E-02 0. -1.
</event>
<event>
 5   0  0.9519092E-05  0.1810623E+04  0.7818609E-02  0.8700671E-01
        2   -1    0    0  501    0  0.00000000000E+00  0.00000000000E+00  0.13854129645E+04  0.13854129645E+04  0.25500000920E-02 0. -1.
       -2   -1    0    0    0  501  0.00000000000E+00  0.00000000000E+00 -0.59158463997E+03  0.59158463998E+03  0.25500000920E-02 0.  1.
    10030    2    1    2    0    0  0.00000000000E+00  0.00000000000E+00  0.79382832449E+03  0.19769976044E+04  0.18106231301E+04 0.  0.
        4    1    3    3  502    0  0.85058758379E+03 -0.12250934242E+03  0.86004667147E+02  0.86365860868E+03  0.12699999809E+01 0.  1.
       -4    1    3    3    0  502 -0.85058758379E+03  0.12250934242E+03  0.70782365735E+03  0.11133389958E+04  0.12699999809E+01 0. -1.
</event>
<event>
 5   0  0.9750757E-05  0.2405357E+04  0.7818609E-02  0.8437501E-01
       -2   -1    0    0    0  501  0.00000000000E+00  0.00000000000E+00  0.13863907895E+04  0.13863907895E+04  0.25500000920E-02 0.  1.
        2   -1    0    0  501    0  0.00000000000E+00  0.00000000000E+00 -0.10433101595E+04  0.10433101595E+04  0.25500000920E-02 0. -1.
    10030    2    1    2    0    0  0.00000000000E+00  0.00000000000E+00  0.34308063007E+03  0.24297009490E+04  0.24053570177E+04 0.  0.
        2    1    3    3  502    0 -0.82373424068E+03  0.34785500932E+03 -0.64089720023E+03  0.11001320048E+04  0.25500000920E-02 0. -1.
       -2    1    3    3    0  502  0.82373424068E+03 -0.34785500932E+03  0.98397783030E+03  0.13295689442E+04  0.25500000920E-02 0.  1.
</event>
<event>
 5   0  0.9750757E-05  0.1952409E+04  0.7818609E-02  0.8629200E-01
        2   -1    0    0  501    0  0.00000000000E+00  0.00000000000E+00  0.26505084819E+04  0.26505084819E+04  0.25500000920E-02 0.  1.
       -2   -1    0    0    0  501  0.00000000000E+00  0.00000000000E+00 -0.35954447001E+03  0.35954447002E+03  0.25500000920E-02 0. -1.
    10030    2    1    2    0    0  0.00000000000E+00  0.00000000000E+00  0.22909640119E+04  0.30100529519E+04  0.19524094523E+04 0.  0.
        2    1    3    3  502    0  0.81458945035E+02 -0.85815061337E+03  0.43911941021E+03  0.96741092168E+03  0.25500000920E-02 0. -1.
       -2    1    3    3    0  502 -0.81458945035E+02  0.85815061337E+03  0.18518446016E+04  0.20426420302E+04  0.25500000920E-02 0.  1.
</event>
<event>
 5   0  0.9182865E-05  0.2379634E+04  0.7818609E-02  0.8447168E-01
       -2   -1    0    0    0  501  0.00000000000E+00  0.00000000000E+00  0.61407186427E+03  0.61407186428E+03  0.25500000920E-02 0. -1.
        2   -1    0    0  501    0  0.00000000000E+00  0.00000000000E+00 -0.23053735993E+04  0.23053735993E+04  0.25500000920E-02 0.  1.
    10030    2    1    2    0    0  0.00000000000E+00  0.00000000000E+00 -0.16913017351E+04  0.29194454636E+04  0.23796344795E+04 0.  0.
        3    1    3    3  502    0  0.18361768415E+03 -0.90679557004E+03 -0.17634690748E+04  0.19914358759E+04  0.10100000352E+00 0.  1.
       -3    1    3    3    0  502 -0.18361768415E+03  0.90679557004E+03  0.72167339743E+02  0.92800958772E+03  0.10100000352E+00 0. -1.
</event>
<event>
 5   0  0.4260395E-05  0.2411173E+04  0.7818609E-02  0.8435332E-01
       -1   -1    0    0    0  501  0.00000000000E+00  0.00000000000E+00  0.12405365372E+04  0.12405365372E+04  0.50400001928E-02 0.  1.
        1   -1    0    0  501    0  0.00000000000E+00  0.00000000000E+00 -0.11716209472E+04  0.11716209473E+04  0.50400001928E-02 0. -1.
    10030    2    1    2    0    0  0.00000000000E+00  0.00000000000E+00  0.68915589933E+02  0.24121574844E+04  0.24111728207E+04 0.  0.
        4    1    3    3  502    0 -0.89590428403E+03 -0.73310367100E+03 -0.30235684274E+03  0.11964559130E+04  0.12699999809E+01 0. -1.
       -4    1    3    3    0  502  0.89590428403E+03  0.73310367100E+03  0.37127243267E+03  0.12157015714E+04  0.12699999809E+01 0.  1.
</event>
<event>
 5   0  0.4208577E-05  0.2256452E+04  0.7818609E-02  0.8495292E-01
       -1   -1    0    0    0  501  0.00000000000E+00  0.00000000000E+00  0.15852790790E+04  0.15852790790E+04  0.50400001928E-02 0. -1.
        1   -1    0    0  501    0  0.00000000000E+00  0.00000000000E+00 -0.80294602340E+03  0.80294602342E+03  0.50400001928E-02 0.  1.
    10030    2    1    2    0    0  0.00000000000E+00  0.00000000000E+00  0.78233305558E+03  0.23882251024E+04  0.22564516680E+04 0.  0.
        1    1    3    3  502    0  0.53738189991E+03  0.56879585705E+03 -0.46906180250E+03  0.91231957556E+03  0.50400001928E-02 0.  1.
       -1    1    3    3    0  502 -0.53738189991E+03 -0.56879585705E+03  0.12513948581E+04  0.14759055269E+04  0.50400001928E-02 0. -1.
</event>
<event>
 5   0  0.4061631E-05  0.1276160E+04  0.7818609E-02  0.9048687E-01
        1   -1    0    0  501    0  0.00000000000E+00  0.00000000000E+00  0.17797666052E+04  0.17797666052E+04  0.50400001928E-02 0.  1.
       -1   -1    0    0    0  501  0.00000000000E+00  0.00000000000E+00 -0.22876380367E+03  0.22876380373E+03  0.50400001928E-02 0. -1.
    10030    2    1    2    0    0  0.00000000000E+00  0.00000000000E+00  0.15510028015E+04  0.20085304089E+04  0.12761601440E+04 0.  0.
        3    1    3    3  502    0 -0.52777352560E+03 -0.14908642604E+03  0.12888259369E+04  0.14006584032E+04  0.10100000352E+00 0.  1.
       -3    1    3    3    0  502  0.52777352560E+03  0.14908642604E+03  0.26217686463E+03  0.60787200569E+03  0.10100000352E+00 0. -1.
</event>
<event>
 5   0  0.3934906E-05  0.2434311E+04  0.7818609E-02  0.8426769E-01
       -1   -1    0    0    0  501  0.00000000000E+00  0.00000000000E+00  0.95541935775E+03  0.95541935776E+03  0.50400001928E-02 0. -1.
        1   -1    0    0  501    0  0.00000000000E+00  0.00000000000E+00 -0.15505939989E+04  0.15505939989E+04  0.50400001928E-02 0.  1.
    10030    2    1    2    0    0  0.00000000000E+00  0.00000000000E+00 -0.59517464114E+03  0.25060133567E+04  0.24343110094E+04 0.  0.
        2    1    3    3  502    0 -0.75969875581E+03 -0.76467647798E+03  0.28439185764E+03  0.11147874435E+04  0.25500000920E-02 0.  1.
       -2    1    3    3    0  502  0.75969875581E+03  0.76467647798E+03 -0.87956649878E+03  0.13912259131E+04  0.25500000920E-02 0. -1.
</event>
<event>
 5   0  0.4061631E-05  0.2397102E+04  0.7818609E-02  0.8440590E-01
       -1   -1    0    0    0  501  0.00000000000E+00  0.00000000000E+00  0.13778836916E+04  0.13778836916E+04  0.50400001928E-02 0. -1.
        1   -1    0    0  501    0  0.00000000000E+00  0.00000000000E+00 -0.10425581806E+04  0.10425581806E+04  0.50400001928E-02 0.  1.
    10030    2    1    2    0    0  0.00000000000E+00  0.00000000000E+00  0.33532551095E+03  0.24204418722E+04  0.23971015119E+04 0.  0.
        3    1    3    3  502    0  0.39648500985E+03 -0.84278891979E+03 -0.59402321710E+03  0.11046977501E+04  0.10100000352E+00 0.  1.
       -3    1    3    3    0  502 -0.39648500985E+03  0.84278891979E+03  0.92934872805E+03  0.13157441221E+04  0.10100000352E+00 0. -1.
</event>
<event>
 5   0  0.9519092E-05  0.2479108E+04  0.7818609E-02  0.8410466E-01
       -2   -1    0    0    0  501  0.00000000000E+00  0.00000000000E+00  0.70812072654E+03  0.70812072655E+03  0.25500000920E-02 0.  1.
        2   -1    0    0  501    0  0.00000000000E+00  0.00000000000E+00 -0.21698192804E+04  0.21698192804E+04  0.25500000920E-02 0. -1.
    10030    2    1    2    0    0  0.00000000000E+00  0.00000000000E+00 -0.14616985538E+04  0.28779400069E+04  0.24791079083E+04 0.  0.
        4    1    3    3  502    0 -0.19685764762E+03 -0.22037637092E+03  0.66663371078E+03  0.72919187841E+03  0.12699999809E+01 0.  1.
       -4    1    3    3    0  502  0.19685764762E+03  0.22037637092E+03 -0.21283322646E+04  0.21487481285E+04  0.12699999809E+01 0. -1.
</event>
<event>
 5   0  0.9519092E-05  0.1890594E+04  0.7818609E-02  0.8659553E-01
       -2   -1    0    0    0  501  0.00000000000E+00  0.00000000000E+00  0.12623857527E+04  0.12623857527E+04  0.25500000920E-02 0.  1.
        2   -1    0    0  501    0  0.00000000000E+00  0.00000000000E+00 -0.70785510050E+03  0.70785510050E+03  0.25500000920E-02 0. -1.
    10030    2    1    2    0    0  0.00000000000E+00  0.00000000000E+00  0.55453065219E+03  0.19702408532E+04  0.18905937626E+04 0.  0.
        4    1    3    3  502    0  0.34452709494E+03  0.86141563950E+03  0.88387674284E+02  0.93196020140E+03  0.12699999809E+01 0. -1.
       -4    1    3    3    0  502 -0.34452709494E+03 -0.86141563950E+03  0.46614297791E+03  0.10382806518E+04  0.12699999809E+01 0.  1.
</event>
<event>
 5   0  0.9750757E-05  0.1380376E+04  0.7818609E-02  0.8968147E-01
        2   -1    0    0  501    0  0.00000000000E+00  0.00000000000E+00  0.57103529381E+03  0.57103529381E+03  0.25500000920E-02 0. -1.
       -2   -1    0    0    0  501  0.00000000000E+00  0.00000000000E+00 -0.83420314720E+03  0.83420314721E+03  0.25500000920E-02 0.  1.
    10030    2    1    2    0    0  0.00000000000E+00  0.00000000000E+00 -0.26316785340E+03  0.14052384410E+04  0.13803759477E+04 0.  0.
        2    1    3    3  502    0 -0.33985235173E+03 -0.27709974447E+03 -0.67417115425E+03  0.80423294796E+03  0.25500000920E-02 0.  1.
       -2    1    3    3    0  502  0.33985235173E+03  0.27709974447E+03  0.41100330085E+03  0.60100549305E+03  0.25500000920E-02 0. -1.
</event>
<event>
 5   0  0.3234750E-05  0.2389160E+04  0.7818609E-02  0.8443573E-01
       -3   -1    0    0    0  501  0.00000000000E+00  0.00000000000E+00  0.78705260847E+03  0.78705261495E+03  0.10100000352E+00 0.  1.
        3   -1    0    0  501    0  0.00000000000E+00  0.00000000000E+00 -0.18131210281E+04  0.18131210309E+04  0.10100000352E+00 0. -1.
    10030    2    1    2    0    0  0.00000000000E+00  0.00000000000E+00 -0.10260684196E+04  0.26001736458E+04  0.23891602263E+04 0.  0.
        1    1    3    3  502    0  0.21492416434E+03 -0.14617176691E+03 -0.17819733180E+04  0.18008296665E+04  0.50400001928E-02 0. -1.
       -1    1    3    3    0  502 -0.21492416434E+03  0.14617176691E+03  0.75590489836E+03  0.79934397931E+03  0.50400001928E-02 0.  1.
</event>
<event>
 5   0  0.4260395E-05  0.1950127E+04  0.7818609E-02  0.8630299E-01
       -1   -1    0    0    0  501  0.00000000000E+00  0.00000000000E+00  0.79309016829E+03  0.79309016830E+03  0.50400001928E-02 0. -1.
        1   -1    0    0  501    0  0.00000000000E+00  0.00000000000E+00 -0.11987905164E+04  0.11987905165E+04  0.50400001928E-02 0.  1.
    10030    2    1    2    0    0  0.00000000000E+00  0.00000000000E+00 -0.40570034816E+03  0.19918806848E+04  0.19501271471E+04 0.  0.
        4    1    3    3  502    0  0.57905199249E+03 -0.60559491491E+02 -0.10017596411E+04  0.11586598523E+04  0.12699999809E+01 0.  1.
       -4    1    3    3    0  502 -0.57905199249E+03  0.60559491491E+02  0.59605929292E+03  0.83322083243E+03  0.12699999809E+01 0. -1.
</event>
<event>
 5   0  0.4061631E-05  0.2297296E+04  0.7818609E-02  0.8478988E-01
        1   -1    0    0  501    0  0.00000000000E+00  0.00000000000E+00  0.14584432664E+04  0.14584432664E+04  0.50400001928E-02 0. -1.
       -1   -1    0    0    0  501  0.00000000000E+00  0.00000000000E+00 -0.90465790283E+03  0.90465790285E+03  0.50400001928E-02 0.  1.
    10030    2    1    2    0    0  0.00000000000E+00  0.00000000000E+00  0.55378536356E+03  0.23631011693E+04  0.22972959990E+04 0.  0.
        3    1    3    3  502    0 -0.69158330831E+02  0.16726194148E+03 -0.88989723030E+03  0.90811702026E+03  0.10100000352E+00 0.  1.
       -3    1    3    3    0  502  0.69158330831E+02 -0.16726194148E+03  0.14436825939E+04  0.14549841490E+04  0.10100000352E+00 0. -1.
</event>
<event>
 5   0  0.4260395E-05  0.2439703E+04  0.7818609E-02  0.8424787E-01
       -1   -1    0    0    0  501  0.00000000000E+00  0.00000000000E+00  0.11573559717E+04  0.11573559717E+04  0.50400001928E-02 0.  1.
        1   -1    0    0  501    0  0.00000000000E+00  0.00000000000E+00 -0.12857216842E+04  0.12857216842E+04  0.50400001928E-02 0. -1.
    10030    2    1    2    0    0  0.00000000000E+00  0.00000000000E+00 -0.12836571252E+03  0.24430776559E+04  0.24397029894E+04 0.  0.
        4    1    3    3  502    0 -0.70881658541E+03 -0.10512802037E+03  0.92438234415E+03  0.11695970176E+04  0.12699999809E+01 0.  1.
       -4    1    3    3    0  502  0.70881658541E+03  0.10512802037E+03 -0.10527480567E+04  0.12734806383E+04  0.12699999809E+01 0. -1.
</event>
<event>
 5   0  0.4260395E-05  0.2405055E+04  0.7818609E-02  0.8437614E-01
       -1   -1    0    0    0  501  0.00000000000E+00  0.00000000000E+00  0.11986618152E+04  0.11986618152E+04  0.50400001928E-02 0.  1.
        1   -1    0    0  501    0  0.00000000000E+00  0.00000000000E+00 -0.12064055092E+04  0.12064055092E+04  0.50400001928E-02 0. -1.
    10030    2    1    2    0    0  0.00000000000E+00  0.00000000000E+00 -0.77436939911E+01  0.24050673244E+04  0.24050548580E+04 0.  0.
        4    1    3    3  502    0  0.57546260602E+03 -0.54796952256E+03  0.89870847703E+03  0.11996275873E+04  0.12699999809E+01 0.  1.
       -4    1    3    3    0  502 -0.57546260602E+03  0.54796952256E+03 -0.90645217102E+03  0.12054397371E+04  0.12699999809E+01 0. -1.
</event>
<event>
 5   0  0.9144244E-05  0.2016586E+04  0.7818609E-02  0.8598905E-01
       -2   -1    0    0    0  501  0.00000000000E+00  0.00000000000E+00  0.51686035236E+03  0.51686035236E+03  0.25500000920E-02 0.  1.
        2   -1    0    0  501    0  0.00000000000E+00  0.00000000000E+00 -0.19669820362E+04  0.19669820362E+04  0.25500000920E-02 0. -1.
    10030    2    1    2    0    0  0.00000000000E+00  0.00000000000E+00 -0.14501216839E+04  0.24838423886E+04  0.20165862524E+04 0.  0.
        1    1    3    3  502    0  0.10365018766E+03  0.40489246490E+02 -0.19593956370E+04  0.19625529299E+04  0.50400001928E-02 0. -1.
       -1    1    3    3    0  502 -0.10365018766E+03 -0.40489246490E+02  0.50927395306E+03  0.52128945872E+03  0.50400001928E-02 0.  1.
</event>
<event>
 5   0  0.9750757E-05  0.1910754E+04  0.7818609E-02  0.8649522E-01
        2   -1    0    0  501    0  0.00000000000E+00  0.00000000000E+00  0.92060262146E+03  0.92060262146E+03  0.25500000920E-02 0. -1.
       -2   -1    0    0    0  501  0.00000000000E+00  0.00000000000E+00 -0.99146533578E+03  0.99146533578E+03  0.25500000920E-02 0.  1.
    10030    2    1    2    0    0  0.00000000000E+00  0.00000000000E+00 -0.70862714319E+02  0.19120679572E+04  0.19107543926E+04 0.  0.
        2    1    3    3  502    0 -0.69247577582E+02 -0.71392883462E+03 -0.66694045176E+03  0.97943819310E+03  0.25500000920E-02 0.  1.
       -2    1    3    3    0  502  0.69247577582E+02  0.71392883462E+03  0.59607773744E+03  0.93262976415E+03  0.25500000920E-02 0. -1.
</event>
<event>
 5   0  0.9182865E-05  0.2369526E+04  0.7818609E-02  0.8451002E-01
       -2   -1    0    0    0  501  0.00000000000E+00  0.00000000000E+00  0.14327811184E+04  0.14327811184E+04  0.25500000920E-02 0.  1.
        2   -1    0    0  501    0  0.00000000000E+00  0.00000000000E+00 -0.97967732494E+03  0.97967732495E+03  0.25500000920E-02 0. -1.
    10030    2    1    2    0    0  0.00000000000E+00  0.00000000000E+00  0.45310379345E+03  0.24124584433E+04  0.23695258372E+04 0.  0.
        3    1    3    3  502    0  0.28348934734E+03  0.67326679806E+03  0.11761945397E+04  0.13845894687E+04  0.10100000352E+00 0.  1.
       -3    1    3    3    0  502 -0.28348934734E+03 -0.67326679806E+03 -0.72309074628E+03  0.10278689746E+04  0.10100000352E+00 0. -1.
</event>
<event>
 5   0  0.9491680E-05  0.1807548E+04  0.7818609E-02  0.8702296E-01
       -2   -1    0    0    0  501  0.00000000000E+00  0.00000000000E+00  0.70666783937E+03  0.70666783937E+03  0.25500000920E-02 0. -1.
        2   -1    0    0  501    0  0.00000000000E+00  0.00000000000E+00 -0.11558576176E+04  0.11558576176E+04  0.25500000920E-02 0.  1.
    10030    2    1    2    0    0  0.00000000000E+00  0.00000000000E+00 -0.44918977820E+03  0.18625254569E+04  0.18075479581E+04 0.  0.
        5    1    3    3  502    0 -0.36872493091E+03 -0.61471797070E+02  0.62326143793E+03  0.72678316334E+03  0.46999998093E+01 0. -1.
       -5    1    3    3    0  502  0.36872493091E+03  0.61471797070E+02 -0.10724512161E+04  0.11357422936E+04  0.46999998093E+01 0.  1.
</event>
<event>
 5   0  0.4018942E-05  0.1571294E+04  0.7818609E-02  0.8838380E-01
       -1   -1    0    0    0  501  0.00000000000E+00  0.00000000000E+00  0.69557592463E+03  0.69557592465E+03  0.50400001928E-02 0. -1.
        1   -1    0    0  501    0  0.00000000000E+00  0.00000000000E+00 -0.88738111125E+03  0.88738111126E+03  0.50400001928E-02 0.  1.
    10030    2    1    2    0    0  0.00000000000E+00  0.00000000000E+00 -0.19180518662E+03  0.15829570359E+04  0.15712936543E+04 0.  0.
        5    1    3    3  502    0  0.71465952324E+03  0.74136954295E+02 -0.41604171865E+03  0.83026942844E+03  0.46999998093E+01 0.  1.
       -5    1    3    3    0  502 -0.71465952324E+03 -0.74136954295E+02  0.22423653203E+03  0.75268760747E+03  0.46999998093E+01 0. -1.
</event>
<event>
 5   0  0.3934906E-05  0.1573534E+04  0.7818609E-02  0.8836974E-01
       -1   -1    0    0    0  501  0.00000000000E+00  0.00000000000E+00  0.62539970778E+03  0.62539970780E+03  0.50400001928E-02 0.  1.
        1   -1    0    0  501    0  0.00000000000E+00  0.00000000000E+00 -0.98977073591E+03  0.98977073592E+03  0.50400001928E-02 0. -1.
    10030    2    1    2    0    0  0.00000000000E+00  0.00000000000E+00 -0.36437102812E+03  0.16151704437E+04  0.15735340213E+04 0.  0.
        2    1    3    3  502    0  0.60950117942E+03  0.28811977319E+03 -0.59850050952E+03  0.90150294027E+03  0.25500000920E-02 0.  1.
       -2    1    3    3    0  502 -0.60950117942E+03 -0.28811977319E+03  0.23412948140E+03  0.71366750345E+03  0.25500000920E-02 0. -1.
</event>
<event>
 5   0  0.4018942E-05  0.2371608E+04  0.7818609E-02  0.8450210E-01
       -1   -1    0    0    0  501  0.00000000000E+00  0.00000000000E+00  0.10390634843E+04  0.10390634843E+04  0.50400001928E-02 0.  1.
        1   -1    0    0  501    0  0.00000000000E+00  0.00000000000E+00 -0.13532681689E+04  0.13532681689E+04  0.50400001928E-02 0. -1.
    10030    2    1    2    0    0  0.00000000000E+00  0.00000000000E+00 -0.31420468455E+03  0.23923316532E+04  0.23716083478E+04 0.  0.
        5    1    3    3  502    0 -0.43105691136E+02  0.14698680946E+03  0.10290321972E+04  0.10403809762E+04  0.46999998093E+01 0.  1.
       -5    1    3    3    0  502  0.43105691136E+02 -0.14698680946E+03 -0.13432368817E+04  0.13519506771E+04  0.46999998093E+01 0. -1.
</event>
<event>
 5   0  0.9750757E-05  0.2324591E+04  0.7818609E-02  0.8468288E-01
        2   -1    0    0  501    0  0.00000000000E+00  0.00000000000E+00  0.96739669473E+03  0.96739669473E+03  0.25500000920E-02 0. -1.
       -2   -1    0    0    0  501  0.00000000000E+00  0.00000000000E+00 -0.13964596944E+04  0.13964596944E+04  0.25500000920E-02 0.  1.
    10030    2    1    2    0    0  0.00000000000E+00  0.00000000000E+00 -0.42906299967E+03  0.23638563891E+04  0.23245907104E+04 0.  0.
        2    1    3    3  502    0 -0.19935715857E+03 -0.72892673514E+03 -0.11125410858E+04  0.13449256966E+04  0.25500000920E-02 0.  1.
       -2    1    3    3    0  502  0.19935715857E+03  0.72892673514E+03  0.68347808613E+03  0.10189306925E+04  0.25500000920E-02 0. -1.
</event>
<event>
 5   0  0.9144244E-05  0.2066108E+04  0.7818609E-02  0.8576322E-01
        2   -1    0    0  501    0  0.00000000000E+00  0.00000000000E+00  0.81558727879E+03  0.81558727880E+03  0.25500000920E-02 0. -1.
       -2   -1    0    0    0  501  0.00000000000E+00  0.00000000000E+00 -0.13085054502E+04  0.13085054502E+04  0.25500000920E-02 0.  1.
    10030    2    1    2    0    0  0.00000000000E+00  0.00000000000E+00 -0.49291817141E+03  0.21240927290E+04  0.20661078379E+04 0.  0.
        1    1    3    3  502    0  0.18772637150E+03  0.99090988713E+03 -0.47647190847E+03  0.11154232715E+04  0.50400001928E-02 0. -1.
       -1    1    3    3    0  502 -0.18772637150E+03 -0.99090988713E+03 -0.16446262941E+02  0.10086694575E+04  0.50400001928E-02 0.  1.
</event>
<event>
 5   0  0.9144244E-05  0.2354536E+04  0.7818609E-02  0.8456723E-01
        2   -1    0    0  501    0  0.00000000000E+00  0.00000000000E+00  0.18953542749E+04  0.18953542749E+04  0.25500000920E-02 0. -1.
       -2   -1    0    0    0  501  0.00000000000E+00  0.00000000000E+00 -0.73124068669E+03  0.73124068670E+03  0.25500000920E-02 0.  1.
    10030    2    1    2    0    0  0.00000000000E+00  0.00000000000E+00  0.11641135882E+04  0.26265949616E+04  0.23545361849E+04 0.  0.
        1    1    3    3  502    0 -0.42843393668E+03 -0.61417637109E+03 -0.43130661397E+03  0.86417223295E+03  0.50400001928E-02 0.  1.
       -1    1    3    3    0  502  0.42843393668E+03  0.61417637109E+03  0.15954202022E+04  0.17624227287E+04  0.50400001928E-02 0. -1.
</event>
<event>
 5   0  0.9182865E-05  0.1457996E+04  0.7818609E-02  0.8912876E-01
        2   -1    0    0  501    0  0.00000000000E+00  0.00000000000E+00  0.12964938326E+04  0.12964938326E+04  0.25500000920E-02 0. -1.
       -2   -1    0    0    0  501  0.00000000000E+00  0.00000000000E+00 -0.40990417223E+03  0.40990417224E+03  0.25500000920E-02 0.  1.
    10030    2    1    2    0    0  0.00000000000E+00  0.00000000000E+00  0.88658966039E+03  0.17063980049E+04  0.14579962020E+04 0.  0.
        3    1    3    3  502    0 -0.35188378172E+03  0.28256009829E+03  0.11133528286E+04  0.12013396423E+04  0.10100000352E+00 0. -1.
       -3    1    3    3    0  502  0.35188378172E+03 -0.28256009829E+03 -0.22676316818E+03  0.50505836260E+03  0.10100000352E+00 0.  1.
</event>
<event>
 5   0  0.4260395E-05  0.2487907E+04  0.7818609E-02  0.8407306E-01
        1   -1    0    0  501    0  0.00000000000E+00  0.00000000000E+00  0.19091675813E+04  0.19091675813E+04  0.50400001928E-02 0.  1.
       -1   -1    0    0    0  501  0.00000000000E+00  0.00000000000E+00 -0.81052091380E+03  0.81052091382E+03  0.50400001928E-02 0. -1.
    10030    2    1    2    0    0  0.00000000000E+00  0.00000000000E+00  0.10986466675E+04  0.27196884951E+04  0.24879069537E+04 0.  0.
        4    1    3    3  502    0  0.12083618733E+04 -0.28836048704E+03  0.61956239112E+03  0.13882180508E+04  0.12699999809E+01 0. -1.
       -4    1    3    3    0  502 -0.12083618733E+04  0.28836048704E+03  0.47908427635E+03  0.13314704443E+04  0.12699999809E+01 0.  1.
</event>
<event>
 5   0  0.9182865E-05  0.2387177E+04  0.7818609E-02  0.8444320E-01
        2   -1    0    0  501    0  0.00000000000E+00  0.00000000000E+00  0.14877493857E+04  0.14877493857E+04  0.25500000920E-02 0.  1.
       -2   -1    0    0    0  501  0.00000000000E+00  0.00000000000E+00 -0.95758936531E+03  0.95758936531E+03  0.25500000920E-02 0. -1.
    10030    2    1    2    0    0  0.00000000000E+00  0.00000000000E+00  0.53016002035E+03  0.24453387510E+04  0.23871765665E+04 0.  0.
        3    1    3    3  502    0  0.20421542989E+03 -0.95281052815E+03  0.97114962386E+03  0.13757483224E+04  0.10100000352E+00 0. -1.
       -3    1    3    3    0  502 -0.20421542989E+03  0.95281052815E+03 -0.44098960350E+03  0.10695904286E+04  0.10100000352E+00 0.  1.
</event>
<event>
 5   0  0.3934906E-05  0.2393012E+04  0.7818609E-02  0.8442124E-01
        1   -1    0    0  501    0  0.00000000000E+00  0.00000000000E+00  0.23654528688E+04  0.23654528688E+04  0.50400001928E-02 0. -1.
       -1   -1    0    0    0  501  0.00000000000E+00  0.00000000000E+00 -0.60522293304E+03  0.60522293306E+03  0.50400001928E-02 0.  1.
    10030    2    1    2    0    0  0.00000000000E+00  0.00000000000E+00  0.17602299358E+04  0.29706758019E+04  0.23930117620E+04 0.  0.
        2    1    3    3  502    0 -0.64860167968E+03  0.34330068728E+03 -0.29304508398E+03  0.79019929260E+03  0.25500000920E-02 0.  1.
       -2    1    3    3    0  502  0.64860167968E+03 -0.34330068728E+03  0.20532750197E+04  0.21804765093E+04  0.25500000920E-02 0. -1.
</event>
<event>
 5   0  0.3234750E-05  0.2370228E+04  0.7818609E-02  0.8450735E-01
        4   -1    0    0  501    0  0.00000000000E+00  0.00000000000E+00  0.21115494072E+04  0.21115497891E+04  0.12699999809E+01 0.  1.
       -4   -1    0    0    0  501  0.00000000000E+00  0.00000000000E+00 -0.66514807188E+03  0.66514928432E+03  0.12699999809E+01 0. -1.
    10030    2    1    2    0    0  0.00000000000E+00  0.00000000000E+00  0.14464013353E+04  0.27766990734E+04  0.23702280316E+04 0.  0.
        4    1    3    3  502    0  0.11439963634E+04  0.96063321467E+02  0.10678215188E+04  0.15678648699E+04  0.12699999809E+01 0.  1.
       -4    1    3    3    0  502 -0.11439963634E+04 -0.96063321467E+02  0.37857981654E+03  0.12088342036E+04  0.12699999809E+01 0. -1.
</event>
<event>
 5   0  0.9182865E-05  0.2376761E+04  0.7818609E-02  0.8448256E-01
        2   -1    0    0  501    0  0.00000000000E+00  0.00000000000E+00  0.13337816696E+04  0.13337816696E+04  0.25500000920E-02 0.  1.
       -2   -1    0    0    0  501  0.00000000000E+00  0.00000000000E+00 -0.10588299463E+04  0.10588299463E+04  0.25500000920E-02 0. -1.
    10030    2    1    2    0    0  0.00000000000E+00  0.00000000000E+00  0.27495172329E+03  0.23926116160E+04  0.23767607988E+04 0.  0.
        3    1    3    3  502    0  0.23849299524E+03 -0.31780333878E+03 -0.98998007166E+03  0.10667419666E+04  0.10100000352E+00 0. -1.
       -3    1    3    3    0  502 -0.23849299524E+03  0.31780333878E+03  0.12649317949E+04  0.13258696493E+04  0.10100000352E+00 0.  1.
</event>
<event>
 5   0  0.3934906E-05  0.2427990E+04  0.7818609E-02  0.8429098E-01
        1   -1    0    0  501    0  0.00000000000E+00  0.00000000000E+00  0.17253555785E+04  0.17253555785E+04  0.50400001928E-02 0. -1.
       -1   -1    0    0    0  501  0.00000000000E+00  0.00000000000E+00 -0.85419155742E+03  0.85419155744E+03  0.50400001928E-02 0.  1.
    10030    2    1    2    0    0  0.00000000000E+00  0.00000000000E+00  0.87116402103E+03  0.25795471359E+04  0.24279902543E+04 0.  0.
        2    1    3    3  502    0 -0.60843842371E+02  0.10346351343E+04  0.11071901814E+04  0.15165889134E+04  0.25500000920E-02 0. -1.
       -2    1    3    3    0  502  0.60843842371E+02 -0.10346351343E+04 -0.23602616041E+03  0.10629582225E+04  0.25500000920E-02 0.  1.
</event>
<event>
 5   0  0.3934906E-05  0.2349119E+04  0.7818609E-02  0.8458802E-01
       -1   -1    0    0    0  501  0.00000000000E+00  0.00000000000E+00  0.12213589656E+04  0.12213589656E+04  0.50400001928E-02 0.  1.
        1   -1    0    0  501    0  0.00000000000E+00  0.00000000000E+00 -0.11295534063E+04  0.11295534063E+04  0.50400001928E-02 0. -1.
    10030    2    1    2    0    0  0.00000000000E+00  0.00000000000E+00  0.91805559277E+02  0.23509123719E+04  0.23491191370E+04 0.  0.
        2    1    3    3  502    0 -0.94604810929E+03 -0.42651665120E+03 -0.50466871223E+03  0.11539557998E+04  0.25500000920E-02 0. -1.
       -2    1    3    3    0  502  0.94604810929E+03  0.42651665120E+03  0.59647427150E+03  0.11969565721E+04  0.25500000920E-02 0.  1.
</event>
<event>
 5   0  0.3234750E-05  0.2363855E+04  0.7818609E-02  0.8453161E-01
        3   -1    0    0  501    0  0.00000000000E+00  0.00000000000E+00  0.17398275862E+04  0.17398275891E+04  0.10100000352E+00 0.  1.
       -3   -1    0    0    0  501  0.00000000000E+00  0.00000000000E+00 -0.80292576655E+03  0.80292577291E+03  0.10100000352E+00 0. -1.
    10030    2    1    2    0    0  0.00000000000E+00  0.00000000000E+00  0.93690181960E+03  0.25427533620E+04  0.23638548264E+04 0.  0.
        2    1    3    3  502    0 -0.19327296024E+03  0.10046092795E+04 -0.16825599486E+03  0.10367759264E+04  0.25500000920E-02 0. -1.
       -2    1    3    3    0  502  0.19327296024E+03 -0.10046092795E+04  0.11051578145E+04  0.15059774356E+04  0.25500000920E-02 0.  1.
</event>
<event>
 5   0  0.9750757E-05  0.2347378E+04  0.7818609E-02  0.8459471E-01
       -2   -1    0    0    0  501  0.00000000000E+00  0.00000000000E+00  0.10370546242E+04  0.10370546242E+04  0.25500000920E-02 0.  1.
        2   -1    0    0  501    0  0.00000000000E+00  0.00000000000E+00 -0.13283257680E+04  0.13283257680E+04  0.25500000920E-02 0. -1.
    10030    2    1    2    0    0  0.00000000000E+00  0.00000000000E+00 -0.29127114388E+03  0.23653803922E+04  0.23473784357E+04 0.  0.
        2    1    3    3  502    0 -0.16867979560E+03  0.88667598280E+03 -0.90165542585E+03  0.12757859064E+04  0.25500000920E-02 0. -1.
       -2    1    3    3    0  502  0.16867979560E+03 -0.88667598280E+03  0.61038428197E+03  0.10895944858E+04  0.25500000920E-02 0.  1.
</event>
<event>
 5   0  0.9750757E-05  0.2419950E+04  0.7818609E-02  0.8432072E-01
        2   -1    0    0  501    0  0.00000000000E+00  0.00000000000E+00  0.11988588454E+04  0.11988588454E+04  0.25500000920E-02 0. -1.
       -2   -1    0    0    0  501  0.00000000000E+00  0.00000000000E+00 -0.12211946272E+04  0.12211946272E+04  0.25500000920E-02 0.  1.
    10030    2    1    2    0    0  0.00000000000E+00  0.00000000000E+00 -0.22335781782E+02  0.24200534726E+04  0.24199503968E+04 0.  0.
        2    1    3    3  502    0  0.71018003166E+03 -0.38851962915E+03  0.88816836301E+03  0.12017263502E+04  0.25500000920E-02 0. -1.
       -2    1    3    3    0  502 -0.71018003166E+03  0.38851962915E+03 -0.91050414479E+03  0.12183271224E+04  0.25500000920E-02 0.  1.
</event>
<event>
 5   0  0.4061631E-05  0.2390783E+04  0.7818609E-02  0.8442962E-01
        1   -1    0    0  501    0  0.00000000000E+00  0.00000000000E+00  0.13013186539E+04  0.13013186539E+04  0.50400001928E-02 0. -1.
       -1   -1    0    0    0  501  0.00000000000E+00  0.00000000000E+00 -0.10980871260E+04  0.10980871260E+04  0.50400001928E-02 0.  1.
    10030    2    1    2    0    0  0.00000000000E+00  0.00000000000E+00  0.20323152787E+03  0.23994057800E+04  0.23907833534E+04 0.  0.
        3    1    3    3  502    0  0.10031630285E+04  0.41411797185E+03  0.60455332079E+03  0.12423020906E+04  0.10100000352E+00 0. -1.
       -3    1    3    3    0  502 -0.10031630285E+04 -0.41411797185E+03 -0.40132179292E+03  0.11571036894E+04  0.10100000352E+00 0.  1.
</event>
<event>
 5   0  0.9519092E-05  0.2179343E+04  0.7818609E-02  0.8527076E-01
       -2   -1    0    0    0  501  0.00000000000E+00  0.00000000000E+00  0.68785320771E+03  0.68785320772E+03  0.25500000920E-02 0. -1.
        2   -1    0    0  501    0  0.00000000000E+00  0.00000000000E+00 -0.17262168388E+04  0.17262168388E+04  0.25500000920E-02 0.  1.
    10030    2    1    2    0    0  0.00000000000E+00  0.00000000000E+00 -0.10383636311E+04  0.24140700465E+04  0.21793428274E+04 0.  0.
        4    1    3    3  502    0 -0.27364028195E+03  0.85351104134E+03  0.16725791010E+03  0.91177679450E+03  0.12699999809E+01 0.  1.
       -4    1    3    3    0  502  0.27364028195E+03 -0.85351104134E+03 -0.12056215412E+04  0.15022932520E+04  0.12699999809E+01 0. -1.
</event>
<event>
 5   0  0.4208577E-05  0.2406589E+04  0.7818609E-02  0.8437041E-01
        1   -1    0    0  501    0  0.00000000000E+00  0.00000000000E+00  0.96890043271E+03  0.96890043272E+03  0.50400001928E-02 0.  1.
       -1   -1    0    0    0  501  0.00000000000E+00  0.00000000000E+00 -0.14943925971E+04  0.14943925971E+04  0.50400001928E-02 0. -1.
    10030    2    1    2    0    0  0.00000000000E+00  0.00000000000E+00 -0.52549216436E+03  0.24632930298E+04  0.24065889836E+04 0.  0.
        1    1    3    3  502    0 -0.92620615438E+03 -0.76812017941E+03 -0.27006891462E+03  0.12332086884E+04  0.50400001928E-02 0.  1.
       -1    1    3    3    0  502  0.92620615438E+03  0.76812017941E+03 -0.25542324974E+03  0.12300843414E+04  0.50400001928E-02 0. -1.
</event>
<event>
 5   0  0.9750757E-05  0.2418590E+04  0.7818609E-02  0.8432576E-01
        2   -1    0    0  501    0  0.00000000000E+00  0.00000000000E+00  0.82407269172E+03  0.82407269173E+03  0.25500000920E-02 0.  1.
       -2   -1    0    0    0  501  0.00000000000E+00  0.00000000000E+00 -0.17745937742E+04  0.17745937742E+04  0.25500000920E-02 0. -1.
    10030    2    1    2    0    0  0.00000000000E+00  0.00000000000E+00 -0.95052108251E+03  0.25986664660E+04  0.24185898935E+04 0.  0.
        2    1    3    3  502    0  0.12117154636E+03  0.52494726083E+03  0.68800386706E+03  0.87384294436E+03  0.25500000920E-02 0.  1.
       -2    1    3    3    0  502 -0.12117154636E+03 -0.52494726083E+03 -0.16385249496E+04  0.17248235216E+04  0.25500000920E-02 0. -1.
</event>
<event>
 5   0  0.4018942E-05  0.1777465E+04  0.7818609E-02  0.8718376E-01
        1   -1    0    0  501    0  0.00000000000E+00  0.00000000000E+00  0.13313890447E+04  0.13313890448E+04  0.50400001928E-02 0. -1.
       -1   -1    0    0    0  501  0.00000000000E+00  0.00000000000E+00 -0.59324950080E+03  0.59324950082E+03  0.50400001928E-02 0.  1.
    10030    2    1    2    0    0  0.00000000000E+00  0.00000000000E+00  0.73813954394E+03  0.19246385456E+04  0.17774654834E+04 0.  0.
        5    1    3    3  502    0  0.33473424437E+03  0.23123359970E+03  0.12246236917E+04  0.12904422762E+04  0.46999998093E+01 0. -1.
       -5    1    3    3    0  502 -0.33473424437E+03 -0.23123359970E+03 -0.48648414778E+03  0.63419626933E+03  0.46999998093E+01 0.  1.
</event>
<event>
 5   0  0.9144244E-05  0.2380158E+04  0.7818609E-02  0.8446970E-01
       -2   -1    0    0    0  501  0.00000000000E+00  0.00000000000E+00  0.91818181578E+03  0.91818181578E+03  0.25500000920E-02 0.  1.
        2   -1    0    0  501    0  0.00000000000E+00  0.00000000000E+00 -0.15424913720E+04  0.15424913720E+04  0.25500000920E-02 0. -1.
    10030    2    1    2    0    0  0.00000000000E+00  0.00000000000E+00 -0.62430955624E+03  0.24606731878E+04  0.23801575820E+04 0.  0.
        1    1    3    3  502    0  0.10015609895E+03 -0.12098924144E+03 -0.15317289751E+04  0.15397607911E+04  0.50400001928E-02 0. -1.
       -1    1    3    3    0  502 -0.10015609895E+03  0.12098924144E+03  0.90741941884E+03  0.92091239671E+03  0.50400001928E-02 0.  1.
</event>
<event>
 5   0  0.3234750E-05  0.1652542E+04  0.7818609E-02  0.8788904E-01
        4   -1    0    0  501    0  0.00000000000E+00  0.00000000000E+00  0.10138719942E+04  0.10138727897E+04  0.12699999809E+01 0.  1.
       -4   -1    0    0    0  501  0.00000000000E+00  0.00000000000E+00 -0.67338088005E+03  0.67338207766E+03  0.12699999809E+01 0. -1.
    10030    2    1    2    0    0  0.00000000000E+00  0.00000000000E+00  0.34049111420E+03  0.16872548673E+04  0.16525419173E+04 0.  0.
        1    1    3    3  502    0  0.72609011362E+03 -0.94585785841E+02 -0.22064151039E+03  0.76474570944E+03  0.50400001928E-02 0. -1.
       -1    1    3    3    0  502 -0.72609011362E+03  0.94585785841E+02  0.56113262459E+03  0.92250915788E+03  0.50400001928E-02 0.  1.
</event>
<event>
 5   0  0.4208577E-05  0.2481259E+04  0.7818609E-02  0.8409693E-01
       -1   -1    0    0    0  501  0.00000000000E+00  0.00000000000E+00  0.14822788996E+04  0.14822788996E+04  0.50400001928E-02 0.  1.
        1   -1    0    0  501    0  0.00000000000E+00  0.00000000000E+00 -0.10383753437E+04  0.10383753437E+04  0.50400001928E-02 0. -1.
    10030    2    1    2    0    0  0.00000000000E+00  0.00000000000E+00  0.44390355589E+03  0.25206542433E+04  0.24812592463E+04 0.  0.
        1    1    3    3  502    0 -0.10992668010E+04  0.55828553981E+03  0.81585590666E+02  0.12356077259E+04  0.50400001928E-02 0. -1.
       -1    1    3    3    0  502  0.10992668010E+04 -0.55828553981E+03  0.36231796523E+03  0.12850465173E+04  0.50400001928E-02 0.  1.
</event>
<event>
 5   0  0.4260395E-05  0.2429350E+04  0.7818609E-02  0.8428596E-01
        1   -1    0    0  501    0  0.00000000000E+00  0.00000000000E+00  0.15525522235E+04  0.15525522236E+04  0.50400001928E-02 0. -1.
       -1   -1    0    0    0  501  0.00000000000E+00  0.00000000000E+00 -0.95032898092E+03  0.95032898094E+03  0.50400001928E-02 0.  1.
    10030    2    1    2    0    0  0.00000000000E+00  0.00000000000E+00  0.60222324263E+03  0.25028812045E+04  0.24293500139E+04 0.  0.
        4    1    3    3  502    0 -0.60440166603E+03 -0.96200608583E+03  0.74385917559E+03  0.13579709751E+04  0.12699999809E+01 0.  1.
       -4    1    3    3    0  502  0.60440166603E+03  0.96200608583E+03 -0.14163593297E+03  0.11449102294E+04  0.12699999809E+01 0. -1.
</event>
<event>
 5   0  0.4260395E-05  0.2483911E+04  0.7818609E-02  0.8408740E-01
        1   -1    0    0  501    0  0.00000000000E+00  0.00000000000E+00  0.16234610116E+04  0.16234610116E+04  0.50400001928E-02 0. -1.
       -1   -1    0    0    0  501  0.00000000000E+00  0.00000000000E+00 -0.95010160255E+03  0.95010160256E+03  0.50400001928E-02 0.  1.
    10030    2    1    2    0    0  0.00000000000E+00  0.00000000000E+00  0.67335940902E+03  0.25735626141E+04  0.24839105530E+04 0.  0.
        4    1    3    3  502    0 -0.89768872671E+03  0.21081921458E+03 -0.52531085069E+03  0.10612459159E+04  0.12699999809E+01 0.  1.
       -4    1    3    3    0  502  0.89768872671E+03 -0.21081921458E+03  0.11986702597E+04  0.15123166982E+04  0.12699999809E+01 0. -1.
</event>
<event>
 5   0  0.9750757E-05  0.2371014E+04  0.7818609E-02  0.8450436E-01
        2   -1    0    0  501    0  0.00000000000E+00  0.00000000000E+00  0.11769557286E+04  0.11769557287E+04  0.25500000920E-02 0.  1.
       -2   -1    0    0    0  501  0.00000000000E+00  0.00000000000E+00 -0.11941207606E+04  0.11941207606E+04  0.25500000920E-02 0. -1.
    10030    2    1    2    0    0  0.00000000000E+00  0.00000000000E+00 -0.17165031910E+02  0.23710764892E+04  0.23710143566E+04 0.  0.
        2    1    3    3  502    0 -0.56140682739E+01  0.11814345958E+04 -0.10660573486E+03  0.11862478681E+04  0.25500000920E-02 0. -1.
       -2    1    3    3    0  502  0.56140682739E+01 -0.11814345958E+04  0.89440702946E+02  0.11848286211E+04  0.25500000920E-02 0.  1.
</event>
<event>
 5   0  0.9750757E-05  0.1559206E+04  0.7818609E-02  0.8846009E-01
       -2   -1    0    0    0  501  0.00000000000E+00  0.00000000000E+00  0.39494929584E+03  0.39494929585E+03  0.25500000920E-02 0.  1.
        2   -1    0    0  501    0  0.00000000000E+00  0.00000000000E+00 -0.15388823232E+04  0.15388823232E+04  0.25500000920E-02 0. -1.
    10030    2    1    2    0    0  0.00000000000E+00  0.00000000000E+00 -0.11439330273E+04  0.19338316190E+04  0.15592055540E+04 0.  0.
        2    1    3    3  502    0  0.30143639283E+03  0.69982845977E+03 -0.36757920538E+03  0.84601314663E+03  0.25500000920E-02 0.  1.
       -2    1    3    3    0  502 -0.30143639283E+03 -0.69982845977E+03 -0.77635382194E+03  0.10878184724E+04  0.25500000920E-02 0. -1.
</event>
<event>
 5   0  0.9519092E-05  0.2414753E+04  0.7818609E-02  0.8434001E-01
        2   -1    0    0  501    0  0.00000000000E+00  0.00000000000E+00  0.14656448611E+04  0.14656448611E+04  0.25500000920E-02 0.  1.
       -2   -1    0    0    0  501  0.00000000000E+00  0.00000000000E+00 -0.99461908462E+03  0.99461908463E+03  0.25500000920E-02 0. -1.
    10030    2    1    2    0    0  0.00000000000E+00  0.00000000000E+00  0.47102577649E+03  0.24602639457E+04  0.24147532794E+04 0.  0.
        4    1    3    3  502    0  0.21543739573E+03 -0.97877055205E+03 -0.45049095483E+03  0.10987942384E+04  0.12699999809E+01 0. -1.
       -4    1    3    3    0  502 -0.21543739573E+03  0.97877055205E+03  0.92151673132E+03  0.13614697073E+04  0.12699999809E+01 0.  1.
</event>
<event>
 5   0  0.9491680E-05  0.2420970E+04  0.7818609E-02  0.8431694E-01
        2   -1    0    0  501    0  0.00000000000E+00  0.00000000000E+00  0.85186398111E+03  0.85186398112E+03  0.25500000920E-02 0. -1.
       -2   -1    0    0    0  501  0.00000000000E+00  0.00000000000E+00 -0.17200799565E+04  0.17200799566E+04  0.25500000920E-02 0.  1.
    10030    2    1    2    0    0  0.00000000000E+00  0.00000000000E+00 -0.86821597544E+03  0.25719439377E+04  0.24209701854E+04 0.  0.
        5    1    3    3  502    0 -0.50614544731E+01 -0.12102265384E+04 -0.40856318857E+03  0.12773487627E+04  0.46999998093E+01 0. -1.
       -5    1    3    3    0  502  0.50614544731E+01  0.12102265384E+04 -0.45965278686E+03  0.12945951750E+04  0.46999998093E+01 0.  1.
</event>
<event>
 5   0  0.9750757E-05  0.2367869E+04  0.7818609E-02  0.8451632E-01
       -2   -1    0    0    0  501  0.00000000000E+00  0.00000000000E+00  0.13900104476E+04  0.13900104476E+04  0.25500000920E-02 0.  1.
        2   -1    0    0  501    0  0.00000000000E+00  0.00000000000E+00 -0.10084105922E+04  0.10084105922E+04  0.25500000920E-02 0. -1.
    10030    2    1    2    0    0  0.00000000000E+00  0.00000000000E+00  0.38159985539E+03  0.23984210398E+04  0.23678693026E+04 0.  0.
        2    1    3    3  502    0  0.68354952247E+03  0.74292474665E+03 -0.43566551008E+03  0.10995369778E+04  0.25500000920E-02 0.  1.
       -2    1    3    3    0  502 -0.68354952247E+03 -0.74292474665E+03  0.81726536547E+03  0.12988840620E+04  0.25500000920E-02 0. -1.
</event>
<event>
 5   0  0.9144244E-05  0.2339672E+04  0.7818609E-02  0.8462441E-01
       -2   -1    0    0    0  501  0.00000000000E+00  0.00000000000E+00  0.14667933002E+04  0.14667933002E+04  0.25500000920E-02 0. -1.
        2   -1    0    0  501    0  0.00000000000E+00  0.00000000000E+00 -0.93299872094E+03  0.93299872094E+03  0.25500000920E-02 0.  1.
    10030    2    1    2    0    0  0.00000000000E+00  0.00000000000E+00  0.53379457926E+03  0.23997920211E+04  0.23396720052E+04 0.  0.
        1    1    3    3  502    0 -0.58008384025E+03  0.32271071989E+03 -0.72111827216E+03  0.98012806966E+03  0.50400001928E-02 0.  1.
       -1    1    3    3    0  502  0.58008384025E+03 -0.32271071989E+03  0.12549128514E+04  0.14196639515E+04  0.50400001928E-02 0. -1.
</event>
<event>
 5   0  0.9519092E-05  0.1186041E+04  0.7818609E-02  0.9125164E-01
       -2   -1    0    0    0  501  0.00000000000E+00  0.00000000000E+00  0.35116939016E+03  0.35116939017E+03  0.25500000920E-02 0.  1.
        2   -1    0    0  501    0  0.00000000000E+00  0.00000000000E+00 -0.10014343207E+04  0.10014343207E+04  0.25500000920E-02 0. -1.
    10030    2    1    2    0    0  0.00000000000E+00  0.00000000000E+00 -0.65026493052E+03  0.13526037108E+04  0.11860406059E+04 0.  0.
        4    1    3    3  502    0  0.48700678258E+03  0.81722908406E+02 -0.69960079619E+03  0.85632769835E+03  0.12699999809E+01 0. -1.
       -4    1    3    3    0  502 -0.48700678258E+03 -0.81722908406E+02  0.49335865670E+02  0.49627601250E+03  0.12699999809E+01 0.  1.
</event>
<event>
 5   0  0.9519092E-05  0.2399381E+04  0.7818609E-02  0.8439735E-01
        2   -1    0    0  501    0  0.00000000000E+00  0.00000000000E+00  0.11513705368E+04  0.11513705368E+04  0.25500000920E-02 0.  1.
       -2   -1    0    0    0  501  0.00000000000E+00  0.00000000000E+00 -0.12500382382E+04  0.12500382383E+04  0.25500000920E-02 0. -1.
    10030    2    1    2    0    0  0.00000000000E+00  0.00000000000E+00 -0.98667701489E+02  0.24014087750E+04  0.23993809179E+04 0.  0.
        4    1    3    3  502    0  0.11539061374E+04 -0.27921918017E+03 -0.22208581339E+03  0.12078023207E+04  0.12699999809E+01 0.  1.
       -4    1    3    3    0  502 -0.11539061374E+04  0.27921918017E+03  0.12341811190E+03  0.11936064543E+04  0.12699999809E+01 0. -1.
</event>
<event>
 5   0  0.9491680E-05  0.2527101E+04  0.7818609E-02  0.8393394E-01
       -2   -1    0    0    0  501  0.00000000000E+00  0.00000000000E+00  0.66693732325E+03  0.66693732326E+03  0.25500000920E-02 0. -1.
        2   -1    0    0  501    0  0.00000000000E+00  0.00000000000E+00 -0.23938684253E+04  0.23938684253E+04  0.25500000920E-02 0.  1.
    10030    2    1    2    0    0  0.00000000000E+00  0.00000000000E+00 -0.17269311020E+04  0.30608057485E+04  0.25271012641E+04 0.  0.
        5    1    3    3  502    0 -0.68524413996E+03  0.10307943812E+04 -0.11709307866E+04  0.17038772211E+04  0.46999998093E+01 0.  1.
       -5    1    3    3    0  502  0.68524413996E+03 -0.10307943812E+04 -0.55600031542E+03  0.13569285274E+04  0.46999998093E+01 0. -1.
</event>
<event>
 5   0  0.4260395E-05  0.2366420E+04  0.7818609E-02  0.8452183E-01
        1   -1    0    0  501    0  0.00000000000E+00  0.00000000000E+00  0.17362391706E+04  0.17362391706E+04  0.50400001928E-02 0. -1.
       -1   -1    0    0    0  501  0.00000000000E+00  0.00000000000E+00 -0.80633258332E+03  0.80633258333E+03  0.50400001928E-02 0.  1.
    10030    2    1    2    0    0  0.00000000000E+00  0.00000000000E+00  0.92990658724E+03  0.25425717539E+04  0.23664202633E+04 0.  0.
        4    1    3    3  502    0  0.26717269844E+03  0.11022606513E+04  0.82712783990E+03  0.14037456574E+04  0.12699999809E+01 0. -1.
       -4    1    3    3    0  502 -0.26717269844E+03 -0.11022606513E+04  0.10277874734E+03  0.11388260965E+04  0.12699999809E+01 0.  1.
</event>
<event>
 5   0  0.9491680E-05  0.2427769E+04  0.7818609E-02  0.8429180E-01
       -2   -1    0    0    0  501  0.00000000000E+00  0.00000000000E+00  0.10723917649E+04  0.10723917649E+04  0.25500000920E-02 0. -1.
        2   -1    0    0  501    0  0.00000000000E+00  0.00000000000E+00 -0.13740462682E+04  0.13740462682E+04  0.25500000920E-02 0.  1.
    10030    2    1    2    0    0  0.00000000000E+00  0.00000000000E+00 -0.30165450334E+03  0.24464380332E+04  0.24277692664E+04 0.  0.
        5    1    3    3  502    0  0.35298578214E+03  0.54266703819E+03 -0.11855667322E+04  0.13508060717E+04  0.46999998093E+01 0.  1.
       -5    1    3    3    0  502 -0.35298578214E+03 -0.54266703819E+03  0.88391222886E+03  0.10956319615E+04  0.46999998093E+01 0. -1.
</event>
<event>
 5   0  0.9182865E-05  0.2509002E+04  0.7818609E-02  0.8399786E-01
       -2   -1    0    0    0  501  0.00000000000E+00  0.00000000000E+00  0.91683989926E+03  0.91683989927E+03  0.25500000920E-02 0. -1.
        2   -1    0    0  501    0  0.00000000000E+00  0.00000000000E+00 -0.17165179395E+04  0.17165179395E+04  0.25500000920E-02 0.  1.
    10030    2    1    2    0    0  0.00000000000E+00  0.00000000000E+00 -0.79967804021E+03  0.26333578387E+04  0.25090015024E+04 0.  0.
        3    1    3    3  502    0 -0.11951735475E+03 -0.26451348467E+03 -0.16807890144E+04  0.17056680518E+04  0.10100000352E+00 0.  1.
       -3    1    3    3    0  502  0.11951735475E+03  0.26451348467E+03  0.88111097424E+03  0.92768978693E+03  0.10100000352E+00 0. -1.
</event>
<event>
 5   0  0.3934906E-05  0.2423384E+04  0.7818609E-02  0.8430801E-01
       -1   -1    0    0    0  501  0.00000000000E+00  0.00000000000E+00  0.69277085763E+03  0.69277085765E+03  0.50400001928E-02 0.  1.
        1   -1    0    0  501    0  0.00000000000E+00  0.00000000000E+00 -0.21193110384E+04  0.21193110384E+04  0.50400001928E-02 0. -1.
    10030    2    1    2    0    0  0.00000000000E+00  0.00000000000E+00 -0.14265401807E+04  0.28120818960E+04  0.24233835237E+04 0.  0.
        2    1    3    3  502    0 -0.74852937822E+03  0.95264820043E+03 -0.69118896653E+03  0.13948394213E+04  0.25500000920E-02 0.  1.
       -2    1    3    3    0  502  0.74852937822E+03 -0.95264820043E+03 -0.73535121420E+03  0.14172424747E+04  0.25500000920E-02 0. -1.
</event>
<event>
 5   0  0.4208577E-05  0.2409085E+04  0.7818609E-02  0.8436110E-01
        1   -1    0    0  501    0  0.00000000000E+00  0.00000000000E+00  0.15571786498E+04  0.15571786498E+04  0.50400001928E-02 0. -1.
       -1   -1    0    0    0  501  0.00000000000E+00  0.00000000000E+00 -0.93176398061E+03  0.93176398062E+03  0.50400001928E-02 0.  1.
    10030    2    1    2    0    0  0.00000000000E+00  0.00000000000E+00  0.62541466922E+03  0.24889426304E+04  0.24090852847E+04 0.  0.
        1    1    3    3  502    0 -0.47619298541E+03 -0.92112775152E+03  0.94595810627E+03  0.14035928301E+04  0.50400001928E-02 0. -1.
       -1    1    3    3    0  502  0.47619298541E+03  0.92112775152E+03 -0.32054343705E+03  0.10853498003E+04  0.50400001928E-02 0.  1.
</event>
<event>
 5   0  0.4018942E-05  0.1387499E+04  0.7818609E-02  0.8962918E-01
       -1   -1    0    0    0  501  0.00000000000E+00  0.00000000000E+00  0.52673102988E+03  0.52673102991E+03  0.50400001928E-02 0.  1.
        1   -1    0    0  501    0  0.00000000000E+00  0.00000000000E+00 -0.91372686575E+03  0.91372686576E+03  0.50400001928E-02 0. -1.
    10030    2    1    2    0    0  0.00000000000E+00  0.00000000000E+00 -0.38699583587E+03  0.14404578957E+04  0.13874988909E+04 0.  0.
        5    1    3    3  502    0 -0.39667743594E+03 -0.52041788571E+03  0.45683257201E+02  0.65597013189E+03  0.46999998093E+01 0.  1.
       -5    1    3    3    0  502  0.39667743594E+03  0.52041788571E+03 -0.43267909307E+03  0.78448776378E+03  0.46999998093E+01 0. -1.
</event>
<event>
 5   0  0.4018942E-05  0.2276266E+04  0.7818609E-02  0.8487338E-01
        1   -1    0    0  501    0  0.00000000000E+00  0.00000000000E+00  0.11629152329E+04  0.11629152329E+04  0.50400001928E-02 0. -1.
       -1   -1    0    0    0  501  0.00000000000E+00  0.00000000000E+00 -0.11138785833E+04  0.11138785833E+04  0.50400001928E-02 0.  1.
    10030    2    1    2    0    0  0.00000000000E+00  0.00000000000E+00  0.49036649569E+02  0.22767938162E+04  0.22762656894E+04 0.  0.
        5    1    3    3  502    0  0.16878158101E+03 -0.43300829690E+03  0.10636726823E+04  0.11607777876E+04  0.46999998093E+01 0. -1.
       -5    1    3    3    0  502 -0.16878158101E+03  0.43300829690E+03 -0.10146360327E+04  0.11160160286E+04  0.46999998093E+01 0.  1.
</event>
<event>
 5   0  0.9144244E-05  0.2390187E+04  0.7818609E-02  0.8443187E-01
       -2   -1    0    0    0  501  0.00000000000E+00  0.00000000000E+00  0.12522155328E+04  0.12522155328E+04  0.25500000920E-02 0.  1.
        2   -1    0    0  501    0  0.00000000000E+00  0.00000000000E+00 -0.11405771021E+04  0.11405771021E+04  0.25500000920E-02 0. -1.
    10030    2    1    2    0    0  0.00000000000E+00  0.00000000000E+00  0.11163843069E+03  0.23927926348E+04  0.23901869078E+04 0.  0.
        1    1    3    3  502    0  0.11033360825E+04  0.29699976315E+03  0.40647095794E+03  0.12127563687E+04  0.50400001928E-02 0.  1.
       -1    1    3    3    0  502 -0.11033360825E+04 -0.29699976315E+03 -0.29483252724E+03  0.11800362661E+04  0.50400001928E-02 0. -1.
</event>
<event>
 5   0  0.9144244E-05  0.2211354E+04  0.7818609E-02  0.8513717E-01
        2   -1    0    0  501    0  0.00000000000E+00  0.00000000000E+00  0.11667081117E+04  0.11667081117E+04  0.25500000920E-02 0. -1.
       -2   -1    0    0    0  501  0.00000000000E+00  0.00000000000E+00 -0.10478388532E+04  0.10478388532E+04  0.25500000920E-02 0.  1.
    10030    2    1    2    0    0  0.00000000000E+00  0.00000000000E+00  0.11886925853E+03  0.22145469649E+04  0.22113544174E+04 0.  0.
        1    1    3    3  502    0  0.11699658438E+03  0.13992416166E+03 -0.10326695179E+04  0.10486530909E+04  0.50400001928E-02 0.  1.
       -1    1    3    3    0  502 -0.11699658438E+03 -0.13992416166E+03  0.11515387765E+04  0.11658938740E+04  0.50400001928E-02 0. -1.
</event>
<event>
 5   0  0.4260395E-05  0.2440136E+04  0.7818609E-02  0.8424628E-01
       -1   -1    0    0    0  501  0.00000000000E+00  0.00000000000E+00  0.15662153677E+04  0.15662153678E+04  0.50400001928E-02 0.  1.
        1   -1    0    0  501    0  0.00000000000E+00  0.00000000000E+00 -0.95042261082E+03  0.95042261083E+03  0.50400001928E-02 0. -1.
    10030    2    1    2    0    0  0.00000000000E+00  0.00000000000E+00  0.61579275693E+03  0.25166379786E+04  0.24401364707E+04 0.  0.
        4    1    3    3  502    0 -0.78724051720E+03 -0.66648203635E+03 -0.36416094180E+03  0.10938741889E+04  0.12699999809E+01 0. -1.
       -4    1    3    3    0  502  0.78724051720E+03  0.66648203635E+03  0.97995369873E+03  0.14227637897E+04  0.12699999809E+01 0.  1.
</event>
<event>
 5   0  0.9750757E-05  0.2374819E+04  0.7818609E-02  0.8448991E-01
       -2   -1    0    0    0  501  0.00000000000E+00  0.00000000000E+00  0.71948547350E+03  0.71948547351E+03  0.25500000920E-02 0.  1.
        2   -1    0    0  501    0  0.00000000000E+00  0.00000000000E+00 -0.19596530388E+04  0.19596530388E+04  0.25500000920E-02 0. -1.
    10030    2    1    2    0    0  0.00000000000E+00  0.00000000000E+00 -0.12401675653E+04  0.26791385123E+04  0.23748194833E+04 0.  0.
        2    1    3    3  502    0 -0.17862917489E+03 -0.85751383324E+03 -0.15245032660E+04  0.17582231270E+04  0.25500000920E-02 0. -1.
       -2    1    3    3    0  502  0.17862917489E+03  0.85751383324E+03  0.28433570064E+03  0.92091538535E+03  0.25500000920E-02 0.  1.
</event>
<event>
 5   0  0.9491680E-05  0.2354856E+04  0.7818609E-02  0.8456601E-01
       -2   -1    0    0    0  501  0.00000000000E+00  0.00000000000E+00  0.13693767221E+04  0.13693767221E+04  0.25500000920E-02 0.  1.
        2   -1    0    0  501    0  0.00000000000E+00  0.00000000000E+00 -0.10123849469E+04  0.10123849469E+04  0.25500000920E-02 0. -1.
    10030    2    1    2    0    0  0.00000000000E+00  0.00000000000E+00  0.35699177517E+03  0.23817616689E+04  0.23548557323E+04 0.  0.
        5    1    3    3  502    0 -0.24090550829E+03  0.96190636575E+03  0.82058393407E+03  0.12871205861E+04  0.46999998093E+01 0.  1.
       -5    1    3    3    0  502  0.24090550829E+03 -0.96190636575E+03 -0.46359215890E+03  0.10946410828E+04  0.46999998093E+01 0. -1.
</event>
<event>
 5   0  0.9491680E-05  0.2484405E+04  0.7818609E-02  0.8408562E-01
       -2   -1    0    0    0  501  0.00000000000E+00  0.00000000000E+00  0.13177542361E+04  0.13177542361E+04  0.25500000920E-02 0.  1.
        2   -1    0    0  501    0  0.00000000000E+00  0.00000000000E+00 -0.11709827345E+04  0.11709827345E+04  0.25500000920E-02 0. -1.
    10030    2    1    2    0    0  0.00000000000E+00  0.00000000000E+00  0.14677150159E+03  0.24887369706E+04  0.24844053283E+04 0.  0.
        5    1    3    3  502    0  0.12210114861E+02 -0.46627614193E+03 -0.10799177290E+04  0.11763532288E+04  0.46999998093E+01 0. -1.
       -5    1    3    3    0  502 -0.12210114861E+02  0.46627614193E+03  0.12266892306E+04  0.13123837419E+04  0.46999998093E+01 0.  1.
</event>
<event>
 5   0  0.4208577E-05  0.2382190E+04  0.7818609E-02  0.8446202E-01
       -1   -1    0    0    0  501  0.00000000000E+00  0.00000000000E+00  0.88378006352E+03  0.88378006353E+03  0.50400001928E-02 0.  1.
        1   -1    0    0  501    0  0.00000000000E+00  0.00000000000E+00 -0.16052718352E+04  0.16052718352E+04  0.50400001928E-02 0. -1.
    10030    2    1    2    0    0  0.00000000000E+00  0.00000000000E+00 -0.72149177163E+03  0.24890518987E+04  0.23821899542E+04 0.  0.
        1    1    3    3  502    0 -0.63183845416E+03  0.22176401847E+03 -0.13899757966E+04  0.15428648117E+04  0.50400001928E-02 0. -1.
       -1    1    3    3    0  502  0.63183845416E+03 -0.22176401847E+03  0.66848402492E+03  0.94618708702E+03  0.50400001928E-02 0.  1.
</event>
<event>
 5   0  0.4260395E-05  0.2397643E+04  0.7818609E-02  0.8440386E-01
        1   -1    0    0  501    0  0.00000000000E+00  0.00000000000E+00  0.21184653362E+04  0.21184653362E+04  0.50400001928E-02 0. -1.
       -1   -1    0    0    0  501  0.00000000000E+00  0.00000000000E+00 -0.67840305012E+03  0.67840305014E+03  0.50400001928E-02 0.  1.
    10030    2    1    2    0    0  0.00000000000E+00  0.00000000000E+00  0.14400622860E+04  0.27968683863E+04  0.23976432976E+04 0.  0.
        4    1    3    3  502    0 -0.26781516058E+03  0.18411011433E+03 -0.62603448830E+03  0.70536677543E+03  0.12699999809E+01 0.  1.
       -4    1    3    3    0  502  0.26781516058E+03 -0.18411011433E+03  0.20660967743E+04  0.20915016109E+04  0.12699999809E+01 0. -1.
</event>
<event>
 5   0  0.9182865E-05  0.2350684E+04  0.7818609E-02  0.8458201E-01
        2   -1    0    0  501    0  0.00000000000E+00  0.00000000000E+00  0.10041281994E+04  0.10041281994E+04  0.25500000920E-02 0. -1.
       -2   -1    0    0    0  501  0.00000000000E+00  0.00000000000E+00 -0.13757497284E+04  0.13757497284E+04  0.25500000920E-02 0.  1.
    10030    2    1    2    0    0  0.00000000000E+00  0.00000000000E+00 -0.37162152897E+03  0.23798779279E+04  0.23506842388E+04 0.  0.
        3    1    3    3  502    0 -0.84754556370E+03 -0.68718980080E+03 -0.62811838760E+03  0.12590059666E+04  0.10100000352E+00 0.  1.
       -3    1    3    3    0  502  0.84754556370E+03  0.68718980080E+03  0.25649685863E+03  0.11208719613E+04  0.10100000352E+00 0. -1.
</event>
<event>
 5   0  0.9144244E-05  0.2425141E+04  0.7818609E-02  0.8430151E-01
        2   -1    0    0  501    0  0.00000000000E+00  0.00000000000E+00  0.11341270957E+04  0.11341270957E+04  0.25500000920E-02 0.  1.
       -2   -1    0    0    0  501  0.00000000000E+00  0.00000000000E+00 -0.12964393752E+04  0.12964393752E+04  0.25500000920E-02 0. -1.
    10030    2    1    2    0    0  0.00000000000E+00  0.00000000000E+00 -0.16231227951E+03  0.24305664709E+04  0.24251408399E+04 0.  0.
        1    1    3    3  502    0  0.92505977115E+03 -0.34031467462E+03  0.62666561384E+03  0.11680151752E+04  0.50400001928E-02 0.  1.
       -1    1    3    3    0  502 -0.92505977115E+03  0.34031467462E+03 -0.78897789335E+03  0.12625512957E+04  0.50400001928E-02 0. -1.
</event>
<event>
 5   0  0.9491680E-05  0.2405668E+04  0.7818609E-02  0.8437385E-01
       -2   -1    0    0    0  501  0.00000000000E+00  0.00000000000E+00  0.91474611653E+03  0.91474611654E+03  0.25500000920E-02 0. -1.
        2   -1    0    0  501    0  0.00000000000E+00  0.00000000000E+00 -0.15816510378E+04  0.15816510378E+04  0.25500000920E-02 0.  1.
    10030    2    1    2    0    0  0.00000000000E+00  0.00000000000E+00 -0.66690492126E+03  0.24963971543E+04  0.24056675951E+04 0.  0.
        5    1    3    3  502    0  0.58813758955E+03  0.22189167355E+03  0.73072169248E+03  0.96390768277E+03  0.46999998093E+01 0. -1.
       -5    1    3    3    0  502 -0.58813758955E+03 -0.22189167355E+03 -0.13976266137E+04  0.15324894716E+04  0.46999998093E+01 0.  1.
</event>
<event>
 5   0  0.3934906E-05  0.1604310E+04  0.7818609E-02  0.8817904E-01
       -1   -1    0    0    0  501  0.00000000000E+00  0.00000000000E+00  0.57728680390E+03  0.57728680392E+03  0.50400001928E-02 0. -1.
        1   -1    0    0  501    0  0.00000000000E+00  0.00000000000E+00 -0.11146155853E+04  0.11146155853E+04  0.50400001928E-02 0.  1.
    10030    2    1    2    0    0  0.00000000000E+00  0.00000000000E+00 -0.53732878140E+03  0.16919023892E+04  0.16043102803E+04 0.  0.
        2    1    3    3  502    0 -0.65198629624E+03  0.46476518322E+03 -0.31989726469E+03  0.86222216741E+03  0.25500000920E-02 0. -1.
       -2    1    3    3    0  502  0.65198629624E+03 -0.46476518322E+03 -0.21743151671E+03  0.82968022182E+03  0.25500000920E-02 0.  1.
</event>
<event>
 5   0  0.9182865E-05  0.2395366E+04  0.7818609E-02  0.8441241E-01
       -2   -1    0    0    0  501  0.00000000000E+00  0.00000000000E+00  0.56842177738E+03  0.56842177738E+03  0.25500000920E-02 0.  1.
        2   -1    0    0  501    0  0.00000000000E+00  0.00000000000E+00 -0.25235559728E+04  0.25235559728E+04  0.25500000920E-02 0. -1.
    10030    2    1    2    0    0  0.00000000000E+00  0.00000000000E+00 -0.19551341955E+04  0.30919777502E+04  0.23953656685E+04 0.  0.
        3    1    3    3  502    0  0.32470804727E+02 -0.11598917513E+04 -0.13605742274E+04  0.17881737797E+04  0.10100000352E+00 0.  1.
       -3    1    3    3    0  502 -0.32470804727E+02  0.11598917513E+04 -0.59455996804E+03  0.13038039705E+04  0.10100000352E+00 0. -1.
</event>
<event>
 5   0  0.9519092E-05  0.2165655E+04  0.7818609E-02  0.8532861E-01
        2   -1    0    0  501    0  0.00000000000E+00  0.00000000000E+00  0.26692312373E+04  0.26692312373E+04  0.25500000920E-02 0. -1.
       -2   -1    0    0    0  501  0.00000000000E+00  0.00000000000E+00 -0.43927078449E+03  0.43927078450E+03  0.25500000920E-02 0.  1.
    10030    2    1    2    0    0  0.00000000000E+00  0.00000000000E+00  0.22299604528E+04  0.31085020218E+04  0.21656549121E+04 0.  0.
        4    1    3    3  502    0 -0.28643946606E+03 -0.10948371942E+02  0.26137817189E+04  0.26294531602E+04  0.12699999809E+01 0. -1.
       -4    1    3    3    0  502  0.28643946606E+03  0.10948371942E+02 -0.38382126613E+03  0.47904886159E+03  0.12699999809E+01 0.  1.
</event>
<event>
 5   0  0.3234750E-05  0.2401928E+04  0.7818609E-02  0.8438782E-01
       -3   -1    0    0    0  501  0.00000000000E+00  0.00000000000E+00  0.19887167645E+04  0.19887167671E+04  0.10100000352E+00 0.  1.
        3   -1    0    0  501    0  0.00000000000E+00  0.00000000000E+00 -0.72524861548E+03  0.72524862251E+03  0.10100000352E+00 0. -1.
    10030    2    1    2    0    0  0.00000000000E+00  0.00000000000E+00  0.12634681490E+04  0.27139653896E+04  0.24019276368E+04 0.  0.
        1    1    3    3  502    0  0.74981421389E+03 -0.49914964559E+03 -0.26577579241E+03  0.93915307373E+03  0.50400001928E-02 0. -1.
       -1    1    3    3    0  502 -0.74981421389E+03  0.49914964559E+03  0.15292439415E+04  0.17748123159E+04  0.50400001928E-02 0.  1.
</event>
<event>
 5   0  0.9182865E-05  0.1944935E+04  0.7818609E-02  0.8632807E-01
        2   -1    0    0  501    0  0.00000000000E+00  0.00000000000E+00  0.17672808500E+04  0.17672808500E+04  0.25500000920E-02 0. -1.
       -2   -1    0    0    0  501  0.00000000000E+00  0.00000000000E+00 -0.53511185347E+03  0.53511185348E+03  0.25500000920E-02 0.  1.
    10030    2    1    2    0    0  0.00000000000E+00  0.00000000000E+00  0.12321689965E+04  0.23023927035E+04  0.19449348897E+04 0.  0.
        3    1    3    3  502    0 -0.94190707415E+03  0.15951372119E+03  0.40084521486E+03  0.10360069788E+04  0.10100000352E+00 0.  1.
       -3    1    3    3    0  502  0.94190707415E+03 -0.15951372119E+03  0.83132378167E+03  0.12663857247E+04  0.10100000352E+00 0. -1.
</event>
<event>
 5   0  0.9519092E-05  0.1379165E+04  0.7818609E-02  0.8969040E-01
       -2   -1    0    0    0  501  0.00000000000E+00  0.00000000000E+00  0.38817445224E+03  0.38817445225E+03  0.25500000920E-02 0. -1.
        2   -1    0    0  501    0  0.00000000000E+00  0.00000000000E+00 -0.12250263352E+04  0.12250263352E+04  0.25500000920E-02 0.  1.
    10030    2    1    2    0    0  0.00000000000E+00  0.00000000000E+00 -0.83685188294E+03  0.16132007874E+04  0.13791648584E+04 0.  0.
        4    1    3    3  502    0 -0.36971937563E+03 -0.81832882535E+02  0.25568043856E+03  0.45690604827E+03  0.12699999809E+01 0. -1.
       -4    1    3    3    0  502  0.36971937563E+03  0.81832882535E+02 -0.10925323215E+04  0.11562947392E+04  0.12699999809E+01 0.  1.
</event>
<event>
 5   0  0.9144244E-05  0.2407663E+04  0.7818609E-02  0.8436640E-01
       -2   -1    0    0    0  501  0.00000000000E+00  0.00000000000E+00  0.11721974306E+04  0.11721974306E+04  0.25500000920E-02 0.  1.
        2   -1    0    0  501    0  0.00000000000E+00  0.00000000000E+00 -0.12363189334E+04  0.12363189334E+04  0.25500000920E-02 0. -1.
    10030    2    1    2    0    0  0.00000000000E+00  0.00000000000E+00 -0.64121502795E+02  0.24085163640E+04  0.24076626650E+04 0.  0.
        1    1    3    3  502    0  0.25913148441E+03  0.66909689942E+03 -0.99903170115E+03  0.12300016776E+04  0.50400001928E-02 0. -1.
       -1    1    3    3    0  502 -0.25913148441E+03 -0.66909689942E+03  0.93491019836E+03  0.11785146864E+04  0.50400001928E-02 0.  1.
</event>
<event>
 5   0  0.4260395E-05  0.2373683E+04  0.7818609E-02  0.8449422E-01
       -1   -1    0    0    0  501  0.00000000000E+00  0.00000000000E+00  0.98237666801E+03  0.98237666802E+03  0.50400001928E-02 0.  1.
        1   -1    0    0  501    0  0.00000000000E+00  0.00000000000E+00 -0.14338620892E+04  0.14338620892E+04  0.50400001928E-02 0. -1.
    10030    2    1    2    0    0  0.00000000000E+00  0.00000000000E+00 -0.45148542122E+03  0.24162387573E+04  0.23736829288E+04 0.  0.
        4    1    3    3  502    0  0.10203994306E+04 -0.38757660941E+02 -0.84146213044E+03  0.13231694087E+04  0.12699999809E+01 0. -1.
       -4    1    3    3    0  502 -0.10203994306E+04  0.38757660941E+02  0.38997670921E+03  0.10930693486E+04  0.12699999809E+01 0.  1.
</event>
<event>
 5   0  0.9182865E-05  0.2335166E+04  0.7818609E-02  0.8464183E-01
        2   -1    0    0  501    0  0.00000000000E+00  0.00000000000E+00  0.12117492538E+04  0.12117492538E+04  0.25500000920E-02 0.  1.
       -2   -1    0    0    0  501  0.00000000000E+00  0.00000000000E+00 -0.11250260933E+04  0.11250260933E+04  0.25500000920E-02 0. -1.
    10030    2    1    2    0    0  0.00000000000E+00  0.00000000000E+00  0.86723160489E+02  0.23367753472E+04  0.23351655437E+04 0.  0.
        3    1    3    3  502    0  0.57537042619E+03  0.62054534828E+03 -0.76163182870E+03  0.11385124985E+04  0.10100000352E+00 0. -1.
       -3    1    3    3    0  502 -0.57537042619E+03 -0.62054534828E+03  0.84835498919E+03  0.11982628487E+04  0.10100000352E+00 0.  1.
</event>
<event>
 5   0  0.9491680E-05  0.2517962E+04  0.7818609E-02  0.8396614E-01
        2   -1    0    0  501    0  0.00000000000E+00  0.00000000000E+00  0.12899730261E+04  0.12899730261E+04  0.25500000920E-02 0. -1.
       -2   -1    0    0    0  501  0.00000000000E+00  0.00000000000E+00 -0.12287338705E+04  0.12287338705E+04  0.25500000920E-02 0.  1.
    10030    2    1    2    0    0  0.00000000000E+00  0.00000000000E+00  0.61239155531E+02  0.25187068966E+04  0.25179623105E+04 0.  0.
        5    1    3    3  502    0 -0.55833590121E+03 -0.84599476451E+03  0.77754336431E+03  0.12775139504E+04  0.46999998093E+01 0. -1.
       -5    1    3    3    0  502  0.55833590121E+03  0.84599476451E+03 -0.71630420878E+03  0.12411929462E+04  0.46999998093E+01 0.  1.
</event>
<event>
 5   0  0.4061631E-05  0.2389132E+04  0.7818609E-02  0.8443583E-01
        1   -1    0    0  501    0  0.00000000000E+00  0.00000000000E+00  0.10497622516E+04  0.10497622516E+04  0.50400001928E-02 0. -1.
       -1   -1    0    0    0  501  0.00000000000E+00  0.00000000000E+00 -0.13593444427E+04  0.13593444427E+04  0.50400001928E-02 0.  1.
    10030    2    1    2    0    0  0.00000000000E+00  0.00000000000E+00 -0.30958219112E+03  0.24091066943E+04  0.23891324642E+04 0.  0.
        3    1    3    3  502    0 -0.42064027482E+03 -0.24508388161E+03 -0.12547751466E+04  0.13459067681E+04  0.10100000352E+00 0.  1.
       -3    1    3    3    0  502  0.42064027482E+03  0.24508388161E+03  0.94519295545E+03  0.10631999262E+04  0.10100000352E+00 0. -1.
</event>
<event>
 5   0  0.4260395E-05  0.2411247E+04  0.7818609E-02  0.8435305E-01
        1   -1    0    0  501    0  0.00000000000E+00  0.00000000000E+00  0.15694328461E+04  0.15694328461E+04  0.50400001928E-02 0.  1.
       -1   -1    0    0    0  501  0.00000000000E+00  0.00000000000E+00 -0.92614870737E+03  0.92614870739E+03  0.50400001928E-02 0. -1.
    10030    2    1    2    0    0  0.00000000000E+00  0.00000000000E+00  0.64328413869E+03  0.24955815535E+04  0.24112471476E+04 0.  0.
        4    1    3    3  502    0  0.26983382799E+03  0.11683489864E+04  0.19205529267E+03  0.12143872929E+04  0.12699999809E+01 0. -1.
       -4    1    3    3    0  502 -0.26983382799E+03 -0.11683489864E+04  0.45122884603E+03  0.12811942605E+04  0.12699999809E+01 0.  1.
</event>
<event>
 5   0  0.9519092E-05  0.2340013E+04  0.7818609E-02  0.8462310E-01
       -2   -1    0    0    0  501  0.00000000000E+00  0.00000000000E+00  0.55758551706E+03  0.55758551707E+03  0.25500000920E-02 0. -1.
        2   -1    0    0  501    0  0.00000000000E+00  0.00000000000E+00 -0.24550764209E+04  0.24550764209E+04  0.25500000920E-02 0.  1.
    10030    2    1    2    0    0  0.00000000000E+00  0.00000000000E+00 -0.18974909038E+04  0.30126619380E+04  0.23400128680E+04 0.  0.
        4    1    3    3  502    0 -0.49221513104E+03 -0.50769504635E+03 -0.21488329648E+04  0.22621924584E+04  0.12699999809E+01 0.  1.
       -4    1    3    3    0  502  0.49221513104E+03  0.50769504635E+03  0.25134206093E+03  0.75046947960E+03  0.12699999809E+01 0. -1.
</event>
<event>
 5   0  0.4061631E-05  0.2309374E+04  0.7818609E-02  0.8474234E-01
       -1   -1    0    0    0  501  0.00000000000E+00  0.00000000000E+00  0.98116429044E+03  0.98116429045E+03  0.50400001928E-02 0. -1.
        1   -1    0    0  501    0  0.00000000000E+00  0.00000000000E+00 -0.13588974293E+04  0.13588974293E+04  0.50400001928E-02 0.  1.
    10030    2    1    2    0    0  0.00000000000E+00  0.00000000000E+00 -0.37773313886E+03  0.23400617198E+04  0.23093736225E+04 0.  0.
        3    1    3    3  502    0 -0.25999434404E+03  0.21474870436E+03 -0.13078910912E+04  0.13506639780E+04  0.10100000352E+00 0.  1.
       -3    1    3    3    0  502  0.25999434404E+03 -0.21474870436E+03  0.93015795230E+03  0.98939774175E+03  0.10100000352E+00 0. -1.
</event>
<event>
 5   0  0.9491680E-05  0.2351400E+04  0.7818609E-02  0.8457926E-01
       -2   -1    0    0    0  501  0.00000000000E+00  0.00000000000E+00  0.19398723984E+04  0.19398723984E+04  0.25500000920E-02 0. -1.
        2   -1    0    0  501    0  0.00000000000E+00  0.00000000000E+00 -0.71255754049E+03  0.71255754049E+03  0.25500000920E-02 0.  1.
    10030    2    1    2    0    0  0.00000000000E+00  0.00000000000E+00  0.12273148579E+04  0.26524299389E+04  0.23514001829E+04 0.  0.
        5    1    3    3  502    0  0.10754085759E+04 -0.44584803466E+03  0.79888851824E+03  0.14119238753E+04  0.46999998093E+01 0. -1.
       -5    1    3    3    0  502 -0.10754085759E+04  0.44584803466E+03  0.42842633968E+03  0.12405060636E+04  0.46999998093E+01 0.  1.
</event>
<event>
 5   0  0.9750757E-05  0.2442939E+04  0.7818609E-02  0.8423601E-01
       -2   -1    0    0    0  501  0.00000000000E+00  0.00000000000E+00  0.18744543184E+04  0.18744543184E+04  0.25500000920E-02 0.  1.
        2   -1    0    0  501    0  0.00000000000E+00  0.00000000000E+00 -0.79595820270E+03  0.79595820270E+03  0.25500000920E-02 0. -1.
    10030    2    1    2    0    0  0.00000000000E+00  0.00000000000E+00  0.10784961158E+04  0.26704125211E+04  0.24429386323E+04 0.  0.
        2    1    3    3  502    0  0.11156642955E+04 -0.45046576133E+03  0.30901547017E+03  0.12422225176E+04  0.25500000920E-02 0. -1.
       -2    1    3    3    0  502 -0.11156642955E+04  0.45046576133E+03  0.76948064558E+03  0.14281900036E+04  0.25500000920E-02 0.  1.
</event>
<event>
 5   0  0.9491680E-05  0.1944293E+04  0.7818609E-02  0.8633118E-01
        2   -1    0    0  501    0  0.00000000000E+00  0.00000000000E+00  0.12809684938E+04  0.12809684938E+04  0.25500000920E-02 0.  1.
       -2   -1    0    0    0  501  0.00000000000E+00  0.00000000000E+00 -0.73777643393E+03  0.73777643394E+03  0.25500000920E-02 0. -1.
    10030    2    1    2    0    0  0.00000000000E+00  0.00000000000E+00  0.54319205989E+03  0.20187449278E+04  0.19442925370E+04 0.  0.
        5    1    3    3  502    0 -0.45100518435E+03 -0.66960289393E+03 -0.29068775357E+03  0.85807643712E+03  0.46999998093E+01 0. -1.
       -5    1    3    3    0  502  0.45100518435E+03  0.66960289393E+03  0.83387981347E+03  0.11606684906E+04  0.46999998093E+01 0.  1.
</event>
<event>
 5   0  0.4018942E-05  0.2346510E+04  0.7818609E-02  0.8459805E-01
        1   -1    0    0  501    0  0.00000000000E+00  0.00000000000E+00  0.11271936944E+04  0.11271936944E+04  0.50400001928E-02 0.  1.
       -1   -1    0    0    0  501  0.00000000000E+00  0.00000000000E+00 -0.12211990547E+04  0.12211990547E+04  0.50400001928E-02 0. -1.
    10030    2    1    2    0    0  0.00000000000E+00  0.00000000000E+00 -0.94005360267E+02  0.23483927491E+04  0.23465104935E+04 0.  0.
        5    1    3    3  502    0  0.44546967963E+03 -0.66296144876E+03  0.81307289201E+03  0.11397678429E+04  0.46999998093E+01 0.  1.
       -5    1    3    3    0  502 -0.44546967963E+03  0.66296144876E+03 -0.90707825227E+03  0.12086249061E+04  0.46999998093E+01 0. -1.
</event>
<event>
 5   0  0.4260395E-05  0.2370829E+04  0.7818609E-02  0.8450506E-01
       -1   -1    0    0    0  501  0.00000000000E+00  0.00000000000E+00  0.47674985943E+03  0.47674985945E+03  0.50400001928E-02 0. -1.
        1   -1    0    0  501    0  0.00000000000E+00  0.00000000000E+00 -0.29474730815E+04  0.29474730815E+04  0.50400001928E-02 0.  1.
    10030    2    1    2    0    0  0.00000000000E+00  0.00000000000E+00 -0.24707232221E+04  0.34242229410E+04  0.23708288655E+04 0.  0.
        4    1    3    3  502    0 -0.19974593052E+02  0.28071060748E+03 -0.28985251414E+04  0.29121550504E+04  0.12699999809E+01 0.  1.
       -4    1    3    3    0  502  0.19974593052E+02 -0.28071060748E+03  0.42780191928E+03  0.51206789057E+03  0.12699999809E+01 0. -1.
</event>
<event>
 5   0  0.9182865E-05  0.2501545E+04  0.7818609E-02  0.8402435E-01
        2   -1    0    0  501    0  0.00000000000E+00  0.00000000000E+00  0.14298788338E+04  0.14298788338E+04  0.25500000920E-02 0. -1.
       -2   -1    0    0    0  501  0.00000000000E+00  0.00000000000E+00 -0.10941013698E+04  0.10941013698E+04  0.25500000920E-02 0.  1.
    10030    2    1    2    0    0  0.00000000000E+00  0.00000000000E+00  0.33577746407E+03  0.25239802036E+04  0.25015454349E+04 0.  0.
        3    1    3    3  502    0  0.50359566312E+03 -0.11393646580E+04  0.54309344007E+02  0.12468800788E+04  0.10100000352E+00 0.  1.
       -3    1    3    3    0  502 -0.50359566312E+03  0.11393646580E+04  0.28146812006E+03  0.12771001248E+04  0.10100000352E+00 0. -1.
</event>
<event>
 5   0  0.3934906E-05  0.2475920E+04  0.7818609E-02  0.8411615E-01
        1   -1    0    0  501    0  0.00000000000E+00  0.00000000000E+00  0.19852076209E+04  0.19852076210E+04  0.50400001928E-02 0. -1.
       -1   -1    0    0    0  501  0.00000000000E+00  0.00000000000E+00 -0.77198200762E+03  0.77198200763E+03  0.50400001928E-02 0.  1.
    10030    2    1    2    0    0  0.00000000000E+00  0.00000000000E+00  0.12132256133E+04  0.27571896286E+04  0.24759196795E+04 0.  0.
        2    1    3    3  502    0  0.98047916812E+01  0.15460797049E+03  0.19743705792E+04  0.19804390782E+04  0.25500000920E-02 0. -1.
       -2    1    3    3    0  502 -0.98047916812E+01 -0.15460797049E+03 -0.76114496586E+03  0.77675055039E+03  0.25500000920E-02 0.  1.
</event>
<event>
 5   0  0.9519092E-05  0.2592388E+04  0.7818609E-02  0.8370792E-01
       -2   -1    0    0    0  501  0.00000000000E+00  0.00000000000E+00  0.17835378001E+04  0.17835378001E+04  0.25500000920E-02 0.  1.
        2   -1    0    0  501    0  0.00000000000E+00  0.00000000000E+00 -0.94201453444E+03  0.94201453445E+03  0.25500000920E-02 0. -1.
    10030    2    1    2    0    0  0.00000000000E+00  0.00000000000E+00  0.84152326568E+03  0.27255523346E+04  0.25923877260E+04 0.  0.
        4    1    3    3  502    0 -0.87680199189E+03  0.79534174551E+03  0.97586646782E+03  0.15341666145E+04  0.12699999809E+01 0.  1.
       -4    1    3    3    0  502  0.87680199189E+03 -0.79534174551E+03 -0.13434320214E+03  0.11913857201E+04  0.12699999809E+01 0. -1.
</event>
<event>
 5   0  0.4260395E-05  0.1361571E+04  0.7818609E-02  0.8982115E-01
       -1   -1    0    0    0  501  0.00000000000E+00  0.00000000000E+00  0.11789999901E+04  0.11789999901E+04  0.50400001928E-02 0.  1.
        1   -1    0    0  501    0  0.00000000000E+00  0.00000000000E+00 -0.39310346146E+03  0.39310346150E+03  0.50400001928E-02 0. -1.
    10030    2    1    2    0    0  0.00000000000E+00  0.00000000000E+00  0.78589652860E+03  0.15721034516E+04  0.13615711178E+04 0.  0.
        4    1    3    3  502    0 -0.62178687980E+03 -0.27567395895E+03  0.42665675197E+03  0.80290264194E+03  0.12699999809E+01 0. -1.
       -4    1    3    3    0  502  0.62178687980E+03  0.27567395895E+03  0.35923977663E+03  0.76920080963E+03  0.12699999809E+01 0.  1.
</event>
<event>
 5   0  0.4208577E-05  0.2460829E+04  0.7818609E-02  0.8417075E-01
        1   -1    0    0  501    0  0.00000000000E+00  0.00000000000E+00  0.11310332826E+04  0.11310332826E+04  0.50400001928E-02 0. -1.
       -1   -1    0    0    0  501  0.00000000000E+00  0.00000000000E+00 -0.13385280924E+04  0.13385280924E+04  0.50400001928E-02 0.  1.
    10030    2    1    2    0    0  0.00000000000E+00  0.00000000000E+00 -0.20749480981E+03  0.24695613750E+04  0.24608289840E+04 0.  0.
        1    1    3    3  502    0 -0.10100707627E+04 -0.35891501000E+03 -0.70992470324E+03  0.12857122596E+04  0.50400001928E-02 0.  1.
       -1    1    3    3    0  502  0.10100707627E+04  0.35891501000E+03  0.50242989343E+03  0.11838491154E+04  0.50400001928E-02 0. -1.
</event>
<event>
 5   0  0.4018942E-05  0.2166688E+04  0.7818609E-02  0.8532423E-01
        1   -1    0    0  501    0  0.00000000000E+00  0.00000000000E+00  0.77288227461E+03  0.77288227462E+03  0.50400001928E-02 0. -1.
       -1   -1    0    0    0  501  0.00000000000E+00  0.00000000000E+00 -0.15185163035E+04  0.15185163035E+04  0.50400001928E-02 0.  1.
    10030    2    1    2    0    0  0.00000000000E+00  0.00000000000E+00 -0.74563402890E+03  0.22913985781E+04  0.21666881037E+04 0.  0.
        5    1    3    3  502    0 -0.96699988315E+03  0.30112278556E+03  0.33825478035E+02  0.10133755271E+04  0.46999998093E+01 0. -1.
       -5    1    3    3    0  502  0.96699988315E+03 -0.30112278556E+03 -0.77945950694E+03  0.12780230510E+04  0.46999998093E+01 0.  1.
</event>
<event>
 5   0  0.4061631E-05  0.2378009E+04  0.7818609E-02  0.8447783E-01
       -1   -1    0    0    0  501  0.00000000000E+00  0.00000000000E+00  0.81529201804E+03  0.81529201806E+03  0.50400001928E-02 0.  1.
        1   -1    0    0  501    0  0.00000000000E+00  0.00000000000E+00 -0.17340193885E+04  0.17340193885E+04  0.50400001928E-02 0. -1.
    10030    2    1    2    0    0  0.00000000000E+00  0.00000000000E+00 -0.91872737044E+03  0.25493114066E+04  0.23780093916E+04 0.  0.
        3    1    3    3  502    0 -0.54672272715E+03 -0.52055510785E+03  0.52542180517E+03  0.91975618739E+03  0.10100000352E+00 0.  1.
       -3    1    3    3    0  502  0.54672272715E+03  0.52055510785E+03 -0.14441491756E+04  0.16295552192E+04  0.10100000352E+00 0. -1.
</event>
<event>
 5   0  0.9750757E-05  0.2385431E+04  0.7818609E-02  0.8444978E-01
       -2   -1    0    0    0  501  0.00000000000E+00  0.00000000000E+00  0.13973152676E+04  0.13973152676E+04  0.25500000920E-02 0. -1.
        2   -1    0    0  501    0  0.00000000000E+00  0.00000000000E+00 -0.10180737675E+04  0.10180737675E+04  0.25500000920E-02 0.  1.
    10030    2    1    2    0    0  0.00000000000E+00  0.00000000000E+00  0.37924150012E+03  0.24153890351E+04  0.23854307945E+04 0.  0.
        2    1    3    3  502    0 -0.36539750564E+03 -0.25038686934E+03 -0.93169894872E+03  0.10316355231E+04  0.25500000920E-02 0.  1.
       -2    1    3    3    0  502  0.36539750564E+03  0.25038686934E+03  0.13109404488E+04  0.13837535120E+04  0.25500000920E-02 0. -1.
</event>
<event>
 5   0  0.4260395E-05  0.2067113E+04  0.7818609E-02  0.8575870E-01
       -1   -1    0    0    0  501  0.00000000000E+00  0.00000000000E+00  0.74303515828E+03  0.74303515830E+03  0.50400001928E-02 0. -1.
        1   -1    0    0  501    0  0.00000000000E+00  0.00000000000E+00 -0.14376699344E+04  0.14376699344E+04  0.50400001928E-02 0.  1.
    10030    2    1    2    0    0  0.00000000000E+00  0.00000000000E+00 -0.69463477610E+03  0.21807050927E+04  0.20671132599E+04 0.  0.
        4    1    3    3  502    0  0.48000115078E+03 -0.78613259761E+03  0.14731009964E+03  0.93279549963E+03  0.12699999809E+01 0. -1.
       -4    1    3    3    0  502 -0.48000115078E+03  0.78613259761E+03 -0.84194487573E+03  0.12479095931E+04  0.12699999809E+01 0.  1.
</event>
<event>
 5   0  0.9491680E-05  0.2058846E+04  0.7818609E-02  0.8579592E-01
        2   -1    0    0  501    0  0.00000000000E+00  0.00000000000E+00  0.11082921985E+04  0.11082921985E+04  0.25500000920E-02 0. -1.
       -2   -1    0    0    0  501  0.00000000000E+00  0.00000000000E+00 -0.95616616284E+03  0.95616616285E+03  0.25500000920E-02 0.  1.
    10030    2    1    2    0    0  0.00000000000E+00  0.00000000000E+00  0.15212603564E+03  0.20644583613E+04  0.20588457919E+04 0.  0.
        5    1    3    3  502    0 -0.97801592898E+02 -0.71559941656E+03  0.81157591069E+03  0.10864277359E+04  0.46999998093E+01 0. -1.
       -5    1    3    3    0  502  0.97801592898E+02  0.71559941656E+03 -0.65944987505E+03  0.97803062542E+03  0.46999998093E+01 0.  1.
</event>
<event>
 5   0  0.9519092E-05  0.2406907E+04  0.7818609E-02  0.8436922E-01
       -2   -1    0    0    0  501  0.00000000000E+00  0.00000000000E+00  0.11762865132E+04  0.11762865132E+04  0.25500000920E-02 0.  1.
        2   -1    0    0  501    0  0.00000000000E+00  0.00000000000E+00 -0.12312482126E+04  0.12312482126E+04  0.25500000920E-02 0. -1.
    10030    2    1    2    0    0  0.00000000000E+00  0.00000000000E+00 -0.54961699403E+02  0.24075347258E+04  0.24069072827E+04 0.  0.
        4    1    3    3  502    0 -0.58680459688E+03  0.44725167203E+03 -0.97847858931E+03  0.12254777255E+04  0.12699999809E+01 0. -1.
       -4    1    3    3    0  502  0.58680459688E+03 -0.44725167203E+03  0.92351688990E+03  0.11820570003E+04  0.12699999809E+01 0.  1.
</event>
<event>
 5   0  0.4208577E-05  0.2404366E+04  0.7818609E-02  0.8437871E-01
        1   -1    0    0  501    0  0.00000000000E+00  0.00000000000E+00  0.14846200912E+04  0.14846200912E+04  0.50400001928E-02 0. -1.
       -1   -1    0    0    0  501  0.00000000000E+00  0.00000000000E+00 -0.97347741759E+03  0.97347741761E+03  0.50400001928E-02 0.  1.
    10030    2    1    2    0    0  0.00000000000E+00  0.00000000000E+00  0.51114267362E+03  0.24580975088E+04  0.24043661389E+04 0.  0.
        1    1    3    3  502    0 -0.82444044389E+03  0.83256033709E+03 -0.19486427772E+02  0.11718525851E+04  0.50400001928E-02 0.  1.
       -1    1    3    3    0  502  0.82444044389E+03 -0.83256033709E+03  0.53062910139E+03  0.12862449237E+04  0.50400001928E-02 0. -1.
</event>
<event>
 5   0  0.9491680E-05  0.2398633E+04  0.7818609E-02  0.8440015E-01
        2   -1    0    0  501    0  0.00000000000E+00  0.00000000000E+00  0.17172372879E+04  0.17172372879E+04  0.25500000920E-02 0.  1.
       -2   -1    0    0    0  501  0.00000000000E+00  0.00000000000E+00 -0.83760151776E+03  0.83760151777E+03  0.25500000920E-02 0. -1.
    10030    2    1    2    0    0  0.00000000000E+00  0.00000000000E+00  0.87963577009E+03  0.25548388056E+04  0.23986334098E+04 0.  0.
        5    1    3    3  502    0 -0.28564553224E+03 -0.27126742106E+03 -0.76671698258E+03  0.86200719556E+03  0.46999998093E+01 0. -1.
       -5    1    3    3    0  502  0.28564553224E+03  0.27126742106E+03  0.16463527527E+04  0.16928316101E+04  0.46999998093E+01 0.  1.
</event>
<event>
 5   0  0.9144244E-05  0.1581098E+04  0.7818609E-02  0.8832245E-01
        2   -1    0    0  501    0  0.00000000000E+00  0.00000000000E+00  0.76511682805E+03  0.76511682806E+03  0.25500000920E-02 0.  1.
       -2   -1    0    0    0  501  0.00000000000E+00  0.00000000000E+00 -0.81682654898E+03  0.81682654898E+03  0.25500000920E-02 0. -1.
    10030    2    1    2    0    0  0.00000000000E+00  0.00000000000E+00 -0.51709720925E+02  0.15819433770E+04  0.15810980213E+04 0.  0.
        1    1    3    3  502    0 -0.59880129634E+03 -0.21761807586E+03 -0.49412979517E+03  0.80627840970E+03  0.50400001928E-02 0. -1.
       -1    1    3    3    0  502  0.59880129634E+03  0.21761807586E+03  0.44242007425E+03  0.77566496734E+03  0.50400001928E-02 0.  1.
</event>
<event>
 5   0  0.9182865E-05  0.2548542E+04  0.7818609E-02  0.8385893E-01
        2   -1    0    0  501    0  0.00000000000E+00  0.00000000000E+00  0.14975923017E+04  0.14975923017E+04  0.25500000920E-02 0.  1.
       -2   -1    0    0    0  501  0.00000000000E+00  0.00000000000E+00 -0.10842512782E+04  0.10842512782E+04  0.25500000920E-02 0. -1.
    10030    2    1    2    0    0  0.00000000000E+00  0.00000000000E+00  0.41334102344E+03  0.25818435799E+04  0.25485418320E+04 0.  0.
        3    1    3    3  502    0 -0.10335329171E+04 -0.26404449033E+03 -0.49947174660E+03  0.11778717330E+04  0.10100000352E+00 0. -1.
       -3    1    3    3    0  502  0.10335329171E+04  0.26404449033E+03  0.91281277004E+03  0.14039718469E+04  0.10100000352E+00 0.  1.
</event>
<event>
 5   0  0.4208577E-05  0.2397157E+04  0.7818609E-02  0.8440569E-01
       -1   -1    0    0    0  501  0.00000000000E+00  0.00000000000E+00  0.15706848438E+04  0.15706848438E+04  0.50400001928E-02 0. -1.
        1   -1    0    0  501    0  0.00000000000E+00  0.00000000000E+00 -0.91462689139E+03  0.91462689141E+03  0.50400001928E-02 0.  1.
    10030    2    1    2    0    0  0.00000000000E+00  0.00000000000E+00  0.65605795241E+03  0.24853117352E+04  0.23971571464E+04 0.  0.
        1    1    3    3  502    0 -0.59269766849E+03  0.82734747189E+03  0.98439513199E+03  0.14159195392E+04  0.50400001928E-02 0. -1.
       -1    1    3    3    0  502  0.59269766849E+03 -0.82734747189E+03 -0.32833717958E+03  0.10693921961E+04  0.50400001928E-02 0.  1.
</event>
<event>
 5   0  0.3934906E-05  0.2383788E+04  0.7818609E-02  0.8445598E-01
       -1   -1    0    0    0  501  0.00000000000E+00  0.00000000000E+00  0.17071636203E+04  0.17071636203E+04  0.50400001928E-02 0.  1.
        1   -1    0    0  501    0  0.00000000000E+00  0.00000000000E+00 -0.83214702941E+03  0.83214702942E+03  0.50400001928E-02 0. -1.
    10030    2    1    2    0    0  0.00000000000E+00  0.00000000000E+00  0.87501659091E+03  0.25393106497E+04  0.23837878558E+04 0.  0.
        2    1    3    3  502    0 -0.55202293573E+03  0.89771796351E+01 -0.68772259954E+03  0.88191398971E+03  0.25500000920E-02 0. -1.
       -2    1    3    3    0  502  0.55202293573E+03 -0.89771796351E+01  0.15627391904E+04  0.16573966600E+04  0.25500000920E-02 0.  1.
</event>
<event>
 5   0  0.9144244E-05  0.2390493E+04  0.7818609E-02  0.8443071E-01
        2   -1    0    0  501    0  0.00000000000E+00  0.00000000000E+00  0.11269898300E+04  0.11269898300E+04  0.25500000920E-02 0.  1.
       -2   -1    0    0    0  501  0.00000000000E+00  0.00000000000E+00 -0.12676376574E+04  0.12676376574E+04  0.25500000920E-02 0. -1.
    10030    2    1    2    0    0  0.00000000000E+00  0.00000000000E+00 -0.14064782742E+03  0.23946274875E+04  0.23904934621E+04 0.  0.
        1    1    3    3  502    0 -0.54078448593E+03 -0.53977309403E+03 -0.99104992631E+03  0.12513923484E+04  0.50400001928E-02 0. -1.
       -1    1    3    3    0  502  0.54078448593E+03  0.53977309403E+03  0.85040209889E+03  0.11432351390E+04  0.50400001928E-02 0.  1.
</event>
<event>
 5   0  0.9182865E-05  0.2373377E+04  0.7818609E-02  0.8449539E-01
       -2   -1    0    0    0  501  0.00000000000E+00  0.00000000000E+00  0.10107814276E+04  0.10107814277E+04  0.25500000920E-02 0. -1.
        2   -1    0    0  501    0  0.00000000000E+00  0.00000000000E+00 -0.13932089776E+04  0.13932089776E+04  0.25500000920E-02 0.  1.
    10030    2    1    2    0    0  0.00000000000E+00  0.00000000000E+00 -0.38242754990E+03  0.24039904052E+04  0.23733771376E+04 0.  0.
        3    1    3    3  502    0  0.11745224106E+04 -0.12791073589E+03 -0.78578266742E+02  0.11840771105E+04  0.10100000352E+00 0. -1.
       -3    1    3    3    0  502 -0.11745224106E+04  0.12791073589E+03 -0.30384928316E+03  0.12199132947E+04  0.10100000352E+00 0.  1.
</event>
<event>
 5   0  0.4018942E-05  0.2395708E+04  0.7818609E-02  0.8441112E-01
        1   -1    0    0  501    0  0.00000000000E+00  0.00000000000E+00  0.13029813312E+04  0.13029813312E+04  0.50400001928E-02 0.  1.
       -1   -1    0    0    0  501  0.00000000000E+00  0.00000000000E+00 -0.11012089071E+04  0.11012089071E+04  0.50400001928E-02 0. -1.
    10030    2    1    2    0    0  0.00000000000E+00  0.00000000000E+00  0.20177242410E+03  0.24041902383E+04  0.23957083693E+04 0.  0.
        5    1    3    3  502    0  0.33897378100E+03 -0.23371719380E+03  0.12297267464E+04  0.12968334171E+04  0.46999998093E+01 0.  1.
       -5    1    3    3    0  502 -0.33897378100E+03  0.23371719380E+03 -0.10279543223E+04  0.11073568212E+04  0.46999998093E+01 0. -1.
</event>
<event>
 5   0  0.9182865E-05  0.2300385E+04  0.7818609E-02  0.8477769E-01
        2   -1    0    0  501    0  0.00000000000E+00  0.00000000000E+00  0.13825809330E+04  0.13825809330E+04  0.25500000920E-02 0. -1.
       -2   -1    0    0    0  501  0.00000000000E+00  0.00000000000E+00 -0.95686469525E+03  0.95686469525E+03  0.25500000920E-02 0.  1.
    10030    2    1    2    0    0  0.00000000000E+00  0.00000000000E+00  0.42571623775E+03  0.23394456282E+04  0.23003850835E+04 0.  0.
        3    1    3    3  502    0  0.10433243101E+03  0.48616835821E+03 -0.84191142837E+03  0.97778310075E+03  0.10100000352E+00 0.  1.
       -3    1    3    3    0  502 -0.10433243101E+03 -0.48616835821E+03  0.12676276661E+04  0.13616625275E+04  0.10100000352E+00 0. -1.
</event>
<event>
 5   0  0.4260395E-05  0.1699121E+04  0.7818609E-02  0.8761866E-01
        1   -1    0    0  501    0  0.00000000000E+00  0.00000000000E+00  0.48425813608E+03  0.48425813611E+03  0.50400001928E-02 0.  1.
       -1   -1    0    0    0  501  0.00000000000E+00  0.00000000000E+00 -0.14904296702E+04  0.14904296702E+04  0.50400001928E-02 0. -1.
    10030    2    1    2    0    0  0.00000000000E+00  0.00000000000E+00 -0.10061715341E+04  0.19746878063E+04  0.16991205891E+04 0.  0.
        4    1    3    3  502    0  0.68350026308E+03 -0.32317052280E+03 -0.95340595121E+03  0.12167975662E+04  0.12699999809E+01 0. -1.
       -4    1    3    3    0  502 -0.68350026308E+03  0.32317052280E+03 -0.52765582927E+02  0.75789024013E+03  0.12699999809E+01 0.  1.
</event>
<event>
 5   0  0.4260395E-05  0.2355342E+04  0.7818609E-02  0.8456415E-01
       -1   -1    0    0    0  501  0.00000000000E+00  0.00000000000E+00  0.94651634381E+03  0.94651634383E+03  0.50400001928E-02 0. -1.
        1   -1    0    0  501    0  0.00000000000E+00  0.00000000000E+00 -0.14652774091E+04  0.14652774091E+04  0.50400001928E-02 0.  1.
    10030    2    1    2    0    0  0.00000000000E+00  0.00000000000E+00 -0.51876106525E+03  0.24117937529E+04  0.23553420269E+04 0.  0.
        4    1    3    3  502    0 -0.48274014386E+03  0.50945581959E+03 -0.12277334327E+04  0.14141832531E+04  0.12699999809E+01 0.  1.
       -4    1    3    3    0  502  0.48274014386E+03 -0.50945581959E+03  0.70897236747E+03  0.99761049981E+03  0.12699999809E+01 0. -1.
</event>
<event>
 5   0  0.9182865E-05  0.2398112E+04  0.7818609E-02  0.8440211E-01
        2   -1    0    0  501    0  0.00000000000E+00  0.00000000000E+00  0.11466381893E+04  0.11466381893E+04  0.25500000920E-02 0. -1.
       -2   -1    0    0    0  501  0.00000000000E+00  0.00000000000E+00 -0.12538705397E+04  0.12538705397E+04  0.25500000920E-02 0.  1.
    10030    2    1    2    0    0  0.00000000000E+00  0.00000000000E+00 -0.10723235040E+03  0.24005087290E+04  0.23981124621E+04 0.  0.
        3    1    3    3  502    0  0.53764196567E+03  0.30420898558E+03 -0.10823267960E+04  0.12462075645E+04  0.10100000352E+00 0.  1.
       -3    1    3    3    0  502 -0.53764196567E+03 -0.30420898558E+03  0.97509444564E+03  0.11543011645E+04  0.10100000352E+00 0. -1.
</event>
<event>
 5   0  0.4018942E-05  0.2360207E+04  0.7818609E-02  0.8454554E-01
       -1   -1    0    0    0  501  0.00000000000E+00  0.00000000000E+00  0.12462197063E+04  0.12462197063E+04  0.50400001928E-02 0.  1.
        1   -1    0    0  501    0  0.00000000000E+00  0.00000000000E+00 -0.11174945266E+04  0.11174945266E+04  0.50400001928E-02 0. -1.
    10030    2    1    2    0    0  0.00000000000E+00  0.00000000000E+00  0.12872517970E+03  0.23637142328E+04  0.23602065169E+04 0.  0.
        5    1    3    3  502    0  0.90704316952E+03  0.15261766078E+03 -0.67606165730E+03  0.11415344569E+04  0.46999998093E+01 0. -1.
       -5    1    3    3    0  502 -0.90704316952E+03 -0.15261766078E+03  0.80478683700E+03  0.12221797760E+04  0.46999998093E+01 0.  1.
</event>
<event>
 5   0  0.4208577E-05  0.2406641E+04  0.7818609E-02  0.8437022E-01
        1   -1    0    0  501    0  0.00000000000E+00  0.00000000000E+00  0.10933227323E+04  0.10933227323E+04  0.50400001928E-02 0.  1.
       -1   -1    0    0    0  501  0.00000000000E+00  0.00000000000E+00 -0.13243847506E+04  0.13243847507E+04  0.50400001928E-02 0. -1.
    10030    2    1    2    0    0  0.00000000000E+00  0.00000000000E+00 -0.23106201837E+03  0.24177074829E+04  0.24066407743E+04 0.  0.
        1    1    3    3  502    0  0.55122027992E+03  0.52222130279E+03 -0.10533229841E+04  0.12984791854E+04  0.50400001928E-02 0. -1.
       -1    1    3    3    0  502 -0.55122027992E+03 -0.52222130279E+03  0.82226096577E+03  0.11192282975E+04  0.50400001928E-02 0.  1.
</event>
<event>
 5   0  0.4260395E-05  0.1195059E+04  0.7818609E-02  0.9117192E-01
        1   -1    0    0  501    0  0.00000000000E+00  0.00000000000E+00  0.95687832111E+03  0.95687832112E+03  0.50400001928E-02 0.  1.
       -1   -1    0    0    0  501  0.00000000000E+00  0.00000000000E+00 -0.37313169706E+03  0.37313169710E+03  0.50400001928E-02 0. -1.
    10030    2    1    2    0    0  0.00000000000E+00  0.00000000000E+00  0.58374662405E+03  0.13300100182E+04  0.11950592151E+04 0.  0.
        4    1    3    3  502    0 -0.48943652133E+03  0.16776548036E+03  0.62453641495E+03  0.81101215238E+03  0.12699999809E+01 0. -1.
       -4    1    3    3    0  502  0.48943652133E+03 -0.16776548036E+03 -0.40789790898E+02  0.51899786585E+03  0.12699999809E+01 0.  1.
</event>
<event>
 5   0  0.9750757E-05  0.2374588E+04  0.7818609E-02  0.8449079E-01
       -2   -1    0    0    0  501  0.00000000000E+00  0.00000000000E+00  0.76042390665E+03  0.76042390665E+03  0.25500000920E-02 0.  1.
        2   -1    0    0  501    0  0.00000000000E+00  0.00000000000E+00 -0.18537912154E+04  0.18537912154E+04  0.25500000920E-02 0. -1.
    10030    2    1    2    0    0  0.00000000000E+00  0.00000000000E+00 -0.10933673087E+04  0.26142151220E+04  0.23745880974E+04 0.  0.
        2    1    3    3  502    0  0.32177701571E+03  0.88465025416E+03 -0.13432463053E+04  0.16402613074E+04  0.25500000920E-02 0. -1.
       -2    1    3    3    0  502 -0.32177701571E+03 -0.88465025416E+03  0.24987899655E+03  0.97395381459E+03  0.25500000920E-02 0.  1.
</event>
<event>
 5   0  0.9750757E-05  0.2497215E+04  0.7818609E-02  0.8403978E-01
       -2   -1    0    0    0  501  0.00000000000E+00  0.00000000000E+00  0.82402459168E+03  0.82402459168E+03  0.25500000920E-02 0. -1.
        2   -1    0    0  501    0  0.00000000000E+00  0.00000000000E+00 -0.18919594615E+04  0.18919594615E+04  0.25500000920E-02 0.  1.
    10030    2    1    2    0    0  0.00000000000E+00  0.00000000000E+00 -0.10679348699E+04  0.27159840532E+04  0.24972153474E+04 0.  0.
        2    1    3    3  502    0  0.61100652330E+03 -0.60355827138E+03  0.45174695811E+03  0.97040551969E+03  0.25500000920E-02 0. -1.
       -2    1    3    3    0  502 -0.61100652330E+03  0.60355827138E+03 -0.15196818280E+04  0.17455785335E+04  0.25500000920E-02 0.  1.
</event>
<event>
 5   0  0.9750757E-05  0.2367120E+04  0.7818609E-02  0.8451917E-01
       -2   -1    0    0    0  501  0.00000000000E+00  0.00000000000E+00  0.14943031693E+04  0.14943031693E+04  0.25500000920E-02 0.  1.
        2   -1    0    0  501    0  0.00000000000E+00  0.00000000000E+00 -0.93743621039E+03  0.93743621039E+03  0.25500000920E-02 0. -1.
    10030    2    1    2    0    0  0.00000000000E+00  0.00000000000E+00  0.55686695890E+03  0.24317393797E+04  0.23671196845E+04 0.  0.
        2    1    3    3  502    0 -0.10296390574E+04  0.58393562806E+01 -0.32112828896E+03  0.10785703800E+04  0.25500000920E-02 0. -1.
       -2    1    3    3    0  502  0.10296390574E+04 -0.58393562806E+01  0.87799524787E+03  0.13531689997E+04  0.25500000920E-02 0.  1.
</event>
<event>
 5   0  0.3934906E-05  0.2410700E+04  0.7818609E-02  0.8435508E-01
        1   -1    0    0  501    0  0.00000000000E+00  0.00000000000E+00  0.13841766439E+04  0.13841766439E+04  0.50400001928E-02 0. -1.
       -1   -1    0    0    0  501  0.00000000000E+00  0.00000000000E+00 -0.10496266900E+04  0.10496266900E+04  0.50400001928E-02 0.  1.
    10030    2    1    2    0    0  0.00000000000E+00  0.00000000000E+00  0.33454995386E+03  0.24338033339E+04  0.24107001051E+04 0.  0.
        2    1    3    3  502    0  0.64035843036E+02 -0.40721661524E+03  0.13108007039E+04  0.13740904069E+04  0.25500000920E-02 0. -1.
       -2    1    3    3    0  502 -0.64035843036E+02  0.40721661524E+03 -0.97625075001E+03  0.10597129271E+04  0.25500000920E-02 0.  1.
</event>
<event>
 5   0  0.4260395E-05  0.2105011E+04  0.7818609E-02  0.8559039E-01
       -1   -1    0    0    0  501  0.00000000000E+00  0.00000000000E+00  0.89238205234E+03  0.89238205235E+03  0.50400001928E-02 0.  1.
        1   -1    0    0  501    0  0.00000000000E+00  0.00000000000E+00 -0.12413605720E+04  0.12413605720E+04  0.50400001928E-02 0. -1.
    10030    2    1    2    0    0  0.00000000000E+00  0.00000000000E+00 -0.34897851967E+03  0.21337426244E+04  0.21050110641E+04 0.  0.
        4    1    3    3  502    0 -0.87855880282E+03 -0.57710543344E+03 -0.12037491276E+03  0.10580207861E+04  0.12699999809E+01 0.  1.
       -4    1    3    3    0  502  0.87855880282E+03  0.57710543344E+03 -0.22860360691E+03  0.10757218383E+04  0.12699999809E+01 0. -1.
</event>
<event>
 5   0  0.4061631E-05  0.2385415E+04  0.7818609E-02  0.8444984E-01
        1   -1    0    0  501    0  0.00000000000E+00  0.00000000000E+00  0.10136778523E+04  0.10136778523E+04  0.50400001928E-02 0.  1.
       -1   -1    0    0    0  501  0.00000000000E+00  0.00000000000E+00 -0.14033564887E+04  0.14033564887E+04  0.50400001928E-02 0. -1.
    10030    2    1    2    0    0  0.00000000000E+00  0.00000000000E+00 -0.38967863641E+03  0.24170343411E+04  0.23854151769E+04 0.  0.
        3    1    3    3  502    0 -0.35018966968E+03 -0.58964181372E+03 -0.11836025442E+04  0.13679273614E+04  0.10100000352E+00 0. -1.
       -3    1    3    3    0  502  0.35018966968E+03  0.58964181372E+03  0.79392390778E+03  0.10491069797E+04  0.10100000352E+00 0.  1.
</event>
<event>
 5   0  0.9491680E-05  0.2495984E+04  0.7818609E-02  0.8404418E-01
       -2   -1    0    0    0  501  0.00000000000E+00  0.00000000000E+00  0.99433842812E+03  0.99433842812E+03  0.25500000920E-02 0.  1.
        2   -1    0    0  501    0  0.00000000000E+00  0.00000000000E+00 -0.15663518232E+04  0.15663518232E+04  0.25500000920E-02 0. -1.
    10030    2    1    2    0    0  0.00000000000E+00  0.00000000000E+00 -0.57201339507E+03  0.25606902513E+04  0.24959838219E+04 0.  0.
        5    1    3    3  502    0 -0.12811380531E+03 -0.39760034113E+03  0.92047431261E+03  0.10108383790E+04  0.46999998093E+01 0.  1.
       -5    1    3    3    0  502  0.12811380531E+03  0.39760034113E+03 -0.14924877077E+04  0.15498518723E+04  0.46999998093E+01 0. -1.
</event>
<event>
 5   0  0.4260395E-05  0.2376667E+04  0.7818609E-02  0.8448291E-01
        1   -1    0    0  501    0  0.00000000000E+00  0.00000000000E+00  0.15213924533E+04  0.15213924533E+04  0.50400001928E-02 0. -1.
       -1   -1    0    0    0  501  0.00000000000E+00  0.00000000000E+00 -0.92818686924E+03  0.92818686926E+03  0.50400001928E-02 0.  1.
    10030    2    1    2    0    0  0.00000000000E+00  0.00000000000E+00  0.59320558402E+03  0.24495793225E+04  0.23766669923E+04 0.  0.
        4    1    3    3  502    0 -0.32408966653E+03 -0.11399289808E+04  0.38682508413E+03  0.12466384608E+04  0.12699999809E+01 0. -1.
       -4    1    3    3    0  502  0.32408966653E+03  0.11399289808E+04  0.20638049989E+03  0.12029408618E+04  0.12699999809E+01 0.  1.
</event>
<event>
 5   0  0.9491680E-05  0.2389443E+04  0.7818609E-02  0.8443467E-01
        2   -1    0    0  501    0  0.00000000000E+00  0.00000000000E+00  0.12111769800E+04  0.12111769800E+04  0.25500000920E-02 0. -1.
       -2   -1    0    0    0  501  0.00000000000E+00  0.00000000000E+00 -0.11784893941E+04  0.11784893941E+04  0.25500000920E-02 0.  1.
    10030    2    1    2    0    0  0.00000000000E+00  0.00000000000E+00  0.32687585982E+02  0.23896663741E+04  0.23894428014E+04 0.  0.
        5    1    3    3  502    0 -0.12255042879E+03  0.97495434900E+03  0.69595321334E+03  0.12041293765E+04  0.46999998093E+01 0. -1.
       -5    1    3    3    0  502  0.12255042879E+03 -0.97495434900E+03 -0.66326562736E+03  0.11855369976E+04  0.46999998093E+01 0.  1.
</event>
<event>
 5   0  0.4260395E-05  0.2400206E+04  0.7818609E-02  0.8439426E-01
       -1   -1    0    0    0  501  0.00000000000E+00  0.00000000000E+00  0.80293163515E+03  0.80293163517E+03  0.50400001928E-02 0.  1.
        1   -1    0    0  501    0  0.00000000000E+00  0.00000000000E+00 -0.17937364051E+04  0.17937364051E+04  0.50400001928E-02 0. -1.
    10030    2    1    2    0    0  0.00000000000E+00  0.00000000000E+00 -0.99080476999E+03  0.25966680403E+04  0.24002064118E+04 0.  0.
        4    1    3    3  502    0  0.10026179760E+04  0.52989474233E+03 -0.92024780085E+03  0.14604413277E+04  0.12699999809E+01 0.  1.
       -4    1    3    3    0  502 -0.10026179760E+04 -0.52989474233E+03 -0.70556969134E+02  0.11362267126E+04  0.12699999809E+01 0. -1.
</event>
<event>
 5   0  0.3234750E-05  0.2295896E+04  0.7818609E-02  0.8479541E-01
       -3   -1    0    0    0  501  0.00000000000E+00  0.00000000000E+00  0.14315673553E+04  0.14315673588E+04  0.10100000352E+00 0. -1.
        3   -1    0    0  501    0  0.00000000000E+00  0.00000000000E+00 -0.92051841441E+03  0.92051841995E+03  0.10100000352E+00 0.  1.
    10030    2    1    2    0    0  0.00000000000E+00  0.00000000000E+00  0.51104894087E+03  0.23520857788E+04  0.22958955749E+04 0.  0.
        2    1    3    3  502    0  0.43589053493E+03  0.10314494784E+04 -0.34376781789E+01  0.11197769432E+04  0.25500000920E-02 0.  1.
       -2    1    3    3    0  502 -0.43589053493E+03 -0.10314494784E+04  0.51448661905E+03  0.12323088356E+04  0.25500000920E-02 0. -1.
</event>
<event>
 5   0  0.4061631E-05  0.2373190E+04  0.7818609E-02  0.8449610E-01
        1   -1    0    0  501    0  0.00000000000E+00  0.00000000000E+00  0.94141562446E+03  0.94141562447E+03  0.50400001928E-02 0.  1.
       -1   -1    0    0    0  501  0.00000000000E+00  0.00000000000E+00 -0.14956281204E+04  0.14956281205E+04  0.50400001928E-02 0. -1.
    10030    2    1    2    0    0  0.00000000000E+00  0.00000000000E+00 -0.55421249599E+03  0.24370437449E+04  0.23731899890E+04 0.  0.
        3    1    3    3  502    0 -0.75013385896E+03  0.88836681229E+03 -0.52035794081E+03  0.12738401769E+04  0.10100000352E+00 0. -1.
       -3    1    3    3    0  502  0.75013385896E+03 -0.88836681229E+03 -0.33854555172E+02  0.11632035680E+04  0.10100000352E+00 0.  1.
</event>
<event>
 5   0  0.4061631E-05  0.2413707E+04  0.7818609E-02  0.8434390E-01
       -1   -1    0    0    0  501  0.00000000000E+00  0.00000000000E+00  0.10296874348E+04  0.10296874348E+04  0.50400001928E-02 0. -1.
        1   -1    0    0  501    0  0.00000000000E+00  0.00000000000E+00 -0.14145019100E+04  0.14145019100E+04  0.50400001928E-02 0.  1.
    10030    2    1    2    0    0  0.00000000000E+00  0.00000000000E+00 -0.38481447522E+03  0.24441893448E+04  0.24137065631E+04 0.  0.
        3    1    3    3  502    0 -0.11489330455E+04  0.60995148975E+01  0.18159504519E+03  0.11632115533E+04  0.10100000352E+00 0. -1.
       -3    1    3    3    0  502  0.11489330455E+04 -0.60995148975E+01 -0.56640952041E+03  0.12809777915E+04  0.10100000352E+00 0.  1.
</event>
<event>
 5   0  0.9519092E-05  0.2394980E+04  0.7818609E-02  0.8441385E-01
        2   -1    0    0  501    0  0.00000000000E+00  0.00000000000E+00  0.14080446676E+04  0.14080446676E+04  0.25500000920E-02 0.  1.
       -2   -1    0    0    0  501  0.00000000000E+00  0.00000000000E+00 -0.10184212852E+04  0.10184212852E+04  0.25500000920E-02 0. -1.
    10030    2    1    2    0    0  0.00000000000E+00  0.00000000000E+00  0.38962338241E+03  0.24264659528E+04  0.23949803005E+04 0.  0.
        4    1    3    3  502    0  0.75291638604E+03 -0.32526207408E+03  0.10788089073E+04  0.13551785021E+04  0.12699999809E+01 0.  1.
       -4    1    3    3    0  502 -0.75291638604E+03  0.32526207408E+03 -0.68918552493E+03  0.10712874506E+04  0.12699999809E+01 0. -1.
</event>
<event>
 5   0  0.9750757E-05  0.2401662E+04  0.7818609E-02  0.8438882E-01
       -2   -1    0    0    0  501  0.00000000000E+00  0.00000000000E+00  0.76218853266E+03  0.76218853267E+03  0.25500000920E-02 0. -1.
        2   -1    0    0  501    0  0.00000000000E+00  0.00000000000E+00 -0.18919139296E+04  0.18919139296E+04  0.25500000920E-02 0.  1.
    10030    2    1    2    0    0  0.00000000000E+00  0.00000000000E+00 -0.11297253969E+04  0.26541024623E+04  0.24016620095E+04 0.  0.
        2    1    3    3  502    0  0.98170487936E+03 -0.35366515984E+03 -0.12216105712E+04  0.16065976171E+04  0.25500000920E-02 0.  1.
       -2    1    3    3    0  502 -0.98170487936E+03  0.35366515984E+03  0.91885174287E+02  0.10475048452E+04  0.25500000920E-02 0. -1.
</event>
<event>
 5   0  0.4061631E-05  0.2412971E+04  0.7818609E-02  0.8434663E-01
       -1   -1    0    0    0  501  0.00000000000E+00  0.00000000000E+00  0.12200628090E+04  0.12200628090E+04  0.50400001928E-02 0.  1.
        1   -1    0    0  501    0  0.00000000000E+00  0.00000000000E+00 -0.11930592417E+04  0.11930592417E+04  0.50400001928E-02 0. -1.
    10030    2    1    2    0    0  0.00000000000E+00  0.00000000000E+00  0.27003567240E+02  0.24131220507E+04  0.24129709569E+04 0.  0.
        3    1    3    3  502    0  0.67556553808E+03 -0.46770533594E+03  0.89699930315E+03  0.12164476304E+04  0.10100000352E+00 0.  1.
       -3    1    3    3    0  502 -0.67556553808E+03  0.46770533594E+03 -0.86999573591E+03  0.11966744203E+04  0.10100000352E+00 0. -1.
</event>
<event>
 5   0  0.9182865E-05  0.2547495E+04  0.7818609E-02  0.8386258E-01
       -2   -1    0    0    0  501  0.00000000000E+00  0.00000000000E+00  0.11407933946E+04  0.11407933946E+04  0.25500000920E-02 0.  1.
        2   -1    0    0  501    0  0.00000000000E+00  0.00000000000E+00 -0.14221970705E+04  0.14221970705E+04  0.25500000920E-02 0. -1.
    10030    2    1    2    0    0  0.00000000000E+00  0.00000000000E+00 -0.28140367583E+03  0.25629904651E+04  0.25474952592E+04 0.  0.
        3    1    3    3  502    0  0.10416838956E+04 -0.27392261443E+03 -0.82475959251E+03  0.13566013905E+04  0.10100000352E+00 0. -1.
       -3    1    3    3    0  502 -0.10416838956E+04  0.27392261443E+03  0.54335591668E+03  0.12063890746E+04  0.10100000352E+00 0.  1.
</event>
<event>
 5   0  0.4208577E-05  0.2308429E+04  0.7818609E-02  0.8474605E-01
        1   -1    0    0  501    0  0.00000000000E+00  0.00000000000E+00  0.85462515931E+03  0.85462515933E+03  0.50400001928E-02 0.  1.
       -1   -1    0    0    0  501  0.00000000000E+00  0.00000000000E+00 -0.15588246769E+04  0.15588246769E+04  0.50400001928E-02 0. -1.
    10030    2    1    2    0    0  0.00000000000E+00  0.00000000000E+00 -0.70419951762E+03  0.24134498363E+04  0.23084287192E+04 0.  0.
        1    1    3    3  502    0 -0.42433554152E+03 -0.20137257120E+03  0.75019038729E+03  0.88509727230E+03  0.50400001928E-02 0.  1.
       -1    1    3    3    0  502  0.42433554152E+03  0.20137257120E+03 -0.14543899049E+04  0.15283525640E+04  0.50400001928E-02 0. -1.
</event>
<event>
 5   0  0.4260395E-05  0.1944561E+04  0.7818609E-02  0.8632988E-01
        1   -1    0    0  501    0  0.00000000000E+00  0.00000000000E+00  0.13253955979E+04  0.13253955979E+04  0.50400001928E-02 0.  1.
       -1   -1    0    0    0  501  0.00000000000E+00  0.00000000000E+00 -0.71324293390E+03  0.71324293392E+03  0.50400001928E-02 0. -1.
    10030    2    1    2    0    0  0.00000000000E+00  0.00000000000E+00  0.61215266402E+03  0.20386385318E+04  0.19445606649E+04 0.  0.
        4    1    3    3  502    0 -0.46775553027E+03  0.31386605588E+03 -0.52474104448E+03  0.76984538304E+03  0.12699999809E+01 0. -1.
       -4    1    3    3    0  502  0.46775553027E+03 -0.31386605588E+03  0.11368937085E+04  0.12687931488E+04  0.12699999809E+01 0.  1.
</event>
<event>
 5   0  0.4018942E-05  0.2354127E+04  0.7818609E-02  0.8456880E-01
        1   -1    0    0  501    0  0.00000000000E+00  0.00000000000E+00  0.81741962352E+03  0.81741962353E+03  0.50400001928E-02 0. -1.
       -1   -1    0    0    0  501  0.00000000000E+00  0.00000000000E+00 -0.16949421847E+04  0.16949421847E+04  0.50400001928E-02 0.  1.
    10030    2    1    2    0    0  0.00000000000E+00  0.00000000000E+00 -0.87752256120E+03  0.25123618083E+04  0.23541274414E+04 0.  0.
        5    1    3    3  502    0 -0.46963442292E+03 -0.11349645935E+03  0.70670426151E+03  0.85609049797E+03  0.46999998093E+01 0. -1.
       -5    1    3    3    0  502  0.46963442292E+03  0.11349645935E+03 -0.15842268227E+04  0.16562713103E+04  0.46999998093E+01 0.  1.
</event>
<event>
 5   0  0.9182865E-05  0.2387072E+04  0.7818609E-02  0.8444360E-01
       -2   -1    0    0    0  501  0.00000000000E+00  0.00000000000E+00  0.12655147372E+04  0.12655147372E+04  0.25500000920E-02 0. -1.
        2   -1    0    0  501    0  0.00000000000E+00  0.00000000000E+00 -0.11256512002E+04  0.11256512002E+04  0.25500000920E-02 0.  1.
    10030    2    1    2    0    0  0.00000000000E+00  0.00000000000E+00  0.13986353706E+03  0.23911659374E+04  0.23870719996E+04 0.  0.
        3    1    3    3  502    0 -0.79260399389E+03 -0.70701289278E+03  0.61532844866E+03  0.12274841879E+04  0.10100000352E+00 0. -1.
       -3    1    3    3    0  502  0.79260399389E+03  0.70701289278E+03 -0.47546491160E+03  0.11636817495E+04  0.10100000352E+00 0.  1.
</event>
<event>
 5   0  0.4208577E-05  0.2408329E+04  0.7818609E-02  0.8436392E-01
        1   -1    0    0  501    0  0.00000000000E+00  0.00000000000E+00  0.12551273159E+04  0.12551273159E+04  0.50400001928E-02 0.  1.
       -1   -1    0    0    0  501  0.00000000000E+00  0.00000000000E+00 -0.11552705980E+04  0.11552705980E+04  0.50400001928E-02 0. -1.
    10030    2    1    2    0    0  0.00000000000E+00  0.00000000000E+00  0.99856717880E+02  0.24103979139E+04  0.24083286195E+04 0.  0.
        1    1    3    3  502    0 -0.10622392874E+03  0.34201976989E+03 -0.11007336136E+04  0.11575299280E+04  0.50400001928E-02 0. -1.
       -1    1    3    3    0  502  0.10622392874E+03 -0.34201976989E+03  0.12005903315E+04  0.12528679859E+04  0.50400001928E-02 0.  1.
</event>
<event>
 5   0  0.9144244E-05  0.2384521E+04  0.7818609E-02  0.8445321E-01
        2   -1    0    0  501    0  0.00000000000E+00  0.00000000000E+00  0.15585440746E+04  0.15585440746E+04  0.25500000920E-02 0.  1.
       -2   -1    0    0    0  501  0.00000000000E+00  0.00000000000E+00 -0.91205972036E+03  0.91205972036E+03  0.25500000920E-02 0. -1.
    10030    2    1    2    0    0  0.00000000000E+00  0.00000000000E+00  0.64648435425E+03  0.24706037950E+04  0.23845211451E+04 0.  0.
        1    1    3    3  502    0  0.83007496567E+03  0.77535864345E+03  0.69864788925E+03  0.13335345319E+04  0.50400001928E-02 0.  1.
       -1    1    3    3    0  502 -0.83007496567E+03 -0.77535864345E+03 -0.52163534993E+02  0.11370692631E+04  0.50400001928E-02 0. -1.
</event>
<event>
 5   0  0.4260395E-05  0.2394644E+04  0.7818609E-02  0.8441511E-01
       -1   -1    0    0    0  501  0.00000000000E+00  0.00000000000E+00  0.17446134894E+04  0.17446134894E+04  0.50400001928E-02 0.  1.
        1   -1    0    0  501    0  0.00000000000E+00  0.00000000000E+00 -0.82171797197E+03  0.82171797198E+03  0.50400001928E-02 0. -1.
    10030    2    1    2    0    0  0.00000000000E+00  0.00000000000E+00  0.92289551740E+03  0.25663314614E+04  0.23946442394E+04 0.  0.
        4    1    3    3  502    0  0.18956386603E+03 -0.70349428264E+03 -0.55679911421E+03  0.91698720356E+03  0.12699999809E+01 0. -1.
       -4    1    3    3    0  502 -0.18956386603E+03  0.70349428264E+03  0.14796946316E+04  0.16493442578E+04  0.12699999809E+01 0.  1.
</event>
<event>
 5   0  0.4018942E-05  0.1730269E+04  0.7818609E-02  0.8744287E-01
       -1   -1    0    0    0  501  0.00000000000E+00  0.00000000000E+00  0.11650003623E+04  0.11650003624E+04  0.50400001928E-02 0.  1.
        1   -1    0    0  501    0  0.00000000000E+00  0.00000000000E+00 -0.64245260202E+03  0.64245260204E+03  0.50400001928E-02 0. -1.
    10030    2    1    2    0    0  0.00000000000E+00  0.00000000000E+00  0.52254776032E+03  0.18074529644E+04  0.17302687816E+04 0.  0.
        5    1    3    3  502    0  0.24905315855E+02 -0.82529957327E+03 -0.85016517274E+01  0.82573241942E+03  0.46999998093E+01 0.  1.
       -5    1    3    3    0  502 -0.24905315855E+02  0.82529957327E+03  0.53104941205E+03  0.98172054498E+03  0.46999998093E+01 0. -1.
</event>
<event>
 5   0  0.3934906E-05  0.2393575E+04  0.7818609E-02  0.8441913E-01
        1   -1    0    0  501    0  0.00000000000E+00  0.00000000000E+00  0.13524167782E+04  0.13524167782E+04  0.50400001928E-02 0.  1.
       -1   -1    0    0    0  501  0.00000000000E+00  0.00000000000E+00 -0.10590668190E+04  0.10590668190E+04  0.50400001928E-02 0. -1.
    10030    2    1    2    0    0  0.00000000000E+00  0.00000000000E+00  0.29334995918E+03  0.24114835971E+04  0.23935745112E+04 0.  0.
        2    1    3    3  502    0  0.88036861934E+03  0.78810774355E+03 -0.44844737552E+02  0.11824439825E+04  0.25500000920E-02 0. -1.
       -2    1    3    3    0  502 -0.88036861934E+03 -0.78810774355E+03  0.33819469674E+03  0.12290396146E+04  0.25500000920E-02 0.  1.
</event>
<event>
 5   0  0.4260395E-05  0.2420763E+04  0.7818609E-02  0.8431771E-01
       -1   -1    0    0    0  501  0.00000000000E+00  0.00000000000E+00  0.81830992623E+03  0.81830992624E+03  0.50400001928E-02 0.  1.
        1   -1    0    0  501    0  0.00000000000E+00  0.00000000000E+00 -0.17903045151E+04  0.17903045151E+04  0.50400001928E-02 0. -1.
    10030    2    1    2    0    0  0.00000000000E+00  0.00000000000E+00 -0.97199458886E+03  0.26086144413E+04  0.24207634793E+04 0.  0.
        4    1    3    3  502    0  0.25541639026E+03  0.81547462246E+03 -0.14097122120E+04  0.16484921977E+04  0.12699999809E+01 0. -1.
       -4    1    3    3    0  502 -0.25541639026E+03 -0.81547462246E+03  0.43771762312E+03  0.96012224366E+03  0.12699999809E+01 0.  1.
</event>
<event>
 5   0  0.4018942E-05  0.2422773E+04  0.7818609E-02  0.8431027E-01
       -1   -1    0    0    0  501  0.00000000000E+00  0.00000000000E+00  0.87239973810E+03  0.87239973811E+03  0.50400001928E-02 0.  1.
        1   -1    0    0  501    0  0.00000000000E+00  0.00000000000E+00 -0.16820923833E+04  0.16820923834E+04  0.50400001928E-02 0. -1.
    10030    2    1    2    0    0  0.00000000000E+00  0.00000000000E+00 -0.80969264525E+03  0.25544921215E+04  0.24227727543E+04 0.  0.
        5    1    3    3  502    0  0.27708386564E+03 -0.11068073591E+04 -0.83395805502E+03  0.14132608133E+04  0.46999998093E+01 0.  1.
       -5    1    3    3    0  502 -0.27708386564E+03  0.11068073591E+04  0.24265409770E+02  0.11412313082E+04  0.46999998093E+01 0. -1.
</event>
<event>
 5   0  0.9750757E-05  0.2473676E+04  0.7818609E-02  0.8412424E-01
        2   -1    0    0  501    0  0.00000000000E+00  0.00000000000E+00  0.11779844757E+04  0.11779844757E+04  0.25500000920E-02 0.  1.
       -2   -1    0    0    0  501  0.00000000000E+00  0.00000000000E+00 -0.12986315490E+04  0.12986315490E+04  0.25500000920E-02 0. -1.
    10030    2    1    2    0    0  0.00000000000E+00  0.00000000000E+00 -0.12064707337E+03  0.24766160247E+04  0.24736756492E+04 0.  0.
        2    1    3    3  502    0 -0.62190671338E+03 -0.55231281559E+03  0.85616087077E+03  0.11936619467E+04  0.25500000920E-02 0.  1.
       -2    1    3    3    0  502  0.62190671338E+03  0.55231281559E+03 -0.97680794414E+03  0.12829540780E+04  0.25500000920E-02 0. -1.
</event>
<event>
 5   0  0.4208577E-05  0.2402689E+04  0.7818609E-02  0.8438497E-01
       -1   -1    0    0    0  501  0.00000000000E+00  0.00000000000E+00  0.14577491298E+04  0.14577491299E+04  0.50400001928E-02 0.  1.
        1   -1    0    0  501    0  0.00000000000E+00  0.00000000000E+00 -0.99003936370E+03  0.99003936372E+03  0.50400001928E-02 0. -1.
    10030    2    1    2    0    0  0.00000000000E+00  0.00000000000E+00  0.46770976614E+03  0.24477884936E+04  0.24026893440E+04 0.  0.
        1    1    3    3  502    0  0.73076091508E+03  0.86178296794E+03 -0.18190777931E+03  0.11444526373E+04  0.50400001928E-02 0. -1.
       -1    1    3    3    0  502 -0.73076091508E+03 -0.86178296794E+03  0.64961754546E+03  0.13033358563E+04  0.50400001928E-02 0.  1.
</event>
<event>
 5   0  0.4208577E-05  0.2305573E+04  0.7818609E-02  0.8475727E-01
       -1   -1    0    0    0  501  0.00000000000E+00  0.00000000000E+00  0.79262250844E+03  0.79262250845E+03  0.50400001928E-02 0.  1.
        1   -1    0    0  501    0  0.00000000000E+00  0.00000000000E+00 -0.16766075841E+04  0.16766075842E+04  0.50400001928E-02 0. -1.
    10030    2    1    2    0    0  0.00000000000E+00  0.00000000000E+00 -0.88398507571E+03  0.24692300926E+04  0.23055731687E+04 0.  0.
        1    1    3    3  502    0  0.13442196728E+03 -0.11062711579E+04 -0.12607651680E+03  0.11215170209E+04  0.50400001928E-02 0.  1.
       -1    1    3    3    0  502 -0.13442196728E+03  0.11062711579E+04 -0.75790855891E+03  0.13477130717E+04  0.50400001928E-02 0. -1.
</event>
<event>
 5   0  0.4208577E-05  0.2419112E+04  0.7818609E-02  0.8432383E-01
       -1   -1    0    0    0  501  0.00000000000E+00  0.00000000000E+00  0.11413191913E+04  0.11413191913E+04  0.50400001928E-02 0.  1.
        1   -1    0    0  501    0  0.00000000000E+00  0.00000000000E+00 -0.12818729553E+04  0.12818729553E+04  0.50400001928E-02 0. -1.
    10030    2    1    2    0    0  0.00000000000E+00  0.00000000000E+00 -0.14055376398E+03  0.24231921466E+04  0.24191124031E+04 0.  0.
        1    1    3    3  502    0 -0.24212457093E+03 -0.11368506849E+04  0.26491024524E+03  0.11921540276E+04  0.50400001928E-02 0.  1.
       -1    1    3    3    0  502  0.24212457093E+03  0.11368506849E+04 -0.40546400923E+03  0.12310381190E+04  0.50400001928E-02 0. -1.
</event>
<event>
 5   0  0.9519092E-05  0.2288000E+04  0.7818609E-02  0.8482668E-01
        2   -1    0    0  501    0  0.00000000000E+00  0.00000000000E+00  0.17499486437E+04  0.17499486437E+04  0.25500000920E-02 0.  1.
       -2   -1    0    0    0  501  0.00000000000E+00  0.00000000000E+00 -0.74787124676E+03  0.74787124677E+03  0.25500000920E-02 0. -1.
    10030    2    1    2    0    0  0.00000000000E+00  0.00000000000E+00  0.10020773969E+04  0.24978198905E+04  0.22880002395E+04 0.  0.
        4    1    3    3  502    0  0.48161369953E+03 -0.24250614144E+03 -0.60043296273E+03  0.80702065639E+03  0.12699999809E+01 0. -1.
       -4    1    3    3    0  502 -0.48161369953E+03  0.24250614144E+03  0.16025103597E+04  0.16907992341E+04  0.12699999809E+01 0.  1.
</event>
<event>
 5   0  0.4061631E-05  0.2258027E+04  0.7818609E-02  0.8494657E-01
        1   -1    0    0  501    0  0.00000000000E+00  0.00000000000E+00  0.14395655727E+04  0.14395655727E+04  0.50400001928E-02 0.  1.
       -1   -1    0    0    0  501  0.00000000000E+00  0.00000000000E+00 -0.88545569192E+03  0.88545569193E+03  0.50400001928E-02 0. -1.
    10030    2    1    2    0    0  0.00000000000E+00  0.00000000000E+00  0.55410988075E+03  0.23250212646E+04  0.22580270417E+04 0.  0.
        3    1    3    3  502    0  0.84382104574E+03 -0.75008888707E+03  0.27493865038E+03  0.11620062682E+04  0.10100000352E+00 0. -1.
       -3    1    3    3    0  502 -0.84382104574E+03  0.75008888707E+03  0.27917123036E+03  0.11630149964E+04  0.10100000352E+00 0.  1.
</event>
<event>
 5   0  0.9519092E-05  0.2320856E+04  0.7818609E-02  0.8469743E-01
        2   -1    0    0  501    0  0.00000000000E+00  0.00000000000E+00  0.17764715178E+04  0.17764715178E+04  0.25500000920E-02 0.  1.
       -2   -1    0    0    0  501  0.00000000000E+00  0.00000000000E+00 -0.75801538112E+03  0.75801538113E+03  0.25500000920E-02 0. -1.
    10030    2    1    2    0    0  0.00000000000E+00  0.00000000000E+00  0.10184561367E+04  0.25344868990E+04  0.23208556479E+04 0.  0.
        4    1    3    3  502    0 -0.44293231772E+03  0.10694851748E+04  0.59797032631E+03  0.13029035656E+04  0.12699999809E+01 0.  1.
       -4    1    3    3    0  502  0.44293231772E+03 -0.10694851748E+04  0.42048581040E+03  0.12315833333E+04  0.12699999809E+01 0. -1.
</event>
<event>
 5   0  0.9182865E-05  0.2374356E+04  0.7818609E-02  0.8449167E-01
        2   -1    0    0  501    0  0.00000000000E+00  0.00000000000E+00  0.14167660000E+04  0.14167660000E+04  0.25500000920E-02 0. -1.
       -2   -1    0    0    0  501  0.00000000000E+00  0.00000000000E+00 -0.99479525079E+03  0.99479525079E+03  0.25500000920E-02 0.  1.
    10030    2    1    2    0    0  0.00000000000E+00  0.00000000000E+00  0.42197074925E+03  0.24115612508E+04  0.23743564082E+04 0.  0.
        3    1    3    3  502    0  0.11427151361E+04  0.19495077031E+03 -0.49129915537E+02  0.11602661091E+04  0.10100000352E+00 0.  1.
       -3    1    3    3    0  502 -0.11427151361E+04 -0.19495077031E+03  0.47110066478E+03  0.12512951417E+04  0.10100000352E+00 0. -1.
</event>
<event>
 5   0  0.9144244E-05  0.1336098E+04  0.7818609E-02  0.9001419E-01
        2   -1    0    0  501    0  0.00000000000E+00  0.00000000000E+00  0.15181182672E+04  0.15181182672E+04  0.25500000920E-02 0.  1.
       -2   -1    0    0    0  501  0.00000000000E+00  0.00000000000E+00 -0.29397540667E+03  0.29397540669E+03  0.25500000920E-02 0. -1.
    10030    2    1    2    0    0  0.00000000000E+00  0.00000000000E+00  0.12241428605E+04  0.18120936739E+04  0.13360979530E+04 0.  0.
        1    1    3    3  502    0 -0.20943336821E+03  0.11822799301E+03 -0.23322587437E+03  0.33501418262E+03  0.50400001928E-02 0. -1.
       -1    1    3    3    0  502  0.20943336821E+03 -0.11822799301E+03  0.14573687349E+04  0.14770794913E+04  0.50400001928E-02 0.  1.
</event>
<event>
 5   0  0.9519092E-05  0.2436076E+04  0.7818609E-02  0.8426120E-01
       -2   -1    0    0    0  501  0.00000000000E+00  0.00000000000E+00  0.10760082659E+04  0.10760082660E+04  0.25500000920E-02 0.  1.
        2   -1    0    0  501    0  0.00000000000E+00  0.00000000000E+00 -0.13788150100E+04  0.13788150100E+04  0.25500000920E-02 0. -1.
    10030    2    1    2    0    0  0.00000000000E+00  0.00000000000E+00 -0.30280674408E+03  0.24548232760E+04  0.24360758182E+04 0.  0.
        4    1    3    3  502    0 -0.91089537721E+03 -0.80298473617E+03 -0.24753068349E+03  0.12392691100E+04  0.12699999809E+01 0.  1.
       -4    1    3    3    0  502  0.91089537721E+03  0.80298473617E+03 -0.55276060587E+02  0.12155541660E+04  0.12699999809E+01 0. -1.
</event>
<event>
 5   0  0.4061631E-05  0.2382454E+04  0.7818609E-02  0.8446102E-01
       -1   -1    0    0    0  501  0.00000000000E+00  0.00000000000E+00  0.71763294687E+03  0.71763294689E+03  0.50400001928E-02 0. -1.
        1   -1    0    0  501    0  0.00000000000E+00  0.00000000000E+00 -0.19773648497E+04  0.19773648497E+04  0.50400001928E-02 0.  1.
    10030    2    1    2    0    0  0.00000000000E+00  0.00000000000E+00 -0.12597319028E+04  0.26949977966E+04  0.23824543346E+04 0.  0.
        3    1    3    3  502    0  0.17409033278E+03  0.10929715365E+04 -0.11282657309E+04  0.15804675869E+04  0.10100000352E+00 0.  1.
       -3    1    3    3    0  502 -0.17409033278E+03 -0.10929715365E+04 -0.13146617194E+03  0.11145302097E+04  0.10100000352E+00 0. -1.
</event>
<event>
 5   0  0.9182865E-05  0.2420297E+04  0.7818609E-02  0.8431943E-01
       -2   -1    0    0    0  501  0.00000000000E+00  0.00000000000E+00  0.13479608433E+04  0.13479608433E+04  0.25500000920E-02 0.  1.
        2   -1    0    0  501    0  0.00000000000E+00  0.00000000000E+00 -0.10864259687E+04  0.10864259687E+04  0.25500000920E-02 0. -1.
    10030    2    1    2    0    0  0.00000000000E+00  0.00000000000E+00  0.26153487457E+03  0.24343868121E+04  0.24202972256E+04 0.  0.
        3    1    3    3  502    0  0.49212760925E+03 -0.10811057303E+04 -0.10183726769E+03  0.11922038514E+04  0.10100000352E+00 0. -1.
       -3    1    3    3    0  502 -0.49212760925E+03  0.10811057303E+04  0.36337214226E+03  0.12421829607E+04  0.10100000352E+00 0.  1.
</event>
<event>
 5   0  0.4061631E-05  0.2384317E+04  0.7818609E-02  0.8445398E-01
       -1   -1    0    0    0  501  0.00000000000E+00  0.00000000000E+00  0.12795272610E+04  0.12795272610E+04  0.50400001928E-02 0. -1.
        1   -1    0    0  501    0  0.00000000000E+00  0.00000000000E+00 -0.11107553665E+04  0.11107553665E+04  0.50400001928E-02 0.  1.
    10030    2    1    2    0    0  0.00000000000E+00  0.00000000000E+00  0.16877189442E+03  0.23902826275E+04  0.23843169015E+04 0.  0.
        3    1    3    3  502    0  0.48919540223E+03 -0.32675822271E+03 -0.95510703385E+03  0.11217453071E+04  0.10100000352E+00 0.  1.
       -3    1    3    3    0  502 -0.48919540223E+03  0.32675822271E+03  0.11238789283E+04  0.12685373204E+04  0.10100000352E+00 0. -1.
</event>
<event>
 5   0  0.9519092E-05  0.2425411E+04  0.7818609E-02  0.8430051E-01
       -2   -1    0    0    0  501  0.00000000000E+00  0.00000000000E+00  0.65479301978E+03  0.65479301978E+03  0.25500000920E-02 0.  1.
        2   -1    0    0  501    0  0.00000000000E+00  0.00000000000E+00 -0.22459845703E+04  0.22459845703E+04  0.25500000920E-02 0. -1.
    10030    2    1    2    0    0  0.00000000000E+00  0.00000000000E+00 -0.15911915506E+04  0.29007775901E+04  0.24254113212E+04 0.  0.
        4    1    3    3  502    0  0.29396742691E+03  0.94634564300E+03 -0.16316516580E+04  0.19089986040E+04  0.12699999809E+01 0. -1.
       -4    1    3    3    0  502 -0.29396742691E+03 -0.94634564300E+03  0.40460107443E+02  0.99177898612E+03  0.12699999809E+01 0.  1.
</event>
<event>
 5   0  0.9750757E-05  0.2365747E+04  0.7818609E-02  0.8452440E-01
       -2   -1    0    0    0  501  0.00000000000E+00  0.00000000000E+00  0.96259206909E+03  0.96259206909E+03  0.25500000920E-02 0. -1.
        2   -1    0    0  501    0  0.00000000000E+00  0.00000000000E+00 -0.14535642936E+04  0.14535642936E+04  0.25500000920E-02 0.  1.
    10030    2    1    2    0    0  0.00000000000E+00  0.00000000000E+00 -0.49097222450E+03  0.24161563627E+04  0.23657467835E+04 0.  0.
        2    1    3    3  502    0  0.39953841316E+03 -0.53483534443E+02  0.89027923084E+03  0.97728631471E+03  0.25500000920E-02 0. -1.
       -2    1    3    3    0  502 -0.39953841316E+03  0.53483534443E+02 -0.13812514553E+04  0.14388700480E+04  0.25500000920E-02 0.  1.
</event>
<event>
 5   0  0.9144244E-05  0.2647627E+04  0.7818609E-02  0.8352201E-01
        2   -1    0    0  501    0  0.00000000000E+00  0.00000000000E+00  0.13041492433E+04  0.13041492433E+04  0.25500000920E-02 0. -1.
       -2   -1    0    0    0  501  0.00000000000E+00  0.00000000000E+00 -0.13437741496E+04  0.13437741496E+04  0.25500000920E-02 0.  1.
    10030    2    1    2    0    0  0.00000000000E+00  0.00000000000E+00 -0.39624906352E+02  0.26479233929E+04  0.26476268924E+04 0.  0.
        1    1    3    3  502    0  0.10876325972E+04  0.35965184074E+03  0.64372844512E+03  0.13140321245E+04  0.50400001928E-02 0. -1.
       -1    1    3    3    0  502 -0.10876325972E+04 -0.35965184074E+03 -0.68335335147E+03  0.13338912684E+04  0.50400001928E-02 0.  1.
</event>
<event>
 5   0  0.9182865E-05  0.2063981E+04  0.7818609E-02  0.8577278E-01
       -2   -1    0    0    0  501  0.00000000000E+00  0.00000000000E+00  0.51705104965E+03  0.51705104966E+03  0.25500000920E-02 0. -1.
        2   -1    0    0  501    0  0.00000000000E+00  0.00000000000E+00 -0.20597657531E+04  0.20597657531E+04  0.25500000920E-02 0.  1.
    10030    2    1    2    0    0  0.00000000000E+00  0.00000000000E+00 -0.15427147034E+04  0.25768168027E+04  0.20639806633E+04 0.  0.
        3    1    3    3  502    0 -0.46697935755E+03  0.85431249716E+03 -0.34416096661E+03  0.10326501558E+04  0.10100000352E+00 0. -1.
       -3    1    3    3    0  502  0.46697935755E+03 -0.85431249716E+03 -0.11985537368E+04  0.15441666469E+04  0.10100000352E+00 0.  1.
</event>
<event>
 5   0  0.9750757E-05  0.2411137E+04  0.7818609E-02  0.8435346E-01
       -2   -1    0    0    0  501  0.00000000000E+00  0.00000000000E+00  0.14498578340E+04  0.14498578340E+04  0.25500000920E-02 0. -1.
        2   -1    0    0  501    0  0.00000000000E+00  0.00000000000E+00 -0.10024401563E+04  0.10024401563E+04  0.25500000920E-02 0.  1.
    10030    2    1    2    0    0  0.00000000000E+00  0.00000000000E+00  0.44741767766E+03  0.24522979903E+04  0.24111372535E+04 0.  0.
        2    1    3    3  502    0 -0.62561818825E+03  0.56735890576E+03 -0.65126877530E+03  0.10665107890E+04  0.25500000920E-02 0.  1.
       -2    1    3    3    0  502  0.62561818825E+03 -0.56735890576E+03  0.10986864530E+04  0.13857872013E+04  0.25500000920E-02 0. -1.
</event>
<event>
 5   0  0.3934906E-05  0.2430941E+04  0.7818609E-02  0.8428010E-01
        1   -1    0    0  501    0  0.00000000000E+00  0.00000000000E+00  0.15832106676E+04  0.15832106676E+04  0.50400001928E-02 0.  1.
       -1   -1    0    0    0  501  0.00000000000E+00  0.00000000000E+00 -0.93314696014E+03  0.93314696015E+03  0.50400001928E-02 0. -1.
    10030    2    1    2    0    0  0.00000000000E+00  0.00000000000E+00  0.65006370742E+03  0.25163576277E+04  0.24309407411E+04 0.  0.
        2    1    3    3  502    0  0.22187706337E+03 -0.39528805598E+03 -0.84237465232E+03  0.95659664087E+03  0.25500000920E-02 0. -1.
       -2    1    3    3    0  502 -0.22187706337E+03  0.39528805598E+03  0.14924383597E+04  0.15597609868E+04  0.25500000920E-02 0.  1.
</event>
<event>
 5   0  0.3934906E-05  0.2401373E+04  0.7818609E-02  0.8438990E-01
        1   -1    0    0  501    0  0.00000000000E+00  0.00000000000E+00  0.15138042589E+04  0.15138042589E+04  0.50400001928E-02 0. -1.
       -1   -1    0    0    0  501  0.00000000000E+00  0.00000000000E+00 -0.95233490325E+03  0.95233490327E+03  0.50400001928E-02 0.  1.
    10030    2    1    2    0    0  0.00000000000E+00  0.00000000000E+00  0.56146935562E+03  0.24661391622E+04  0.24013734674E+04 0.  0.
        2    1    3    3  502    0 -0.11122160107E+04 -0.45122206319E+03  0.24789044515E+03  0.12255918886E+04  0.25500000920E-02 0. -1.
       -2    1    3    3    0  502  0.11122160107E+04  0.45122206319E+03  0.31357891047E+03  0.12405472735E+04  0.25500000920E-02 0.  1.
</event>
<event>
 5   0  0.4260395E-05  0.2370969E+04  0.7818609E-02  0.8450453E-01
       -1   -1    0    0    0  501  0.00000000000E+00  0.00000000000E+00  0.97758573312E+03  0.97758573313E+03  0.50400001928E-02 0. -1.
        1   -1    0    0  501    0  0.00000000000E+00  0.00000000000E+00 -0.14375966336E+04  0.14375966336E+04  0.50400001928E-02 0.  1.
    10030    2    1    2    0    0  0.00000000000E+00  0.00000000000E+00 -0.46001090048E+03  0.24151823667E+04  0.23709693874E+04 0.  0.
        4    1    3    3  502    0  0.49817262990E+02  0.85011837286E+03  0.61010984731E+03  0.10475775132E+04  0.12699999809E+01 0. -1.
       -4    1    3    3    0  502 -0.49817262990E+02 -0.85011837286E+03 -0.10701207478E+04  0.13676048535E+04  0.12699999809E+01 0.  1.
</event>
<event>
 5   0  0.4018942E-05  0.2246710E+04  0.7818609E-02  0.8499234E-01
        1   -1    0    0  501    0  0.00000000000E+00  0.00000000000E+00  0.75129092246E+03  0.75129092248E+03  0.50400001928E-02 0.  1.
       -1   -1    0    0    0  501  0.00000000000E+00  0.00000000000E+00 -0.16796776588E+04  0.16796776588E+04  0.50400001928E-02 0. -1.
    10030    2    1    2    0    0  0.00000000000E+00  0.00000000000E+00 -0.92838673637E+03  0.24309685813E+04  0.22467101084E+04 0.  0.
        5    1    3    3  502    0  0.27275485846E+03  0.32381799553E+03 -0.15900331320E+04  0.16454424201E+04  0.46999998093E+01 0. -1.
       -5    1    3    3    0  502 -0.27275485846E+03 -0.32381799553E+03  0.66164639565E+03  0.78552616119E+03  0.46999998093E+01 0.  1.
</event>
<event>
 5   0  0.4018942E-05  0.2461147E+04  0.7818609E-02  0.8416959E-01
       -1   -1    0    0    0  501  0.00000000000E+00  0.00000000000E+00  0.13071855988E+04  0.13071855988E+04  0.50400001928E-02 0. -1.
        1   -1    0    0  501    0  0.00000000000E+00  0.00000000000E+00 -0.11584512882E+04  0.11584512882E+04  0.50400001928E-02 0.  1.
    10030    2    1    2    0    0  0.00000000000E+00  0.00000000000E+00  0.14873431063E+03  0.24656368870E+04  0.24611467578E+04 0.  0.
        5    1    3    3  502    0  0.70034592323E+03 -0.49025112302E+03  0.96111372185E+03  0.12863095476E+04  0.46999998093E+01 0. -1.
       -5    1    3    3    0  502 -0.70034592323E+03  0.49025112302E+03 -0.81237941122E+03  0.11793273394E+04  0.46999998093E+01 0.  1.
</event>
<event>
 5   0  0.9182865E-05  0.1861234E+04  0.7818609E-02  0.8674397E-01
       -2   -1    0    0    0  501  0.00000000000E+00  0.00000000000E+00  0.11336137785E+04  0.11336137785E+04  0.25500000920E-02 0.  1.
        2   -1    0    0  501    0  0.00000000000E+00  0.00000000000E+00 -0.76397120215E+03  0.76397120215E+03  0.25500000920E-02 0. -1.
    10030    2    1    2    0    0  0.00000000000E+00  0.00000000000E+00  0.36964257631E+03  0.18975849806E+04  0.18612343013E+04 0.  0.
        3    1    3    3  502    0 -0.31809253596E+03 -0.26123809272E+03  0.10357597959E+04  0.11145521825E+04  0.10100000352E+00 0.  1.
       -3    1    3    3    0  502  0.31809253596E+03  0.26123809272E+03 -0.66611721958E+03  0.78303279812E+03  0.10100000352E+00 0. -1.
</event>
<event>
 5   0  0.9182865E-05  0.2423540E+04  0.7818609E-02  0.8430743E-01
        2   -1    0    0  501    0  0.00000000000E+00  0.00000000000E+00  0.25297904010E+04  0.25297904010E+04  0.25500000920E-02 0.  1.
       -2   -1    0    0    0  501  0.00000000000E+00  0.00000000000E+00 -0.58043819680E+03  0.58043819680E+03  0.25500000920E-02 0. -1.
    10030    2    1    2    0    0  0.00000000000E+00  0.00000000000E+00  0.19493522042E+04  0.31102285978E+04  0.24235403678E+04 0.  0.
        3    1    3    3  502    0 -0.79567171323E+03  0.90951969613E+03  0.10899442370E+04  0.16273592114E+04  0.10100000352E+00 0.  1.
       -3    1    3    3    0  502  0.79567171323E+03 -0.90951969613E+03  0.85940796718E+03  0.14828693864E+04  0.10100000352E+00 0. -1.
</event>
<event>
 5   0  0.3234750E-05  0.2426643E+04  0.7818609E-02  0.8429596E-01
        3   -1    0    0  501    0  0.00000000000E+00  0.00000000000E+00  0.10478491622E+04  0.10478491670E+04  0.10100000352E+00 0.  1.
       -3   -1    0    0    0  501  0.00000000000E+00  0.00000000000E+00 -0.14049242564E+04  0.14049242601E+04  0.10100000352E+00 0. -1.
    10030    2    1    2    0    0  0.00000000000E+00  0.00000000000E+00 -0.35707509427E+03  0.24527734271E+04  0.24266427141E+04 0.  0.
        2    1    3    3  502    0 -0.39699801419E+03 -0.94856563875E+03 -0.82949468660E+03  0.13211531438E+04  0.25500000920E-02 0. -1.
       -2    1    3    3    0  502  0.39699801419E+03  0.94856563875E+03  0.47241959232E+03  0.11316202833E+04  0.25500000920E-02 0.  1.
</event>
<event>
 5   0  0.9144244E-05  0.2393971E+04  0.7818609E-02  0.8441764E-01
       -2   -1    0    0    0  501  0.00000000000E+00  0.00000000000E+00  0.91224331036E+03  0.91224331037E+03  0.25500000920E-02 0. -1.
        2   -1    0    0  501    0  0.00000000000E+00  0.00000000000E+00 -0.15706058685E+04  0.15706058685E+04  0.25500000920E-02 0.  1.
    10030    2    1    2    0    0  0.00000000000E+00  0.00000000000E+00 -0.65836255812E+03  0.24828491789E+04  0.23939713421E+04 0.  0.
        1    1    3    3  502    0 -0.78029862027E+03  0.82382473829E+03 -0.72440858449E+03  0.13462246965E+04  0.50400001928E-02 0.  1.
       -1    1    3    3    0  502  0.78029862027E+03 -0.82382473829E+03  0.66046026368E+02  0.11366244823E+04  0.50400001928E-02 0. -1.
</event>
<event>
 5   0  0.3934906E-05  0.2395187E+04  0.7818609E-02  0.8441308E-01
        1   -1    0    0  501    0  0.00000000000E+00  0.00000000000E+00  0.74305460471E+03  0.74305460473E+03  0.50400001928E-02 0.  1.
       -1   -1    0    0    0  501  0.00000000000E+00  0.00000000000E+00 -0.19301817606E+04  0.19301817606E+04  0.50400001928E-02 0. -1.
    10030    2    1    2    0    0  0.00000000000E+00  0.00000000000E+00 -0.11871271559E+04  0.26732363653E+04  0.23951872120E+04 0.  0.
        2    1    3    3  502    0 -0.52940646016E+03  0.10632035571E+03 -0.17866049421E+04  0.18664223630E+04  0.25500000920E-02 0. -1.
       -2    1    3    3    0  502  0.52940646016E+03 -0.10632035571E+03  0.59947778623E+03  0.80681400229E+03  0.25500000920E-02 0.  1.
</event>
<event>
 5   0  0.9182865E-05  0.2389124E+04  0.7818609E-02  0.8443587E-01
        2   -1    0    0  501    0  0.00000000000E+00  0.00000000000E+00  0.11097522160E+04  0.11097522160E+04  0.25500000920E-02 0.  1.
       -2   -1    0    0    0  501  0.00000000000E+00  0.00000000000E+00 -0.12858530424E+04  0.12858530424E+04  0.25500000920E-02 0. -1.
    10030    2    1    2    0    0  0.00000000000E+00  0.00000000000E+00 -0.17610082640E+03  0.23956052585E+04  0.23891239091E+04 0.  0.
        3    1    3    3  502    0  0.91315840981E+02 -0.34957744810E+03 -0.12297504193E+04  0.12817289413E+04  0.10100000352E+00 0. -1.
       -3    1    3    3    0  502 -0.91315840981E+02  0.34957744810E+03  0.10536495929E+04  0.11138763171E+04  0.10100000352E+00 0.  1.
</event>
<event>
 5   0  0.9519092E-05  0.2468420E+04  0.7818609E-02  0.8414323E-01
        2   -1    0    0  501    0  0.00000000000E+00  0.00000000000E+00  0.90017551127E+03  0.90017551127E+03  0.25500000920E-02 0. -1.
       -2   -1    0    0    0  501  0.00000000000E+00  0.00000000000E+00 -0.16921966240E+04  0.16921966240E+04  0.25500000920E-02 0.  1.
    10030    2    1    2    0    0  0.00000000000E+00  0.00000000000E+00 -0.79202111268E+03  0.25923721352E+04  0.24684197059E+04 0.  0.
        4    1    3    3  502    0 -0.95035416140E+03 -0.75997509330E+03 -0.17940846013E+03  0.12300098304E+04  0.12699999809E+01 0.  1.
       -4    1    3    3    0  502  0.95035416140E+03  0.75997509330E+03 -0.61261265256E+03  0.13623623048E+04  0.12699999809E+01 0. -1.
</event>
<event>
 5   0  0.9491680E-05  0.2326003E+04  0.7818609E-02  0.8467738E-01
        2   -1    0    0  501    0  0.00000000000E+00  0.00000000000E+00  0.12927750047E+04  0.12927750047E+04  0.25500000920E-02 0.  1.
       -2   -1    0    0    0  501  0.00000000000E+00  0.00000000000E+00 -0.10462554858E+04  0.10462554858E+04  0.25500000920E-02 0. -1.
    10030    2    1    2    0    0  0.00000000000E+00  0.00000000000E+00  0.24651951889E+03  0.23390304904E+04  0.23260033882E+04 0.  0.
        5    1    3    3  502    0  0.51201061670E+03  0.10242208295E+04  0.32778931600E+03  0.11910714105E+04  0.46999998093E+01 0.  1.
       -5    1    3    3    0  502 -0.51201061670E+03 -0.10242208295E+04 -0.81269797108E+02  0.11479590799E+04  0.46999998093E+01 0. -1.
</event>
<event>
 5   0  0.4208577E-05  0.2390378E+04  0.7818609E-02  0.8443115E-01
        1   -1    0    0  501    0  0.00000000000E+00  0.00000000000E+00  0.21032029328E+04  0.21032029328E+04  0.50400001928E-02 0. -1.
       -1   -1    0    0    0  501  0.00000000000E+00  0.00000000000E+00 -0.67919132606E+03  0.67919132607E+03  0.50400001928E-02 0.  1.
    10030    2    1    2    0    0  0.00000000000E+00  0.00000000000E+00  0.14240116067E+04  0.27823942589E+04  0.23903783708E+04 0.  0.
        1    1    3    3  502    0  0.11207851036E+04 -0.28547295939E+03  0.36121334319E+03  0.12116637893E+04  0.50400001928E-02 0.  1.
       -1    1    3    3    0  502 -0.11207851036E+04  0.28547295939E+03  0.10627982635E+04  0.15707304696E+04  0.50400001928E-02 0. -1.
</event>
<event>
 5   0  0.4061631E-05  0.1307785E+04  0.7818609E-02  0.9023414E-01
       -1   -1    0    0    0  501  0.00000000000E+00  0.00000000000E+00  0.22318975607E+03  0.22318975613E+03  0.50400001928E-02 0. -1.
        1   -1    0    0  501    0  0.00000000000E+00  0.00000000000E+00 -0.19157493752E+04  0.19157493752E+04  0.50400001928E-02 0.  1.
    10030    2    1    2    0    0  0.00000000000E+00  0.00000000000E+00 -0.16925596191E+04  0.21389391313E+04  0.13077853583E+04 0.  0.
        3    1    3    3  502    0  0.29865263731E+03 -0.16272371353E+03 -0.17597026874E+04  0.17922683848E+04  0.10100000352E+00 0.  1.
       -3    1    3    3    0  502 -0.29865263731E+03  0.16272371353E+03  0.67143068282E+02  0.34667074658E+03  0.10100000352E+00 0. -1.
</event>
<event>
 5   0  0.4260395E-05  0.2404261E+04  0.7818609E-02  0.8437910E-01
        1   -1    0    0  501    0  0.00000000000E+00  0.00000000000E+00  0.62916339743E+03  0.62916339745E+03  0.50400001928E-02 0.  1.
       -1   -1    0    0    0  501  0.00000000000E+00  0.00000000000E+00 -0.22968872909E+04  0.22968872909E+04  0.50400001928E-02 0. -1.
    10030    2    1    2    0    0  0.00000000000E+00  0.00000000000E+00 -0.16677238934E+04  0.29260506883E+04  0.24042607275E+04 0.  0.
        4    1    3    3  502    0  0.99663053192E+03  0.37023870753E+03 -0.15106014255E+03  0.10738574846E+04  0.12699999809E+01 0.  1.
       -4    1    3    3    0  502 -0.99663053192E+03 -0.37023870753E+03 -0.15166637509E+04  0.18521932037E+04  0.12699999809E+01 0. -1.
</event>
<event>
 5   0  0.4018942E-05  0.2301168E+04  0.7818609E-02  0.8477461E-01
       -1   -1    0    0    0  501  0.00000000000E+00  0.00000000000E+00  0.76533960500E+03  0.76533960502E+03  0.50400001928E-02 0.  1.
        1   -1    0    0  501    0  0.00000000000E+00  0.00000000000E+00 -0.17297468416E+04  0.17297468416E+04  0.50400001928E-02 0. -1.
    10030    2    1    2    0    0  0.00000000000E+00  0.00000000000E+00 -0.96440723655E+03  0.24950864466E+04  0.23011681942E+04 0.  0.
        5    1    3    3  502    0 -0.44515695008E+02 -0.68034926507E+03 -0.14871084731E+04  0.16359616348E+04  0.46999998093E+01 0. -1.
       -5    1    3    3    0  502  0.44515695008E+02  0.68034926507E+03  0.52270123657E+03  0.85912481182E+03  0.46999998093E+01 0.  1.
</event>
<event>
 5   0  0.9182865E-05  0.1691370E+04  0.7818609E-02  0.8766302E-01
        2   -1    0    0  501    0  0.00000000000E+00  0.00000000000E+00  0.13363477118E+04  0.13363477118E+04  0.25500000920E-02 0.  1.
       -2   -1    0    0    0  501  0.00000000000E+00  0.00000000000E+00 -0.53517733995E+03  0.53517733996E+03  0.25500000920E-02 0. -1.
    10030    2    1    2    0    0  0.00000000000E+00  0.00000000000E+00  0.80117037184E+03  0.18715250517E+04  0.16913698752E+04 0.  0.
        3    1    3    3  502    0  0.82437393944E+03 -0.32323683765E+02  0.19492291658E+03  0.84772175044E+03  0.10100000352E+00 0. -1.
       -3    1    3    3    0  502 -0.82437393944E+03  0.32323683765E+02  0.60624745526E+03  0.10238033013E+04  0.10100000352E+00 0.  1.
</event>
<event>
 5   0  0.3934906E-05  0.1528225E+04  0.7818609E-02  0.8865897E-01
       -1   -1    0    0    0  501  0.00000000000E+00  0.00000000000E+00  0.34140462870E+03  0.34140462874E+03  0.50400001928E-02 0.  1.
        1   -1    0    0  501    0  0.00000000000E+00  0.00000000000E+00 -0.17101941733E+04  0.17101941733E+04  0.50400001928E-02 0. -1.
    10030    2    1    2    0    0  0.00000000000E+00  0.00000000000E+00 -0.13687895446E+04  0.20515988021E+04  0.15282253849E+04 0.  0.
        2    1    3    3  502    0  0.50730732240E+03  0.19289228704E+02 -0.14510568943E+04  0.15373024764E+04  0.25500000920E-02 0. -1.
       -2    1    3    3    0  502 -0.50730732240E+03 -0.19289228704E+02  0.82267349647E+02  0.51429632561E+03  0.25500000920E-02 0.  1.
</event>
<event>
 5   0  0.4260395E-05  0.2345628E+04  0.7818609E-02  0.8460145E-01
        1   -1    0    0  501    0  0.00000000000E+00  0.00000000000E+00  0.22631363657E+04  0.22631363657E+04  0.50400001928E-02 0. -1.
       -1   -1    0    0    0  501  0.00000000000E+00  0.00000000000E+00 -0.60778177103E+03  0.60778177105E+03  0.50400001928E-02 0.  1.
    10030    2    1    2    0    0  0.00000000000E+00  0.00000000000E+00  0.16553545947E+04  0.28709181368E+04  0.23456282983E+04 0.  0.
        4    1    3    3  502    0 -0.58974413838E+03 -0.73214520287E+02 -0.40985854251E+03  0.72190314620E+03  0.12699999809E+01 0.  1.
       -4    1    3    3    0  502  0.58974413838E+03  0.73214520287E+02  0.20652131372E+04  0.21490149906E+04  0.12699999809E+01 0. -1.
</event>
<event>
 5   0  0.4061631E-05  0.1708464E+04  0.7818609E-02  0.8756552E-01
        1   -1    0    0  501    0  0.00000000000E+00  0.00000000000E+00  0.20839140337E+04  0.20839140337E+04  0.50400001928E-02 0. -1.
       -1   -1    0    0    0  501  0.00000000000E+00  0.00000000000E+00 -0.35016418413E+03  0.35016418416E+03  0.50400001928E-02 0.  1.
    10030    2    1    2    0    0  0.00000000000E+00  0.00000000000E+00  0.17337498496E+04  0.24340782178E+04  0.17084637046E+04 0.  0.
        3    1    3    3  502    0 -0.58393802012E+03 -0.59297664012E+03  0.59242853925E+03  0.10215559169E+04  0.10100000352E+00 0. -1.
       -3    1    3    3    0  502  0.58393802012E+03  0.59297664012E+03  0.11413213103E+04  0.14125223009E+04  0.10100000352E+00 0.  1.
</event>
<event>
 5   0  0.4260395E-05  0.2411801E+04  0.7818609E-02  0.8435098E-01
       -1   -1    0    0    0  501  0.00000000000E+00  0.00000000000E+00  0.72758990777E+03  0.72758990779E+03  0.50400001928E-02 0.  1.
        1   -1    0    0  501    0  0.00000000000E+00  0.00000000000E+00 -0.19986486102E+04  0.19986486102E+04  0.50400001928E-02 0. -1.
    10030    2    1    2    0    0  0.00000000000E+00  0.00000000000E+00 -0.12710587024E+04  0.27262385180E+04  0.24118014495E+04 0.  0.
        4    1    3    3  502    0  0.51615423935E+03 -0.57868045580E+03  0.40840590218E+03  0.87640359570E+03  0.12699999809E+01 0.  1.
       -4    1    3    3    0  502 -0.51615423935E+03  0.57868045580E+03 -0.16794646046E+04  0.18498349223E+04  0.12699999809E+01 0. -1.
</event>
<event>
 5   0  0.9750757E-05  0.2455537E+04  0.7818609E-02  0.8418999E-01
       -2   -1    0    0    0  501  0.00000000000E+00  0.00000000000E+00  0.11846803613E+04  0.11846803613E+04  0.25500000920E-02 0.  1.
        2   -1    0    0  501    0  0.00000000000E+00  0.00000000000E+00 -0.12724237034E+04  0.12724237034E+04  0.25500000920E-02 0. -1.
    10030    2    1    2    0    0  0.00000000000E+00  0.00000000000E+00 -0.87743342024E+02  0.24571040647E+04  0.24555369048E+04 0.  0.
        2    1    3    3  502    0 -0.12259072082E+04 -0.28786522870E+02  0.17308379972E+02  0.12263672888E+04  0.25500000920E-02 0. -1.
       -2    1    3    3    0  502  0.12259072082E+04  0.28786522870E+02 -0.10505172200E+03  0.12307367758E+04  0.25500000920E-02 0.  1.
</event>
<event>
 5   0  0.9491680E-05  0.2369263E+04  0.7818609E-02  0.8451102E-01
        2   -1    0    0  501    0  0.00000000000E+00  0.00000000000E+00  0.17225797283E+04  0.17225797283E+04  0.25500000920E-02 0.  1.
       -2   -1    0    0    0  501  0.00000000000E+00  0.00000000000E+00 -0.81468003063E+03  0.81468003063E+03  0.25500000920E-02 0. -1.
    10030    2    1    2    0    0  0.00000000000E+00  0.00000000000E+00  0.90789969765E+03  0.25372597589E+04  0.23692625906E+04 0.  0.
        5    1    3    3  502    0 -0.76019244307E+03 -0.43045339077E+03  0.13107734821E+04  0.15752243914E+04  0.46999998093E+01 0.  1.
       -5    1    3    3    0  502  0.76019244307E+03  0.43045339077E+03 -0.40287378440E+03  0.96203536748E+03  0.46999998093E+01 0. -1.
</event>
<event>
 5   0  0.9182865E-05  0.2389828E+04  0.7818609E-02  0.8443322E-01
        2   -1    0    0  501    0  0.00000000000E+00  0.00000000000E+00  0.14706748898E+04  0.14706748898E+04  0.25500000920E-02 0.  1.
       -2   -1    0    0    0  501  0.00000000000E+00  0.00000000000E+00 -0.97085993136E+03  0.97085993136E+03  0.25500000920E-02 0. -1.
    10030    2    1    2    0    0  0.00000000000E+00  0.00000000000E+00  0.49981495848E+03  0.24415348212E+04  0.23898278788E+04 0.  0.
        3    1    3    3  502    0  0.92650993438E+03  0.52973050127E+03  0.79892101397E+03  0.13331578523E+04  0.10100000352E+00 0.  1.
       -3    1    3    3    0  502 -0.92650993438E+03 -0.52973050127E+03 -0.29910605549E+03  0.11083769689E+04  0.10100000352E+00 0. -1.
</event>
<event>
 5   0  0.9491680E-05  0.2166063E+04  0.7818609E-02  0.8532688E-01
       -2   -1    0    0    0  501  0.00000000000E+00  0.00000000000E+00  0.63855340152E+03  0.63855340152E+03  0.25500000920E-02 0.  1.
        2   -1    0    0  501    0  0.00000000000E+00  0.00000000000E+00 -0.18368980974E+04  0.18368980974E+04  0.25500000920E-02 0. -1.
    10030    2    1    2    0    0  0.00000000000E+00  0.00000000000E+00 -0.11983446959E+04  0.24754514990E+04  0.21660632755E+04 0.  0.
        5    1    3    3  502    0 -0.61959546266E+02 -0.83653785525E+03  0.18373246343E+03  0.85872829042E+03  0.46999998093E+01 0.  1.
       -5    1    3    3    0  502  0.61959546266E+02  0.83653785525E+03 -0.13820771593E+04  0.16167232085E+04  0.46999998093E+01 0. -1.
</event>
<event>
 5   0  0.4260395E-05  0.2369448E+04  0.7818609E-02  0.8451031E-01
        1   -1    0    0  501    0  0.00000000000E+00  0.00000000000E+00  0.16975777425E+04  0.16975777425E+04  0.50400001928E-02 0.  1.
       -1   -1    0    0    0  501  0.00000000000E+00  0.00000000000E+00 -0.82680782916E+03  0.82680782918E+03  0.50400001928E-02 0. -1.
    10030    2    1    2    0    0  0.00000000000E+00  0.00000000000E+00  0.87076991337E+03  0.25243855717E+04  0.23694476725E+04 0.  0.
        4    1    3    3  502    0  0.77802433748E+02  0.71984130894E+02  0.16925152297E+04  0.16958314626E+04  0.12699999809E+01 0.  1.
       -4    1    3    3    0  502 -0.77802433748E+02 -0.71984130894E+02 -0.82174531638E+03  0.82855410909E+03  0.12699999809E+01 0. -1.
</event>
<event>
 5   0  0.4018942E-05  0.2383913E+04  0.7818609E-02  0.8445551E-01
        1   -1    0    0  501    0  0.00000000000E+00  0.00000000000E+00  0.97980892318E+03  0.97980892319E+03  0.50400001928E-02 0.  1.
       -1   -1    0    0    0  501  0.00000000000E+00  0.00000000000E+00 -0.14500378180E+04  0.14500378180E+04  0.50400001928E-02 0. -1.
    10030    2    1    2    0    0  0.00000000000E+00  0.00000000000E+00 -0.47022889484E+03  0.24298467412E+04  0.23839127443E+04 0.  0.
        5    1    3    3  502    0 -0.10734499143E+04  0.23644300064E+03  0.23478692246E+03  0.11239870996E+04  0.46999998093E+01 0.  1.
       -5    1    3    3    0  502  0.10734499143E+04 -0.23644300064E+03 -0.70501581730E+03  0.13058596417E+04  0.46999998093E+01 0. -1.
</event>
<event>
 5   0  0.4061631E-05  0.2341238E+04  0.7818609E-02  0.8461837E-01
        1   -1    0    0  501    0  0.00000000000E+00  0.00000000000E+00  0.19279035739E+04  0.19279035739E+04  0.50400001928E-02 0. -1.
       -1   -1    0    0    0  501  0.00000000000E+00  0.00000000000E+00 -0.71079750206E+03  0.71079750208E+03  0.50400001928E-02 0.  1.
    10030    2    1    2    0    0  0.00000000000E+00  0.00000000000E+00  0.12171060718E+04  0.26387010760E+04  0.23412381721E+04 0.  0.
        3    1    3    3  502    0 -0.23087662103E+03 -0.83262589884E+03  0.14986965238E+04  0.17299309761E+04  0.10100000352E+00 0. -1.
       -3    1    3    3    0  502  0.23087662103E+03  0.83262589884E+03 -0.28159045196E+03  0.90877009985E+03  0.10100000352E+00 0.  1.
</event>
<event>
 5   0  0.4018942E-05  0.2415447E+04  0.7818609E-02  0.8433743E-01
       -1   -1    0    0    0  501  0.00000000000E+00  0.00000000000E+00  0.75623368369E+03  0.75623368371E+03  0.50400001928E-02 0.  1.
        1   -1    0    0  501    0  0.00000000000E+00  0.00000000000E+00 -0.19287638188E+04  0.19287638188E+04  0.50400001928E-02 0. -1.
    10030    2    1    2    0    0  0.00000000000E+00  0.00000000000E+00 -0.11725301351E+04  0.26849975025E+04  0.24154470954E+04 0.  0.
        5    1    3    3  502    0 -0.12402800295E+03 -0.12182618038E+03 -0.19147713178E+04  0.19226533367E+04  0.46999998093E+01 0. -1.
       -5    1    3    3    0  502  0.12402800295E+03  0.12182618038E+03  0.74224118272E+03  0.76234416576E+03  0.46999998093E+01 0.  1.
</event>
<event>
 5   0  0.9750757E-05  0.2406663E+04  0.7818609E-02  0.8437013E-01
       -2   -1    0    0    0  501  0.00000000000E+00  0.00000000000E+00  0.82112587541E+03  0.82112587541E+03  0.25500000920E-02 0. -1.
        2   -1    0    0  501    0  0.00000000000E+00  0.00000000000E+00 -0.17634411943E+04  0.17634411943E+04  0.25500000920E-02 0.  1.
    10030    2    1    2    0    0  0.00000000000E+00  0.00000000000E+00 -0.94231531890E+03  0.25845670697E+04  0.24066634118E+04 0.  0.
        2    1    3    3  502    0 -0.33035044357E+03 -0.10874746752E+04 -0.46619568639E+02  0.11374998765E+04  0.25500000920E-02 0.  1.
       -2    1    3    3    0  502  0.33035044357E+03  0.10874746752E+04 -0.89569575026E+03  0.14470671933E+04  0.25500000920E-02 0. -1.
</event>
<event>
 5   0  0.9182865E-05  0.2399543E+04  0.7818609E-02  0.8439675E-01
       -2   -1    0    0    0  501  0.00000000000E+00  0.00000000000E+00  0.95374579662E+03  0.95374579662E+03  0.25500000920E-02 0. -1.
        2   -1    0    0  501    0  0.00000000000E+00  0.00000000000E+00 -0.15092612731E+04  0.15092612731E+04  0.25500000920E-02 0.  1.
    10030    2    1    2    0    0  0.00000000000E+00  0.00000000000E+00 -0.55551547648E+03  0.24630070697E+04  0.23995429525E+04 0.  0.
        3    1    3    3  502    0 -0.63101433607E+03  0.10293405499E+03 -0.13198314444E+04  0.14665365880E+04  0.10100000352E+00 0.  1.
       -3    1    3    3    0  502  0.63101433607E+03 -0.10293405499E+03  0.76431596792E+03  0.99647048176E+03  0.10100000352E+00 0. -1.
</event>
<event>
 5   0  0.9182865E-05  0.2471003E+04  0.7818609E-02  0.8413389E-01
       -2   -1    0    0    0  501  0.00000000000E+00  0.00000000000E+00  0.91409988841E+03  0.91409988842E+03  0.25500000920E-02 0.  1.
        2   -1    0    0  501    0  0.00000000000E+00  0.00000000000E+00 -0.16699094078E+04  0.16699094078E+04  0.25500000920E-02 0. -1.
    10030    2    1    2    0    0  0.00000000000E+00  0.00000000000E+00 -0.75580951940E+03  0.25840092962E+04  0.24710030379E+04 0.  0.
        3    1    3    3  502    0 -0.86560091714E+03  0.88156865176E+03 -0.37165151962E+03  0.12901756073E+04  0.10100000352E+00 0.  1.
       -3    1    3    3    0  502  0.86560091714E+03 -0.88156865176E+03 -0.38415799978E+03  0.12938336889E+04  0.10100000352E+00 0. -1.
</event>
<event>
 5   0  0.3934906E-05  0.2223496E+04  0.7818609E-02  0.8508712E-01
       -1   -1    0    0    0  501  0.00000000000E+00  0.00000000000E+00  0.11193126999E+04  0.11193126999E+04  0.50400001928E-02 0.  1.
        1   -1    0    0  501    0  0.00000000000E+00  0.00000000000E+00 -0.11042340350E+04  0.11042340350E+04  0.50400001928E-02 0. -1.
    10030    2    1    2    0    0  0.00000000000E+00  0.00000000000E+00  0.15078664846E+02  0.22235467349E+04  0.22234956074E+04 0.  0.
        2    1    3    3  502    0  0.72019570538E+03  0.34621050919E+03  0.78049928217E+03  0.11170150850E+04  0.25500000920E-02 0.  1.
       -2    1    3    3    0  502 -0.72019570538E+03 -0.34621050919E+03 -0.76542061732E+03  0.11065316499E+04  0.25500000920E-02 0. -1.
</event>
<event>
 5   0  0.9519092E-05  0.1994658E+04  0.7818609E-02  0.8609122E-01
        2   -1    0    0  501    0  0.00000000000E+00  0.00000000000E+00  0.20028001690E+04  0.20028001690E+04  0.25500000920E-02 0.  1.
       -2   -1    0    0    0  501  0.00000000000E+00  0.00000000000E+00 -0.49663723110E+03  0.49663723111E+03  0.25500000920E-02 0. -1.
    10030    2    1    2    0    0  0.00000000000E+00  0.00000000000E+00  0.15061629379E+04  0.24994374002E+04  0.19946579962E+04 0.  0.
        4    1    3    3  502    0  0.37210370973E+03 -0.42373671011E+03  0.17838371083E+04  0.18708528569E+04  0.12699999809E+01 0.  1.
       -4    1    3    3    0  502 -0.37210370973E+03  0.42373671011E+03 -0.27767417033E+03  0.62858454329E+03  0.12699999809E+01 0. -1.
</event>
<event>
 5   0  0.9182865E-05  0.2407711E+04  0.7818609E-02  0.8436622E-01
       -2   -1    0    0    0  501  0.00000000000E+00  0.00000000000E+00  0.11863733434E+04  0.11863733434E+04  0.25500000920E-02 0.  1.
        2   -1    0    0  501    0  0.00000000000E+00  0.00000000000E+00 -0.12215951672E+04  0.12215951672E+04  0.25500000920E-02 0. -1.
    10030    2    1    2    0    0  0.00000000000E+00  0.00000000000E+00 -0.35221823825E+02  0.24079685106E+04  0.24077108986E+04 0.  0.
        3    1    3    3  502    0  0.62087549682E+01  0.79404080233E+03  0.88732212241E+03  0.11907476238E+04  0.10100000352E+00 0.  1.
       -3    1    3    3    0  502 -0.62087549682E+01 -0.79404080233E+03 -0.92254394624E+03  0.12172208868E+04  0.10100000352E+00 0. -1.
</event>
<event>
 5   0  0.9182865E-05  0.2401167E+04  0.7818609E-02  0.8439067E-01
       -2   -1    0    0    0  501  0.00000000000E+00  0.00000000000E+00  0.11002829558E+04  0.11002829558E+04  0.25500000920E-02 0.  1.
        2   -1    0    0  501    0  0.00000000000E+00  0.00000000000E+00 -0.13100276384E+04  0.13100276384E+04  0.25500000920E-02 0. -1.
    10030    2    1    2    0    0  0.00000000000E+00  0.00000000000E+00 -0.20974468262E+03  0.24103105942E+04  0.24011672846E+04 0.  0.
        3    1    3    3  502    0  0.71856678337E+03 -0.13742070979E+03  0.85068652094E+03  0.11220027811E+04  0.10100000352E+00 0.  1.
       -3    1    3    3    0  502 -0.71856678337E+03  0.13742070979E+03 -0.10604312036E+04  0.12883078131E+04  0.10100000352E+00 0. -1.
</event>
<event>
 5   0  0.9182865E-05  0.2399788E+04  0.7818609E-02  0.8439583E-01
       -2   -1    0    0    0  501  0.00000000000E+00  0.00000000000E+00  0.95314137261E+03  0.95314137262E+03  0.25500000920E-02 0. -1.
        2   -1    0    0  501    0  0.00000000000E+00  0.00000000000E+00 -0.15105274209E+04  0.15105274210E+04  0.25500000920E-02 0.  1.
    10030    2    1    2    0    0  0.00000000000E+00  0.00000000000E+00 -0.55738604834E+03  0.24636687936E+04  0.23997884735E+04 0.  0.
        3    1    3    3  502    0  0.18800151689E+03 -0.12567041257E+03  0.93106713084E+03  0.95813549943E+03  0.10100000352E+00 0. -1.
       -3    1    3    3    0  502 -0.18800151689E+03  0.12567041257E+03 -0.14884531792E+04  0.15055332941E+04  0.10100000352E+00 0.  1.
</event>
<event>
 5   0  0.9491680E-05  0.2399517E+04  0.7818609E-02  0.8439685E-01
       -2   -1    0    0    0  501  0.00000000000E+00  0.00000000000E+00  0.11867789639E+04  0.11867789639E+04  0.25500000920E-02 0. -1.
        2   -1    0    0  501    0  0.00000000000E+00  0.00000000000E+00 -0.12128795660E+04  0.12128795660E+04  0.25500000920E-02 0.  1.
    10030    2    1    2    0    0  0.00000000000E+00  0.00000000000E+00 -0.26100602104E+02  0.23996585299E+04  0.23995165802E+04 0.  0.
        5    1    3    3  502    0 -0.11993696588E+04  0.29730411543E+02 -0.18187619471E+02  0.11998851425E+04  0.46999998093E+01 0.  1.
       -5    1    3    3    0  502  0.11993696588E+04 -0.29730411543E+02 -0.79129826331E+01  0.11997733874E+04  0.46999998093E+01 0. -1.
</event>
<event>
 5   0  0.4061631E-05  0.2438338E+04  0.7818609E-02  0.8425288E-01
        1   -1    0    0  501    0  0.00000000000E+00  0.00000000000E+00  0.15795006195E+04  0.15795006195E+04  0.50400001928E-02 0. -1.
       -1   -1    0    0    0  501  0.00000000000E+00  0.00000000000E+00 -0.94104017496E+03  0.94104017498E+03  0.50400001928E-02 0.  1.
    10030    2    1    2    0    0  0.00000000000E+00  0.00000000000E+00  0.63846044454E+03  0.25205407945E+04  0.24383384009E+04 0.  0.
        3    1    3    3  502    0  0.28495167598E+02 -0.11589551066E+04 -0.70829660334E+02  0.11614670743E+04  0.10100000352E+00 0.  1.
       -3    1    3    3    0  502 -0.28495167598E+02  0.11589551066E+04  0.70929010487E+03  0.13590737202E+04  0.10100000352E+00 0. -1.
</event>
<event>
 5   0  0.3934906E-05  0.2246616E+04  0.7818609E-02  0.8499272E-01
       -1   -1    0    0    0  501  0.00000000000E+00  0.00000000000E+00  0.76711681753E+03  0.76711681754E+03  0.50400001928E-02 0.  1.
        1   -1    0    0  501    0  0.00000000000E+00  0.00000000000E+00 -0.16448868859E+04  0.16448868860E+04  0.50400001928E-02 0. -1.
    10030    2    1    2    0    0  0.00000000000E+00  0.00000000000E+00 -0.87777006842E+03  0.24120037035E+04  0.22466155819E+04 0.  0.
        2    1    3    3  502    0  0.24851149044E+03  0.10706653771E+04 -0.19000486885E+03  0.11154300340E+04  0.25500000920E-02 0. -1.
       -2    1    3    3    0  502 -0.24851149044E+03 -0.10706653771E+04 -0.68776519957E+03  0.12965736695E+04  0.25500000920E-02 0.  1.
</event>
<event>
 5   0  0.4260395E-05  0.2316705E+04  0.7818609E-02  0.8471364E-01
        1   -1    0    0  501    0  0.00000000000E+00  0.00000000000E+00  0.80599943113E+03  0.80599943115E+03  0.50400001928E-02 0. -1.
       -1   -1    0    0    0  501  0.00000000000E+00  0.00000000000E+00 -0.16647412657E+04  0.16647412657E+04  0.50400001928E-02 0.  1.
    10030    2    1    2    0    0  0.00000000000E+00  0.00000000000E+00 -0.85874183453E+03  0.24707406968E+04  0.23167049990E+04 0.  0.
        4    1    3    3  502    0 -0.57077999841E+03 -0.33954311603E+03  0.58278264914E+03  0.88358166757E+03  0.12699999809E+01 0. -1.
       -4    1    3    3    0  502  0.57077999841E+03  0.33954311603E+03 -0.14415244837E+04  0.15871590293E+04  0.12699999809E+01 0.  1.
</event>
<event>
 5   0  0.9182865E-05  0.2208491E+04  0.7818609E-02  0.8514902E-01
       -2   -1    0    0    0  501  0.00000000000E+00  0.00000000000E+00  0.70868359641E+03  0.70868359641E+03  0.25500000920E-02 0.  1.
        2   -1    0    0  501    0  0.00000000000E+00  0.00000000000E+00 -0.17205960711E+04  0.17205960711E+04  0.25500000920E-02 0. -1.
    10030    2    1    2    0    0  0.00000000000E+00  0.00000000000E+00 -0.10119124747E+04  0.24292796675E+04  0.22084910791E+04 0.  0.
        3    1    3    3  502    0  0.87418445108E+03  0.12323587912E+01 -0.12480573197E+04  0.15237608266E+04  0.10100000352E+00 0. -1.
       -3    1    3    3    0  502 -0.87418445108E+03 -0.12323587912E+01  0.23614484500E+03  0.90551884091E+03  0.10100000352E+00 0.  1.
</event>
<event>
 5   0  0.9182865E-05  0.2613989E+04  0.7818609E-02  0.8363465E-01
       -2   -1    0    0    0  501  0.00000000000E+00  0.00000000000E+00  0.16609772035E+04  0.16609772035E+04  0.25500000920E-02 0. -1.
        2   -1    0    0  501    0  0.00000000000E+00  0.00000000000E+00 -0.10284512859E+04  0.10284512859E+04  0.25500000920E-02 0.  1.
    10030    2    1    2    0    0  0.00000000000E+00  0.00000000000E+00  0.63252591753E+03  0.26894284894E+04  0.26139886310E+04 0.  0.
        3    1    3    3  502    0  0.11314325554E+04  0.13779675984E+03 -0.34181072888E+03  0.11899420822E+04  0.10100000352E+00 0.  1.
       -3    1    3    3    0  502 -0.11314325554E+04 -0.13779675984E+03  0.97433664641E+03  0.14994864072E+04  0.10100000352E+00 0. -1.
</event>
<event>
 5   0  0.9144244E-05  0.2436297E+04  0.7818609E-02  0.8426038E-01
       -2   -1    0    0    0  501  0.00000000000E+00  0.00000000000E+00  0.88458759457E+03  0.88458759457E+03  0.25500000920E-02 0. -1.
        2   -1    0    0  501    0  0.00000000000E+00  0.00000000000E+00 -0.16774893368E+04  0.16774893368E+04  0.25500000920E-02 0.  1.
    10030    2    1    2    0    0  0.00000000000E+00  0.00000000000E+00 -0.79290174226E+03  0.25620769314E+04  0.24362974017E+04 0.  0.
        1    1    3    3  502    0  0.35004897184E+03 -0.75789766239E+03  0.53644577603E+03  0.99232918933E+03  0.50400001928E-02 0. -1.
       -1    1    3    3    0  502 -0.35004897184E+03  0.75789766239E+03 -0.13293475183E+04  0.15697477421E+04  0.50400001928E-02 0.  1.
</event>
<event>
 5   0  0.4208577E-05  0.2358211E+04  0.7818609E-02  0.8455317E-01
        1   -1    0    0  501    0  0.00000000000E+00  0.00000000000E+00  0.96999142688E+03  0.96999142689E+03  0.50400001928E-02 0.  1.
       -1   -1    0    0    0  501  0.00000000000E+00  0.00000000000E+00 -0.14333010255E+04  0.14333010255E+04  0.50400001928E-02 0. -1.
    10030    2    1    2    0    0  0.00000000000E+00  0.00000000000E+00 -0.46330959860E+03  0.24032924524E+04  0.23582109379E+04 0.  0.
        1    1    3    3  502    0 -0.79540548593E+00 -0.46199031186E+03 -0.13372223208E+04  0.14147788577E+04  0.50400001928E-02 0. -1.
       -1    1    3    3    0  502  0.79540548593E+00  0.46199031186E+03  0.87391272217E+03  0.98851359471E+03  0.50400001928E-02 0.  1.
</event>
<event>
 5   0  0.9750757E-05  0.2402770E+04  0.7818609E-02  0.8438467E-01
       -2   -1    0    0    0  501  0.00000000000E+00  0.00000000000E+00  0.11681684731E+04  0.11681684731E+04  0.25500000920E-02 0. -1.
        2   -1    0    0  501    0  0.00000000000E+00  0.00000000000E+00 -0.12355457044E+04  0.12355457044E+04  0.25500000920E-02 0.  1.
    10030    2    1    2    0    0  0.00000000000E+00  0.00000000000E+00 -0.67377231334E+02  0.24037141774E+04  0.24027696843E+04 0.  0.
        2    1    3    3  502    0 -0.94394888040E+03 -0.18324951775E+03 -0.75418395605E+03  0.12220529097E+04  0.25500000920E-02 0. -1.
       -2    1    3    3    0  502  0.94394888040E+03  0.18324951775E+03  0.68680672471E+03  0.11816612677E+04  0.25500000920E-02 0.  1.
</event>
<event>
 5   0  0.9182865E-05  0.2369464E+04  0.7818609E-02  0.8451025E-01
        2   -1    0    0  501    0  0.00000000000E+00  0.00000000000E+00  0.11698527898E+04  0.11698527899E+04  0.25500000920E-02 0. -1.
       -2   -1    0    0    0  501  0.00000000000E+00  0.00000000000E+00 -0.11998004752E+04  0.11998004753E+04  0.25500000920E-02 0.  1.
    10030    2    1    2    0    0  0.00000000000E+00  0.00000000000E+00 -0.29947685400E+02  0.23696532651E+04  0.23694640181E+04 0.  0.
        3    1    3    3  502    0  0.76433637981E+03 -0.29547813024E+03 -0.87065453124E+03  0.11956407278E+04  0.10100000352E+00 0.  1.
       -3    1    3    3    0  502 -0.76433637981E+03  0.29547813024E+03  0.84070684584E+03  0.11740125373E+04  0.10100000352E+00 0. -1.
</event>
<event>
 5   0  0.4208577E-05  0.2558535E+04  0.7818609E-02  0.8382424E-01
        1   -1    0    0  501    0  0.00000000000E+00  0.00000000000E+00  0.17513569937E+04  0.17513569938E+04  0.50400001928E-02 0.  1.
       -1   -1    0    0    0  501  0.00000000000E+00  0.00000000000E+00 -0.93443258163E+03  0.93443258165E+03  0.50400001928E-02 0. -1.
    10030    2    1    2    0    0  0.00000000000E+00  0.00000000000E+00  0.81692441212E+03  0.26857895754E+04  0.25585347659E+04 0.  0.
        1    1    3    3  502    0  0.52832537222E+01  0.12792551886E+04  0.41036533588E+03  0.13434736541E+04  0.50400001928E-02 0.  1.
       -1    1    3    3    0  502 -0.52832537222E+01 -0.12792551886E+04  0.40655907624E+03  0.13423159214E+04  0.50400001928E-02 0. -1.
</event>
<event>
 5   0  0.9519092E-05  0.2343495E+04  0.7818609E-02  0.8460966E-01
        2   -1    0    0  501    0  0.00000000000E+00  0.00000000000E+00  0.11010099160E+04  0.11010099160E+04  0.25500000920E-02 0. -1.
       -2   -1    0    0    0  501  0.00000000000E+00  0.00000000000E+00 -0.12470298001E+04  0.12470298001E+04  0.25500000920E-02 0.  1.
    10030    2    1    2    0    0  0.00000000000E+00  0.00000000000E+00 -0.14601988407E+03  0.23480397161E+04  0.23434949759E+04 0.  0.
        4    1    3    3  502    0 -0.79885063491E+02  0.32539606433E+03  0.10519882516E+04  0.11040584751E+04  0.12699999809E+01 0. -1.
       -4    1    3    3    0  502  0.79885063491E+02 -0.32539606433E+03 -0.11980081357E+04  0.12439812410E+04  0.12699999809E+01 0.  1.
</event>
<event>
 5   0  0.3234750E-05  0.2365362E+04  0.7818609E-02  0.8452587E-01
       -3   -1    0    0    0  501  0.00000000000E+00  0.00000000000E+00  0.17191648551E+04  0.17191648581E+04  0.10100000352E+00 0. -1.
        3   -1    0    0  501    0  0.00000000000E+00  0.00000000000E+00 -0.81361259054E+03  0.81361259681E+03  0.10100000352E+00 0.  1.
    10030    2    1    2    0    0  0.00000000000E+00  0.00000000000E+00  0.90555226459E+03  0.25327774549E+04  0.23653618607E+04 0.  0.
        4    1    3    3  502    0  0.10170389310E+04 -0.45706534727E+03  0.30591229485E+02  0.11154435688E+04  0.12699999809E+01 0.  1.
       -4    1    3    3    0  502 -0.10170389310E+04  0.45706534727E+03  0.87496103511E+03  0.14173338861E+04  0.12699999809E+01 0. -1.
</event>
<event>
 5   0  0.9491680E-05  0.1500786E+04  0.7818609E-02  0.8883931E-01
       -2   -1    0    0    0  501  0.00000000000E+00  0.00000000000E+00  0.29068769151E+04  0.29068769151E+04  0.25500000920E-02 0.  1.
        2   -1    0    0  501    0  0.00000000000E+00  0.00000000000E+00 -0.19370944558E+03  0.19370944560E+03  0.25500000920E-02 0. -1.
    10030    2    1    2    0    0  0.00000000000E+00  0.00000000000E+00  0.27131674695E+04  0.31005863607E+04  0.15007858150E+04 0.  0.
        5    1    3    3  502    0  0.21510276469E+03  0.69384328904E+03  0.96798418751E+03  0.12102492249E+04  0.46999998093E+01 0. -1.
       -5    1    3    3    0  502 -0.21510276469E+03 -0.69384328904E+03  0.17451832820E+04  0.18903371358E+04  0.46999998093E+01 0.  1.
</event>
<event>
 5   0  0.9519092E-05  0.2380551E+04  0.7818609E-02  0.8446821E-01
       -2   -1    0    0    0  501  0.00000000000E+00  0.00000000000E+00  0.13080828152E+04  0.13080828152E+04  0.25500000920E-02 0. -1.
        2   -1    0    0  501    0  0.00000000000E+00  0.00000000000E+00 -0.10830781899E+04  0.10830781899E+04  0.25500000920E-02 0.  1.
    10030    2    1    2    0    0  0.00000000000E+00  0.00000000000E+00  0.22500462530E+03  0.23911610051E+04  0.23805511696E+04 0.  0.
        4    1    3    3  502    0  0.16824770155E+03  0.96462857660E+03  0.79223007395E+03  0.12595418543E+04  0.12699999809E+01 0. -1.
       -4    1    3    3    0  502 -0.16824770155E+03 -0.96462857660E+03 -0.56722544865E+03  0.11316191508E+04  0.12699999809E+01 0.  1.
</event>
<event>
 5   0  0.9182865E-05  0.2387720E+04  0.7818609E-02  0.8444115E-01
        2   -1    0    0  501    0  0.00000000000E+00  0.00000000000E+00  0.96305746503E+03  0.96305746503E+03  0.25500000920E-02 0.  1.
       -2   -1    0    0    0  501  0.00000000000E+00  0.00000000000E+00 -0.14799762871E+04  0.14799762871E+04  0.25500000920E-02 0. -1.
    10030    2    1    2    0    0  0.00000000000E+00  0.00000000000E+00 -0.51691882204E+03  0.24430337521E+04  0.23877204286E+04 0.  0.
        3    1    3    3  502    0 -0.23737494221E+03 -0.80274609981E+03 -0.11293856645E+04  0.14057952032E+04  0.10100000352E+00 0. -1.
       -3    1    3    3    0  502  0.23737494221E+03  0.80274609981E+03  0.61246684248E+03  0.10372385489E+04  0.10100000352E+00 0.  1.
</event>
<event>
 5   0  0.9182865E-05  0.2523678E+04  0.7818609E-02  0.8394598E-01
       -2   -1    0    0    0  501  0.00000000000E+00  0.00000000000E+00  0.12237724765E+04  0.12237724765E+04  0.25500000920E-02 0. -1.
        2   -1    0    0  501    0  0.00000000000E+00  0.00000000000E+00 -0.13010898600E+04  0.13010898600E+04  0.25500000920E-02 0.  1.
    10030    2    1    2    0    0  0.00000000000E+00  0.00000000000E+00 -0.77317383520E+02  0.25248623365E+04  0.25236782363E+04 0.  0.
        3    1    3    3  502    0 -0.86037953030E+03 -0.67836721590E+03  0.58757663559E+03  0.12432543298E+04  0.10100000352E+00 0. -1.
       -3    1    3    3    0  502  0.86037953030E+03  0.67836721590E+03 -0.66489401911E+03  0.12816080066E+04  0.10100000352E+00 0.  1.
</event>
<event>
 5   0  0.9519092E-05  0.2367407E+04  0.7818609E-02  0.8451808E-01
       -2   -1    0    0    0  501  0.00000000000E+00  0.00000000000E+00  0.80045707769E+03  0.80045707769E+03  0.25500000920E-02 0. -1.
        2   -1    0    0  501    0  0.00000000000E+00  0.00000000000E+00 -0.17504421101E+04  0.17504421101E+04  0.25500000920E-02 0.  1.
    10030    2    1    2    0    0  0.00000000000E+00  0.00000000000E+00 -0.94998503245E+03  0.25508991878E+04  0.23674068312E+04 0.  0.
        4    1    3    3  502    0  0.11415141985E+04  0.69709730460E+02 -0.80400849737E+03  0.13979790373E+04  0.12699999809E+01 0.  1.
       -4    1    3    3    0  502 -0.11415141985E+04 -0.69709730460E+02 -0.14597653508E+03  0.11529201506E+04  0.12699999809E+01 0. -1.
</event>
<event>
 5   0  0.9182865E-05  0.2352379E+04  0.7818609E-02  0.8457551E-01
        2   -1    0    0  501    0  0.00000000000E+00  0.00000000000E+00  0.16204413119E+04  0.16204413119E+04  0.25500000920E-02 0. -1.
       -2   -1    0    0    0  501  0.00000000000E+00  0.00000000000E+00 -0.85373113679E+03  0.85373113680E+03  0.25500000920E-02 0.  1.
    10030    2    1    2    0    0  0.00000000000E+00  0.00000000000E+00  0.76671017512E+03  0.24741724487E+04  0.23523785438E+04 0.  0.
        3    1    3    3  502    0  0.80365190650E+03  0.80026403865E+03  0.55541544720E+02  0.11355015596E+04  0.10100000352E+00 0. -1.
       -3    1    3    3    0  502 -0.80365190650E+03 -0.80026403865E+03  0.71116863040E+03  0.13386708891E+04  0.10100000352E+00 0.  1.
</event>
<event>
 5   0  0.4018942E-05  0.2349479E+04  0.7818609E-02  0.8458664E-01
       -1   -1    0    0    0  501  0.00000000000E+00  0.00000000000E+00  0.10127577402E+04  0.10127577402E+04  0.50400001928E-02 0. -1.
        1   -1    0    0  501    0  0.00000000000E+00  0.00000000000E+00 -0.13626287731E+04  0.13626287731E+04  0.50400001928E-02 0.  1.
    10030    2    1    2    0    0  0.00000000000E+00  0.00000000000E+00 -0.34987103295E+03  0.23753865133E+04  0.23494789525E+04 0.  0.
        5    1    3    3  502    0 -0.36768560921E+03  0.78829308017E+03 -0.97319366533E+03  0.13052688182E+04  0.46999998093E+01 0.  1.
       -5    1    3    3    0  502  0.36768560921E+03 -0.78829308017E+03  0.62332263238E+03  0.10701176952E+04  0.46999998093E+01 0. -1.
</event>
<event>
 5   0  0.9144244E-05  0.2407817E+04  0.7818609E-02  0.8436583E-01
        2   -1    0    0  501    0  0.00000000000E+00  0.00000000000E+00  0.75908016000E+03  0.75908016001E+03  0.25500000920E-02 0.  1.
       -2   -1    0    0    0  501  0.00000000000E+00  0.00000000000E+00 -0.19094111037E+04  0.19094111037E+04  0.25500000920E-02 0. -1.
    10030    2    1    2    0    0  0.00000000000E+00  0.00000000000E+00 -0.11503309437E+04  0.26684912637E+04  0.24078173404E+04 0.  0.
        1    1    3    3  502    0  0.10967328273E+03 -0.23376861072E+02  0.75327971097E+03  0.76158061264E+03  0.50400001928E-02 0.  1.
       -1    1    3    3    0  502 -0.10967328273E+03  0.23376861072E+02 -0.19036106547E+04  0.19069106511E+04  0.50400001928E-02 0. -1.
</event>
<event>
 5   0  0.4061631E-05  0.2399928E+04  0.7818609E-02  0.8439530E-01
       -1   -1    0    0    0  501  0.00000000000E+00  0.00000000000E+00  0.80706550923E+03  0.80706550924E+03  0.50400001928E-02 0. -1.
        1   -1    0    0  501    0  0.00000000000E+00  0.00000000000E+00 -0.17841354380E+04  0.17841354380E+04  0.50400001928E-02 0.  1.
    10030    2    1    2    0    0  0.00000000000E+00  0.00000000000E+00 -0.97706992880E+03  0.25912009473E+04  0.23999284788E+04 0.  0.
        3    1    3    3  502    0  0.60268404506E+03  0.10376276766E+04 -0.48436554806E+03  0.12940283025E+04  0.10100000352E+00 0. -1.
       -3    1    3    3    0  502 -0.60268404506E+03 -0.10376276766E+04 -0.49270438073E+03  0.12971726448E+04  0.10100000352E+00 0.  1.
</event>
<event>
 5   0  0.9519092E-05  0.1424855E+04  0.7818609E-02  0.8936022E-01
        2   -1    0    0  501    0  0.00000000000E+00  0.00000000000E+00  0.56125198656E+03  0.56125198657E+03  0.25500000920E-02 0. -1.
       -2   -1    0    0    0  501  0.00000000000E+00  0.00000000000E+00 -0.90432215714E+03  0.90432215714E+03  0.25500000920E-02 0.  1.
    10030    2    1    2    0    0  0.00000000000E+00  0.00000000000E+00 -0.34307017058E+03  0.14655741437E+04  0.14248545290E+04 0.  0.
        4    1    3    3  502    0  0.62603375577E+02 -0.41149337970E+03 -0.76624983520E+03  0.87200138017E+03  0.12699999809E+01 0.  1.
       -4    1    3    3    0  502 -0.62603375577E+02  0.41149337970E+03  0.42317966462E+03  0.59357276354E+03  0.12699999809E+01 0. -1.
</event>
<event>
 5   0  0.9144244E-05  0.2394665E+04  0.7818609E-02  0.8441503E-01
        2   -1    0    0  501    0  0.00000000000E+00  0.00000000000E+00  0.10495543979E+04  0.10495543980E+04  0.25500000920E-02 0.  1.
       -2   -1    0    0    0  501  0.00000000000E+00  0.00000000000E+00 -0.13659183378E+04  0.13659183378E+04  0.25500000920E-02 0. -1.
    10030    2    1    2    0    0  0.00000000000E+00  0.00000000000E+00 -0.31636393985E+03  0.24154727357E+04  0.23946654035E+04 0.  0.
        1    1    3    3  502    0  0.72189847641E+03  0.25413123765E+03  0.77062593885E+03  0.10860867524E+04  0.50400001928E-02 0.  1.
       -1    1    3    3    0  502 -0.72189847641E+03 -0.25413123765E+03 -0.10869898787E+04  0.13293859833E+04  0.50400001928E-02 0. -1.
</event>
<event>
 5   0  0.9519092E-05  0.1295086E+04  0.7818609E-02  0.9033471E-01
       -2   -1    0    0    0  501  0.00000000000E+00  0.00000000000E+00  0.16998445232E+03  0.16998445234E+03  0.25500000920E-02 0.  1.
        2   -1    0    0  501    0  0.00000000000E+00  0.00000000000E+00 -0.24667653814E+04  0.24667653814E+04  0.25500000920E-02 0. -1.
    10030    2    1    2    0    0  0.00000000000E+00  0.00000000000E+00 -0.22967809290E+04  0.26367498337E+04  0.12950857306E+04 0.  0.
        4    1    3    3  502    0  0.41901320185E+03 -0.38995821053E+03 -0.17648231179E+04  0.18553279278E+04  0.12699999809E+01 0. -1.
       -4    1    3    3    0  502 -0.41901320185E+03  0.38995821053E+03 -0.53195781115E+03  0.78142190591E+03  0.12699999809E+01 0.  1.
</event>
<event>
 5   0  0.9144244E-05  0.2279947E+04  0.7818609E-02  0.8485870E-01
       -2   -1    0    0    0  501  0.00000000000E+00  0.00000000000E+00  0.60973581024E+03  0.60973581024E+03  0.25500000920E-02 0. -1.
        2   -1    0    0  501    0  0.00000000000E+00  0.00000000000E+00 -0.21313157480E+04  0.21313157480E+04  0.25500000920E-02 0.  1.
    10030    2    1    2    0    0  0.00000000000E+00  0.00000000000E+00 -0.15215799378E+04  0.27410515583E+04  0.22799469595E+04 0.  0.
        1    1    3    3  502    0  0.61176740111E+03  0.16939453678E+03  0.37759291695E+03  0.73860021196E+03  0.50400001928E-02 0. -1.
       -1    1    3    3    0  502 -0.61176740111E+03 -0.16939453678E+03 -0.18991728547E+04  0.20024513463E+04  0.50400001928E-02 0.  1.
</event>
<event>
 5   0  0.4260395E-05  0.2475869E+04  0.7818609E-02  0.8411633E-01
        1   -1    0    0  501    0  0.00000000000E+00  0.00000000000E+00  0.16086566150E+04  0.16086566150E+04  0.50400001928E-02 0.  1.
       -1   -1    0    0    0  501  0.00000000000E+00  0.00000000000E+00 -0.95264689647E+03  0.95264689648E+03  0.50400001928E-02 0. -1.
    10030    2    1    2    0    0  0.00000000000E+00  0.00000000000E+00  0.65600971852E+03  0.25613035115E+04  0.24758689237E+04 0.  0.
        4    1    3    3  502    0 -0.12131604756E+03  0.63554184740E+03 -0.76380390068E+03  0.10010140033E+04  0.12699999809E+01 0. -1.
       -4    1    3    3    0  502  0.12131604756E+03 -0.63554184740E+03  0.14198136192E+04  0.15602895082E+04  0.12699999809E+01 0.  1.
</event>
<event>
 5   0  0.4018942E-05  0.2379462E+04  0.7818609E-02  0.8447233E-01
        1   -1    0    0  501    0  0.00000000000E+00  0.00000000000E+00  0.16426203440E+04  0.16426203440E+04  0.50400001928E-02 0. -1.
       -1   -1    0    0    0  501  0.00000000000E+00  0.00000000000E+00 -0.86170820252E+03  0.86170820253E+03  0.50400001928E-02 0.  1.
    10030    2    1    2    0    0  0.00000000000E+00  0.00000000000E+00  0.78091214152E+03  0.25043285466E+04  0.23794616400E+04 0.  0.
        5    1    3    3  502    0  0.50352468849E+03 -0.17102308932E+03 -0.72965403347E+03  0.90288598813E+03  0.46999998093E+01 0.  1.
       -5    1    3    3    0  502 -0.50352468849E+03  0.17102308932E+03  0.15105661750E+04  0.16014425584E+04  0.46999998093E+01 0. -1.
</event>
<event>
 5   0  0.9519092E-05  0.2354867E+04  0.7818609E-02  0.8456596E-01
       -2   -1    0    0    0  501  0.00000000000E+00  0.00000000000E+00  0.98150026884E+03  0.98150026884E+03  0.25500000920E-02 0.  1.
        2   -1    0    0  501    0  0.00000000000E+00  0.00000000000E+00 -0.14124805160E+04  0.14124805160E+04  0.25500000920E-02 0. -1.
    10030    2    1    2    0    0  0.00000000000E+00  0.00000000000E+00 -0.43098024716E+03  0.23939807848E+04  0.23548673051E+04 0.  0.
        4    1    3    3  502    0 -0.91595637968E+03  0.59914679303E+03  0.22576462837E+03  0.11175527949E+04  0.12699999809E+01 0.  1.
       -4    1    3    3    0  502  0.91595637968E+03 -0.59914679303E+03 -0.65674487553E+03  0.12764279899E+04  0.12699999809E+01 0. -1.
</event>
<event>
 5   0  0.9144244E-05  0.2267257E+04  0.7818609E-02  0.8490944E-01
        2   -1    0    0  501    0  0.00000000000E+00  0.00000000000E+00  0.72663420981E+03  0.72663420982E+03  0.25500000920E-02 0. -1.
       -2   -1    0    0    0  501  0.00000000000E+00  0.00000000000E+00 -0.17685839050E+04  0.17685839050E+04  0.25500000920E-02 0.  1.
    10030    2    1    2    0    0  0.00000000000E+00  0.00000000000E+00 -0.10419496952E+04  0.24952181149E+04  0.22672569932E+04 0.  0.
        1    1    3    3  502    0  0.94586818806E+03  0.39185588362E+02 -0.12073050606E+04  0.15342058692E+04  0.50400001928E-02 0.  1.
       -1    1    3    3    0  502 -0.94586818806E+03 -0.39185588362E+02  0.16535536538E+03  0.96101224572E+03  0.50400001928E-02 0. -1.
</event>
<event>
 5   0  0.9519092E-05  0.2307054E+04  0.7818609E-02  0.8475145E-01
       -2   -1    0    0    0  501  0.00000000000E+00  0.00000000000E+00  0.15834996305E+04  0.15834996305E+04  0.25500000920E-02 0. -1.
        2   -1    0    0  501    0  0.00000000000E+00  0.00000000000E+00 -0.84030615531E+03  0.84030615531E+03  0.25500000920E-02 0.  1.
    10030    2    1    2    0    0  0.00000000000E+00  0.00000000000E+00  0.74319347520E+03  0.24238057858E+04  0.23070539538E+04 0.  0.
        4    1    3    3  502    0  0.72499238286E+03 -0.25896748200E+03  0.12741066774E+04  0.14886327788E+04  0.12699999809E+01 0. -1.
       -4    1    3    3    0  502 -0.72499238286E+03  0.25896748200E+03 -0.53091320215E+03  0.93517300702E+03  0.12699999809E+01 0.  1.
</event>
<event>
 5   0  0.9491680E-05  0.2402624E+04  0.7818609E-02  0.8438522E-01
        2   -1    0    0  501    0  0.00000000000E+00  0.00000000000E+00  0.16525418173E+04  0.16525418173E+04  0.25500000920E-02 0.  1.
       -2   -1    0    0    0  501  0.00000000000E+00  0.00000000000E+00 -0.87329123235E+03  0.87329123235E+03  0.25500000920E-02 0. -1.
    10030    2    1    2    0    0  0.00000000000E+00  0.00000000000E+00  0.77925058494E+03  0.25258330496E+04  0.24026237992E+04 0.  0.
        5    1    3    3  502    0  0.44849064101E+03  0.98077522862E+03  0.94597483114E+03  0.14345572053E+04  0.46999998093E+01 0.  1.
       -5    1    3    3    0  502 -0.44849064101E+03 -0.98077522862E+03 -0.16672424621E+03  0.10912758443E+04  0.46999998093E+01 0. -1.
</event>
<event>
 5   0  0.9750757E-05  0.2321736E+04  0.7818609E-02  0.8469400E-01
        2   -1    0    0  501    0  0.00000000000E+00  0.00000000000E+00  0.89362575853E+03  0.89362575853E+03  0.25500000920E-02 0. -1.
       -2   -1    0    0    0  501  0.00000000000E+00  0.00000000000E+00 -0.15080302019E+04  0.15080302019E+04  0.25500000920E-02 0.  1.
    10030    2    1    2    0    0  0.00000000000E+00  0.00000000000E+00 -0.61440444337E+03  0.24016559604E+04  0.23217361030E+04 0.  0.
        2    1    3    3  502    0 -0.96869976278E+02  0.42873970662E+03  0.80421868967E+03  0.91649835197E+03  0.25500000920E-02 0. -1.
       -2    1    3    3    0  502  0.96869976278E+02 -0.42873970662E+03 -0.14186231330E+04  0.14851576085E+04  0.25500000920E-02 0.  1.
</event>
<event>
 5   0  0.4061631E-05  0.2397378E+04  0.7818609E-02  0.8440486E-01
        1   -1    0    0  501    0  0.00000000000E+00  0.00000000000E+00  0.19070084028E+04  0.19070084028E+04  0.50400001928E-02 0.  1.
       -1   -1    0    0    0  501  0.00000000000E+00  0.00000000000E+00 -0.75346023660E+03  0.75346023662E+03  0.50400001928E-02 0. -1.
    10030    2    1    2    0    0  0.00000000000E+00  0.00000000000E+00  0.11535481662E+04  0.26604686394E+04  0.23973777361E+04 0.  0.
        3    1    3    3  502    0  0.23326371211E+03 -0.92139612379E+03 -0.23377175276E+03  0.97879110075E+03  0.10100000352E+00 0. -1.
       -3    1    3    3    0  502 -0.23326371211E+03  0.92139612379E+03  0.13873199190E+04  0.16816775387E+04  0.10100000352E+00 0.  1.
</event>
<event>
 5   0  0.9144244E-05  0.2266593E+04  0.7818609E-02  0.8491211E-01
        2   -1    0    0  501    0  0.00000000000E+00  0.00000000000E+00  0.24721745857E+04  0.24721745857E+04  0.25500000920E-02 0. -1.
       -2   -1    0    0    0  501  0.00000000000E+00  0.00000000000E+00 -0.51952689870E+03  0.51952689871E+03  0.25500000920E-02 0.  1.
    10030    2    1    2    0    0  0.00000000000E+00  0.00000000000E+00  0.19526476870E+04  0.29917014844E+04  0.22665932106E+04 0.  0.
        1    1    3    3  502    0 -0.40536277065E+03  0.93731534747E+03  0.16249391578E+04  0.19191941807E+04  0.50400001928E-02 0. -1.
       -1    1    3    3    0  502  0.40536277065E+03 -0.93731534747E+03  0.32770852914E+03  0.10725073037E+04  0.50400001928E-02 0.  1.
</event>
<event>
 5   0  0.3934906E-05  0.2411413E+04  0.7818609E-02  0.8435243E-01
        1   -1    0    0  501    0  0.00000000000E+00  0.00000000000E+00  0.18244482619E+04  0.18244482619E+04  0.50400001928E-02 0. -1.
       -1   -1    0    0    0  501  0.00000000000E+00  0.00000000000E+00 -0.79680413329E+03  0.79680413330E+03  0.50400001928E-02 0.  1.
    10030    2    1    2    0    0  0.00000000000E+00  0.00000000000E+00  0.10276441286E+04  0.26212523952E+04  0.24114127943E+04 0.  0.
        2    1    3    3  502    0 -0.96498444959E+03  0.72118982003E+03  0.46036798675E+03  0.12896698910E+04  0.25500000920E-02 0.  1.
       -2    1    3    3    0  502  0.96498444959E+03 -0.72118982003E+03  0.56727614187E+03  0.13315825042E+04  0.25500000920E-02 0. -1.
</event>
<event>
 5   0  0.4260395E-05  0.2369025E+04  0.7818609E-02  0.8451192E-01
        1   -1    0    0  501    0  0.00000000000E+00  0.00000000000E+00  0.93000178772E+03  0.93000178774E+03  0.50400001928E-02 0.  1.
       -1   -1    0    0    0  501  0.00000000000E+00  0.00000000000E+00 -0.15086743270E+04  0.15086743270E+04  0.50400001928E-02 0. -1.
    10030    2    1    2    0    0  0.00000000000E+00  0.00000000000E+00 -0.57867253932E+03  0.24386761148E+04  0.23690249651E+04 0.  0.
        4    1    3    3  502    0 -0.59703787825E+03 -0.65866165463E+02  0.76159854352E+03  0.96996213030E+03  0.12699999809E+01 0.  1.
       -4    1    3    3    0  502  0.59703787825E+03  0.65866165463E+02 -0.13402710828E+04  0.14687139845E+04  0.12699999809E+01 0. -1.
</event>
<event>
 5   0  0.9182865E-05  0.2206621E+04  0.7818609E-02  0.8515677E-01
        2   -1    0    0  501    0  0.00000000000E+00  0.00000000000E+00  0.12428207891E+04  0.12428207891E+04  0.25500000920E-02 0.  1.
       -2   -1    0    0    0  501  0.00000000000E+00  0.00000000000E+00 -0.97946057879E+03  0.97946057879E+03  0.25500000920E-02 0. -1.
    10030    2    1    2    0    0  0.00000000000E+00  0.00000000000E+00  0.26336021035E+03  0.22222813679E+04  0.22066209185E+04 0.  0.
        3    1    3    3  502    0  0.39830089763E+03 -0.41048268543E+03 -0.81849569632E+03  0.99853635647E+03  0.10100000352E+00 0. -1.
       -3    1    3    3    0  502 -0.39830089763E+03  0.41048268543E+03  0.10818559067E+04  0.12237450115E+04  0.10100000352E+00 0.  1.
</event>
<event>
 5   0  0.9491680E-05  0.2400375E+04  0.7818609E-02  0.8439363E-01
       -2   -1    0    0    0  501  0.00000000000E+00  0.00000000000E+00  0.77849736594E+03  0.77849736594E+03  0.25500000920E-02 0.  1.
        2   -1    0    0  501    0  0.00000000000E+00  0.00000000000E+00 -0.18502959074E+04  0.18502959074E+04  0.25500000920E-02 0. -1.
    10030    2    1    2    0    0  0.00000000000E+00  0.00000000000E+00 -0.10717985415E+04  0.26287932733E+04  0.24003753791E+04 0.  0.
        5    1    3    3  502    0 -0.94947189295E+03 -0.56880166112E+03 -0.10441713867E+04  0.15216268202E+04  0.46999998093E+01 0. -1.
       -5    1    3    3    0  502  0.94947189295E+03  0.56880166112E+03 -0.27627154713E+02  0.11071664531E+04  0.46999998093E+01 0.  1.
</event>
<event>
 5   0  0.9491680E-05  0.2416355E+04  0.7818609E-02  0.8433406E-01
        2   -1    0    0  501    0  0.00000000000E+00  0.00000000000E+00  0.18906173073E+04  0.18906173073E+04  0.25500000920E-02 0.  1.
       -2   -1    0    0    0  501  0.00000000000E+00  0.00000000000E+00 -0.77207182613E+03  0.77207182613E+03  0.25500000920E-02 0. -1.
    10030    2    1    2    0    0  0.00000000000E+00  0.00000000000E+00  0.11185454812E+04  0.26626891334E+04  0.24163545741E+04 0.  0.
        5    1    3    3  502    0 -0.72373966330E+03  0.15582096848E+03  0.16113795122E+04  0.17733147766E+04  0.46999998093E+01 0.  1.
       -5    1    3    3    0  502  0.72373966330E+03 -0.15582096848E+03 -0.49283403106E+03  0.88937435685E+03  0.46999998093E+01 0. -1.
</event>
<event>
 5   0  0.9144244E-05  0.2166517E+04  0.7818609E-02  0.8532495E-01
       -2   -1    0    0    0  501  0.00000000000E+00  0.00000000000E+00  0.17453156565E+04  0.17453156565E+04  0.25500000920E-02 0. -1.
        2   -1    0    0  501    0  0.00000000000E+00  0.00000000000E+00 -0.67234181668E+03  0.67234181668E+03  0.25500000920E-02 0.  1.
    10030    2    1    2    0    0  0.00000000000E+00  0.00000000000E+00  0.10729738398E+04  0.24176574732E+04  0.21665167428E+04 0.  0.
        1    1    3    3  502    0 -0.91379104722E+03 -0.10345388825E+03  0.11753269022E+04  0.14923505326E+04  0.50400001928E-02 0.  1.
       -1    1    3    3    0  502  0.91379104722E+03  0.10345388825E+03 -0.10235306238E+03  0.92530694063E+03  0.50400001928E-02 0. -1.
</event>
<event>
 5   0  0.4260395E-05  0.1343671E+04  0.7818609E-02  0.8995633E-01
       -1   -1    0    0    0  501  0.00000000000E+00  0.00000000000E+00  0.19003346913E+04  0.19003346913E+04  0.50400001928E-02 0.  1.
        1   -1    0    0  501    0  0.00000000000E+00  0.00000000000E+00 -0.23751750242E+03  0.23751750248E+03  0.50400001928E-02 0. -1.
    10030    2    1    2    0    0  0.00000000000E+00  0.00000000000E+00  0.16628171888E+04  0.21378521938E+04  0.13436707181E+04 0.  0.
        4    1    3    3  502    0  0.56273752344E+02 -0.43977339672E+03  0.28290857056E+02  0.44426271637E+03  0.12699999809E+01 0. -1.
       -4    1    3    3    0  502 -0.56273752344E+02  0.43977339672E+03  0.16345263318E+04  0.16935894774E+04  0.12699999809E+01 0.  1.
</event>
<event>
 5   0  0.3234750E-05  0.2358170E+04  0.7818609E-02  0.8455332E-01
        3   -1    0    0  501    0  0.00000000000E+00  0.00000000000E+00  0.19777585915E+04  0.19777585941E+04  0.10100000352E+00 0.  1.
       -3   -1    0    0    0  501  0.00000000000E+00  0.00000000000E+00 -0.70293785313E+03  0.70293786038E+03  0.10100000352E+00 0. -1.
    10030    2    1    2    0    0  0.00000000000E+00  0.00000000000E+00  0.12748207384E+04  0.26806964545E+04  0.23581699612E+04 0.  0.
        4    1    3    3  502    0  0.58618749246E+03 -0.10216944256E+04  0.69718006764E+03  0.13687720538E+04  0.12699999809E+01 0.  1.
       -4    1    3    3    0  502 -0.58618749246E+03  0.10216944256E+04  0.57764067076E+03  0.13119244007E+04  0.12699999809E+01 0. -1.
</event>
<event>
 5   0  0.9491680E-05  0.2424120E+04  0.7818609E-02  0.8430528E-01
       -2   -1    0    0    0  501  0.00000000000E+00  0.00000000000E+00  0.20584964496E+04  0.20584964496E+04  0.25500000920E-02 0.  1.
        2   -1    0    0  501    0  0.00000000000E+00  0.00000000000E+00 -0.71367108271E+03  0.71367108271E+03  0.25500000920E-02 0. -1.
    10030    2    1    2    0    0  0.00000000000E+00  0.00000000000E+00  0.13448253669E+04  0.27721675324E+04  0.24241199558E+04 0.  0.
        5    1    3    3  502    0  0.11968643719E+04  0.89529364805E+02  0.86569905890E+03  0.14798502567E+04  0.46999998093E+01 0.  1.
       -5    1    3    3    0  502 -0.11968643719E+04 -0.89529364805E+02  0.47912630804E+03  0.12923172756E+04  0.46999998093E+01 0. -1.
</event>
<event>
 5   0  0.9750757E-05  0.2420620E+04  0.7818609E-02  0.8431824E-01
        2   -1    0    0  501    0  0.00000000000E+00  0.00000000000E+00  0.11946553952E+04  0.11946553952E+04  0.25500000920E-02 0.  1.
       -2   -1    0    0    0  501  0.00000000000E+00  0.00000000000E+00 -0.12261693977E+04  0.12261693977E+04  0.25500000920E-02 0. -1.
    10030    2    1    2    0    0  0.00000000000E+00  0.00000000000E+00 -0.31514002425E+02  0.24208247929E+04  0.24206196615E+04 0.  0.
        2    1    3    3  502    0  0.42043921734E+03  0.11338868758E+04 -0.64559740115E+02  0.12110477046E+04  0.25500000920E-02 0. -1.
       -2    1    3    3    0  502 -0.42043921734E+03 -0.11338868758E+04  0.33045737690E+02  0.12097770883E+04  0.25500000920E-02 0.  1.
</event>
<event>
 5   0  0.9182865E-05  0.2396999E+04  0.7818609E-02  0.8440628E-01
       -2   -1    0    0    0  501  0.00000000000E+00  0.00000000000E+00  0.98705531137E+03  0.98705531137E+03  0.25500000920E-02 0. -1.
        2   -1    0    0  501    0  0.00000000000E+00  0.00000000000E+00 -0.14552392131E+04  0.14552392131E+04  0.25500000920E-02 0.  1.
    10030    2    1    2    0    0  0.00000000000E+00  0.00000000000E+00 -0.46818390176E+03  0.24422945245E+04  0.23969994532E+04 0.  0.
        3    1    3    3  502    0 -0.14050319103E+03  0.93077045250E+03 -0.98995033235E+03  0.13660440888E+04  0.10100000352E+00 0.  1.
       -3    1    3    3    0  502  0.14050319103E+03 -0.93077045250E+03  0.52176643060E+03  0.10762504356E+04  0.10100000352E+00 0. -1.
</event>
<event>
 5   0  0.4208577E-05  0.2192689E+04  0.7818609E-02  0.8521477E-01
       -1   -1    0    0    0  501  0.00000000000E+00  0.00000000000E+00  0.13055057278E+04  0.13055057278E+04  0.50400001928E-02 0. -1.
        1   -1    0    0  501    0  0.00000000000E+00  0.00000000000E+00 -0.92069362389E+03  0.92069362390E+03  0.50400001928E-02 0.  1.
    10030    2    1    2    0    0  0.00000000000E+00  0.00000000000E+00  0.38481210391E+03  0.22261993517E+04  0.21926885776E+04 0.  0.
        1    1    3    3  502    0  0.17133069200E+03  0.28921674508E+03  0.12518917752E+04  0.12962382299E+04  0.50400001928E-02 0. -1.
       -1    1    3    3    0  502 -0.17133069200E+03 -0.28921674508E+03 -0.86707967134E+03  0.92996112183E+03  0.50400001928E-02 0.  1.
</event>
<event>
 5   0  0.9182865E-05  0.2524346E+04  0.7818609E-02  0.8394363E-01
        2   -1    0    0  501    0  0.00000000000E+00  0.00000000000E+00  0.21873706045E+04  0.21873706045E+04  0.25500000920E-02 0.  1.
       -2   -1    0    0    0  501  0.00000000000E+00  0.00000000000E+00 -0.72830837721E+03  0.72830837721E+03  0.25500000920E-02 0. -1.
    10030    2    1    2    0    0  0.00000000000E+00  0.00000000000E+00  0.14590622273E+04  0.29156789817E+04  0.25243457254E+04 0.  0.
        3    1    3    3  502    0  0.90087526741E+03  0.24788036468E+03  0.17096415981E+04  0.19483057580E+04  0.10100000352E+00 0.  1.
       -3    1    3    3    0  502 -0.90087526741E+03 -0.24788036468E+03 -0.25057937080E+03  0.96737322368E+03  0.10100000352E+00 0. -1.
</event>
<event>
 5   0  0.9491680E-05  0.2454925E+04  0.7818609E-02  0.8419222E-01
        2   -1    0    0  501    0  0.00000000000E+00  0.00000000000E+00  0.18397689018E+04  0.18397689018E+04  0.25500000920E-02 0.  1.
       -2   -1    0    0    0  501  0.00000000000E+00  0.00000000000E+00 -0.81894241329E+03  0.81894241330E+03  0.25500000920E-02 0. -1.
    10030    2    1    2    0    0  0.00000000000E+00  0.00000000000E+00  0.10208264885E+04  0.26587113151E+04  0.24549254851E+04 0.  0.
        5    1    3    3  502    0  0.31933573592E+03  0.30311800941E+03  0.17512937993E+04  0.18057984110E+04  0.46999998093E+01 0.  1.
       -5    1    3    3    0  502 -0.31933573592E+03 -0.30311800941E+03 -0.73046731076E+03  0.85291290409E+03  0.46999998093E+01 0. -1.
</event>
<event>
 5   0  0.4208577E-05  0.2364384E+04  0.7818609E-02  0.8452959E-01
        1   -1    0    0  501    0  0.00000000000E+00  0.00000000000E+00  0.16739973050E+04  0.16739973050E+04  0.50400001928E-02 0. -1.
       -1   -1    0    0    0  501  0.00000000000E+00  0.00000000000E+00 -0.83487432546E+03  0.83487432547E+03  0.50400001928E-02 0.  1.
    10030    2    1    2    0    0  0.00000000000E+00  0.00000000000E+00  0.83912297954E+03  0.25088716305E+04  0.23643835314E+04 0.  0.
        1    1    3    3  502    0  0.62965058864E+03 -0.89102366542E+03  0.90256407265E+03  0.14159819707E+04  0.50400001928E-02 0.  1.
       -1    1    3    3    0  502 -0.62965058864E+03  0.89102366542E+03 -0.63441093107E+02  0.10928896598E+04  0.50400001928E-02 0. -1.
</event>
<event>
 5   0  0.3934906E-05  0.2212830E+04  0.7818609E-02  0.8513107E-01
       -1   -1    0    0    0  501  0.00000000000E+00  0.00000000000E+00  0.94569588421E+03  0.94569588422E+03  0.50400001928E-02 0. -1.
        1   -1    0    0  501    0  0.00000000000E+00  0.00000000000E+00 -0.12944480737E+04  0.12944480737E+04  0.50400001928E-02 0.  1.
    10030    2    1    2    0    0  0.00000000000E+00  0.00000000000E+00 -0.34875218948E+03  0.22401439579E+04  0.22128300573E+04 0.  0.
        2    1    3    3  502    0  0.18053638968E+03 -0.10892795268E+04 -0.24618072288E+03  0.11312507343E+04  0.25500000920E-02 0. -1.
       -2    1    3    3    0  502 -0.18053638968E+03  0.10892795268E+04 -0.10257146660E+03  0.11088932236E+04  0.25500000920E-02 0.  1.
</event>
<event>
 5   0  0.9519092E-05  0.2484414E+04  0.7818609E-02  0.8408559E-01
        2   -1    0    0  501    0  0.00000000000E+00  0.00000000000E+00  0.55772129435E+03  0.55772129436E+03  0.25500000920E-02 0. -1.
       -2   -1    0    0    0  501  0.00000000000E+00  0.00000000000E+00 -0.27667555557E+04  0.27667555557E+04  0.25500000920E-02 0.  1.
    10030    2    1    2    0    0  0.00000000000E+00  0.00000000000E+00 -0.22090342614E+04  0.33244768501E+04  0.24844142084E+04 0.  0.
        4    1    3    3  502    0 -0.39242207118E+03  0.99418634728E+03 -0.19515408949E+04  0.22250651793E+04  0.12699999809E+01 0.  1.
       -4    1    3    3    0  502  0.39242207118E+03 -0.99418634728E+03 -0.25749336649E+03  0.10994116707E+04  0.12699999809E+01 0. -1.
</event>
<event>
 5   0  0.9519092E-05  0.2509407E+04  0.7818609E-02  0.8399642E-01
       -2   -1    0    0    0  501  0.00000000000E+00  0.00000000000E+00  0.58673421955E+03  0.58673421955E+03  0.25500000920E-02 0. -1.
        2   -1    0    0  501    0  0.00000000000E+00  0.00000000000E+00 -0.26831249505E+04  0.26831249505E+04  0.25500000920E-02 0.  1.
    10030    2    1    2    0    0  0.00000000000E+00  0.00000000000E+00 -0.20963907309E+04  0.32698591701E+04  0.25094072797E+04 0.  0.
        4    1    3    3  502    0  0.69967641222E+02 -0.10721249470E+04 -0.18925939628E+04  0.21762952220E+04  0.12699999809E+01 0.  1.
       -4    1    3    3    0  502 -0.69967641222E+02  0.10721249470E+04 -0.20379676819E+03  0.10935639480E+04  0.12699999809E+01 0. -1.
</event>
<event>
 5   0  0.9750757E-05  0.2333824E+04  0.7818609E-02  0.8464703E-01
       -2   -1    0    0    0  501  0.00000000000E+00  0.00000000000E+00  0.83682160959E+03  0.83682160960E+03  0.25500000920E-02 0. -1.
        2   -1    0    0  501    0  0.00000000000E+00  0.00000000000E+00 -0.16272086238E+04  0.16272086238E+04  0.25500000920E-02 0.  1.
    10030    2    1    2    0    0  0.00000000000E+00  0.00000000000E+00 -0.79038701419E+03  0.24640302334E+04  0.23338237634E+04 0.  0.
        2    1    3    3  502    0  0.27558532530E+03 -0.15634942366E+03  0.79053595310E+03  0.85166866031E+03  0.25500000920E-02 0. -1.
       -2    1    3    3    0  502 -0.27558532530E+03  0.15634942366E+03 -0.15809229673E+04  0.16123615731E+04  0.25500000920E-02 0.  1.
</event>
<event>
 5   0  0.9144244E-05  0.2339269E+04  0.7818609E-02  0.8462597E-01
        2   -1    0    0  501    0  0.00000000000E+00  0.00000000000E+00  0.14244977416E+04  0.14244977416E+04  0.25500000920E-02 0. -1.
       -2   -1    0    0    0  501  0.00000000000E+00  0.00000000000E+00 -0.96037023783E+03  0.96037023784E+03  0.25500000920E-02 0.  1.
    10030    2    1    2    0    0  0.00000000000E+00  0.00000000000E+00  0.46412750375E+03  0.23848679794E+04  0.23392693174E+04 0.  0.
        1    1    3    3  502    0 -0.78641096532E+02 -0.72430381384E+02  0.14195056531E+04  0.14235262138E+04  0.50400001928E-02 0. -1.
       -1    1    3    3    0  502  0.78641096532E+02  0.72430381384E+02 -0.95537814930E+03  0.96134176566E+03  0.50400001928E-02 0.  1.
</event>
<event>
 5   0  0.9519092E-05  0.2330839E+04  0.7818609E-02  0.8465860E-01
       -2   -1    0    0    0  501  0.00000000000E+00  0.00000000000E+00  0.70786540746E+03  0.70786540746E+03  0.25500000920E-02 0. -1.
        2   -1    0    0  501    0  0.00000000000E+00  0.00000000000E+00 -0.19187298847E+04  0.19187298847E+04  0.25500000920E-02 0.  1.
    10030    2    1    2    0    0  0.00000000000E+00  0.00000000000E+00 -0.12108644773E+04  0.26265952922E+04  0.23308389148E+04 0.  0.
        4    1    3    3  502    0  0.33884612131E+03  0.26245805186E+03  0.61582572110E+03  0.75029584471E+03  0.12699999809E+01 0. -1.
       -4    1    3    3    0  502 -0.33884612131E+03 -0.26245805186E+03 -0.18266901984E+04  0.18762994475E+04  0.12699999809E+01 0.  1.
</event>
<event>
 5   0  0.9491680E-05  0.2376244E+04  0.7818609E-02  0.8448451E-01
        2   -1    0    0  501    0  0.00000000000E+00  0.00000000000E+00  0.94241283236E+03  0.94241283236E+03  0.25500000920E-02 0. -1.
       -2   -1    0    0    0  501  0.00000000000E+00  0.00000000000E+00 -0.14978930804E+04  0.14978930804E+04  0.25500000920E-02 0.  1.
    10030    2    1    2    0    0  0.00000000000E+00  0.00000000000E+00 -0.55548024801E+03  0.24403059127E+04  0.23762438094E+04 0.  0.
        5    1    3    3  502    0  0.10073517610E+04  0.44037268097E+03  0.18487733219E+03  0.11148485935E+04  0.46999998093E+01 0. -1.
       -5    1    3    3    0  502 -0.10073517610E+04 -0.44037268097E+03 -0.74035758021E+03  0.13254573192E+04  0.46999998093E+01 0.  1.
</event>
<event>
 5   0  0.4061631E-05  0.2382341E+04  0.7818609E-02  0.8446145E-01
        1   -1    0    0  501    0  0.00000000000E+00  0.00000000000E+00  0.19516050139E+04  0.19516050139E+04  0.50400001928E-02 0. -1.
       -1   -1    0    0    0  501  0.00000000000E+00  0.00000000000E+00 -0.72703584973E+03  0.72703584974E+03  0.50400001928E-02 0.  1.
    10030    2    1    2    0    0  0.00000000000E+00  0.00000000000E+00  0.12245691642E+04  0.26786408637E+04  0.23823407058E+04 0.  0.
        3    1    3    3  502    0 -0.42104892764E+03  0.62930207136E+03 -0.42164001953E+03  0.86665080209E+03  0.10100000352E+00 0.  1.
       -3    1    3    3    0  502  0.42104892764E+03 -0.62930207136E+03  0.16462091837E+04  0.18119900616E+04  0.10100000352E+00 0. -1.
</event>
<event>
 5   0  0.4061631E-05  0.2410431E+04  0.7818609E-02  0.8435609E-01
       -1   -1    0    0    0  501  0.00000000000E+00  0.00000000000E+00  0.13170822065E+04  0.13170822065E+04  0.50400001928E-02 0.  1.
        1   -1    0    0  501    0  0.00000000000E+00  0.00000000000E+00 -0.11028498780E+04  0.11028498780E+04  0.50400001928E-02 0. -1.
    10030    2    1    2    0    0  0.00000000000E+00  0.00000000000E+00  0.21423232849E+03  0.24199320844E+04  0.24104306260E+04 0.  0.
        3    1    3    3  502    0  0.53320105297E+02 -0.65326784580E+02 -0.10998846737E+04  0.11031123823E+04  0.10100000352E+00 0. -1.
       -3    1    3    3    0  502 -0.53320105297E+02  0.65326784580E+02  0.13141170021E+04  0.13168197021E+04  0.10100000352E+00 0.  1.
</event>
<event>
 5   0  0.4260395E-05  0.2381589E+04  0.7818609E-02  0.8446429E-01
       -1   -1    0    0    0  501  0.00000000000E+00  0.00000000000E+00  0.10900917501E+04  0.10900917502E+04  0.50400001928E-02 0.  1.
        1   -1    0    0  501    0  0.00000000000E+00  0.00000000000E+00 -0.13008002953E+04  0.13008002953E+04  0.50400001928E-02 0. -1.
    10030    2    1    2    0    0  0.00000000000E+00  0.00000000000E+00 -0.21070854511E+03  0.23908920454E+04  0.23815891085E+04 0.  0.
        4    1    3    3  502    0 -0.87960292295E+03 -0.82678819530E+02 -0.90687951742E+03  0.12660841841E+04  0.12699999809E+01 0. -1.
       -4    1    3    3    0  502  0.87960292295E+03  0.82678819530E+02  0.69617097231E+03  0.11248078613E+04  0.12699999809E+01 0.  1.
</event>
<event>
 5   0  0.4208577E-05  0.2409942E+04  0.7818609E-02  0.8435791E-01
        1   -1    0    0  501    0  0.00000000000E+00  0.00000000000E+00  0.66291358152E+03  0.66291358154E+03  0.50400001928E-02 0. -1.
       -1   -1    0    0    0  501  0.00000000000E+00  0.00000000000E+00 -0.21902634951E+04  0.21902634951E+04  0.50400001928E-02 0.  1.
    10030    2    1    2    0    0  0.00000000000E+00  0.00000000000E+00 -0.15273499136E+04  0.28531770766E+04  0.24099422549E+04 0.  0.
        1    1    3    3  502    0 -0.91501220309E+01  0.99221795011E+03  0.45709643070E+02  0.99331241649E+03  0.50400001928E-02 0. -1.
       -1    1    3    3    0  502  0.91501220309E+01 -0.99221795011E+03 -0.15730595566E+04  0.18598646601E+04  0.50400001928E-02 0.  1.
</event>
<event>
 5   0  0.9144244E-05  0.2530189E+04  0.7818609E-02  0.8392309E-01
       -2   -1    0    0    0  501  0.00000000000E+00  0.00000000000E+00  0.86379354268E+03  0.86379354268E+03  0.25500000920E-02 0.  1.
        2   -1    0    0  501    0  0.00000000000E+00  0.00000000000E+00 -0.18528314480E+04  0.18528314480E+04  0.25500000920E-02 0. -1.
    10030    2    1    2    0    0  0.00000000000E+00  0.00000000000E+00 -0.98903790528E+03  0.27166249906E+04  0.25301887996E+04 0.  0.
        1    1    3    3  502    0  0.63080968549E+03 -0.46747672861E+03  0.57054622396E+03  0.97055568867E+03  0.50400001928E-02 0.  1.
       -1    1    3    3    0  502 -0.63080968549E+03  0.46747672861E+03 -0.15595841292E+04  0.17460693020E+04  0.50400001928E-02 0. -1.
</event>
<event>
 5   0  0.9519092E-05  0.2326877E+04  0.7818609E-02  0.8467399E-01
        2   -1    0    0  501    0  0.00000000000E+00  0.00000000000E+00  0.10393252235E+04  0.10393252235E+04  0.25500000920E-02 0. -1.
       -2   -1    0    0    0  501  0.00000000000E+00  0.00000000000E+00 -0.13023730459E+04  0.13023730459E+04  0.25500000920E-02 0.  1.
    10030    2    1    2    0    0  0.00000000000E+00  0.00000000000E+00 -0.26304782242E+03  0.23416982694E+04  0.23268770118E+04 0.  0.
        4    1    3    3  502    0 -0.23998146917E+03 -0.10726861702E+04  0.25214031581E+03  0.11277513365E+04  0.12699999809E+01 0. -1.
       -4    1    3    3    0  502  0.23998146917E+03  0.10726861702E+04 -0.51518813823E+03  0.12139469329E+04  0.12699999809E+01 0.  1.
</event>
<event>
 5   0  0.9750757E-05  0.2585788E+04  0.7818609E-02  0.8373045E-01
        2   -1    0    0  501    0  0.00000000000E+00  0.00000000000E+00  0.18192942831E+04  0.18192942831E+04  0.25500000920E-02 0. -1.
       -2   -1    0    0    0  501  0.00000000000E+00  0.00000000000E+00 -0.91880387611E+03  0.91880387612E+03  0.25500000920E-02 0.  1.
    10030    2    1    2    0    0  0.00000000000E+00  0.00000000000E+00  0.90049040698E+03  0.27380981592E+04  0.25857878019E+04 0.  0.
        2    1    3    3  502    0 -0.31359268440E+03 -0.21818337648E+03  0.17581639994E+04  0.17991900973E+04  0.25500000920E-02 0. -1.
       -2    1    3    3    0  502  0.31359268440E+03  0.21818337648E+03 -0.85767359244E+03  0.93890806188E+03  0.25500000920E-02 0.  1.
</event>
<event>
 5   0  0.4018942E-05  0.2335056E+04  0.7818609E-02  0.8464226E-01
        1   -1    0    0  501    0  0.00000000000E+00  0.00000000000E+00  0.86987734564E+03  0.86987734565E+03  0.50400001928E-02 0.  1.
       -1   -1    0    0    0  501  0.00000000000E+00  0.00000000000E+00 -0.15670272214E+04  0.15670272214E+04  0.50400001928E-02 0. -1.
    10030    2    1    2    0    0  0.00000000000E+00  0.00000000000E+00 -0.69714987572E+03  0.24369045670E+04  0.23350558708E+04 0.  0.
        5    1    3    3  502    0 -0.82316569581E+03 -0.74324590188E+03 -0.72929239575E+03  0.13273679678E+04  0.46999998093E+01 0. -1.
       -5    1    3    3    0  502  0.82316569581E+03  0.74324590188E+03  0.32142520023E+02  0.11095365992E+04  0.46999998093E+01 0.  1.
</event>
<event>
 5   0  0.4061631E-05  0.2058344E+04  0.7818609E-02  0.8579819E-01
        1   -1    0    0  501    0  0.00000000000E+00  0.00000000000E+00  0.94910773512E+03  0.94910773514E+03  0.50400001928E-02 0. -1.
       -1   -1    0    0    0  501  0.00000000000E+00  0.00000000000E+00 -0.11159900396E+04  0.11159900396E+04  0.50400001928E-02 0.  1.
    10030    2    1    2    0    0  0.00000000000E+00  0.00000000000E+00 -0.16688230445E+03  0.20650977747E+04  0.20583437797E+04 0.  0.
        3    1    3    3  502    0 -0.36944244538E+03  0.94996308120E+03 -0.22630640718E+03  0.10440939499E+04  0.10100000352E+00 0.  1.
       -3    1    3    3    0  502  0.36944244538E+03 -0.94996308120E+03  0.59424102734E+02  0.10210038248E+04  0.10100000352E+00 0. -1.
</event>
<event>
 5   0  0.9144244E-05  0.2522584E+04  0.7818609E-02  0.8394984E-01
       -2   -1    0    0    0  501  0.00000000000E+00  0.00000000000E+00  0.13292366805E+04  0.13292366805E+04  0.25500000920E-02 0. -1.
        2   -1    0    0  501    0  0.00000000000E+00  0.00000000000E+00 -0.11968206580E+04  0.11968206580E+04  0.25500000920E-02 0.  1.
    10030    2    1    2    0    0  0.00000000000E+00  0.00000000000E+00  0.13241602258E+03  0.25260573385E+04  0.25225843245E+04 0.  0.
        1    1    3    3  502    0  0.10210426531E+04 -0.26103459758E+03  0.76012003096E+03  0.12994035639E+04  0.50400001928E-02 0. -1.
       -1    1    3    3    0  502 -0.10210426531E+04  0.26103459758E+03 -0.62770400838E+03  0.12266537746E+04  0.50400001928E-02 0.  1.
</event>
<event>
 5   0  0.4260395E-05  0.2335204E+04  0.7818609E-02  0.8464169E-01
        1   -1    0    0  501    0  0.00000000000E+00  0.00000000000E+00  0.14188800844E+04  0.14188800844E+04  0.50400001928E-02 0. -1.
       -1   -1    0    0    0  501  0.00000000000E+00  0.00000000000E+00 -0.96082432326E+03  0.96082432328E+03  0.50400001928E-02 0.  1.
    10030    2    1    2    0    0  0.00000000000E+00  0.00000000000E+00  0.45805576110E+03  0.23797044077E+04  0.23352040569E+04 0.  0.
        4    1    3    3  502    0  0.27661716262E+02 -0.67932768965E+03 -0.73829308458E+03  0.10036580952E+04  0.12699999809E+01 0.  1.
       -4    1    3    3    0  502 -0.27661716262E+02  0.67932768965E+03  0.11963488457E+04  0.13760463124E+04  0.12699999809E+01 0. -1.
</event>
<event>
 5   0  0.4061631E-05  0.1199688E+04  0.7818609E-02  0.9113130E-01
       -1   -1    0    0    0  501  0.00000000000E+00  0.00000000000E+00  0.25671855426E+03  0.25671855431E+03  0.50400001928E-02 0. -1.
        1   -1    0    0  501    0  0.00000000000E+00  0.00000000000E+00 -0.14015848118E+04  0.14015848118E+04  0.50400001928E-02 0.  1.
    10030    2    1    2    0    0  0.00000000000E+00  0.00000000000E+00 -0.11448662575E+04  0.16583033661E+04  0.11996880038E+04 0.  0.
        3    1    3    3  502    0  0.21440877185E+03 -0.28672806935E+03 -0.12376938153E+04  0.12884370756E+04  0.10100000352E+00 0.  1.
       -3    1    3    3    0  502 -0.21440877185E+03  0.28672806935E+03  0.92827557723E+02  0.36986629053E+03  0.10100000352E+00 0. -1.
</event>
<event>
 5   0  0.4208577E-05  0.2392944E+04  0.7818609E-02  0.8442150E-01
        1   -1    0    0  501    0  0.00000000000E+00  0.00000000000E+00  0.10602234640E+04  0.10602234640E+04  0.50400001928E-02 0. -1.
       -1   -1    0    0    0  501  0.00000000000E+00  0.00000000000E+00 -0.13502293349E+04  0.13502293349E+04  0.50400001928E-02 0.  1.
    10030    2    1    2    0    0  0.00000000000E+00  0.00000000000E+00 -0.29000587088E+03  0.24104527989E+04  0.23929436455E+04 0.  0.
        1    1    3    3  502    0  0.29100721259E+03 -0.39050600585E+03  0.95586351703E+03  0.10727791952E+04  0.50400001928E-02 0. -1.
       -1    1    3    3    0  502 -0.29100721259E+03  0.39050600585E+03 -0.12458693879E+04  0.13376736037E+04  0.50400001928E-02 0.  1.
</event>
<event>
 5   0  0.4018942E-05  0.2408819E+04  0.7818609E-02  0.8436209E-01
       -1   -1    0    0    0  501  0.00000000000E+00  0.00000000000E+00  0.76259275001E+03  0.76259275003E+03  0.50400001928E-02 0. -1.
        1   -1    0    0  501    0  0.00000000000E+00  0.00000000000E+00 -0.19021980819E+04  0.19021980819E+04  0.50400001928E-02 0.  1.
    10030    2    1    2    0    0  0.00000000000E+00  0.00000000000E+00 -0.11396053319E+04  0.26647908320E+04  0.24088191849E+04 0.  0.
        5    1    3    3  502    0  0.13139803779E+03 -0.74809151853E+03 -0.16038338418E+04  0.17746017713E+04  0.46999998093E+01 0.  1.
       -5    1    3    3    0  502 -0.13139803779E+03  0.74809151853E+03  0.46422850988E+03  0.89018906071E+03  0.46999998093E+01 0. -1.
</event>
<event>
 5   0  0.4061631E-05  0.2268867E+04  0.7818609E-02  0.8490298E-01
       -1   -1    0    0    0  501  0.00000000000E+00  0.00000000000E+00  0.81610121640E+03  0.81610121641E+03  0.50400001928E-02 0. -1.
        1   -1    0    0  501    0  0.00000000000E+00  0.00000000000E+00 -0.15769361684E+04  0.15769361684E+04  0.50400001928E-02 0.  1.
    10030    2    1    2    0    0  0.00000000000E+00  0.00000000000E+00 -0.76083495198E+03  0.23930373848E+04  0.22688671404E+04 0.  0.
        3    1    3    3  502    0  0.66508939258E+03  0.76869037261E+02 -0.13463355957E+04  0.15036197310E+04  0.10100000352E+00 0.  1.
       -3    1    3    3    0  502 -0.66508939258E+03 -0.76869037261E+02  0.58550064367E+03  0.88941765384E+03  0.10100000352E+00 0. -1.
</event>
<event>
 5   0  0.9519092E-05  0.2412800E+04  0.7818609E-02  0.8434727E-01
        2   -1    0    0  501    0  0.00000000000E+00  0.00000000000E+00  0.14455739053E+04  0.14455739053E+04  0.25500000920E-02 0. -1.
       -2   -1    0    0    0  501  0.00000000000E+00  0.00000000000E+00 -0.10067981421E+04  0.10067981421E+04  0.25500000920E-02 0.  1.
    10030    2    1    2    0    0  0.00000000000E+00  0.00000000000E+00  0.43877576324E+03  0.24523720474E+04  0.24128001344E+04 0.  0.
        4    1    3    3  502    0 -0.90833209154E+03 -0.23913127087E+03  0.98887013871E+03  0.13638609597E+04  0.12699999809E+01 0. -1.
       -4    1    3    3    0  502  0.90833209154E+03  0.23913127087E+03 -0.55009437548E+03  0.10885110877E+04  0.12699999809E+01 0.  1.
</event>
<event>
 5   0  0.9144244E-05  0.2428669E+04  0.7818609E-02  0.8428848E-01
        2   -1    0    0  501    0  0.00000000000E+00  0.00000000000E+00  0.29754191923E+04  0.29754191923E+04  0.25500000920E-02 0. -1.
       -2   -1    0    0    0  501  0.00000000000E+00  0.00000000000E+00 -0.49559661705E+03  0.49559661706E+03  0.25500000920E-02 0.  1.
    10030    2    1    2    0    0  0.00000000000E+00  0.00000000000E+00  0.24798225753E+04  0.34710158094E+04  0.24286685126E+04 0.  0.
        1    1    3    3  502    0  0.55690984265E+02 -0.20226371489E+03 -0.46950087795E+03  0.51424038203E+03  0.50400001928E-02 0.  1.
       -1    1    3    3    0  502 -0.55690984265E+02  0.20226371489E+03  0.29493234532E+04  0.29567754273E+04  0.50400001928E-02 0. -1.
</event>
<event>
 5   0  0.4260395E-05  0.2344499E+04  0.7818609E-02  0.8460579E-01
        1   -1    0    0  501    0  0.00000000000E+00  0.00000000000E+00  0.16409405590E+04  0.16409405590E+04  0.50400001928E-02 0.  1.
       -1   -1    0    0    0  501  0.00000000000E+00  0.00000000000E+00 -0.83742786546E+03  0.83742786547E+03  0.50400001928E-02 0. -1.
    10030    2    1    2    0    0  0.00000000000E+00  0.00000000000E+00  0.80351269350E+03  0.24783684244E+04  0.23444993919E+04 0.  0.
        4    1    3    3  502    0  0.10303982420E+04 -0.89224317854E+02  0.98506653880E+03  0.14282994135E+04  0.12699999809E+01 0.  1.
       -4    1    3    3    0  502 -0.10303982420E+04  0.89224317854E+02 -0.18155384530E+03  0.10500690109E+04  0.12699999809E+01 0. -1.
</event>
<event>
 5   0  0.9491680E-05  0.2339640E+04  0.7818609E-02  0.8462454E-01
       -2   -1    0    0    0  501  0.00000000000E+00  0.00000000000E+00  0.85002537426E+03  0.85002537426E+03  0.25500000920E-02 0.  1.
        2   -1    0    0  501    0  0.00000000000E+00  0.00000000000E+00 -0.16099264326E+04  0.16099264326E+04  0.25500000920E-02 0. -1.
    10030    2    1    2    0    0  0.00000000000E+00  0.00000000000E+00 -0.75990105839E+03  0.24599518069E+04  0.23396395607E+04 0.  0.
        5    1    3    3  502    0 -0.11380348854E+03  0.11424013739E+04 -0.14385014126E+03  0.11570423874E+04  0.46999998093E+01 0.  1.
       -5    1    3    3    0  502  0.11380348854E+03 -0.11424013739E+04 -0.61605091713E+03  0.13029094195E+04  0.46999998093E+01 0. -1.
</event>
<event>
 5   0  0.4260395E-05  0.2372147E+04  0.7818609E-02  0.8450006E-01
       -1   -1    0    0    0  501  0.00000000000E+00  0.00000000000E+00  0.92237085596E+03  0.92237085597E+03  0.50400001928E-02 0.  1.
        1   -1    0    0  501    0  0.00000000000E+00  0.00000000000E+00 -0.15251673597E+04  0.15251673597E+04  0.50400001928E-02 0. -1.
    10030    2    1    2    0    0  0.00000000000E+00  0.00000000000E+00 -0.60279650376E+03  0.24475382157E+04  0.23721466423E+04 0.  0.
        4    1    3    3  502    0  0.51472248671E+03  0.48916851949E+02  0.79997102549E+03  0.95251632598E+03  0.12699999809E+01 0.  1.
       -4    1    3    3    0  502 -0.51472248671E+03 -0.48916851949E+02 -0.14027675292E+04  0.14950218897E+04  0.12699999809E+01 0. -1.
</event>
<event>
 5   0  0.4208577E-05  0.2606759E+04  0.7818609E-02  0.8365909E-01
        1   -1    0    0  501    0  0.00000000000E+00  0.00000000000E+00  0.14739026623E+04  0.14739026623E+04  0.50400001928E-02 0.  1.
       -1   -1    0    0    0  501  0.00000000000E+00  0.00000000000E+00 -0.11525848771E+04  0.11525848771E+04  0.50400001928E-02 0. -1.
    10030    2    1    2    0    0  0.00000000000E+00  0.00000000000E+00  0.32131778514E+03  0.26264875394E+04  0.26067588450E+04 0.  0.
        1    1    3    3  502    0 -0.27227749073E+03  0.63875578795E+02  0.14433146096E+04  0.14701605979E+04  0.50400001928E-02 0.  1.
       -1    1    3    3    0  502  0.27227749073E+03 -0.63875578795E+02 -0.11219968244E+04  0.11563269415E+04  0.50400001928E-02 0. -1.
</event>
<event>
 5   0  0.4208577E-05  0.2412616E+04  0.7818609E-02  0.8434795E-01
       -1   -1    0    0    0  501  0.00000000000E+00  0.00000000000E+00  0.72499795056E+03  0.72499795057E+03  0.50400001928E-02 0.  1.
        1   -1    0    0  501    0  0.00000000000E+00  0.00000000000E+00 -0.20071498923E+04  0.20071498923E+04  0.50400001928E-02 0. -1.
    10030    2    1    2    0    0  0.00000000000E+00  0.00000000000E+00 -0.12821519418E+04  0.27321478429E+04  0.24126164705E+04 0.  0.
        1    1    3    3  502    0 -0.42467055642E+03  0.96169925414E+03  0.28856008742E+02  0.10516858876E+04  0.50400001928E-02 0.  1.
       -1    1    3    3    0  502  0.42467055642E+03 -0.96169925414E+03 -0.13110079505E+04  0.16804619553E+04  0.50400001928E-02 0. -1.
</event>
<event>
 5   0  0.4061631E-05  0.2340330E+04  0.7818609E-02  0.8462187E-01
        1   -1    0    0  501    0  0.00000000000E+00  0.00000000000E+00  0.13002946807E+04  0.13002946807E+04  0.50400001928E-02 0. -1.
       -1   -1    0    0    0  501  0.00000000000E+00  0.00000000000E+00 -0.10530579720E+04  0.10530579720E+04  0.50400001928E-02 0.  1.
    10030    2    1    2    0    0  0.00000000000E+00  0.00000000000E+00  0.24723670869E+03  0.23533526527E+04  0.23403296174E+04 0.  0.
        3    1    3    3  502    0  0.81497378494E+03  0.26175962342E+03 -0.67868440387E+03  0.10923886217E+04  0.10100000352E+00 0.  1.
       -3    1    3    3    0  502 -0.81497378494E+03 -0.26175962342E+03  0.92592111256E+03  0.12609640310E+04  0.10100000352E+00 0. -1.
</event>
<event>
 5   0  0.9491680E-05  0.2359969E+04  0.7818609E-02  0.8454645E-01
       -2   -1    0    0    0  501  0.00000000000E+00  0.00000000000E+00  0.51960622741E+03  0.51960622741E+03  0.25500000920E-02 0.  1.
        2   -1    0    0  501    0  0.00000000000E+00  0.00000000000E+00 -0.26796505981E+04  0.26796505981E+04  0.25500000920E-02 0. -1.
    10030    2    1    2    0    0  0.00000000000E+00  0.00000000000E+00 -0.21600443707E+04  0.31992568255E+04  0.23599687609E+04 0.  0.
        5    1    3    3  502    0  0.89638110153E+03 -0.70272470830E+03 -0.66214346403E+03  0.13174889570E+04  0.46999998093E+01 0. -1.
       -5    1    3    3    0  502 -0.89638110153E+03  0.70272470830E+03 -0.14979009067E+04  0.18817678685E+04  0.46999998093E+01 0.  1.
</event>
<event>
 5   0  0.9144244E-05  0.2364189E+04  0.7818609E-02  0.8453034E-01
       -2   -1    0    0    0  501  0.00000000000E+00  0.00000000000E+00  0.95028746799E+03  0.95028746800E+03  0.25500000920E-02 0.  1.
        2   -1    0    0  501    0  0.00000000000E+00  0.00000000000E+00 -0.14704465534E+04  0.14704465534E+04  0.25500000920E-02 0. -1.
    10030    2    1    2    0    0  0.00000000000E+00  0.00000000000E+00 -0.52015908536E+03  0.24207340214E+04  0.23641885982E+04 0.  0.
        1    1    3    3  502    0  0.63581472635E+02  0.64986574823E+03  0.74887090562E+03  0.99356717322E+03  0.50400001928E-02 0.  1.
       -1    1    3    3    0  502 -0.63581472635E+02 -0.64986574823E+03 -0.12690299910E+04  0.14271668481E+04  0.50400001928E-02 0. -1.
</event>
<event>
 5   0  0.4260395E-05  0.2415184E+04  0.7818609E-02  0.8433841E-01
        1   -1    0    0  501    0  0.00000000000E+00  0.00000000000E+00  0.66028035005E+03  0.66028035007E+03  0.50400001928E-02 0.  1.
       -1   -1    0    0    0  501  0.00000000000E+00  0.00000000000E+00 -0.22085746006E+04  0.22085746006E+04  0.50400001928E-02 0. -1.
    10030    2    1    2    0    0  0.00000000000E+00  0.00000000000E+00 -0.15482942506E+04  0.28688549507E+04  0.24151839768E+04 0.  0.
        4    1    3    3  502    0 -0.29232496294E+03  0.96378203484E+03 -0.15655980397E+04  0.18615661497E+04  0.12699999809E+01 0. -1.
       -4    1    3    3    0  502  0.29232496294E+03 -0.96378203484E+03  0.17303789187E+02  0.10072888010E+04  0.12699999809E+01 0.  1.
</event>
<event>
 5   0  0.4061631E-05  0.2445680E+04  0.7818609E-02  0.8422597E-01
        1   -1    0    0  501    0  0.00000000000E+00  0.00000000000E+00  0.98296721239E+03  0.98296721240E+03  0.50400001928E-02 0. -1.
       -1   -1    0    0    0  501  0.00000000000E+00  0.00000000000E+00 -0.15212490995E+04  0.15212490996E+04  0.50400001928E-02 0.  1.
    10030    2    1    2    0    0  0.00000000000E+00  0.00000000000E+00 -0.53828188716E+03  0.25042163120E+04  0.24456802626E+04 0.  0.
        3    1    3    3  502    0 -0.75410899957E+03 -0.47464467160E+03  0.58838202879E+03  0.10677833907E+04  0.10100000352E+00 0.  1.
       -3    1    3    3    0  502  0.75410899957E+03  0.47464467160E+03 -0.11266639159E+04  0.14364329212E+04  0.10100000352E+00 0. -1.
</event>
<event>
 5   0  0.9491680E-05  0.2353211E+04  0.7818609E-02  0.8457231E-01
        2   -1    0    0  501    0  0.00000000000E+00  0.00000000000E+00  0.91191417612E+03  0.91191417612E+03  0.25500000920E-02 0. -1.
       -2   -1    0    0    0  501  0.00000000000E+00  0.00000000000E+00 -0.15181260407E+04  0.15181260407E+04  0.25500000920E-02 0.  1.
    10030    2    1    2    0    0  0.00000000000E+00  0.00000000000E+00 -0.60621186455E+03  0.24300402168E+04  0.23532111317E+04 0.  0.
        5    1    3    3  502    0  0.11439467865E+03 -0.11695941932E+04 -0.36280202995E+03  0.12299122416E+04  0.46999998093E+01 0. -1.
       -5    1    3    3    0  502 -0.11439467865E+03  0.11695941932E+04 -0.24340983460E+03  0.12001279752E+04  0.46999998093E+01 0.  1.
</event>
<event>
 5   0  0.4061631E-05  0.2413448E+04  0.7818609E-02  0.8434486E-01
       -1   -1    0    0    0  501  0.00000000000E+00  0.00000000000E+00  0.15116876065E+04  0.15116876065E+04  0.50400001928E-02 0. -1.
        1   -1    0    0  501    0  0.00000000000E+00  0.00000000000E+00 -0.96328266105E+03  0.96328266106E+03  0.50400001928E-02 0.  1.
    10030    2    1    2    0    0  0.00000000000E+00  0.00000000000E+00  0.54840494548E+03  0.24749702676E+04  0.24134477084E+04 0.  0.
        3    1    3    3  502    0 -0.69708912265E+02 -0.12045239168E+04  0.29584135508E+03  0.12422798864E+04  0.10100000352E+00 0. -1.
       -3    1    3    3    0  502  0.69708912265E+02  0.12045239168E+04  0.25256359040E+03  0.12326903812E+04  0.10100000352E+00 0.  1.
</event>
<event>
 5   0  0.4061631E-05  0.2383763E+04  0.7818609E-02  0.8445608E-01
       -1   -1    0    0    0  501  0.00000000000E+00  0.00000000000E+00  0.15573297669E+04  0.15573297669E+04  0.50400001928E-02 0. -1.
        1   -1    0    0  501    0  0.00000000000E+00  0.00000000000E+00 -0.91219036555E+03  0.91219036556E+03  0.50400001928E-02 0.  1.
    10030    2    1    2    0    0  0.00000000000E+00  0.00000000000E+00  0.64513940130E+03  0.24695201324E+04  0.23837627477E+04 0.  0.
        3    1    3    3  502    0 -0.89713341378E+03  0.77979388718E+03  0.23193319606E+03  0.12110821137E+04  0.10100000352E+00 0. -1.
       -3    1    3    3    0  502  0.89713341378E+03 -0.77979388718E+03  0.41320620524E+03  0.12584380187E+04  0.10100000352E+00 0.  1.
</event>
<event>
 5   0  0.9519092E-05  0.2475036E+04  0.7818609E-02  0.8411933E-01
       -2   -1    0    0    0  501  0.00000000000E+00  0.00000000000E+00  0.85394401572E+03  0.85394401573E+03  0.25500000920E-02 0. -1.
        2   -1    0    0  501    0  0.00000000000E+00  0.00000000000E+00 -0.17933858735E+04  0.17933858735E+04  0.25500000920E-02 0.  1.
    10030    2    1    2    0    0  0.00000000000E+00  0.00000000000E+00 -0.93944185783E+03  0.26473298893E+04  0.24750362701E+04 0.  0.
        4    1    3    3  502    0  0.49968956310E+03 -0.28207617262E+03  0.70305103125E+03  0.90749049145E+03  0.12699999809E+01 0. -1.
       -4    1    3    3    0  502 -0.49968956310E+03  0.28207617262E+03 -0.16424928891E+04  0.17398393978E+04  0.12699999809E+01 0.  1.
</event>
<event>
 5   0  0.9750757E-05  0.2502261E+04  0.7818609E-02  0.8402180E-01
       -2   -1    0    0    0  501  0.00000000000E+00  0.00000000000E+00  0.22174117893E+04  0.22174117893E+04  0.25500000920E-02 0. -1.
        2   -1    0    0  501    0  0.00000000000E+00  0.00000000000E+00 -0.70592578013E+03  0.70592578013E+03  0.25500000920E-02 0.  1.
    10030    2    1    2    0    0  0.00000000000E+00  0.00000000000E+00  0.15114860092E+04  0.29233375694E+04  0.25022614949E+04 0.  0.
        2    1    3    3  502    0 -0.17142641546E+03  0.90269148072E+02 -0.68829451629E+03  0.71504187022E+03  0.25500000920E-02 0.  1.
       -2    1    3    3    0  502  0.17142641546E+03 -0.90269148072E+02  0.21997805255E+04  0.22082956992E+04  0.25500000920E-02 0. -1.
</event>
<event>
 5   0  0.3934906E-05  0.1198020E+04  0.7818609E-02  0.9114592E-01
        1   -1    0    0  501    0  0.00000000000E+00  0.00000000000E+00  0.85450693983E+03  0.85450693985E+03  0.50400001928E-02 0. -1.
       -1   -1    0    0    0  501  0.00000000000E+00  0.00000000000E+00 -0.41990634145E+03  0.41990634148E+03  0.50400001928E-02 0.  1.
    10030    2    1    2    0    0  0.00000000000E+00  0.00000000000E+00  0.43460059839E+03  0.12744132813E+04  0.11980198377E+04 0.  0.
        2    1    3    3  502    0 -0.14673354314E+03 -0.35779850513E+03 -0.26932183538E+03  0.47125869114E+03  0.25500000920E-02 0.  1.
       -2    1    3    3    0  502  0.14673354314E+03  0.35779850513E+03  0.70392243377E+03  0.80315459018E+03  0.25500000920E-02 0. -1.
</event>
<event>
 5   0  0.9750757E-05  0.2241930E+04  0.7818609E-02  0.8501176E-01
       -2   -1    0    0    0  501  0.00000000000E+00  0.00000000000E+00  0.13039928998E+04  0.13039928998E+04  0.25500000920E-02 0. -1.
        2   -1    0    0  501    0  0.00000000000E+00  0.00000000000E+00 -0.96362706723E+03  0.96362706723E+03  0.25500000920E-02 0.  1.
    10030    2    1    2    0    0  0.00000000000E+00  0.00000000000E+00  0.34036583259E+03  0.22676199670E+04  0.22419302877E+04 0.  0.
        2    1    3    3  502    0 -0.12849323394E+03 -0.47532906102E+03  0.11887548178E+04  0.12866958631E+04  0.25500000920E-02 0. -1.
       -2    1    3    3    0  502  0.12849323394E+03  0.47532906102E+03 -0.84838898520E+03  0.98092410391E+03  0.25500000920E-02 0.  1.
</event>
<event>
 5   0  0.3934906E-05  0.2419740E+04  0.7818609E-02  0.8432150E-01
       -1   -1    0    0    0  501  0.00000000000E+00  0.00000000000E+00  0.99172875278E+03  0.99172875280E+03  0.50400001928E-02 0.  1.
        1   -1    0    0  501    0  0.00000000000E+00  0.00000000000E+00 -0.14759934064E+04  0.14759934064E+04  0.50400001928E-02 0. -1.
    10030    2    1    2    0    0  0.00000000000E+00  0.00000000000E+00 -0.48426465362E+03  0.24677221592E+04  0.24197397381E+04 0.  0.
        2    1    3    3  502    0  0.58742125359E+03 -0.37074047255E+03 -0.12523675360E+04  0.14321091692E+04  0.25500000920E-02 0. -1.
       -2    1    3    3    0  502 -0.58742125359E+03  0.37074047255E+03  0.76810288240E+03  0.10356129900E+04  0.25500000920E-02 0.  1.
</event>
<event>
 5   0  0.4208577E-05  0.2396849E+04  0.7818609E-02  0.8440684E-01
        1   -1    0    0  501    0  0.00000000000E+00  0.00000000000E+00  0.15494068495E+04  0.15494068495E+04  0.50400001928E-02 0.  1.
       -1   -1    0    0    0  501  0.00000000000E+00  0.00000000000E+00 -0.92694910524E+03  0.92694910526E+03  0.50400001928E-02 0. -1.
    10030    2    1    2    0    0  0.00000000000E+00  0.00000000000E+00  0.62245774421E+03  0.24763559547E+04  0.23968490088E+04 0.  0.
        1    1    3    3  502    0  0.87781132903E+03 -0.71655080931E+03  0.71432928948E+03  0.13395014466E+04  0.50400001928E-02 0.  1.
       -1    1    3    3    0  502 -0.87781132903E+03  0.71655080931E+03 -0.91871545267E+02  0.11368545081E+04  0.50400001928E-02 0. -1.
</event>
<event>
 5   0  0.9750757E-05  0.2500481E+04  0.7818609E-02  0.8402814E-01
        2   -1    0    0  501    0  0.00000000000E+00  0.00000000000E+00  0.14197156680E+04  0.14197156680E+04  0.25500000920E-02 0. -1.
       -2   -1    0    0    0  501  0.00000000000E+00  0.00000000000E+00 -0.11009964526E+04  0.11009964526E+04  0.25500000920E-02 0.  1.
    10030    2    1    2    0    0  0.00000000000E+00  0.00000000000E+00  0.31871921544E+03  0.25207121206E+04  0.25004814849E+04 0.  0.
        2    1    3    3  502    0  0.11778781776E+04 -0.32947974417E+03  0.42058547716E+03  0.12933854981E+04  0.25500000920E-02 0.  1.
       -2    1    3    3    0  502 -0.11778781776E+04  0.32947974417E+03 -0.10186626172E+03  0.12273266225E+04  0.25500000920E-02 0. -1.
</event>
<event>
 5   0  0.9519092E-05  0.2264590E+04  0.7818609E-02  0.8492015E-01
        2   -1    0    0  501    0  0.00000000000E+00  0.00000000000E+00  0.98175140443E+03  0.98175140444E+03  0.25500000920E-02 0. -1.
       -2   -1    0    0    0  501  0.00000000000E+00  0.00000000000E+00 -0.13059234904E+04  0.13059234904E+04  0.25500000920E-02 0.  1.
    10030    2    1    2    0    0  0.00000000000E+00  0.00000000000E+00 -0.32417208595E+03  0.22876748948E+04  0.22645902241E+04 0.  0.
        4    1    3    3  502    0 -0.24606787859E+03  0.17213925497E+03 -0.12649610101E+04  0.13001189538E+04  0.12699999809E+01 0.  1.
       -4    1    3    3    0  502  0.24606787859E+03 -0.17213925497E+03  0.94078892416E+03  0.98755594104E+03  0.12699999809E+01 0. -1.
</event>
<event>
 5   0  0.9144244E-05  0.2403146E+04  0.7818609E-02  0.8438327E-01
        2   -1    0    0  501    0  0.00000000000E+00  0.00000000000E+00  0.15418457206E+04  0.15418457206E+04  0.25500000920E-02 0.  1.
       -2   -1    0    0    0  501  0.00000000000E+00  0.00000000000E+00 -0.93639586058E+03  0.93639586058E+03  0.25500000920E-02 0. -1.
    10030    2    1    2    0    0  0.00000000000E+00  0.00000000000E+00  0.60544985998E+03  0.24782415811E+04  0.24031462297E+04 0.  0.
        1    1    3    3  502    0  0.80676936984E+03 -0.61005885683E+03  0.97163053241E+03  0.14025385971E+04  0.50400001928E-02 0.  1.
       -1    1    3    3    0  502 -0.80676936984E+03  0.61005885683E+03 -0.36618067243E+03  0.10757029840E+04  0.50400001928E-02 0. -1.
</event>
<event>
 5   0  0.9144244E-05  0.2463718E+04  0.7818609E-02  0.8416026E-01
       -2   -1    0    0    0  501  0.00000000000E+00  0.00000000000E+00  0.81165622602E+03  0.81165622602E+03  0.25500000920E-02 0.  1.
        2   -1    0    0  501    0  0.00000000000E+00  0.00000000000E+00 -0.18696052833E+04  0.18696052833E+04  0.25500000920E-02 0. -1.
    10030    2    1    2    0    0  0.00000000000E+00  0.00000000000E+00 -0.10579490573E+04  0.26812615093E+04  0.24637181400E+04 0.  0.
        1    1    3    3  502    0 -0.12198073127E+04  0.17127844793E+03 -0.51318176297E+03  0.13343993813E+04  0.50400001928E-02 0.  1.
       -1    1    3    3    0  502  0.12198073127E+04 -0.17127844793E+03 -0.54476729433E+03  0.13468621280E+04  0.50400001928E-02 0. -1.
</event>
<event>
 5   0  0.3934906E-05  0.2209363E+04  0.7818609E-02  0.8514541E-01
       -1   -1    0    0    0  501  0.00000000000E+00  0.00000000000E+00  0.13386169344E+04  0.13386169344E+04  0.50400001928E-02 0. -1.
        1   -1    0    0  501    0  0.00000000000E+00  0.00000000000E+00 -0.91162822816E+03  0.91162822817E+03  0.50400001928E-02 0.  1.
    10030    2    1    2    0    0  0.00000000000E+00  0.00000000000E+00  0.42698870621E+03  0.22502451626E+04  0.22093627897E+04 0.  0.
        2    1    3    3  502    0 -0.26120044074E+03 -0.80963169245E+03  0.93122681539E+03  0.12613138108E+04  0.25500000920E-02 0. -1.
       -2    1    3    3    0  502  0.26120044074E+03  0.80963169245E+03 -0.50423810918E+03  0.98893135173E+03  0.25500000920E-02 0.  1.
</event>
<event>
 5   0  0.3934906E-05  0.2364916E+04  0.7818609E-02  0.8452757E-01
        1   -1    0    0  501    0  0.00000000000E+00  0.00000000000E+00  0.16663888696E+04  0.16663888696E+04  0.50400001928E-02 0. -1.
       -1   -1    0    0    0  501  0.00000000000E+00  0.00000000000E+00 -0.83906381795E+03  0.83906381797E+03  0.50400001928E-02 0.  1.
    10030    2    1    2    0    0  0.00000000000E+00  0.00000000000E+00  0.82732505163E+03  0.25054526876E+04  0.23649157339E+04 0.  0.
        2    1    3    3  502    0  0.63117991897E+03  0.82361959957E+03  0.10143385103E+04  0.14510754455E+04  0.25500000920E-02 0. -1.
       -2    1    3    3    0  502 -0.63117991897E+03 -0.82361959957E+03 -0.18701345869E+03  0.10543772421E+04  0.25500000920E-02 0.  1.
</event>
<event>
 5   0  0.9144244E-05  0.1904124E+04  0.7818609E-02  0.8652806E-01
       -2   -1    0    0    0  501  0.00000000000E+00  0.00000000000E+00  0.17462076958E+04  0.17462076958E+04  0.25500000920E-02 0. -1.
        2   -1    0    0  501    0  0.00000000000E+00  0.00000000000E+00 -0.51908054673E+03  0.51908054673E+03  0.25500000920E-02 0.  1.
    10030    2    1    2    0    0  0.00000000000E+00  0.00000000000E+00  0.12271271491E+04  0.22652882426E+04  0.19041244134E+04 0.  0.
        1    1    3    3  502    0 -0.68930014115E+02 -0.40980873650E+03  0.16326139791E+04  0.16846729511E+04  0.50400001928E-02 0. -1.
       -1    1    3    3    0  502  0.68930014115E+02  0.40980873650E+03 -0.40548683000E+03  0.58061529147E+03  0.50400001928E-02 0.  1.
</event>
<event>
 5   0  0.9491680E-05  0.2393540E+04  0.7818609E-02  0.8441926E-01
       -2   -1    0    0    0  501  0.00000000000E+00  0.00000000000E+00  0.16443714576E+04  0.16443714576E+04  0.25500000920E-02 0.  1.
        2   -1    0    0  501    0  0.00000000000E+00  0.00000000000E+00 -0.87100638333E+03  0.87100638333E+03  0.25500000920E-02 0. -1.
    10030    2    1    2    0    0  0.00000000000E+00  0.00000000000E+00  0.77336507432E+03  0.25153778410E+04  0.23935396685E+04 0.  0.
        5    1    3    3  502    0 -0.10763203743E+04  0.43913344927E+03  0.87715501319E+02  0.11657700604E+04  0.46999998093E+01 0. -1.
       -5    1    3    3    0  502  0.10763203743E+04 -0.43913344927E+03  0.68564957300E+03  0.13496077806E+04  0.46999998093E+01 0.  1.
</event>
<event>
 5   0  0.9519092E-05  0.2441139E+04  0.7818609E-02  0.8424260E-01
        2   -1    0    0  501    0  0.00000000000E+00  0.00000000000E+00  0.15571011247E+04  0.15571011247E+04  0.25500000920E-02 0.  1.
       -2   -1    0    0    0  501  0.00000000000E+00  0.00000000000E+00 -0.95677138417E+03  0.95677138418E+03  0.25500000920E-02 0. -1.
    10030    2    1    2    0    0  0.00000000000E+00  0.00000000000E+00  0.60032974053E+03  0.25138725089E+04  0.24411389132E+04 0.  0.
        4    1    3    3  502    0  0.15776311975E+02  0.64616077654E+03  0.13663958485E+04  0.15115594162E+04  0.12699999809E+01 0.  1.
       -4    1    3    3    0  502 -0.15776311975E+02 -0.64616077654E+03 -0.76606610792E+03  0.10023130927E+04  0.12699999809E+01 0. -1.
</event>
<event>
 5   0  0.4208577E-05  0.2417128E+04  0.7818609E-02  0.8433119E-01
       -1   -1    0    0    0  501  0.00000000000E+00  0.00000000000E+00  0.16829229185E+04  0.16829229185E+04  0.50400001928E-02 0. -1.
        1   -1    0    0  501    0  0.00000000000E+00  0.00000000000E+00 -0.86791075771E+03  0.86791075772E+03  0.50400001928E-02 0.  1.
    10030    2    1    2    0    0  0.00000000000E+00  0.00000000000E+00  0.81501216083E+03  0.25508336763E+04  0.24171279696E+04 0.  0.
        1    1    3    3  502    0 -0.78864735510E+03 -0.52195918265E+03  0.12016065139E+04  0.15291384023E+04  0.50400001928E-02 0. -1.
       -1    1    3    3    0  502  0.78864735510E+03  0.52195918265E+03 -0.38659435305E+03  0.10216952740E+04  0.50400001928E-02 0.  1.
</event>
<event>
 5   0  0.9182865E-05  0.2317512E+04  0.7818609E-02  0.8471048E-01
       -2   -1    0    0    0  501  0.00000000000E+00  0.00000000000E+00  0.15227675977E+04  0.15227675977E+04  0.25500000920E-02 0. -1.
        2   -1    0    0  501    0  0.00000000000E+00  0.00000000000E+00 -0.88175996181E+03  0.88175996181E+03  0.25500000920E-02 0.  1.
    10030    2    1    2    0    0  0.00000000000E+00  0.00000000000E+00  0.64100763593E+03  0.24045275596E+04  0.23175120270E+04 0.  0.
        3    1    3    3  502    0 -0.47518360222E+03 -0.15640014826E+03  0.14049538504E+04  0.14913603837E+04  0.10100000352E+00 0. -1.
       -3    1    3    3    0  502  0.47518360222E+03  0.15640014826E+03 -0.76394621448E+03  0.91316717582E+03  0.10100000352E+00 0.  1.
</event>
<event>
 5   0  0.9144244E-05  0.2339746E+04  0.7818609E-02  0.8462413E-01
        2   -1    0    0  501    0  0.00000000000E+00  0.00000000000E+00  0.13676851379E+04  0.13676851379E+04  0.25500000920E-02 0. -1.
       -2   -1    0    0    0  501  0.00000000000E+00  0.00000000000E+00 -0.10006706492E+04  0.10006706492E+04  0.25500000920E-02 0.  1.
    10030    2    1    2    0    0  0.00000000000E+00  0.00000000000E+00  0.36701448873E+03  0.23683557871E+04  0.23397456057E+04 0.  0.
        1    1    3    3  502    0  0.98926043361E+03  0.62148216320E+03  0.12171912387E+03  0.11746028392E+04  0.50400001928E-02 0.  1.
       -1    1    3    3    0  502 -0.98926043361E+03 -0.62148216320E+03  0.24529536486E+03  0.11937529479E+04  0.50400001928E-02 0. -1.
</event>
<event>
 5   0  0.4260395E-05  0.2346827E+04  0.7818609E-02  0.8459683E-01
        1   -1    0    0  501    0  0.00000000000E+00  0.00000000000E+00  0.11794057820E+04  0.11794057820E+04  0.50400001928E-02 0.  1.
       -1   -1    0    0    0  501  0.00000000000E+00  0.00000000000E+00 -0.11674513956E+04  0.11674513956E+04  0.50400001928E-02 0. -1.
    10030    2    1    2    0    0  0.00000000000E+00  0.00000000000E+00  0.11954386388E+02  0.23468571776E+04  0.23468267308E+04 0.  0.
        4    1    3    3  502    0  0.11552998958E+04  0.19188876924E+03 -0.67223239574E+02  0.11730557215E+04  0.12699999809E+01 0.  1.
       -4    1    3    3    0  502 -0.11552998958E+04 -0.19188876924E+03  0.79177625962E+02  0.11738014561E+04  0.12699999809E+01 0. -1.
</event>
<event>
 5   0  0.9182865E-05  0.2373473E+04  0.7818609E-02  0.8449502E-01
        2   -1    0    0  501    0  0.00000000000E+00  0.00000000000E+00  0.11128787926E+04  0.11128787926E+04  0.25500000920E-02 0. -1.
       -2   -1    0    0    0  501  0.00000000000E+00  0.00000000000E+00 -0.12654959582E+04  0.12654959582E+04  0.25500000920E-02 0.  1.
    10030    2    1    2    0    0  0.00000000000E+00  0.00000000000E+00 -0.15261716552E+03  0.23783747508E+04  0.23734730788E+04 0.  0.
        3    1    3    3  502    0 -0.77921888119E+02  0.13183166299E+03 -0.12555533548E+04  0.12648579544E+04  0.10100000352E+00 0.  1.
       -3    1    3    3    0  502  0.77921888119E+02 -0.13183166299E+03  0.11029361892E+04  0.11135167964E+04  0.10100000352E+00 0. -1.
</event>
<event>
 5   0  0.9144244E-05  0.2410741E+04  0.7818609E-02  0.8435493E-01
       -2   -1    0    0    0  501  0.00000000000E+00  0.00000000000E+00  0.14031575892E+04  0.14031575892E+04  0.25500000920E-02 0. -1.
        2   -1    0    0  501    0  0.00000000000E+00  0.00000000000E+00 -0.10354635215E+04  0.10354635215E+04  0.25500000920E-02 0.  1.
    10030    2    1    2    0    0  0.00000000000E+00  0.00000000000E+00  0.36769406770E+03  0.24386211107E+04  0.24107413786E+04 0.  0.
        1    1    3    3  502    0 -0.64343778517E+03  0.99082167006E+03 -0.58039099283E+02  0.11828390856E+04  0.50400001928E-02 0.  1.
       -1    1    3    3    0  502  0.64343778517E+03 -0.99082167006E+03  0.42573316699E+03  0.12557820252E+04  0.50400001928E-02 0. -1.
</event>
<event>
 5   0  0.3934906E-05  0.2417497E+04  0.7818609E-02  0.8432982E-01
        1   -1    0    0  501    0  0.00000000000E+00  0.00000000000E+00  0.17329189272E+04  0.17329189272E+04  0.50400001928E-02 0.  1.
       -1   -1    0    0    0  501  0.00000000000E+00  0.00000000000E+00 -0.84312830004E+03  0.84312830006E+03  0.50400001928E-02 0. -1.
    10030    2    1    2    0    0  0.00000000000E+00  0.00000000000E+00  0.88979062716E+03  0.25760472273E+04  0.24174970438E+04 0.  0.
        2    1    3    3  502    0  0.66407366397E+03 -0.83911534385E+03 -0.15407745946E+03  0.10811328572E+04  0.25500000920E-02 0. -1.
       -2    1    3    3    0  502 -0.66407366397E+03  0.83911534385E+03  0.10438680866E+04  0.14949143700E+04  0.25500000920E-02 0.  1.
</event>
<event>
 5   0  0.9491680E-05  0.2373799E+04  0.7818609E-02  0.8449379E-01
        2   -1    0    0  501    0  0.00000000000E+00  0.00000000000E+00  0.22562283467E+04  0.22562283467E+04  0.25500000920E-02 0.  1.
       -2   -1    0    0    0  501  0.00000000000E+00  0.00000000000E+00 -0.62437382932E+03  0.62437382933E+03  0.25500000920E-02 0. -1.
    10030    2    1    2    0    0  0.00000000000E+00  0.00000000000E+00  0.16318545174E+04  0.28806021760E+04  0.23737985868E+04 0.  0.
        5    1    3    3  502    0  0.82658295440E+03  0.54818358987E+02  0.18473752767E+04  0.20246140215E+04  0.46999998093E+01 0.  1.
       -5    1    3    3    0  502 -0.82658295440E+03 -0.54818358987E+02 -0.21552075934E+03  0.85598815453E+03  0.46999998093E+01 0. -1.
</event>
<event>
 5   0  0.4208577E-05  0.2385052E+04  0.7818609E-02  0.8445121E-01
        1   -1    0    0  501    0  0.00000000000E+00  0.00000000000E+00  0.22042544692E+04  0.22042544692E+04  0.50400001928E-02 0. -1.
       -1   -1    0    0    0  501  0.00000000000E+00  0.00000000000E+00 -0.64516963913E+03  0.64516963915E+03  0.50400001928E-02 0.  1.
    10030    2    1    2    0    0  0.00000000000E+00  0.00000000000E+00  0.15590848301E+04  0.28494241084E+04  0.23850518321E+04 0.  0.
        1    1    3    3  502    0  0.74136205800E+03  0.65250565826E+03 -0.18976303377E+02  0.98779625188E+03  0.50400001928E-02 0. -1.
       -1    1    3    3    0  502 -0.74136205800E+03 -0.65250565826E+03  0.15780611335E+04  0.18616278565E+04  0.50400001928E-02 0.  1.
</event>
<event>
 5   0  0.9144244E-05  0.1985269E+04  0.7818609E-02  0.8613539E-01
       -2   -1    0    0    0  501  0.00000000000E+00  0.00000000000E+00  0.12245761436E+04  0.12245761436E+04  0.25500000920E-02 0. -1.
        2   -1    0    0  501    0  0.00000000000E+00  0.00000000000E+00 -0.80462397593E+03  0.80462397594E+03  0.25500000920E-02 0.  1.
    10030    2    1    2    0    0  0.00000000000E+00  0.00000000000E+00  0.41995216763E+03  0.20292001195E+04  0.19852690754E+04 0.  0.
        1    1    3    3  502    0 -0.37686357427E+03 -0.86558931115E+03  0.52344194472E+03  0.10794732413E+04  0.50400001928E-02 0.  1.
       -1    1    3    3    0  502  0.37686357427E+03  0.86558931115E+03 -0.10348977709E+03  0.94972687820E+03  0.50400001928E-02 0. -1.
</event>
<event>
 5   0  0.9750757E-05  0.1326790E+04  0.7818609E-02  0.9008586E-01
        2   -1    0    0  501    0  0.00000000000E+00  0.00000000000E+00  0.84412194616E+03  0.84412194616E+03  0.25500000920E-02 0.  1.
       -2   -1    0    0    0  501  0.00000000000E+00  0.00000000000E+00 -0.52136195691E+03  0.52136195691E+03  0.25500000920E-02 0. -1.
    10030    2    1    2    0    0  0.00000000000E+00  0.00000000000E+00  0.32275998925E+03  0.13654839031E+04  0.13267902166E+04 0.  0.
        2    1    3    3  502    0 -0.59376795018E+03 -0.27264449760E+03  0.27961142403E+03  0.71068836292E+03  0.25500000920E-02 0. -1.
       -2    1    3    3    0  502  0.59376795018E+03  0.27264449760E+03  0.43148565220E+02  0.65479554016E+03  0.25500000920E-02 0.  1.
</event>
<event>
 5   0  0.4018942E-05  0.2396288E+04  0.7818609E-02  0.8440894E-01
        1   -1    0    0  501    0  0.00000000000E+00  0.00000000000E+00  0.17557631405E+04  0.17557631405E+04  0.50400001928E-02 0. -1.
       -1   -1    0    0    0  501  0.00000000000E+00  0.00000000000E+00 -0.81762135243E+03  0.81762135245E+03  0.50400001928E-02 0.  1.
    10030    2    1    2    0    0  0.00000000000E+00  0.00000000000E+00  0.93814178810E+03  0.25733844930E+04  0.23962883245E+04 0.  0.
        5    1    3    3  502    0  0.42068682530E+03 -0.11163618390E+04  0.58810573520E+03  0.13300870672E+04  0.46999998093E+01 0.  1.
       -5    1    3    3    0  502 -0.42068682530E+03  0.11163618390E+04  0.35003605290E+03  0.12432974258E+04  0.46999998093E+01 0. -1.
</event>
<event>
 5   0  0.4061631E-05  0.2366485E+04  0.7818609E-02  0.8452159E-01
       -1   -1    0    0    0  501  0.00000000000E+00  0.00000000000E+00  0.80379331935E+03  0.80379331937E+03  0.50400001928E-02 0. -1.
        1   -1    0    0  501    0  0.00000000000E+00  0.00000000000E+00 -0.17418200118E+04  0.17418200118E+04  0.50400001928E-02 0.  1.
    10030    2    1    2    0    0  0.00000000000E+00  0.00000000000E+00 -0.93802669243E+03  0.25456133312E+04  0.23664854016E+04 0.  0.
        3    1    3    3  502    0 -0.10414796047E+04 -0.41971983758E+03 -0.67650190384E+02  0.11249093597E+04  0.10100000352E+00 0. -1.
       -3    1    3    3    0  502  0.10414796047E+04  0.41971983758E+03 -0.87037650204E+03  0.14207039715E+04  0.10100000352E+00 0.  1.
</event>
<event>
 5   0  0.9182865E-05  0.2463558E+04  0.7818609E-02  0.8416084E-01
       -2   -1    0    0    0  501  0.00000000000E+00  0.00000000000E+00  0.10004290302E+04  0.10004290302E+04  0.25500000920E-02 0.  1.
        2   -1    0    0  501    0  0.00000000000E+00  0.00000000000E+00 -0.15166288668E+04  0.15166288668E+04  0.25500000920E-02 0. -1.
    10030    2    1    2    0    0  0.00000000000E+00  0.00000000000E+00 -0.51619983656E+03  0.25170578970E+04  0.24635580337E+04 0.  0.
        3    1    3    3  502    0 -0.36754224049E+03 -0.40353646869E+03  0.87012243017E+03  0.10271523907E+04  0.10100000352E+00 0.  1.
       -3    1    3    3    0  502  0.36754224049E+03  0.40353646869E+03 -0.13863222667E+04  0.14899055062E+04  0.10100000352E+00 0. -1.
</event>
<event>
 5   0  0.9491680E-05  0.2387499E+04  0.7818609E-02  0.8444199E-01
       -2   -1    0    0    0  501  0.00000000000E+00  0.00000000000E+00  0.62161158905E+03  0.62161158906E+03  0.25500000920E-02 0. -1.
        2   -1    0    0  501    0  0.00000000000E+00  0.00000000000E+00 -0.22924883757E+04  0.22924883757E+04  0.25500000920E-02 0.  1.
    10030    2    1    2    0    0  0.00000000000E+00  0.00000000000E+00 -0.16708767867E+04  0.29140999648E+04  0.23874985588E+04 0.  0.
        5    1    3    3  502    0 -0.86415162872E+03  0.72751296777E+03 -0.13065549511E+04  0.17271772017E+04  0.46999998093E+01 0. -1.
       -5    1    3    3    0  502  0.86415162872E+03 -0.72751296777E+03 -0.36432183551E+03  0.11869227631E+04  0.46999998093E+01 0.  1.
</event>
<event>
 5   0  0.4018942E-05  0.2060721E+04  0.7818609E-02  0.8578746E-01
       -1   -1    0    0    0  501  0.00000000000E+00  0.00000000000E+00  0.94325273384E+03  0.94325273385E+03  0.50400001928E-02 0.  1.
        1   -1    0    0  501    0  0.00000000000E+00  0.00000000000E+00 -0.11255126512E+04  0.11255126512E+04  0.50400001928E-02 0. -1.
    10030    2    1    2    0    0  0.00000000000E+00  0.00000000000E+00 -0.18225991740E+03  0.20687653851E+04  0.20607211216E+04 0.  0.
        5    1    3    3  502    0 -0.99424187858E+03  0.18393276671E+03 -0.29007675651E+03  0.10519100677E+04  0.46999998093E+01 0.  1.
       -5    1    3    3    0  502  0.99424187858E+03 -0.18393276671E+03  0.10781683912E+03  0.10168553174E+04  0.46999998093E+01 0. -1.
</event>
<event>
 5   0  0.9144244E-05  0.1479599E+04  0.7818609E-02  0.8898134E-01
       -2   -1    0    0    0  501  0.00000000000E+00  0.00000000000E+00  0.78024241273E+03  0.78024241273E+03  0.25500000920E-02 0.  1.
        2   -1    0    0  501    0  0.00000000000E+00  0.00000000000E+00 -0.70145306285E+03  0.70145306285E+03  0.25500000920E-02 0. -1.
    10030    2    1    2    0    0  0.00000000000E+00  0.00000000000E+00  0.78789349883E+02  0.14816954756E+04  0.14795991757E+04 0.  0.
        1    1    3    3  502    0 -0.14360954995E+03 -0.52967355175E+03  0.53620809350E+03  0.76726585603E+03  0.50400001928E-02 0.  1.
       -1    1    3    3    0  502  0.14360954995E+03  0.52967355175E+03 -0.45741874362E+03  0.71442961956E+03  0.50400001928E-02 0. -1.
</event>
<event>
 5   0  0.4208577E-05  0.2412140E+04  0.7818609E-02  0.8434972E-01
        1   -1    0    0  501    0  0.00000000000E+00  0.00000000000E+00  0.10532498093E+04  0.10532498093E+04  0.50400001928E-02 0.  1.
       -1   -1    0    0    0  501  0.00000000000E+00  0.00000000000E+00 -0.13810638968E+04  0.13810638969E+04  0.50400001928E-02 0. -1.
    10030    2    1    2    0    0  0.00000000000E+00  0.00000000000E+00 -0.32781408756E+03  0.24343137062E+04  0.24121403657E+04 0.  0.
        1    1    3    3  502    0  0.67493038852E+02 -0.24743550947E+03 -0.13532246046E+04  0.13773149502E+04  0.50400001928E-02 0. -1.
       -1    1    3    3    0  502 -0.67493038852E+02  0.24743550947E+03  0.10254105170E+04  0.10569987559E+04  0.50400001928E-02 0.  1.
</event>
<event>
 5   0  0.9182865E-05  0.2382716E+04  0.7818609E-02  0.8446003E-01
        2   -1    0    0  501    0  0.00000000000E+00  0.00000000000E+00  0.20737931122E+04  0.20737931122E+04  0.25500000920E-02 0.  1.
       -2   -1    0    0    0  501  0.00000000000E+00  0.00000000000E+00 -0.68441460737E+03  0.68441460737E+03  0.25500000920E-02 0. -1.
    10030    2    1    2    0    0  0.00000000000E+00  0.00000000000E+00  0.13893785049E+04  0.27582077196E+04  0.23827163479E+04 0.  0.
        3    1    3    3  502    0 -0.55121113384E+03 -0.77589751474E+03  0.15241921791E+04  0.17969453182E+04  0.10100000352E+00 0.  1.
       -3    1    3    3    0  502  0.55121113384E+03  0.77589751474E+03 -0.13481367425E+03  0.96126240143E+03  0.10100000352E+00 0. -1.
</event>
<event>
 5   0  0.9519092E-05  0.2350033E+04  0.7818609E-02  0.8458451E-01
        2   -1    0    0  501    0  0.00000000000E+00  0.00000000000E+00  0.17291959238E+04  0.17291959238E+04  0.25500000920E-02 0. -1.
       -2   -1    0    0    0  501  0.00000000000E+00  0.00000000000E+00 -0.79844277980E+03  0.79844277981E+03  0.25500000920E-02 0.  1.
    10030    2    1    2    0    0  0.00000000000E+00  0.00000000000E+00  0.93075314402E+03  0.25276387036E+04  0.23500331915E+04 0.  0.
        4    1    3    3  502    0 -0.11489807642E+04  0.18682529948E+03  0.29327807189E+03  0.12004474704E+04  0.12699999809E+01 0. -1.
       -4    1    3    3    0  502  0.11489807642E+04 -0.18682529948E+03  0.63747507213E+03  0.13271912332E+04  0.12699999809E+01 0.  1.
</event>
<event>
 5   0  0.9750757E-05  0.2383807E+04  0.7818609E-02  0.8445591E-01
       -2   -1    0    0    0  501  0.00000000000E+00  0.00000000000E+00  0.64694550397E+03  0.64694550398E+03  0.25500000920E-02 0. -1.
        2   -1    0    0  501    0  0.00000000000E+00  0.00000000000E+00 -0.21959090379E+04  0.21959090379E+04  0.25500000920E-02 0.  1.
    10030    2    1    2    0    0  0.00000000000E+00  0.00000000000E+00 -0.15489635339E+04  0.28428545418E+04  0.23838066022E+04 0.  0.
        2    1    3    3  502    0 -0.11617708638E+04  0.25994272090E+03 -0.70543909977E+03  0.13838085422E+04  0.25500000920E-02 0. -1.
       -2    1    3    3    0  502  0.11617708638E+04 -0.25994272090E+03 -0.84352443411E+03  0.14590459996E+04  0.25500000920E-02 0.  1.
</event>
<event>
 5   0  0.9519092E-05  0.2574296E+04  0.7818609E-02  0.8376985E-01
       -2   -1    0    0    0  501  0.00000000000E+00  0.00000000000E+00  0.14236797273E+04  0.14236797273E+04  0.25500000920E-02 0. -1.
        2   -1    0    0  501    0  0.00000000000E+00  0.00000000000E+00 -0.11637095897E+04  0.11637095897E+04  0.25500000920E-02 0.  1.
    10030    2    1    2    0    0  0.00000000000E+00  0.00000000000E+00  0.25997013761E+03  0.25873893170E+04  0.25742958270E+04 0.  0.
        4    1    3    3  502    0 -0.10718725741E+04  0.46072692617E+03 -0.41644180617E+03  0.12387919544E+04  0.12699999809E+01 0.  1.
       -4    1    3    3    0  502  0.10718725741E+04 -0.46072692617E+03  0.67641194379E+03  0.13485973625E+04  0.12699999809E+01 0. -1.
</event>
<event>
 5   0  0.9144244E-05  0.1977632E+04  0.7818609E-02  0.8617150E-01
        2   -1    0    0  501    0  0.00000000000E+00  0.00000000000E+00  0.72280913984E+03  0.72280913984E+03  0.25500000920E-02 0. -1.
       -2   -1    0    0    0  501  0.00000000000E+00  0.00000000000E+00 -0.13527181526E+04  0.13527181526E+04  0.25500000920E-02 0.  1.
    10030    2    1    2    0    0  0.00000000000E+00  0.00000000000E+00 -0.62990901280E+03  0.20755272925E+04  0.19776319621E+04 0.  0.
        1    1    3    3  502    0  0.13069388738E+03 -0.44095837234E+03 -0.12336320084E+04  0.13165762836E+04  0.50400001928E-02 0.  1.
       -1    1    3    3    0  502 -0.13069388738E+03  0.44095837234E+03  0.60372299565E+03  0.75895100885E+03  0.50400001928E-02 0. -1.
</event>
<event>
 5   0  0.4018942E-05  0.2382284E+04  0.7818609E-02  0.8446166E-01
        1   -1    0    0  501    0  0.00000000000E+00  0.00000000000E+00  0.18477936899E+04  0.18477936899E+04  0.50400001928E-02 0.  1.
       -1   -1    0    0    0  501  0.00000000000E+00  0.00000000000E+00 -0.76784494444E+03  0.76784494445E+03  0.50400001928E-02 0. -1.
    10030    2    1    2    0    0  0.00000000000E+00  0.00000000000E+00  0.10799487455E+04  0.26156386344E+04  0.23822838145E+04 0.  0.
        5    1    3    3  502    0  0.52909718333E+02  0.10295730521E+04 -0.11510680077E+03  0.10373484340E+04  0.46999998093E+01 0. -1.
       -5    1    3    3    0  502 -0.52909718333E+02 -0.10295730521E+04  0.11950555463E+04  0.15782902004E+04  0.46999998093E+01 0.  1.
</event>
<event>
 5   0  0.4208577E-05  0.2361979E+04  0.7818609E-02  0.8453877E-01
       -1   -1    0    0    0  501  0.00000000000E+00  0.00000000000E+00  0.12375140679E+04  0.12375140679E+04  0.50400001928E-02 0. -1.
        1   -1    0    0  501    0  0.00000000000E+00  0.00000000000E+00 -0.11270470874E+04  0.11270470874E+04  0.50400001928E-02 0.  1.
    10030    2    1    2    0    0  0.00000000000E+00  0.00000000000E+00  0.11046698048E+03  0.23645611552E+04  0.23619793613E+04 0.  0.
        1    1    3    3  502    0 -0.24739731736E+03  0.69787846926E+03  0.97629179275E+03  0.12253103505E+04  0.50400001928E-02 0. -1.
       -1    1    3    3    0  502  0.24739731736E+03 -0.69787846926E+03 -0.86582481227E+03  0.11392508047E+04  0.50400001928E-02 0.  1.
</event>
<event>
 5   0  0.9144244E-05  0.2411629E+04  0.7818609E-02  0.8435163E-01
       -2   -1    0    0    0  501  0.00000000000E+00  0.00000000000E+00  0.78537029774E+03  0.78537029775E+03  0.25500000920E-02 0.  1.
        2   -1    0    0  501    0  0.00000000000E+00  0.00000000000E+00 -0.18513408698E+04  0.18513408698E+04  0.25500000920E-02 0. -1.
    10030    2    1    2    0    0  0.00000000000E+00  0.00000000000E+00 -0.10659705721E+04  0.26367111676E+04  0.24116286034E+04 0.  0.
        1    1    3    3  502    0  0.11057922902E+04 -0.13544098056E+02 -0.10584995811E+04  0.15308106986E+04  0.50400001928E-02 0.  1.
       -1    1    3    3    0  502 -0.11057922902E+04  0.13544098056E+02 -0.74709909758E+01  0.11059004690E+04  0.50400001928E-02 0. -1.
</event>
<event>
 5   0  0.3934906E-05  0.2369191E+04  0.7818609E-02  0.8451129E-01
        1   -1    0    0  501    0  0.00000000000E+00  0.00000000000E+00  0.11778376257E+04  0.11778376257E+04  0.50400001928E-02 0. -1.
       -1   -1    0    0    0  501  0.00000000000E+00  0.00000000000E+00 -0.11913918739E+04  0.11913918739E+04  0.50400001928E-02 0.  1.
    10030    2    1    2    0    0  0.00000000000E+00  0.00000000000E+00 -0.13554248132E+02  0.23692294996E+04  0.23691907277E+04 0.  0.
        2    1    3    3  502    0 -0.85960989113E+02 -0.74007305463E+03 -0.92775297558E+03  0.11898836084E+04  0.25500000920E-02 0.  1.
       -2    1    3    3    0  502  0.85960989113E+02  0.74007305463E+03  0.91419872745E+03  0.11793458912E+04  0.25500000920E-02 0. -1.
</event>
<event>
 5   0  0.4061631E-05  0.2388071E+04  0.7818609E-02  0.8443983E-01
       -1   -1    0    0    0  501  0.00000000000E+00  0.00000000000E+00  0.90192566730E+03  0.90192566732E+03  0.50400001928E-02 0. -1.
        1   -1    0    0  501    0  0.00000000000E+00  0.00000000000E+00 -0.15807515625E+04  0.15807515625E+04  0.50400001928E-02 0.  1.
    10030    2    1    2    0    0  0.00000000000E+00  0.00000000000E+00 -0.67882589523E+03  0.24826772299E+04  0.23880706923E+04 0.  0.
        3    1    3    3  502    0  0.55944902696E+03 -0.83135467668E+03 -0.10144326888E+04  0.14259058533E+04  0.10100000352E+00 0.  1.
       -3    1    3    3    0  502 -0.55944902696E+03  0.83135467668E+03  0.33560679356E+03  0.10567713765E+04  0.10100000352E+00 0. -1.
</event>
<event>
 5   0  0.4260395E-05  0.2156001E+04  0.7818609E-02  0.8536968E-01
       -1   -1    0    0    0  501  0.00000000000E+00  0.00000000000E+00  0.98328981315E+03  0.98328981317E+03  0.50400001928E-02 0.  1.
        1   -1    0    0  501    0  0.00000000000E+00  0.00000000000E+00 -0.11818340613E+04  0.11818340613E+04  0.50400001928E-02 0. -1.
    10030    2    1    2    0    0  0.00000000000E+00  0.00000000000E+00 -0.19854424814E+03  0.21651238745E+04  0.21560012925E+04 0.  0.
        4    1    3    3  502    0  0.24333844652E+03  0.53834617864E+03  0.80623800635E+03  0.99952565920E+03  0.12699999809E+01 0.  1.
       -4    1    3    3    0  502 -0.24333844652E+03 -0.53834617864E+03 -0.10047822545E+04  0.11655982153E+04  0.12699999809E+01 0. -1.
</event>
<event>
 5   0  0.9144244E-05  0.2437193E+04  0.7818609E-02  0.8425709E-01
        2   -1    0    0  501    0  0.00000000000E+00  0.00000000000E+00  0.24618226354E+04  0.24618226354E+04  0.25500000920E-02 0. -1.
       -2   -1    0    0    0  501  0.00000000000E+00  0.00000000000E+00 -0.60320255483E+03  0.60320255483E+03  0.25500000920E-02 0.  1.
    10030    2    1    2    0    0  0.00000000000E+00  0.00000000000E+00  0.18586200806E+04  0.30650251902E+04  0.24371932244E+04 0.  0.
        1    1    3    3  502    0  0.53224942444E+02 -0.41112244373E+03  0.23704189864E+04  0.24063957965E+04  0.50400001928E-02 0. -1.
       -1    1    3    3    0  502 -0.53224942444E+02  0.41112244373E+03 -0.51179890585E+03  0.65862939373E+03  0.50400001928E-02 0.  1.
</event>
<event>
 5   0  0.3934906E-05  0.1436232E+04  0.7818609E-02  0.8928001E-01
        1   -1    0    0  501    0  0.00000000000E+00  0.00000000000E+00  0.88178965271E+03  0.88178965272E+03  0.50400001928E-02 0. -1.
       -1   -1    0    0    0  501  0.00000000000E+00  0.00000000000E+00 -0.58482304019E+03  0.58482304021E+03  0.50400001928E-02 0.  1.
    10030    2    1    2    0    0  0.00000000000E+00  0.00000000000E+00  0.29696661252E+03  0.14666126929E+04  0.14362324401E+04 0.  0.
        2    1    3    3  502    0 -0.18576817730E+03 -0.14816283892E+03  0.84048203315E+03  0.87342549229E+03  0.25500000920E-02 0. -1.
       -2    1    3    3    0  502  0.18576817730E+03  0.14816283892E+03 -0.54351542063E+03  0.59318720064E+03  0.25500000920E-02 0.  1.
</event>
<event>
 5   0  0.4018942E-05  0.2505722E+04  0.7818609E-02  0.8400950E-01
        1   -1    0    0  501    0  0.00000000000E+00  0.00000000000E+00  0.26628085825E+04  0.26628085825E+04  0.50400001928E-02 0. -1.
       -1   -1    0    0    0  501  0.00000000000E+00  0.00000000000E+00 -0.58947536832E+03  0.58947536834E+03  0.50400001928E-02 0.  1.
    10030    2    1    2    0    0  0.00000000000E+00  0.00000000000E+00  0.20733332142E+04  0.32522839509E+04  0.25057215089E+04 0.  0.
        5    1    3    3  502    0  0.10904458580E+04 -0.12261295814E+02  0.18372097477E+04  0.21364887680E+04  0.46999998093E+01 0. -1.
       -5    1    3    3    0  502 -0.10904458580E+04  0.12261295814E+02  0.23612346648E+03  0.11157951829E+04  0.46999998093E+01 0.  1.
</event>
<event>
 5   0  0.4018942E-05  0.2385697E+04  0.7818609E-02  0.8444878E-01
        1   -1    0    0  501    0  0.00000000000E+00  0.00000000000E+00  0.22770038018E+04  0.22770038018E+04  0.50400001928E-02 0. -1.
       -1   -1    0    0    0  501  0.00000000000E+00  0.00000000000E+00 -0.62489470402E+03  0.62489470404E+03  0.50400001928E-02 0.  1.
    10030    2    1    2    0    0  0.00000000000E+00  0.00000000000E+00  0.16521090977E+04  0.29018985058E+04  0.23856970611E+04 0.  0.
        5    1    3    3  502    0 -0.86319922278E+03 -0.52842728511E+03  0.58179640679E+02  0.10137826466E+04  0.46999998093E+01 0.  1.
       -5    1    3    3    0  502  0.86319922278E+03  0.52842728511E+03  0.15939294571E+04  0.18881158593E+04  0.46999998093E+01 0. -1.
</event>
<event>
 5   0  0.9144244E-05  0.1526906E+04  0.7818609E-02  0.8866755E-01
        2   -1    0    0  501    0  0.00000000000E+00  0.00000000000E+00  0.74060593899E+03  0.74060593899E+03  0.25500000920E-02 0. -1.
       -2   -1    0    0    0  501  0.00000000000E+00  0.00000000000E+00 -0.78700525264E+03  0.78700525264E+03  0.25500000920E-02 0.  1.
    10030    2    1    2    0    0  0.00000000000E+00  0.00000000000E+00 -0.46399313645E+02  0.15276111916E+04  0.15269063680E+04 0.  0.
        1    1    3    3  502    0 -0.28027792777E+02 -0.75879379876E+03 -0.10265405923E+03  0.76621892570E+03  0.50400001928E-02 0.  1.
       -1    1    3    3    0  502  0.28027792777E+02  0.75879379876E+03  0.56254745584E+02  0.76139226593E+03  0.50400001928E-02 0. -1.
</event>
<event>
 5   0  0.4018942E-05  0.2427193E+04  0.7818609E-02  0.8429393E-01
       -1   -1    0    0    0  501  0.00000000000E+00  0.00000000000E+00  0.12180523096E+04  0.12180523096E+04  0.50400001928E-02 0. -1.
        1   -1    0    0  501    0  0.00000000000E+00  0.00000000000E+00 -0.12091569355E+04  0.12091569355E+04  0.50400001928E-02 0.  1.
    10030    2    1    2    0    0  0.00000000000E+00  0.00000000000E+00  0.88953741230E+01  0.24272092452E+04  0.24271929450E+04 0.  0.
        5    1    3    3  502    0  0.35987953708E+03 -0.40749553190E+03  0.10894565488E+04  0.12175810246E+04  0.46999998093E+01 0. -1.
       -5    1    3    3    0  502 -0.35987953708E+03  0.40749553190E+03 -0.10805611747E+04  0.12096282206E+04  0.46999998093E+01 0.  1.
</event>
<event>
 5   0  0.9750757E-05  0.2422813E+04  0.7818609E-02  0.8431012E-01
        2   -1    0    0  501    0  0.00000000000E+00  0.00000000000E+00  0.23906900116E+04  0.23906900116E+04  0.25500000920E-02 0.  1.
       -2   -1    0    0    0  501  0.00000000000E+00  0.00000000000E+00 -0.61384203092E+03  0.61384203093E+03  0.25500000920E-02 0. -1.
    10030    2    1    2    0    0  0.00000000000E+00  0.00000000000E+00  0.17768479807E+04  0.30045320425E+04  0.24228132508E+04 0.  0.
        2    1    3    3  502    0 -0.42340722301E+02 -0.10360313059E+04  0.11164930949E+03  0.10428898177E+04  0.25500000920E-02 0. -1.
       -2    1    3    3    0  502  0.42340722301E+02  0.10360313059E+04  0.16651986712E+04  0.19616422248E+04  0.25500000920E-02 0.  1.
</event>
<event>
 5   0  0.3934906E-05  0.2325712E+04  0.7818609E-02  0.8467852E-01
        1   -1    0    0  501    0  0.00000000000E+00  0.00000000000E+00  0.21791498782E+04  0.21791498783E+04  0.50400001928E-02 0. -1.
       -1   -1    0    0    0  501  0.00000000000E+00  0.00000000000E+00 -0.62053294633E+03  0.62053294635E+03  0.50400001928E-02 0.  1.
    10030    2    1    2    0    0  0.00000000000E+00  0.00000000000E+00  0.15586169319E+04  0.27996828246E+04  0.23257121873E+04 0.  0.
        2    1    3    3  502    0  0.10325243582E+04  0.12458797278E+03  0.15309667719E+03  0.10512218157E+04  0.25500000920E-02 0.  1.
       -2    1    3    3    0  502 -0.10325243582E+04 -0.12458797278E+03  0.14055202547E+04  0.17484610089E+04  0.25500000920E-02 0. -1.
</event>
<event>
 5   0  0.9491680E-05  0.2332576E+04  0.7818609E-02  0.8465186E-01
       -2   -1    0    0    0  501  0.00000000000E+00  0.00000000000E+00  0.12843187892E+04  0.12843187892E+04  0.25500000920E-02 0.  1.
        2   -1    0    0  501    0  0.00000000000E+00  0.00000000000E+00 -0.10591044978E+04  0.10591044978E+04  0.25500000920E-02 0. -1.
    10030    2    1    2    0    0  0.00000000000E+00  0.00000000000E+00  0.22521429142E+03  0.23434232870E+04  0.23325760920E+04 0.  0.
        5    1    3    3  502    0 -0.18452425073E+03  0.48517788029E+03  0.11618579535E+04  0.12725497117E+04  0.46999998093E+01 0.  1.
       -5    1    3    3    0  502  0.18452425073E+03 -0.48517788029E+03 -0.93664366209E+03  0.10708735753E+04  0.46999998093E+01 0. -1.
</event>
<event>
 5   0  0.9519092E-05  0.2428973E+04  0.7818609E-02  0.8428736E-01
       -2   -1    0    0    0  501  0.00000000000E+00  0.00000000000E+00  0.75591800404E+03  0.75591800405E+03  0.25500000920E-02 0. -1.
        2   -1    0    0  501    0  0.00000000000E+00  0.00000000000E+00 -0.19512393637E+04  0.19512393637E+04  0.25500000920E-02 0.  1.
    10030    2    1    2    0    0  0.00000000000E+00  0.00000000000E+00 -0.11953213596E+04  0.27071573677E+04  0.24289725937E+04 0.  0.
        4    1    3    3  502    0 -0.37184945411E+01  0.41144489302E+03 -0.18711883033E+04  0.19158935270E+04  0.12699999809E+01 0.  1.
       -4    1    3    3    0  502  0.37184945411E+01 -0.41144489302E+03  0.67586694371E+03  0.79126384076E+03  0.12699999809E+01 0. -1.
</event>
<event>
 5   0  0.9519092E-05  0.1326140E+04  0.7818609E-02  0.9009089E-01
       -2   -1    0    0    0  501  0.00000000000E+00  0.00000000000E+00  0.41143390815E+03  0.41143390816E+03  0.25500000920E-02 0.  1.
        2   -1    0    0  501    0  0.00000000000E+00  0.00000000000E+00 -0.10686086991E+04  0.10686086991E+04  0.25500000920E-02 0. -1.
    10030    2    1    2    0    0  0.00000000000E+00  0.00000000000E+00 -0.65717479097E+03  0.14800426073E+04  0.13261400429E+04 0.  0.
        4    1    3    3  502    0  0.33975516432E+03  0.14361871075E+03 -0.94353193882E+03  0.10130715859E+04  0.12699999809E+01 0. -1.
       -4    1    3    3    0  502 -0.33975516432E+03 -0.14361871075E+03  0.28635714784E+03  0.46697102135E+03  0.12699999809E+01 0.  1.
</event>
<event>
 5   0  0.3234750E-05  0.2139277E+04  0.7818609E-02  0.8544136E-01
       -3   -1    0    0    0  501  0.00000000000E+00  0.00000000000E+00  0.18177946855E+04  0.18177946884E+04  0.10100000352E+00 0. -1.
        3   -1    0    0  501    0  0.00000000000E+00  0.00000000000E+00 -0.62940347488E+03  0.62940348299E+03  0.10100000352E+00 0.  1.
    10030    2    1    2    0    0  0.00000000000E+00  0.00000000000E+00  0.11883912107E+04  0.24471981713E+04  0.21392767984E+04 0.  0.
        2    1    3    3  502    0 -0.26987809112E+03  0.46228787685E+03 -0.46515567785E+03  0.70916434611E+03  0.25500000920E-02 0.  1.
       -2    1    3    3    0  502  0.26987809112E+03 -0.46228787685E+03  0.16535468885E+04  0.17380338252E+04  0.25500000920E-02 0. -1.
</event>
<event>
 5   0  0.3234750E-05  0.2413878E+04  0.7818609E-02  0.8434326E-01
        3   -1    0    0  501    0  0.00000000000E+00  0.00000000000E+00  0.11007133844E+04  0.11007133890E+04  0.10100000352E+00 0.  1.
       -3   -1    0    0    0  501  0.00000000000E+00  0.00000000000E+00 -0.13234160388E+04  0.13234160427E+04  0.10100000352E+00 0. -1.
    10030    2    1    2    0    0  0.00000000000E+00  0.00000000000E+00 -0.22270265443E+03  0.24241294317E+04  0.24138780063E+04 0.  0.
        1    1    3    3  502    0 -0.33199414764E+03 -0.62579932804E+03 -0.10926689981E+04  0.13022175135E+04  0.50400001928E-02 0. -1.
       -1    1    3    3    0  502  0.33199414764E+03  0.62579932804E+03  0.86996634366E+03  0.11219119182E+04  0.50400001928E-02 0.  1.
</event>
<event>
 5   0  0.4018942E-05  0.2373409E+04  0.7818609E-02  0.8449526E-01
        1   -1    0    0  501    0  0.00000000000E+00  0.00000000000E+00  0.10680802891E+04  0.10680802891E+04  0.50400001928E-02 0. -1.
       -1   -1    0    0    0  501  0.00000000000E+00  0.00000000000E+00 -0.13185035598E+04  0.13185035598E+04  0.50400001928E-02 0.  1.
    10030    2    1    2    0    0  0.00000000000E+00  0.00000000000E+00 -0.25042327068E+03  0.23865838489E+04  0.23734090784E+04 0.  0.
        5    1    3    3  502    0  0.41620233570E+03  0.43294792354E+03  0.90398210082E+03  0.10852990451E+04  0.46999998093E+01 0. -1.
       -5    1    3    3    0  502 -0.41620233570E+03 -0.43294792354E+03 -0.11544053715E+04  0.13012848038E+04  0.46999998093E+01 0.  1.
</event>
<event>
 5   0  0.9144244E-05  0.2344644E+04  0.7818609E-02  0.8460524E-01
       -2   -1    0    0    0  501  0.00000000000E+00  0.00000000000E+00  0.14727519696E+04  0.14727519696E+04  0.25500000920E-02 0.  1.
        2   -1    0    0  501    0  0.00000000000E+00  0.00000000000E+00 -0.93317741575E+03  0.93317741575E+03  0.25500000920E-02 0. -1.
    10030    2    1    2    0    0  0.00000000000E+00  0.00000000000E+00  0.53957455388E+03  0.24059293854E+04  0.23446440046E+04 0.  0.
        1    1    3    3  502    0 -0.10726021578E+02  0.72074633097E+03 -0.67890453616E+03  0.99020285316E+03  0.50400001928E-02 0. -1.
       -1    1    3    3    0  502  0.10726021578E+02 -0.72074633097E+03  0.12184790900E+04  0.14157265322E+04  0.50400001928E-02 0.  1.
</event>
<event>
 5   0  0.9491680E-05  0.2381066E+04  0.7818609E-02  0.8446626E-01
       -2   -1    0    0    0  501  0.00000000000E+00  0.00000000000E+00  0.87585858746E+03  0.87585858746E+03  0.25500000920E-02 0.  1.
        2   -1    0    0  501    0  0.00000000000E+00  0.00000000000E+00 -0.16182616610E+04  0.16182616610E+04  0.25500000920E-02 0. -1.
    10030    2    1    2    0    0  0.00000000000E+00  0.00000000000E+00 -0.74240307350E+03  0.24941202484E+04  0.23810656207E+04 0.  0.
        5    1    3    3  502    0  0.96128277314E+03 -0.69881490530E+03 -0.44481968877E+03  0.12689733990E+04  0.46999998093E+01 0.  1.
       -5    1    3    3    0  502 -0.96128277314E+03  0.69881490530E+03 -0.29758338473E+03  0.12251468494E+04  0.46999998093E+01 0. -1.
</event>
<event>
 5   0  0.4018942E-05  0.2426262E+04  0.7818609E-02  0.8429736E-01
       -1   -1    0    0    0  501  0.00000000000E+00  0.00000000000E+00  0.84136231000E+03  0.84136231001E+03  0.50400001928E-02 0. -1.
        1   -1    0    0  501    0  0.00000000000E+00  0.00000000000E+00 -0.17491712616E+04  0.17491712616E+04  0.50400001928E-02 0.  1.
    10030    2    1    2    0    0  0.00000000000E+00  0.00000000000E+00 -0.90780895164E+03  0.25905335717E+04  0.24262619589E+04 0.  0.
        5    1    3    3  502    0  0.82891170087E+02 -0.10159435839E+03 -0.17415735537E+04  0.17465087726E+04  0.46999998093E+01 0.  1.
       -5    1    3    3    0  502 -0.82891170087E+02  0.10159435839E+03  0.83376460208E+03  0.84402479906E+03  0.46999998093E+01 0. -1.
</event>
<event>
 5   0  0.9519092E-05  0.2262230E+04  0.7818609E-02  0.8492964E-01
        2   -1    0    0  501    0  0.00000000000E+00  0.00000000000E+00  0.22462990600E+04  0.22462990600E+04  0.25500000920E-02 0. -1.
       -2   -1    0    0    0  501  0.00000000000E+00  0.00000000000E+00 -0.56956842906E+03  0.56956842907E+03  0.25500000920E-02 0.  1.
    10030    2    1    2    0    0  0.00000000000E+00  0.00000000000E+00  0.16767306309E+04  0.28158674891E+04  0.22622298971E+04 0.  0.
        4    1    3    3  502    0 -0.89569482967E+03  0.42654374784E+03  0.16206208425E+03  0.10052236213E+04  0.12699999809E+01 0.  1.
       -4    1    3    3    0  502  0.89569482967E+03 -0.42654374784E+03  0.15146685467E+04  0.18106438678E+04  0.12699999809E+01 0. -1.
</event>
<event>
 5   0  0.9144244E-05  0.1184200E+04  0.7818609E-02  0.9126800E-01
       -2   -1    0    0    0  501  0.00000000000E+00  0.00000000000E+00  0.57339940633E+03  0.57339940634E+03  0.25500000920E-02 0.  1.
        2   -1    0    0  501    0  0.00000000000E+00  0.00000000000E+00 -0.61141071997E+03  0.61141071997E+03  0.25500000920E-02 0. -1.
    10030    2    1    2    0    0  0.00000000000E+00  0.00000000000E+00 -0.38011313635E+02  0.11848101263E+04  0.11842002261E+04 0.  0.
        1    1    3    3  502    0  0.48772497523E+03  0.15167373736E+03 -0.31866278124E+03  0.60201872250E+03  0.50400001928E-02 0. -1.
       -1    1    3    3    0  502 -0.48772497523E+03 -0.15167373736E+03  0.28065146761E+03  0.58279140381E+03  0.50400001928E-02 0.  1.
</event>
<event>
 5   0  0.4061631E-05  0.2394730E+04  0.7818609E-02  0.8441479E-01
       -1   -1    0    0    0  501  0.00000000000E+00  0.00000000000E+00  0.16216326601E+04  0.16216326601E+04  0.50400001928E-02 0.  1.
        1   -1    0    0  501    0  0.00000000000E+00  0.00000000000E+00 -0.88409839538E+03  0.88409839539E+03  0.50400001928E-02 0. -1.
    10030    2    1    2    0    0  0.00000000000E+00  0.00000000000E+00  0.73753426475E+03  0.25057310555E+04  0.23947299077E+04 0.  0.
        3    1    3    3  502    0 -0.11796668499E+04  0.18082648644E+03  0.26747759844E+03  0.12230520720E+04  0.10100000352E+00 0.  1.
       -3    1    3    3    0  502  0.11796668499E+04 -0.18082648644E+03  0.47005666631E+03  0.12826789835E+04  0.10100000352E+00 0. -1.
</event>
<event>
 5   0  0.9182865E-05  0.2467198E+04  0.7818609E-02  0.8414765E-01
        2   -1    0    0  501    0  0.00000000000E+00  0.00000000000E+00  0.15548443098E+04  0.15548443098E+04  0.25500000920E-02 0.  1.
       -2   -1    0    0    0  501  0.00000000000E+00  0.00000000000E+00 -0.97872606759E+03  0.97872606759E+03  0.25500000920E-02 0. -1.
    10030    2    1    2    0    0  0.00000000000E+00  0.00000000000E+00  0.57611824224E+03  0.25335703774E+04  0.24671981332E+04 0.  0.
        3    1    3    3  502    0 -0.12150432066E+04  0.21101388645E+03  0.31903332569E+03  0.12738285314E+04  0.10100000352E+00 0.  1.
       -3    1    3    3    0  502  0.12150432066E+04 -0.21101388645E+03  0.25708491655E+03  0.12597418461E+04  0.10100000352E+00 0. -1.
</event>
<event>
 5   0  0.4061631E-05  0.2369306E+04  0.7818609E-02  0.8451085E-01
        1   -1    0    0  501    0  0.00000000000E+00  0.00000000000E+00  0.10754667962E+04  0.10754667962E+04  0.50400001928E-02 0. -1.
       -1   -1    0    0    0  501  0.00000000000E+00  0.00000000000E+00 -0.13049240813E+04  0.13049240813E+04  0.50400001928E-02 0.  1.
    10030    2    1    2    0    0  0.00000000000E+00  0.00000000000E+00 -0.22945728509E+03  0.23803908775E+04  0.23693058233E+04 0.  0.
        3    1    3    3  502    0  0.56972412284E+03  0.85513003269E+03  0.47757993728E+03  0.11330999760E+04  0.10100000352E+00 0. -1.
       -3    1    3    3    0  502 -0.56972412284E+03 -0.85513003269E+03 -0.70703722237E+03  0.12472909015E+04  0.10100000352E+00 0.  1.
</event>
<event>
 5   0  0.4018942E-05  0.2496296E+04  0.7818609E-02  0.8404306E-01
        1   -1    0    0  501    0  0.00000000000E+00  0.00000000000E+00  0.16159053139E+04  0.16159053139E+04  0.50400001928E-02 0. -1.
       -1   -1    0    0    0  501  0.00000000000E+00  0.00000000000E+00 -0.96408681603E+03  0.96408681604E+03  0.50400001928E-02 0.  1.
    10030    2    1    2    0    0  0.00000000000E+00  0.00000000000E+00  0.65181849785E+03  0.25799921299E+04  0.24962956628E+04 0.  0.
        5    1    3    3  502    0 -0.34412669807E+03  0.90020213351E+03 -0.49381866560E+03  0.10828970542E+04  0.46999998093E+01 0.  1.
       -5    1    3    3    0  502  0.34412669807E+03 -0.90020213351E+03  0.11456371634E+04  0.14970950757E+04  0.46999998093E+01 0. -1.
</event>
<event>
 5   0  0.4208577E-05  0.2470420E+04  0.7818609E-02  0.8413600E-01
       -1   -1    0    0    0  501  0.00000000000E+00  0.00000000000E+00  0.13272286813E+04  0.13272286813E+04  0.50400001928E-02 0. -1.
        1   -1    0    0  501    0  0.00000000000E+00  0.00000000000E+00 -0.11495714062E+04  0.11495714062E+04  0.50400001928E-02 0.  1.
    10030    2    1    2    0    0  0.00000000000E+00  0.00000000000E+00  0.17765727511E+03  0.24768000875E+04  0.24704203217E+04 0.  0.
        1    1    3    3  502    0  0.37407159693E+03  0.11771698112E+04  0.79540945847E+02  0.12377338511E+04  0.50400001928E-02 0. -1.
       -1    1    3    3    0  502 -0.37407159693E+03 -0.11771698112E+04  0.98116329263E+02  0.12390662364E+04  0.50400001928E-02 0.  1.
</event>
<event>
 5   0  0.4208577E-05  0.2547058E+04  0.7818609E-02  0.8386410E-01
       -1   -1    0    0    0  501  0.00000000000E+00  0.00000000000E+00  0.11456670953E+04  0.11456670953E+04  0.50400001928E-02 0.  1.
        1   -1    0    0  501    0  0.00000000000E+00  0.00000000000E+00 -0.14156612336E+04  0.14156612336E+04  0.50400001928E-02 0. -1.
    10030    2    1    2    0    0  0.00000000000E+00  0.00000000000E+00 -0.26999413828E+03  0.25613283289E+04  0.25470582981E+04 0.  0.
        1    1    3    3  502    0 -0.46197761311E+03 -0.11728004442E+04 -0.31765252196E+03  0.12999181980E+04  0.50400001928E-02 0.  1.
       -1    1    3    3    0  502  0.46197761311E+03  0.11728004442E+04  0.47658383681E+02  0.12614101309E+04  0.50400001928E-02 0. -1.
</event>
<event>
 5   0  0.9182865E-05  0.1450106E+04  0.7818609E-02  0.8918327E-01
       -2   -1    0    0    0  501  0.00000000000E+00  0.00000000000E+00  0.43043039016E+03  0.43043039017E+03  0.25500000920E-02 0. -1.
        2   -1    0    0  501    0  0.00000000000E+00  0.00000000000E+00 -0.12213391603E+04  0.12213391603E+04  0.25500000920E-02 0.  1.
    10030    2    1    2    0    0  0.00000000000E+00  0.00000000000E+00 -0.79090877017E+03  0.16517695505E+04  0.14501055014E+04 0.  0.
        3    1    3    3  502    0  0.19635484933E+03  0.31454163396E+03  0.31425918823E+03  0.48605608107E+03  0.10100000352E+00 0. -1.
       -3    1    3    3    0  502 -0.19635484933E+03 -0.31454163396E+03 -0.11051679584E+04  0.11657134694E+04  0.10100000352E+00 0.  1.
</event>
<event>
 5   0  0.4208577E-05  0.2362453E+04  0.7818609E-02  0.8453696E-01
        1   -1    0    0  501    0  0.00000000000E+00  0.00000000000E+00  0.12342993335E+04  0.12342993335E+04  0.50400001928E-02 0. -1.
       -1   -1    0    0    0  501  0.00000000000E+00  0.00000000000E+00 -0.11304360459E+04  0.11304360459E+04  0.50400001928E-02 0.  1.
    10030    2    1    2    0    0  0.00000000000E+00  0.00000000000E+00  0.10386328755E+03  0.23647353794E+04  0.23624533502E+04 0.  0.
        1    1    3    3  502    0  0.84307295093E+02  0.11250185658E+04  0.40230113576E+03  0.11977565267E+04  0.50400001928E-02 0. -1.
       -1    1    3    3    0  502 -0.84307295093E+02 -0.11250185658E+04 -0.29843784821E+03  0.11669788527E+04  0.50400001928E-02 0.  1.
</event>
<event>
 5   0  0.3934906E-05  0.2351185E+04  0.7818609E-02  0.8458008E-01
        1   -1    0    0  501    0  0.00000000000E+00  0.00000000000E+00  0.13703821042E+04  0.13703821042E+04  0.50400001928E-02 0. -1.
       -1   -1    0    0    0  501  0.00000000000E+00  0.00000000000E+00 -0.10084910803E+04  0.10084910803E+04  0.50400001928E-02 0.  1.
    10030    2    1    2    0    0  0.00000000000E+00  0.00000000000E+00  0.36189102387E+03  0.23788731845E+04  0.23511853425E+04 0.  0.
        2    1    3    3  502    0 -0.10711706223E+04  0.16416641814E+03 -0.28011922744E+03  0.11192961612E+04  0.25500000920E-02 0.  1.
       -2    1    3    3    0  502  0.10711706223E+04 -0.16416641814E+03  0.64201025131E+03  0.12595770233E+04  0.25500000920E-02 0. -1.
</event>
<event>
 5   0  0.4018942E-05  0.2431502E+04  0.7818609E-02  0.8427803E-01
        1   -1    0    0  501    0  0.00000000000E+00  0.00000000000E+00  0.14867014932E+04  0.14867014932E+04  0.50400001928E-02 0.  1.
       -1   -1    0    0    0  501  0.00000000000E+00  0.00000000000E+00 -0.99418140011E+03  0.99418140013E+03  0.50400001928E-02 0. -1.
    10030    2    1    2    0    0  0.00000000000E+00  0.00000000000E+00  0.49252009305E+03  0.24808828933E+04  0.24315023932E+04 0.  0.
        5    1    3    3  502    0 -0.20735225139E+03  0.93574411549E+03  0.10093914843E+04  0.13919429818E+04  0.46999998093E+01 0.  1.
       -5    1    3    3    0  502  0.20735225139E+03 -0.93574411549E+03 -0.51687139128E+03  0.10889399115E+04  0.46999998093E+01 0. -1.
</event>
<event>
 5   0  0.9144244E-05  0.1936475E+04  0.7818609E-02  0.8636911E-01
        2   -1    0    0  501    0  0.00000000000E+00  0.00000000000E+00  0.15912300578E+04  0.15912300578E+04  0.25500000920E-02 0.  1.
       -2   -1    0    0    0  501  0.00000000000E+00  0.00000000000E+00 -0.58915665296E+03  0.58915665296E+03  0.25500000920E-02 0. -1.
    10030    2    1    2    0    0  0.00000000000E+00  0.00000000000E+00  0.10020734048E+04  0.21803867108E+04  0.19364749159E+04 0.  0.
        1    1    3    3  502    0 -0.50270970211E+03  0.70622075741E+03  0.98666084661E+03  0.13133790120E+04  0.50400001928E-02 0.  1.
       -1    1    3    3    0  502  0.50270970211E+03 -0.70622075741E+03  0.15412558215E+02  0.86700769879E+03  0.50400001928E-02 0. -1.
</event>
<event>
 5   0  0.9182865E-05  0.2459969E+04  0.7818609E-02  0.8417387E-01
        2   -1    0    0  501    0  0.00000000000E+00  0.00000000000E+00  0.23649191462E+04  0.23649191462E+04  0.25500000920E-02 0. -1.
       -2   -1    0    0    0  501  0.00000000000E+00  0.00000000000E+00 -0.63971001608E+03  0.63971001608E+03  0.25500000920E-02 0.  1.
    10030    2    1    2    0    0  0.00000000000E+00  0.00000000000E+00  0.17252091301E+04  0.30046291623E+04  0.24599694836E+04 0.  0.
        3    1    3    3  502    0 -0.33386083279E+03  0.11597051798E+04  0.11528872761E+04  0.16689901862E+04  0.10100000352E+00 0. -1.
       -3    1    3    3    0  502  0.33386083279E+03 -0.11597051798E+04  0.57232185397E+03  0.13356389761E+04  0.10100000352E+00 0.  1.
</event>
<event>
 5   0  0.4208577E-05  0.1815535E+04  0.7818609E-02  0.8698082E-01
       -1   -1    0    0    0  501  0.00000000000E+00  0.00000000000E+00  0.12417197652E+04  0.12417197652E+04  0.50400001928E-02 0.  1.
        1   -1    0    0  501    0  0.00000000000E+00  0.00000000000E+00 -0.66362924250E+03  0.66362924252E+03  0.50400001928E-02 0. -1.
    10030    2    1    2    0    0  0.00000000000E+00  0.00000000000E+00  0.57809052266E+03  0.19053490077E+04  0.18155346840E+04 0.  0.
        1    1    3    3  502    0  0.79122814177E+03  0.43950143303E+03  0.36204240156E+03  0.97482212865E+03  0.50400001928E-02 0.  1.
       -1    1    3    3    0  502 -0.79122814177E+03 -0.43950143303E+03  0.21604812110E+03  0.93052687904E+03  0.50400001928E-02 0. -1.
</event>
<event>
 5   0  0.3934906E-05  0.2272812E+04  0.7818609E-02  0.8488719E-01
        1   -1    0    0  501    0  0.00000000000E+00  0.00000000000E+00  0.12187567810E+04  0.12187567810E+04  0.50400001928E-02 0.  1.
       -1   -1    0    0    0  501  0.00000000000E+00  0.00000000000E+00 -0.10596195047E+04  0.10596195047E+04  0.50400001928E-02 0. -1.
    10030    2    1    2    0    0  0.00000000000E+00  0.00000000000E+00  0.15913727631E+03  0.22783762856E+04  0.22728118766E+04 0.  0.
        2    1    3    3  502    0 -0.77645331373E+03  0.10025043713E+03 -0.74615216363E+03  0.10815141931E+04  0.25500000920E-02 0. -1.
       -2    1    3    3    0  502  0.77645331373E+03 -0.10025043713E+03  0.90528943994E+03  0.11968620926E+04  0.25500000920E-02 0.  1.
</event>
<event>
 5   0  0.4260395E-05  0.2434380E+04  0.7818609E-02  0.8426743E-01
        1   -1    0    0  501    0  0.00000000000E+00  0.00000000000E+00  0.13202656714E+04  0.13202656715E+04  0.50400001928E-02 0.  1.
       -1   -1    0    0    0  501  0.00000000000E+00  0.00000000000E+00 -0.11221616962E+04  0.11221616963E+04  0.50400001928E-02 0. -1.
    10030    2    1    2    0    0  0.00000000000E+00  0.00000000000E+00  0.19810397521E+03  0.24424273677E+04  0.24343800569E+04 0.  0.
        4    1    3    3  502    0 -0.80622888655E+03 -0.95998348712E+02  0.10088733836E+04  0.12950088098E+04  0.12699999809E+01 0.  1.
       -4    1    3    3    0  502  0.80622888655E+03  0.95998348712E+02 -0.81076940841E+03  0.11474185579E+04  0.12699999809E+01 0. -1.
</event>
<event>
 5   0  0.4061631E-05  0.2386386E+04  0.7818609E-02  0.8444618E-01
       -1   -1    0    0    0  501  0.00000000000E+00  0.00000000000E+00  0.68528013876E+03  0.68528013878E+03  0.50400001928E-02 0. -1.
        1   -1    0    0  501    0  0.00000000000E+00  0.00000000000E+00 -0.20775587089E+04  0.20775587089E+04  0.50400001928E-02 0.  1.
    10030    2    1    2    0    0  0.00000000000E+00  0.00000000000E+00 -0.13922785702E+04  0.27628388477E+04  0.23863861552E+04 0.  0.
        3    1    3    3  502    0 -0.95237132188E+03 -0.71084006509E+03 -0.57249841697E+03  0.13191130280E+04  0.10100000352E+00 0.  1.
       -3    1    3    3    0  502  0.95237132188E+03  0.71084006509E+03 -0.81978015320E+03  0.14437258198E+04  0.10100000352E+00 0. -1.
</event>
<event>
 5   0  0.4208577E-05  0.1832012E+04  0.7818609E-02  0.8689459E-01
       -1   -1    0    0    0  501  0.00000000000E+00  0.00000000000E+00  0.61079390115E+03  0.61079390117E+03  0.50400001928E-02 0.  1.
        1   -1    0    0  501    0  0.00000000000E+00  0.00000000000E+00 -0.13737315235E+04  0.13737315235E+04  0.50400001928E-02 0. -1.
    10030    2    1    2    0    0  0.00000000000E+00  0.00000000000E+00 -0.76293762231E+03  0.19845254246E+04  0.18320118301E+04 0.  0.
        1    1    3    3  502    0  0.19201727897E+02 -0.81188322602E+03  0.77532100545E+02  0.81580285957E+03  0.50400001928E-02 0. -1.
       -1    1    3    3    0  502 -0.19201727897E+02  0.81188322602E+03 -0.84046972285E+03  0.11687225651E+04  0.50400001928E-02 0.  1.
</event>
<event>
 5   0  0.9519092E-05  0.2103406E+04  0.7818609E-02  0.8559744E-01
        2   -1    0    0  501    0  0.00000000000E+00  0.00000000000E+00  0.14340616513E+04  0.14340616513E+04  0.25500000920E-02 0.  1.
       -2   -1    0    0    0  501  0.00000000000E+00  0.00000000000E+00 -0.77129128225E+03  0.77129128225E+03  0.25500000920E-02 0. -1.
    10030    2    1    2    0    0  0.00000000000E+00  0.00000000000E+00  0.66277036905E+03  0.22053529335E+04  0.21034060472E+04 0.  0.
        4    1    3    3  502    0 -0.61487241581E+03  0.73648989644E+03  0.78306930431E+03  0.12384202048E+04  0.12699999809E+01 0.  1.
       -4    1    3    3    0  502  0.61487241581E+03 -0.73648989644E+03 -0.12029893526E+03  0.96693272879E+03  0.12699999809E+01 0. -1.
</event>
<event>
 5   0  0.9519092E-05  0.2442353E+04  0.7818609E-02  0.8423815E-01
        2   -1    0    0  501    0  0.00000000000E+00  0.00000000000E+00  0.13619329285E+04  0.13619329285E+04  0.25500000920E-02 0.  1.
       -2   -1    0    0    0  501  0.00000000000E+00  0.00000000000E+00 -0.10949677461E+04  0.10949677461E+04  0.25500000920E-02 0. -1.
    10030    2    1    2    0    0  0.00000000000E+00  0.00000000000E+00  0.26696518242E+03  0.24569006746E+04  0.24423534790E+04 0.  0.
        4    1    3    3  502    0 -0.27422486350E+03 -0.59335658555E+03  0.11711300667E+04  0.13412004173E+04  0.12699999809E+01 0.  1.
       -4    1    3    3    0  502  0.27422486350E+03  0.59335658555E+03 -0.90416488426E+03  0.11157002573E+04  0.12699999809E+01 0. -1.
</event>
<event>
 5   0  0.4208577E-05  0.2384115E+04  0.7818609E-02  0.8445475E-01
       -1   -1    0    0    0  501  0.00000000000E+00  0.00000000000E+00  0.14439389133E+04  0.14439389133E+04  0.50400001928E-02 0. -1.
        1   -1    0    0  501    0  0.00000000000E+00  0.00000000000E+00 -0.98411454283E+03  0.98411454285E+03  0.50400001928E-02 0.  1.
    10030    2    1    2    0    0  0.00000000000E+00  0.00000000000E+00  0.45982437046E+03  0.24280534561E+04  0.23841151680E+04 0.  0.
        1    1    3    3  502    0  0.40716875016E+03  0.41110576796E+03  0.12913322663E+04  0.14150382912E+04  0.50400001928E-02 0. -1.
       -1    1    3    3    0  502 -0.40716875016E+03 -0.41110576796E+03 -0.83150789584E+03  0.10130151649E+04  0.50400001928E-02 0.  1.
</event>
<event>
 5   0  0.4260395E-05  0.2333859E+04  0.7818609E-02  0.8464689E-01
       -1   -1    0    0    0  501  0.00000000000E+00  0.00000000000E+00  0.76875959227E+03  0.76875959228E+03  0.50400001928E-02 0. -1.
        1   -1    0    0  501    0  0.00000000000E+00  0.00000000000E+00 -0.17713271252E+04  0.17713271252E+04  0.50400001928E-02 0.  1.
    10030    2    1    2    0    0  0.00000000000E+00  0.00000000000E+00 -0.10025675330E+04  0.25400867175E+04  0.23338592233E+04 0.  0.
        4    1    3    3  502    0  0.29150445562E+03  0.90564118300E+03  0.23411672152E+03  0.97978214527E+03  0.12699999809E+01 0. -1.
       -4    1    3    3    0  502 -0.29150445562E+03 -0.90564118300E+03 -0.12366842545E+04  0.15603045722E+04  0.12699999809E+01 0.  1.
</event>
<event>
 5   0  0.9519092E-05  0.2388635E+04  0.7818609E-02  0.8443771E-01
        2   -1    0    0  501    0  0.00000000000E+00  0.00000000000E+00  0.15432289641E+04  0.15432289641E+04  0.25500000920E-02 0. -1.
       -2   -1    0    0    0  501  0.00000000000E+00  0.00000000000E+00 -0.92429174134E+03  0.92429174135E+03  0.25500000920E-02 0.  1.
    10030    2    1    2    0    0  0.00000000000E+00  0.00000000000E+00  0.61893722281E+03  0.24675207055E+04  0.23886345778E+04 0.  0.
        4    1    3    3  502    0  0.12617359602E+03 -0.81522604142E+03  0.12016337543E+04  0.14575453911E+04  0.12699999809E+01 0. -1.
       -4    1    3    3    0  502 -0.12617359602E+03  0.81522604142E+03 -0.58269653146E+03  0.10099753144E+04  0.12699999809E+01 0.  1.
</event>
<event>
 5   0  0.9519092E-05  0.2316934E+04  0.7818609E-02  0.8471274E-01
        2   -1    0    0  501    0  0.00000000000E+00  0.00000000000E+00  0.20359909435E+04  0.20359909435E+04  0.25500000920E-02 0. -1.
       -2   -1    0    0    0  501  0.00000000000E+00  0.00000000000E+00 -0.65916082864E+03  0.65916082864E+03  0.25500000920E-02 0.  1.
    10030    2    1    2    0    0  0.00000000000E+00  0.00000000000E+00  0.13768301149E+04  0.26951517721E+04  0.23169337301E+04 0.  0.
        4    1    3    3  502    0 -0.41192563209E+03  0.10300943674E+04  0.30039669205E+03  0.11493550007E+04  0.12699999809E+01 0.  1.
       -4    1    3    3    0  502  0.41192563209E+03 -0.10300943674E+04  0.10764334228E+04  0.15457967715E+04  0.12699999809E+01 0. -1.
</event>
<event>
 5   0  0.9491680E-05  0.2278942E+04  0.7818609E-02  0.8486270E-01
       -2   -1    0    0    0  501  0.00000000000E+00  0.00000000000E+00  0.18077740366E+04  0.18077740366E+04  0.25500000920E-02 0.  1.
        2   -1    0    0  501    0  0.00000000000E+00  0.00000000000E+00 -0.71822820758E+03  0.71822820758E+03  0.25500000920E-02 0. -1.
    10030    2    1    2    0    0  0.00000000000E+00  0.00000000000E+00  0.10895458291E+04  0.25260022442E+04  0.22789421283E+04 0.  0.
        5    1    3    3  502    0  0.27759510183E+03 -0.99071424618E+03  0.10875526540E+04  0.14971194419E+04  0.46999998093E+01 0.  1.
       -5    1    3    3    0  502 -0.27759510183E+03  0.99071424618E+03  0.19931750609E+01  0.10288828023E+04  0.46999998093E+01 0. -1.
</event>
<event>
 5   0  0.9144244E-05  0.2601588E+04  0.7818609E-02  0.8367662E-01
        2   -1    0    0  501    0  0.00000000000E+00  0.00000000000E+00  0.10127049278E+04  0.10127049278E+04  0.25500000920E-02 0. -1.
       -2   -1    0    0    0  501  0.00000000000E+00  0.00000000000E+00 -0.16708373421E+04  0.16708373421E+04  0.25500000920E-02 0.  1.
    10030    2    1    2    0    0  0.00000000000E+00  0.00000000000E+00 -0.65813241434E+03  0.26835422699E+04  0.26015881379E+04 0.  0.
        1    1    3    3  502    0  0.59117265905E+03 -0.48283541811E+03  0.75741889320E+03  0.10753132258E+04  0.50400001928E-02 0. -1.
       -1    1    3    3    0  502 -0.59117265905E+03  0.48283541811E+03 -0.14155513075E+04  0.16082290440E+04  0.50400001928E-02 0.  1.
</event>
<event>
 5   0  0.4018942E-05  0.2427348E+04  0.7818609E-02  0.8429335E-01
        1   -1    0    0  501    0  0.00000000000E+00  0.00000000000E+00  0.22229838713E+04  0.22229838713E+04  0.50400001928E-02 0.  1.
       -1   -1    0    0    0  501  0.00000000000E+00  0.00000000000E+00 -0.66262492525E+03  0.66262492527E+03  0.50400001928E-02 0. -1.
    10030    2    1    2    0    0  0.00000000000E+00  0.00000000000E+00  0.15603589461E+04  0.28856087966E+04  0.24273479533E+04 0.  0.
        5    1    3    3  502    0 -0.95798157938E+03  0.20440146712E+03  0.16320322574E+04  0.19034337512E+04  0.46999998093E+01 0.  1.
       -5    1    3    3    0  502  0.95798157938E+03 -0.20440146712E+03 -0.71673311299E+02  0.98217504537E+03  0.46999998093E+01 0. -1.
</event>
<event>
 5   0  0.9491680E-05  0.2411731E+04  0.7818609E-02  0.8435125E-01
        2   -1    0    0  501    0  0.00000000000E+00  0.00000000000E+00  0.11623796484E+04  0.11623796484E+04  0.25500000920E-02 0. -1.
       -2   -1    0    0    0  501  0.00000000000E+00  0.00000000000E+00 -0.12509784742E+04  0.12509784742E+04  0.25500000920E-02 0.  1.
    10030    2    1    2    0    0  0.00000000000E+00  0.00000000000E+00 -0.88598825816E+02  0.24133581227E+04  0.24117312612E+04 0.  0.
        5    1    3    3  502    0 -0.10247564942E+04  0.62036892743E+03  0.94019552206E+02  0.12016011171E+04  0.46999998093E+01 0. -1.
       -5    1    3    3    0  502  0.10247564942E+04 -0.62036892743E+03 -0.18261837802E+03  0.12117570055E+04  0.46999998093E+01 0.  1.
</event>
<event>
 5   0  0.3934906E-05  0.2408902E+04  0.7818609E-02  0.8436178E-01
       -1   -1    0    0    0  501  0.00000000000E+00  0.00000000000E+00  0.62300898474E+03  0.62300898476E+03  0.50400001928E-02 0. -1.
        1   -1    0    0  501    0  0.00000000000E+00  0.00000000000E+00 -0.23285410543E+04  0.23285410543E+04  0.50400001928E-02 0.  1.
    10030    2    1    2    0    0  0.00000000000E+00  0.00000000000E+00 -0.17055320695E+04  0.29515500391E+04  0.24089018230E+04 0.  0.
        2    1    3    3  502    0  0.56399551681E+03  0.10598278917E+04 -0.97140775108E+03  0.15443312863E+04  0.25500000920E-02 0.  1.
       -2    1    3    3    0  502 -0.56399551681E+03 -0.10598278917E+04 -0.73412431847E+03  0.14072187527E+04  0.25500000920E-02 0. -1.
</event>
<event>
 5   0  0.9491680E-05  0.2817370E+04  0.7818609E-02  0.8297896E-01
        2   -1    0    0  501    0  0.00000000000E+00  0.00000000000E+00  0.18063660846E+04  0.18063660846E+04  0.25500000920E-02 0.  1.
       -2   -1    0    0    0  501  0.00000000000E+00  0.00000000000E+00 -0.10985553334E+04  0.10985553334E+04  0.25500000920E-02 0. -1.
    10030    2    1    2    0    0  0.00000000000E+00  0.00000000000E+00  0.70781075124E+03  0.29049214181E+04  0.28173697637E+04 0.  0.
        5    1    3    3  502    0  0.66703518537E+03  0.10656217386E+04  0.10091743485E+04  0.16121230053E+04  0.46999998093E+01 0.  1.
       -5    1    3    3    0  502 -0.66703518537E+03 -0.10656217386E+04 -0.30136359730E+03  0.12927984128E+04  0.46999998093E+01 0. -1.
</event>
<event>
 5   0  0.4061631E-05  0.2463625E+04  0.7818609E-02  0.8416060E-01
        1   -1    0    0  501    0  0.00000000000E+00  0.00000000000E+00  0.15841012605E+04  0.15841012606E+04  0.50400001928E-02 0.  1.
       -1   -1    0    0    0  501  0.00000000000E+00  0.00000000000E+00 -0.95786969989E+03  0.95786969990E+03  0.50400001928E-02 0. -1.
    10030    2    1    2    0    0  0.00000000000E+00  0.00000000000E+00  0.62623156065E+03  0.25419709605E+04  0.24636254578E+04 0.  0.
        3    1    3    3  502    0  0.50883994462E+03  0.88134015756E+03 -0.40298974364E+03  0.10945680912E+04  0.10100000352E+00 0. -1.
       -3    1    3    3    0  502 -0.50883994462E+03 -0.88134015756E+03  0.10292213043E+04  0.14474028693E+04  0.10100000352E+00 0.  1.
</event>
<event>
 5   0  0.4260395E-05  0.2357856E+04  0.7818609E-02  0.8455452E-01
        1   -1    0    0  501    0  0.00000000000E+00  0.00000000000E+00  0.21902416969E+04  0.21902416969E+04  0.50400001928E-02 0.  1.
       -1   -1    0    0    0  501  0.00000000000E+00  0.00000000000E+00 -0.63457456087E+03  0.63457456089E+03  0.50400001928E-02 0. -1.
    10030    2    1    2    0    0  0.00000000000E+00  0.00000000000E+00  0.15556671360E+04  0.28248162578E+04  0.23578563680E+04 0.  0.
        4    1    3    3  502    0 -0.52645418557E+03  0.54548958793E+03 -0.30383330506E+03  0.81671855018E+03  0.12699999809E+01 0. -1.
       -4    1    3    3    0  502  0.52645418557E+03 -0.54548958793E+03  0.18595004411E+04  0.20080977076E+04  0.12699999809E+01 0.  1.
</event>
<event>
 5   0  0.4061631E-05  0.2403766E+04  0.7818609E-02  0.8438095E-01
       -1   -1    0    0    0  501  0.00000000000E+00  0.00000000000E+00  0.74090446593E+03  0.74090446595E+03  0.50400001928E-02 0.  1.
        1   -1    0    0  501    0  0.00000000000E+00  0.00000000000E+00 -0.19496754029E+04  0.19496754029E+04  0.50400001928E-02 0. -1.
    10030    2    1    2    0    0  0.00000000000E+00  0.00000000000E+00 -0.12087709370E+04  0.26905798689E+04  0.24037663890E+04 0.  0.
        3    1    3    3  502    0 -0.10778285795E+04  0.67925754867E+02 -0.14010178934E+02  0.10800577069E+04  0.10100000352E+00 0.  1.
       -3    1    3    3    0  502  0.10778285795E+04 -0.67925754867E+02 -0.11947607581E+04  0.16105221620E+04  0.10100000352E+00 0. -1.
</event>
<event>
 5   0  0.4061631E-05  0.2342084E+04  0.7818609E-02  0.8461510E-01
       -1   -1    0    0    0  501  0.00000000000E+00  0.00000000000E+00  0.11255127011E+04  0.11255127011E+04  0.50400001928E-02 0.  1.
        1   -1    0    0  501    0  0.00000000000E+00  0.00000000000E+00 -0.12184130388E+04  0.12184130388E+04  0.50400001928E-02 0. -1.
    10030    2    1    2    0    0  0.00000000000E+00  0.00000000000E+00 -0.92900337712E+02  0.23439257400E+04  0.23420839869E+04 0.  0.
        3    1    3    3  502    0  0.80139941433E+03  0.75651135205E+03 -0.44272731861E+03  0.11876691189E+04  0.10100000352E+00 0. -1.
       -3    1    3    3    0  502 -0.80139941433E+03 -0.75651135205E+03  0.34982698090E+03  0.11562566211E+04  0.10100000352E+00 0.  1.
</event>
<event>
 5   0  0.9750757E-05  0.2310378E+04  0.7818609E-02  0.8473840E-01
        2   -1    0    0  501    0  0.00000000000E+00  0.00000000000E+00  0.10024175815E+04  0.10024175815E+04  0.25500000920E-02 0.  1.
       -2   -1    0    0    0  501  0.00000000000E+00  0.00000000000E+00 -0.13312431309E+04  0.13312431309E+04  0.25500000920E-02 0. -1.
    10030    2    1    2    0    0  0.00000000000E+00  0.00000000000E+00 -0.32882554938E+03  0.23336607124E+04  0.23103779082E+04 0.  0.
        2    1    3    3  502    0  0.32629927756E+03 -0.77602306190E+03 -0.96344632214E+03  0.12794185503E+04  0.25500000920E-02 0. -1.
       -2    1    3    3    0  502 -0.32629927756E+03  0.77602306190E+03  0.63462077276E+03  0.10542421621E+04  0.25500000920E-02 0.  1.
</event>
<event>
 5   0  0.4018942E-05  0.2447981E+04  0.7818609E-02  0.8421755E-01
       -1   -1    0    0    0  501  0.00000000000E+00  0.00000000000E+00  0.97793485855E+03  0.97793485856E+03  0.50400001928E-02 0. -1.
        1   -1    0    0  501    0  0.00000000000E+00  0.00000000000E+00 -0.15319556219E+04  0.15319556219E+04  0.50400001928E-02 0.  1.
    10030    2    1    2    0    0  0.00000000000E+00  0.00000000000E+00 -0.55402076336E+03  0.25098904805E+04  0.24479810493E+04 0.  0.
        5    1    3    3  502    0 -0.12221995864E+04  0.65564389529E+02 -0.28496522735E+03  0.12567011534E+04  0.46999998093E+01 0.  1.
       -5    1    3    3    0  502  0.12221995864E+04 -0.65564389529E+02 -0.26905553601E+03  0.12531893271E+04  0.46999998093E+01 0. -1.
</event>
<event>
 5   0  0.3934906E-05  0.2492584E+04  0.7818609E-02  0.8405632E-01
       -1   -1    0    0    0  501  0.00000000000E+00  0.00000000000E+00  0.15515383594E+04  0.15515383594E+04  0.50400001928E-02 0. -1.
        1   -1    0    0  501    0  0.00000000000E+00  0.00000000000E+00 -0.10010989067E+04  0.10010989067E+04  0.50400001928E-02 0.  1.
    10030    2    1    2    0    0  0.00000000000E+00  0.00000000000E+00  0.55043945271E+03  0.25526372660E+04  0.24925836838E+04 0.  0.
        2    1    3    3  502    0 -0.12354860894E+04  0.80989226594E+02  0.42098028859E+03  0.13077497984E+04  0.25500000920E-02 0.  1.
       -2    1    3    3    0  502  0.12354860894E+04 -0.80989226594E+02  0.12945916412E+03  0.12448874676E+04  0.25500000920E-02 0. -1.
</event>
<event>
 5   0  0.4061631E-05  0.2479488E+04  0.7818609E-02  0.8410330E-01
        1   -1    0    0  501    0  0.00000000000E+00  0.00000000000E+00  0.10242853812E+04  0.10242853812E+04  0.50400001928E-02 0. -1.
       -1   -1    0    0    0  501  0.00000000000E+00  0.00000000000E+00 -0.15005238608E+04  0.15005238608E+04  0.50400001928E-02 0.  1.
    10030    2    1    2    0    0  0.00000000000E+00  0.00000000000E+00 -0.47623847958E+03  0.25248092420E+04  0.24794875719E+04 0.  0.
        3    1    3    3  502    0  0.38656371020E+03 -0.27895622796E+03  0.92722784945E+03  0.10425927173E+04  0.10100000352E+00 0. -1.
       -3    1    3    3    0  502 -0.38656371020E+03  0.27895622796E+03 -0.14034663290E+04  0.14822165247E+04  0.10100000352E+00 0.  1.
</event>
<event>
 5   0  0.9144244E-05  0.2335261E+04  0.7818609E-02  0.8464146E-01
        2   -1    0    0  501    0  0.00000000000E+00  0.00000000000E+00  0.16899493447E+04  0.16899493447E+04  0.25500000920E-02 0. -1.
       -2   -1    0    0    0  501  0.00000000000E+00  0.00000000000E+00 -0.80674697917E+03  0.80674697918E+03  0.25500000920E-02 0.  1.
    10030    2    1    2    0    0  0.00000000000E+00  0.00000000000E+00  0.88320236554E+03  0.24966963239E+04  0.23352614661E+04 0.  0.
        1    1    3    3  502    0 -0.78052896564E+03 -0.20128948538E+03 -0.46155589757E+03  0.92885777692E+03  0.50400001928E-02 0.  1.
       -1    1    3    3    0  502  0.78052896564E+03  0.20128948538E+03  0.13447582631E+04  0.15678385470E+04  0.50400001928E-02 0. -1.
</event>
<event>
 5   0  0.9750757E-05  0.2422784E+04  0.7818609E-02  0.8431022E-01
        2   -1    0    0  501    0  0.00000000000E+00  0.00000000000E+00  0.11027729163E+04  0.11027729163E+04  0.25500000920E-02 0. -1.
       -2   -1    0    0    0  501  0.00000000000E+00  0.00000000000E+00 -0.13307100065E+04  0.13307100065E+04  0.25500000920E-02 0.  1.
    10030    2    1    2    0    0  0.00000000000E+00  0.00000000000E+00 -0.22793709023E+03  0.24334829229E+04  0.24227843112E+04 0.  0.
        2    1    3    3  502    0  0.75106639556E+03 -0.53184394999E+03 -0.90517300284E+03  0.12908512241E+04  0.25500000920E-02 0.  1.
       -2    1    3    3    0  502 -0.75106639556E+03  0.53184394999E+03  0.67723591260E+03  0.11426316988E+04  0.25500000920E-02 0. -1.
</event>
<event>
 5   0  0.4061631E-05  0.2344099E+04  0.7818609E-02  0.8460734E-01
       -1   -1    0    0    0  501  0.00000000000E+00  0.00000000000E+00  0.84531857654E+03  0.84531857655E+03  0.50400001928E-02 0. -1.
        1   -1    0    0  501    0  0.00000000000E+00  0.00000000000E+00 -0.16250682917E+04  0.16250682917E+04  0.50400001928E-02 0.  1.
    10030    2    1    2    0    0  0.00000000000E+00  0.00000000000E+00 -0.77974971512E+03  0.24703868682E+04  0.23440993282E+04 0.  0.
        3    1    3    3  502    0 -0.66313501749E+03  0.76619176457E+03  0.23084079258E+03  0.10392715493E+04  0.10100000352E+00 0. -1.
       -3    1    3    3    0  502  0.66313501749E+03 -0.76619176457E+03 -0.10105905077E+04  0.14311153189E+04  0.10100000352E+00 0.  1.
</event>
<event>
 5   0  0.9144244E-05  0.2299112E+04  0.7818609E-02  0.8478271E-01
       -2   -1    0    0    0  501  0.00000000000E+00  0.00000000000E+00  0.93384132710E+03  0.93384132711E+03  0.25500000920E-02 0.  1.
        2   -1    0    0  501    0  0.00000000000E+00  0.00000000000E+00 -0.14151004932E+04  0.14151004932E+04  0.25500000920E-02 0. -1.
    10030    2    1    2    0    0  0.00000000000E+00  0.00000000000E+00 -0.48125916605E+03  0.23489418203E+04  0.22991122830E+04 0.  0.
        1    1    3    3  502    0 -0.58448575902E+03  0.91616256102E+03 -0.62358934880E+03  0.12529330057E+04  0.50400001928E-02 0. -1.
       -1    1    3    3    0  502  0.58448575902E+03 -0.91616256102E+03  0.14233018275E+03  0.10960088146E+04  0.50400001928E-02 0.  1.
</event>
<event>
 5   0  0.4208577E-05  0.1377087E+04  0.7818609E-02  0.8970573E-01
        1   -1    0    0  501    0  0.00000000000E+00  0.00000000000E+00  0.14110492023E+04  0.14110492023E+04  0.50400001928E-02 0. -1.
       -1   -1    0    0    0  501  0.00000000000E+00  0.00000000000E+00 -0.33598543626E+03  0.33598543629E+03  0.50400001928E-02 0.  1.
    10030    2    1    2    0    0  0.00000000000E+00  0.00000000000E+00  0.10750637660E+04  0.17470346386E+04  0.13770867538E+04 0.  0.
        1    1    3    3  502    0  0.60768885946E+03  0.28080970058E+03  0.74190644344E+03  0.99928224676E+03  0.50400001928E-02 0.  1.
       -1    1    3    3    0  502 -0.60768885946E+03 -0.28080970058E+03  0.33315732258E+03  0.74775239181E+03  0.50400001928E-02 0. -1.
</event>
<event>
 5   0  0.4061631E-05  0.2443703E+04  0.7818609E-02  0.8423321E-01
       -1   -1    0    0    0  501  0.00000000000E+00  0.00000000000E+00  0.15002331558E+04  0.15002331558E+04  0.50400001928E-02 0. -1.
        1   -1    0    0  501    0  0.00000000000E+00  0.00000000000E+00 -0.99512565172E+03  0.99512565173E+03  0.50400001928E-02 0.  1.
    10030    2    1    2    0    0  0.00000000000E+00  0.00000000000E+00  0.50510750405E+03  0.24953588075E+04  0.24437025162E+04 0.  0.
        3    1    3    3  502    0 -0.71264852477E+03  0.78780483555E+03  0.86898330041E+03  0.13724563255E+04  0.10100000352E+00 0. -1.
       -3    1    3    3    0  502  0.71264852477E+03 -0.78780483555E+03 -0.36387579636E+03  0.11229024820E+04  0.10100000352E+00 0.  1.
</event>
<event>
 5   0  0.9519092E-05  0.2305252E+04  0.7818609E-02  0.8475853E-01
        2   -1    0    0  501    0  0.00000000000E+00  0.00000000000E+00  0.27310864131E+04  0.27310864131E+04  0.25500000920E-02 0. -1.
       -2   -1    0    0    0  501  0.00000000000E+00  0.00000000000E+00 -0.48645342369E+03  0.48645342369E+03  0.25500000920E-02 0.  1.
    10030    2    1    2    0    0  0.00000000000E+00  0.00000000000E+00  0.22446329894E+04  0.32175398368E+04  0.23052516878E+04 0.  0.
        4    1    3    3  502    0 -0.58707884409E+03  0.70253241165E+03  0.14496581099E+03  0.92694663161E+03  0.12699999809E+01 0.  1.
       -4    1    3    3    0  502  0.58707884409E+03 -0.70253241165E+03  0.20996671784E+04  0.22905932052E+04  0.12699999809E+01 0. -1.
</event>
<event>
 5   0  0.3234750E-05  0.2284263E+04  0.7818609E-02  0.8484152E-01
        4   -1    0    0  501    0  0.00000000000E+00  0.00000000000E+00  0.20262984029E+04  0.20262988009E+04  0.12699999809E+01 0.  1.
       -4   -1    0    0    0  501  0.00000000000E+00  0.00000000000E+00 -0.64376580046E+03  0.64376705317E+03  0.12699999809E+01 0. -1.
    10030    2    1    2    0    0  0.00000000000E+00  0.00000000000E+00  0.13825326025E+04  0.26700658541E+04  0.22842625218E+04 0.  0.
        5    1    3    3  502    0  0.51957470805E+03 -0.50598853711E+03 -0.34005492463E+03  0.80102541701E+03  0.46999998093E+01 0. -1.
       -5    1    3    3    0  502 -0.51957470805E+03  0.50598853711E+03  0.17225875271E+04  0.18690404371E+04  0.46999998093E+01 0.  1.
</event>
<event>
 5   0  0.9144244E-05  0.2374434E+04  0.7818609E-02  0.8449137E-01
       -2   -1    0    0    0  501  0.00000000000E+00  0.00000000000E+00  0.50657055951E+03  0.50657055952E+03  0.25500000920E-02 0.  1.
        2   -1    0    0  501    0  0.00000000000E+00  0.00000000000E+00 -0.27824047654E+04  0.27824047654E+04  0.25500000920E-02 0. -1.
    10030    2    1    2    0    0  0.00000000000E+00  0.00000000000E+00 -0.22758342059E+04  0.32889753250E+04  0.23744341126E+04 0.  0.
        1    1    3    3  502    0  0.85139797443E+02 -0.19216631425E+03  0.48059427165E+03  0.52454507091E+03  0.50400001928E-02 0.  1.
       -1    1    3    3    0  502 -0.85139797443E+02  0.19216631425E+03 -0.27564284776E+04  0.27644302540E+04  0.50400001928E-02 0. -1.
</event>
<event>
 5   0  0.9491680E-05  0.2379351E+04  0.7818609E-02  0.8447275E-01
       -2   -1    0    0    0  501  0.00000000000E+00  0.00000000000E+00  0.13466771004E+04  0.13466771004E+04  0.25500000920E-02 0.  1.
        2   -1    0    0  501    0  0.00000000000E+00  0.00000000000E+00 -0.10509782601E+04  0.10509782601E+04  0.25500000920E-02 0. -1.
    10030    2    1    2    0    0  0.00000000000E+00  0.00000000000E+00  0.29569884026E+03  0.23976553605E+04  0.23793514712E+04 0.  0.
        5    1    3    3  502    0  0.52746449499E+03 -0.56621605312E+03 -0.76269839447E+03  0.10865313356E+04  0.46999998093E+01 0. -1.
       -5    1    3    3    0  502 -0.52746449499E+03  0.56621605312E+03  0.10583972347E+04  0.13111240249E+04  0.46999998093E+01 0.  1.
</event>
<event>
 5   0  0.9519092E-05  0.2469002E+04  0.7818609E-02  0.8414113E-01
       -2   -1    0    0    0  501  0.00000000000E+00  0.00000000000E+00  0.10326477455E+04  0.10326477455E+04  0.25500000920E-02 0.  1.
        2   -1    0    0  501    0  0.00000000000E+00  0.00000000000E+00 -0.14758110643E+04  0.14758110643E+04  0.25500000920E-02 0. -1.
    10030    2    1    2    0    0  0.00000000000E+00  0.00000000000E+00 -0.44316331882E+03  0.25084588098E+04  0.24690022019E+04 0.  0.
        4    1    3    3  502    0  0.10815977089E+04  0.49827680255E+03 -0.55213937396E+03  0.13126282326E+04  0.12699999809E+01 0. -1.
       -4    1    3    3    0  502 -0.10815977089E+04 -0.49827680255E+03  0.10897605514E+03  0.11958305772E+04  0.12699999809E+01 0.  1.
</event>
<event>
 5   0  0.4061631E-05  0.2433306E+04  0.7818609E-02  0.8427139E-01
        1   -1    0    0  501    0  0.00000000000E+00  0.00000000000E+00  0.86962927885E+03  0.86962927887E+03  0.50400001928E-02 0. -1.
       -1   -1    0    0    0  501  0.00000000000E+00  0.00000000000E+00 -0.17021553654E+04  0.17021553654E+04  0.50400001928E-02 0.  1.
    10030    2    1    2    0    0  0.00000000000E+00  0.00000000000E+00 -0.83252608653E+03  0.25717846443E+04  0.24333056881E+04 0.  0.
        3    1    3    3  502    0  0.79601667249E+03 -0.38243739757E+03 -0.13007539940E+04  0.15722155924E+04  0.10100000352E+00 0.  1.
       -3    1    3    3    0  502 -0.79601667249E+03  0.38243739757E+03  0.46822790744E+03  0.99956905186E+03  0.10100000352E+00 0. -1.
</event>
<event>
 5   0  0.4061631E-05  0.1209259E+04  0.7818609E-02  0.9104791E-01
        1   -1    0    0  501    0  0.00000000000E+00  0.00000000000E+00  0.72745556591E+03  0.72745556593E+03  0.50400001928E-02 0.  1.
       -1   -1    0    0    0  501  0.00000000000E+00  0.00000000000E+00 -0.50254174450E+03  0.50254174453E+03  0.50400001928E-02 0. -1.
    10030    2    1    2    0    0  0.00000000000E+00  0.00000000000E+00  0.22491382141E+03  0.12299973105E+04  0.12092589287E+04 0.  0.
        3    1    3    3  502    0 -0.22533872254E+03  0.45268926910E+03 -0.22469661958E+03  0.55334771644E+03  0.10100000352E+00 0. -1.
       -3    1    3    3    0  502  0.22533872254E+03 -0.45268926910E+03  0.44961044098E+03  0.67664959401E+03  0.10100000352E+00 0.  1.
</event>
<event>
 5   0  0.9182865E-05  0.2346977E+04  0.7818609E-02  0.8459626E-01
       -2   -1    0    0    0  501  0.00000000000E+00  0.00000000000E+00  0.10836269130E+04  0.10836269130E+04  0.25500000920E-02 0. -1.
        2   -1    0    0  501    0  0.00000000000E+00  0.00000000000E+00 -0.12708020926E+04  0.12708020926E+04  0.25500000920E-02 0.  1.
    10030    2    1    2    0    0  0.00000000000E+00  0.00000000000E+00 -0.18717517957E+03  0.23544290056E+04  0.23469770759E+04 0.  0.
        3    1    3    3  502    0 -0.51190235590E+03  0.47872043573E+03 -0.10377763420E+04  0.12522767361E+04  0.10100000352E+00 0.  1.
       -3    1    3    3    0  502  0.51190235590E+03 -0.47872043573E+03  0.85060116242E+03  0.11021522695E+04  0.10100000352E+00 0. -1.
</event>
<event>
 5   0  0.9519092E-05  0.2177591E+04  0.7818609E-02  0.8527814E-01
       -2   -1    0    0    0  501  0.00000000000E+00  0.00000000000E+00  0.73569936965E+03  0.73569936966E+03  0.25500000920E-02 0. -1.
        2   -1    0    0  501    0  0.00000000000E+00  0.00000000000E+00 -0.16113580711E+04  0.16113580711E+04  0.25500000920E-02 0.  1.
    10030    2    1    2    0    0  0.00000000000E+00  0.00000000000E+00 -0.87565870142E+03  0.23470574407E+04  0.21775905191E+04 0.  0.
        4    1    3    3  502    0 -0.87439585635E+03  0.19024089953E+03  0.23069368837E+03  0.92411087225E+03  0.12699999809E+01 0. -1.
       -4    1    3    3    0  502  0.87439585635E+03 -0.19024089953E+03 -0.11063523898E+04  0.14229465685E+04  0.12699999809E+01 0.  1.
</event>
<event>
 5   0  0.3934906E-05  0.2416548E+04  0.7818609E-02  0.8433334E-01
        1   -1    0    0  501    0  0.00000000000E+00  0.00000000000E+00  0.21392441433E+04  0.21392441433E+04  0.50400001928E-02 0. -1.
       -1   -1    0    0    0  501  0.00000000000E+00  0.00000000000E+00 -0.68244934107E+03  0.68244934108E+03  0.50400001928E-02 0.  1.
    10030    2    1    2    0    0  0.00000000000E+00  0.00000000000E+00  0.14567948022E+04  0.28216934844E+04  0.24165477492E+04 0.  0.
        2    1    3    3  502    0  0.26694360582E+03 -0.59369713095E+03  0.19169934306E+04  0.20244996876E+04  0.25500000920E-02 0. -1.
       -2    1    3    3    0  502 -0.26694360582E+03  0.59369713095E+03 -0.46019862843E+03  0.79719379676E+03  0.25500000920E-02 0.  1.
</event>
<event>
 5   0  0.4208577E-05  0.2480693E+04  0.7818609E-02  0.8409896E-01
        1   -1    0    0  501    0  0.00000000000E+00  0.00000000000E+00  0.16765226357E+04  0.16765226357E+04  0.50400001928E-02 0. -1.
       -1   -1    0    0    0  501  0.00000000000E+00  0.00000000000E+00 -0.91764876619E+03  0.91764876621E+03  0.50400001928E-02 0.  1.
    10030    2    1    2    0    0  0.00000000000E+00  0.00000000000E+00  0.75887386948E+03  0.25941714019E+04  0.24806925873E+04 0.  0.
        1    1    3    3  502    0  0.96695333459E+03  0.13396999688E+03 -0.42075413268E+03  0.10630055275E+04  0.50400001928E-02 0. -1.
       -1    1    3    3    0  502 -0.96695333459E+03 -0.13396999688E+03  0.11796280022E+04  0.15311658744E+04  0.50400001928E-02 0.  1.
</event>
<event>
 5   0  0.3934906E-05  0.2508486E+04  0.7818609E-02  0.8399969E-01
        1   -1    0    0  501    0  0.00000000000E+00  0.00000000000E+00  0.14322586211E+04  0.14322586211E+04  0.50400001928E-02 0.  1.
       -1   -1    0    0    0  501  0.00000000000E+00  0.00000000000E+00 -0.10983531365E+04  0.10983531365E+04  0.50400001928E-02 0. -1.
    10030    2    1    2    0    0  0.00000000000E+00  0.00000000000E+00  0.33390548464E+03  0.25306117577E+04  0.25084861960E+04 0.  0.
        2    1    3    3  502    0 -0.53151534030E+03  0.84198626998E+03 -0.60245135630E+03  0.11637856643E+04  0.25500000920E-02 0. -1.
       -2    1    3    3    0  502  0.53151534030E+03 -0.84198626998E+03  0.93635684094E+03  0.13668260933E+04  0.25500000920E-02 0.  1.
</event>
<event>
 5   0  0.9519092E-05  0.2350781E+04  0.7818609E-02  0.8458164E-01
        2   -1    0    0  501    0  0.00000000000E+00  0.00000000000E+00  0.20832828539E+04  0.20832828539E+04  0.25500000920E-02 0. -1.
       -2   -1    0    0    0  501  0.00000000000E+00  0.00000000000E+00 -0.66315649006E+03  0.66315649006E+03  0.25500000920E-02 0.  1.
    10030    2    1    2    0    0  0.00000000000E+00  0.00000000000E+00  0.14201263639E+04  0.27464393440E+04  0.23507807598E+04 0.  0.
        4    1    3    3  502    0 -0.15015659446E+03  0.67794111877E+03 -0.39791665167E+03  0.80030646502E+03  0.12699999809E+01 0.  1.
       -4    1    3    3    0  502  0.15015659446E+03 -0.67794111877E+03  0.18180430155E+04  0.19461328790E+04  0.12699999809E+01 0. -1.
</event>
<event>
 5   0  0.9519092E-05  0.2448478E+04  0.7818609E-02  0.8421574E-01
        2   -1    0    0  501    0  0.00000000000E+00  0.00000000000E+00  0.16976758116E+04  0.16976758116E+04  0.25500000920E-02 0.  1.
       -2   -1    0    0    0  501  0.00000000000E+00  0.00000000000E+00 -0.88283131041E+03  0.88283131041E+03  0.25500000920E-02 0. -1.
    10030    2    1    2    0    0  0.00000000000E+00  0.00000000000E+00  0.81484450118E+03  0.25805071220E+04  0.24484781897E+04 0.  0.
        4    1    3    3  502    0  0.17256521424E+03  0.71205675632E+03 -0.62625858547E+03  0.96384905777E+03  0.12699999809E+01 0. -1.
       -4    1    3    3    0  502 -0.17256521424E+03 -0.71205675632E+03  0.14411030866E+04  0.16166580642E+04  0.12699999809E+01 0.  1.
</event>
<event>
 5   0  0.9491680E-05  0.2369886E+04  0.7818609E-02  0.8450864E-01
        2   -1    0    0  501    0  0.00000000000E+00  0.00000000000E+00  0.13187710972E+04  0.13187710972E+04  0.25500000920E-02 0.  1.
       -2   -1    0    0    0  501  0.00000000000E+00  0.00000000000E+00 -0.10646961155E+04  0.10646961155E+04  0.25500000920E-02 0. -1.
    10030    2    1    2    0    0  0.00000000000E+00  0.00000000000E+00  0.25407498172E+03  0.23834672128E+04  0.23698864652E+04 0.  0.
        5    1    3    3  502    0  0.54828386554E+03  0.87020258817E+03  0.71879744245E+03  0.12548145660E+04  0.46999998093E+01 0.  1.
       -5    1    3    3    0  502 -0.54828386554E+03 -0.87020258817E+03 -0.46472246073E+03  0.11286526468E+04  0.46999998093E+01 0. -1.
</event>
<event>
 5   0  0.4061631E-05  0.2420346E+04  0.7818609E-02  0.8431925E-01
       -1   -1    0    0    0  501  0.00000000000E+00  0.00000000000E+00  0.10212699616E+04  0.10212699616E+04  0.50400001928E-02 0.  1.
        1   -1    0    0  501    0  0.00000000000E+00  0.00000000000E+00 -0.14340172117E+04  0.14340172117E+04  0.50400001928E-02 0. -1.
    10030    2    1    2    0    0  0.00000000000E+00  0.00000000000E+00 -0.41274725004E+03  0.24552871733E+04  0.24203460106E+04 0.  0.
        3    1    3    3  502    0  0.77564312436E+02 -0.11244614038E+04  0.24054177837E+03  0.11525146544E+04  0.10100000352E+00 0.  1.
       -3    1    3    3    0  502 -0.77564312436E+02  0.11244614038E+04 -0.65328902841E+03  0.13027725189E+04  0.10100000352E+00 0. -1.
</event>
<event>
 5   0  0.3934906E-05  0.2456812E+04  0.7818609E-02  0.8418535E-01
       -1   -1    0    0    0  501  0.00000000000E+00  0.00000000000E+00  0.82521517939E+03  0.82521517941E+03  0.50400001928E-02 0. -1.
        1   -1    0    0  501    0  0.00000000000E+00  0.00000000000E+00 -0.18285907108E+04  0.18285907108E+04  0.50400001928E-02 0.  1.
    10030    2    1    2    0    0  0.00000000000E+00  0.00000000000E+00 -0.10033755314E+04  0.26538058902E+04  0.24568116016E+04 0.  0.
        2    1    3    3  502    0 -0.10363139122E+04  0.65459000879E+03 -0.41429164186E+03  0.12938594084E+04  0.25500000920E-02 0. -1.
       -2    1    3    3    0  502  0.10363139122E+04 -0.65459000879E+03 -0.58908388951E+03  0.13599464817E+04  0.25500000920E-02 0.  1.
</event>
<event>
 5   0  0.9144244E-05  0.2416120E+04  0.7818609E-02  0.8433493E-01
       -2   -1    0    0    0  501  0.00000000000E+00  0.00000000000E+00  0.17417896211E+04  0.17417896211E+04  0.25500000920E-02 0. -1.
        2   -1    0    0  501    0  0.00000000000E+00  0.00000000000E+00 -0.83787918343E+03  0.83787918344E+03  0.25500000920E-02 0.  1.
    10030    2    1    2    0    0  0.00000000000E+00  0.00000000000E+00  0.90391043762E+03  0.25796688045E+04  0.24161202498E+04 0.  0.
        1    1    3    3  502    0  0.34769164280E+03  0.16362024911E+03  0.16747980594E+04  0.17183159210E+04  0.50400001928E-02 0. -1.
       -1    1    3    3    0  502 -0.34769164280E+03 -0.16362024911E+03 -0.77088762183E+03  0.86135288349E+03  0.50400001928E-02 0.  1.
</event>
<event>
 5   0  0.4260395E-05  0.2419759E+04  0.7818609E-02  0.8432143E-01
       -1   -1    0    0    0  501  0.00000000000E+00  0.00000000000E+00  0.10186041383E+04  0.10186041383E+04  0.50400001928E-02 0. -1.
        1   -1    0    0  501    0  0.00000000000E+00  0.00000000000E+00 -0.14370730121E+04  0.14370730122E+04  0.50400001928E-02 0.  1.
    10030    2    1    2    0    0  0.00000000000E+00  0.00000000000E+00 -0.41846887381E+03  0.24556771505E+04  0.24197590932E+04 0.  0.
        4    1    3    3  502    0  0.37350988926E+03 -0.64176258297E+03  0.76016069285E+03  0.10626451629E+04  0.12699999809E+01 0. -1.
       -4    1    3    3    0  502 -0.37350988926E+03  0.64176258297E+03 -0.11786295667E+04  0.13930319876E+04  0.12699999809E+01 0.  1.
</event>
<event>
 5   0  0.9144244E-05  0.2375566E+04  0.7818609E-02  0.8448708E-01
        2   -1    0    0  501    0  0.00000000000E+00  0.00000000000E+00  0.11827989900E+04  0.11827989900E+04  0.25500000920E-02 0. -1.
       -2   -1    0    0    0  501  0.00000000000E+00  0.00000000000E+00 -0.11927875353E+04  0.11927875353E+04  0.25500000920E-02 0.  1.
    10030    2    1    2    0    0  0.00000000000E+00  0.00000000000E+00 -0.99885453697E+01  0.23755865253E+04  0.23755655259E+04 0.  0.
        1    1    3    3  502    0  0.94079939768E+03 -0.63821425866E+03 -0.34910041726E+03  0.11892401137E+04  0.50400001928E-02 0.  1.
       -1    1    3    3    0  502 -0.94079939768E+03  0.63821425866E+03  0.33911187189E+03  0.11863464116E+04  0.50400001928E-02 0. -1.
</event>
<event>
 5   0  0.9750757E-05  0.2157156E+04  0.7818609E-02  0.8536475E-01
       -2   -1    0    0    0  501  0.00000000000E+00  0.00000000000E+00  0.16429658728E+04  0.16429658728E+04  0.25500000920E-02 0.  1.
        2   -1    0    0  501    0  0.00000000000E+00  0.00000000000E+00 -0.70806731989E+03  0.70806731989E+03  0.25500000920E-02 0. -1.
    10030    2    1    2    0    0  0.00000000000E+00  0.00000000000E+00  0.93489855293E+03  0.23510331927E+04  0.21571559445E+04 0.  0.
        2    1    3    3  502    0 -0.63756850005E+03  0.82624030685E+03  0.17064290393E+03  0.10574902541E+04  0.25500000920E-02 0. -1.
       -2    1    3    3    0  502  0.63756850005E+03 -0.82624030685E+03  0.76425564900E+03  0.12935429386E+04  0.25500000920E-02 0.  1.
</event>
<event>
 5   0  0.4260395E-05  0.2395415E+04  0.7818609E-02  0.8441222E-01
        1   -1    0    0  501    0  0.00000000000E+00  0.00000000000E+00  0.12020508590E+04  0.12020508590E+04  0.50400001928E-02 0. -1.
       -1   -1    0    0    0  501  0.00000000000E+00  0.00000000000E+00 -0.11933795006E+04  0.11933795006E+04  0.50400001928E-02 0.  1.
    10030    2    1    2    0    0  0.00000000000E+00  0.00000000000E+00  0.86713584552E+01  0.23954303596E+04  0.23954146646E+04 0.  0.
        4    1    3    3  502    0  0.62082704463E+03  0.24481950475E+03 -0.99022522572E+03  0.11941149106E+04  0.12699999809E+01 0.  1.
       -4    1    3    3    0  502 -0.62082704463E+03 -0.24481950475E+03  0.99889658417E+03  0.12013154490E+04  0.12699999809E+01 0. -1.
</event>
<event>
 5   0  0.9519092E-05  0.2306427E+04  0.7818609E-02  0.8475391E-01
       -2   -1    0    0    0  501  0.00000000000E+00  0.00000000000E+00  0.70036672173E+03  0.70036672174E+03  0.25500000920E-02 0.  1.
        2   -1    0    0  501    0  0.00000000000E+00  0.00000000000E+00 -0.18988646255E+04  0.18988646255E+04  0.25500000920E-02 0. -1.
    10030    2    1    2    0    0  0.00000000000E+00  0.00000000000E+00 -0.11984979038E+04  0.25992313472E+04  0.23064271875E+04 0.  0.
        4    1    3    3  502    0 -0.79815473411E+03  0.83236261730E+03 -0.59402669809E+03  0.12972077078E+04  0.12699999809E+01 0.  1.
       -4    1    3    3    0  502  0.79815473411E+03 -0.83236261730E+03 -0.60447120569E+03  0.13020236394E+04  0.12699999809E+01 0. -1.
</event>
<event>
 5   0  0.4061631E-05  0.2406120E+04  0.7818609E-02  0.8437216E-01
        1   -1    0    0  501    0  0.00000000000E+00  0.00000000000E+00  0.22645344494E+04  0.22645344494E+04  0.50400001928E-02 0. -1.
       -1   -1    0    0    0  501  0.00000000000E+00  0.00000000000E+00 -0.63913966444E+03  0.63913966446E+03  0.50400001928E-02 0.  1.
    10030    2    1    2    0    0  0.00000000000E+00  0.00000000000E+00  0.16253947850E+04  0.29036741139E+04  0.24061203529E+04 0.  0.
        3    1    3    3  502    0 -0.42211033888E+03 -0.95765507974E+03  0.96641165353E+02  0.10510089985E+04  0.10100000352E+00 0.  1.
       -3    1    3    3    0  502  0.42211033888E+03  0.95765507974E+03  0.15287536196E+04  0.18526651153E+04  0.10100000352E+00 0. -1.
</event>
<event>
 5   0  0.9491680E-05  0.2407285E+04  0.7818609E-02  0.8436781E-01
       -2   -1    0    0    0  501  0.00000000000E+00  0.00000000000E+00  0.11115224848E+04  0.11115224848E+04  0.25500000920E-02 0.  1.
        2   -1    0    0  501    0  0.00000000000E+00  0.00000000000E+00 -0.13033972329E+04  0.13033972329E+04  0.25500000920E-02 0. -1.
    10030    2    1    2    0    0  0.00000000000E+00  0.00000000000E+00 -0.19187474808E+03  0.24149197177E+04  0.24072850525E+04 0.  0.
        5    1    3    3  502    0 -0.49742787661E+03  0.53967639843E+03 -0.10529272866E+04  0.12834964231E+04  0.46999998093E+01 0. -1.
       -5    1    3    3    0  502  0.49742787661E+03 -0.53967639843E+03  0.86105253848E+03  0.11314232946E+04  0.46999998093E+01 0.  1.
</event>
<event>
 5   0  0.9491680E-05  0.2391144E+04  0.7818609E-02  0.8442826E-01
        2   -1    0    0  501    0  0.00000000000E+00  0.00000000000E+00  0.59331783642E+03  0.59331783642E+03  0.25500000920E-02 0.  1.
       -2   -1    0    0    0  501  0.00000000000E+00  0.00000000000E+00 -0.24091519064E+04  0.24091519064E+04  0.25500000920E-02 0. -1.
    10030    2    1    2    0    0  0.00000000000E+00  0.00000000000E+00 -0.18158340700E+04  0.30024697428E+04  0.23911443258E+04 0.  0.
        5    1    3    3  502    0 -0.35671862209E+03 -0.48445963579E+03 -0.22052181773E+04  0.22858168372E+04  0.46999998093E+01 0. -1.
       -5    1    3    3    0  502  0.35671862209E+03  0.48445963579E+03  0.38938410729E+03  0.71665290558E+03  0.46999998093E+01 0.  1.
</event>
<event>
 5   0  0.9144244E-05  0.2177320E+04  0.7818609E-02  0.8527928E-01
        2   -1    0    0  501    0  0.00000000000E+00  0.00000000000E+00  0.12049719289E+04  0.12049719289E+04  0.25500000920E-02 0. -1.
       -2   -1    0    0    0  501  0.00000000000E+00  0.00000000000E+00 -0.98357518164E+03  0.98357518165E+03  0.25500000920E-02 0.  1.
    10030    2    1    2    0    0  0.00000000000E+00  0.00000000000E+00  0.22139674723E+03  0.21885471105E+04  0.21773198973E+04 0.  0.
        1    1    3    3  502    0  0.68836098246E+03  0.74958696203E+03  0.49929116058E+03  0.11335841913E+04  0.50400001928E-02 0.  1.
       -1    1    3    3    0  502 -0.68836098246E+03 -0.74958696203E+03 -0.27789441335E+03  0.10549629192E+04  0.50400001928E-02 0. -1.
</event>
<event>
 5   0  0.4260395E-05  0.2409564E+04  0.7818609E-02  0.8435931E-01
        1   -1    0    0  501    0  0.00000000000E+00  0.00000000000E+00  0.85938147656E+03  0.85938147657E+03  0.50400001928E-02 0.  1.
       -1   -1    0    0    0  501  0.00000000000E+00  0.00000000000E+00 -0.16890056189E+04  0.16890056189E+04  0.50400001928E-02 0. -1.
    10030    2    1    2    0    0  0.00000000000E+00  0.00000000000E+00 -0.82962414231E+03  0.25483870954E+04  0.24095643944E+04 0.  0.
        4    1    3    3  502    0 -0.92393712389E+03 -0.51179625711E+03  0.19815056611E+03  0.10746443493E+04  0.12699999809E+01 0.  1.
       -4    1    3    3    0  502  0.92393712389E+03  0.51179625711E+03 -0.10277747084E+04  0.14737427462E+04  0.12699999809E+01 0. -1.
</event>
<event>
 5   0  0.4061631E-05  0.2315744E+04  0.7818609E-02  0.8471739E-01
        1   -1    0    0  501    0  0.00000000000E+00  0.00000000000E+00  0.15933596722E+04  0.15933596722E+04  0.50400001928E-02 0.  1.
       -1   -1    0    0    0  501  0.00000000000E+00  0.00000000000E+00 -0.84140941017E+03  0.84140941018E+03  0.50400001928E-02 0. -1.
    10030    2    1    2    0    0  0.00000000000E+00  0.00000000000E+00  0.75195026206E+03  0.24347690824E+04  0.23157442191E+04 0.  0.
        3    1    3    3  502    0  0.19498438402E+03 -0.58756173101E+03  0.14047455385E+04  0.15351083792E+04  0.10100000352E+00 0.  1.
       -3    1    3    3    0  502 -0.19498438402E+03  0.58756173101E+03 -0.65279527644E+03  0.89966070321E+03  0.10100000352E+00 0. -1.
</event>
<event>
 5   0  0.4061631E-05  0.2434963E+04  0.7818609E-02  0.8426529E-01
       -1   -1    0    0    0  501  0.00000000000E+00  0.00000000000E+00  0.86635941774E+03  0.86635941775E+03  0.50400001928E-02 0. -1.
        1   -1    0    0  501    0  0.00000000000E+00  0.00000000000E+00 -0.17109074956E+04  0.17109074956E+04  0.50400001928E-02 0.  1.
    10030    2    1    2    0    0  0.00000000000E+00  0.00000000000E+00 -0.84454807785E+03  0.25772669133E+04  0.24349626869E+04 0.  0.
        3    1    3    3  502    0  0.96833178823E+03  0.73151658686E+03 -0.31923024685E+03  0.12548668972E+04  0.10100000352E+00 0.  1.
       -3    1    3    3    0  502 -0.96833178823E+03 -0.73151658686E+03 -0.52531783100E+03  0.13224000162E+04  0.10100000352E+00 0. -1.
</event>
<event>
 5   0  0.9519092E-05  0.2433094E+04  0.7818609E-02  0.8427217E-01
       -2   -1    0    0    0  501  0.00000000000E+00  0.00000000000E+00  0.66762159728E+03  0.66762159728E+03  0.25500000920E-02 0. -1.
        2   -1    0    0  501    0  0.00000000000E+00  0.00000000000E+00 -0.22168047110E+04  0.22168047110E+04  0.25500000920E-02 0.  1.
    10030    2    1    2    0    0  0.00000000000E+00  0.00000000000E+00 -0.15491831137E+04  0.28844263083E+04  0.24330940812E+04 0.  0.
        4    1    3    3  502    0 -0.54992667004E+03 -0.14514597099E+03  0.50029946507E+03  0.75748786324E+03  0.12699999809E+01 0. -1.
       -4    1    3    3    0  502  0.54992667004E+03  0.14514597099E+03 -0.20494825788E+04  0.21269384451E+04  0.12699999809E+01 0.  1.
</event>
<event>
 5   0  0.4018942E-05  0.2373236E+04  0.7818609E-02  0.8449592E-01
        1   -1    0    0  501    0  0.00000000000E+00  0.00000000000E+00  0.22584928744E+04  0.22584928744E+04  0.50400001928E-02 0.  1.
       -1   -1    0    0    0  501  0.00000000000E+00  0.00000000000E+00 -0.62345194963E+03  0.62345194965E+03  0.50400001928E-02 0. -1.
    10030    2    1    2    0    0  0.00000000000E+00  0.00000000000E+00  0.16350409248E+04  0.28819448241E+04  0.23732355853E+04 0.  0.
        5    1    3    3  502    0  0.16331652115E+03 -0.14542579176E+03 -0.59875975342E+03  0.63746080609E+03  0.46999998093E+01 0. -1.
       -5    1    3    3    0  502 -0.16331652115E+03  0.14542579176E+03  0.22338006782E+04  0.22444840180E+04  0.46999998093E+01 0.  1.
</event>
<event>
 5   0  0.4260395E-05  0.1825994E+04  0.7818609E-02  0.8692597E-01
       -1   -1    0    0    0  501  0.00000000000E+00  0.00000000000E+00  0.82823864086E+03  0.82823864087E+03  0.50400001928E-02 0.  1.
        1   -1    0    0  501    0  0.00000000000E+00  0.00000000000E+00 -0.10064287435E+04  0.10064287435E+04  0.50400001928E-02 0. -1.
    10030    2    1    2    0    0  0.00000000000E+00  0.00000000000E+00 -0.17819010265E+03  0.18346673844E+04  0.18259936196E+04 0.  0.
        4    1    3    3  502    0  0.59010494087E+03 -0.42986946026E+00 -0.78906601529E+03  0.98531762159E+03  0.12699999809E+01 0. -1.
       -4    1    3    3    0  502 -0.59010494087E+03  0.42986946026E+00  0.61087591264E+03  0.84934976281E+03  0.12699999809E+01 0.  1.
</event>
<event>
 5   0  0.3934906E-05  0.2506203E+04  0.7818609E-02  0.8400779E-01
        1   -1    0    0  501    0  0.00000000000E+00  0.00000000000E+00  0.11132327774E+04  0.11132327774E+04  0.50400001928E-02 0.  1.
       -1   -1    0    0    0  501  0.00000000000E+00  0.00000000000E+00 -0.14105435906E+04  0.14105435906E+04  0.50400001928E-02 0. -1.
    10030    2    1    2    0    0  0.00000000000E+00  0.00000000000E+00 -0.29731081320E+03  0.25237763679E+04  0.25062029917E+04 0.  0.
        2    1    3    3  502    0  0.16696797550E+03 -0.51001628733E+02  0.11009258745E+04  0.11146825791E+04  0.25500000920E-02 0.  1.
       -2    1    3    3    0  502 -0.16696797550E+03  0.51001628733E+02 -0.13982366877E+04  0.14090937888E+04  0.25500000920E-02 0. -1.
</event>
<event>
 5   0  0.9182865E-05  0.2301607E+04  0.7818609E-02  0.8477288E-01
        2   -1    0    0  501    0  0.00000000000E+00  0.00000000000E+00  0.16627682772E+04  0.16627682772E+04  0.25500000920E-02 0. -1.
       -2   -1    0    0    0  501  0.00000000000E+00  0.00000000000E+00 -0.79647209556E+03  0.79647209556E+03  0.25500000920E-02 0.  1.
    10030    2    1    2    0    0  0.00000000000E+00  0.00000000000E+00  0.86629618166E+03  0.24592403728E+04  0.23016068597E+04 0.  0.
        3    1    3    3  502    0  0.40266150671E+03 -0.33486449378E+02  0.15844863749E+04  0.16351925616E+04  0.10100000352E+00 0. -1.
       -3    1    3    3    0  502 -0.40266150671E+03  0.33486449378E+02 -0.71819019319E+03  0.82404781116E+03  0.10100000352E+00 0.  1.
</event>
<event>
 5   0  0.9519092E-05  0.2009119E+04  0.7818609E-02  0.8602369E-01
       -2   -1    0    0    0  501  0.00000000000E+00  0.00000000000E+00  0.93299317334E+03  0.93299317335E+03  0.25500000920E-02 0.  1.
        2   -1    0    0  501    0  0.00000000000E+00  0.00000000000E+00 -0.10816155106E+04  0.10816155106E+04  0.25500000920E-02 0. -1.
    10030    2    1    2    0    0  0.00000000000E+00  0.00000000000E+00 -0.14862233728E+03  0.20146086840E+04  0.20091190981E+04 0.  0.
        4    1    3    3  502    0 -0.78124055874E+03  0.12779963457E+03  0.54581917087E+03  0.96155589406E+03  0.12699999809E+01 0.  1.
       -4    1    3    3    0  502  0.78124055874E+03 -0.12779963457E+03 -0.69444150814E+03  0.10530527899E+04  0.12699999809E+01 0. -1.
</event>
<event>
 5   0  0.9144244E-05  0.1218105E+04  0.7818609E-02  0.9097155E-01
       -2   -1    0    0    0  501  0.00000000000E+00  0.00000000000E+00  0.80415978458E+03  0.80415978458E+03  0.25500000920E-02 0. -1.
        2   -1    0    0  501    0  0.00000000000E+00  0.00000000000E+00 -0.46128260004E+03  0.46128260005E+03  0.25500000920E-02 0.  1.
    10030    2    1    2    0    0  0.00000000000E+00  0.00000000000E+00  0.34287718454E+03  0.12654423846E+04  0.12181049483E+04 0.  0.
        1    1    3    3  502    0  0.16996270538E+02  0.40885752350E+03 -0.29719226204E+03  0.50574359945E+03  0.50400001928E-02 0.  1.
       -1    1    3    3    0  502 -0.16996270538E+02 -0.40885752350E+03  0.64006944658E+03  0.75969878519E+03  0.50400001928E-02 0. -1.
</event>
<event>
 5   0  0.9182865E-05  0.2415214E+04  0.7818609E-02  0.8433830E-01
       -2   -1    0    0    0  501  0.00000000000E+00  0.00000000000E+00  0.88052092375E+03  0.88052092376E+03  0.25500000920E-02 0.  1.
        2   -1    0    0  501    0  0.00000000000E+00  0.00000000000E+00 -0.16561948556E+04  0.16561948556E+04  0.25500000920E-02 0. -1.
    10030    2    1    2    0    0  0.00000000000E+00  0.00000000000E+00 -0.77567393188E+03  0.25367157794E+04  0.24152136338E+04 0.  0.
        3    1    3    3  502    0 -0.68483869716E+03  0.36796596554E+03 -0.13583974810E+04  0.15651347288E+04  0.10100000352E+00 0. -1.
       -3    1    3    3    0  502  0.68483869716E+03 -0.36796596554E+03  0.58272354909E+03  0.97158105055E+03  0.10100000352E+00 0.  1.
</event>
<event>
 5   0  0.4018942E-05  0.2266247E+04  0.7818609E-02  0.8491349E-01
       -1   -1    0    0    0  501  0.00000000000E+00  0.00000000000E+00  0.12580409302E+04  0.12580409302E+04  0.50400001928E-02 0.  1.
        1   -1    0    0  501    0  0.00000000000E+00  0.00000000000E+00 -0.10206099788E+04  0.10206099788E+04  0.50400001928E-02 0. -1.
    10030    2    1    2    0    0  0.00000000000E+00  0.00000000000E+00  0.23743095147E+03  0.22786509090E+04  0.22662472302E+04 0.  0.
        5    1    3    3  502    0  0.80909606013E+03 -0.32270478287E+02  0.91568809493E+03  0.12223684369E+04  0.46999998093E+01 0.  1.
       -5    1    3    3    0  502 -0.80909606013E+03  0.32270478287E+02 -0.67825714346E+03  0.10562824721E+04  0.46999998093E+01 0. -1.
</event>
<event>
 5   0  0.4260395E-05  0.2112089E+04  0.7818609E-02  0.8555937E-01
       -1   -1    0    0    0  501  0.00000000000E+00  0.00000000000E+00  0.10023330719E+04  0.10023330719E+04  0.50400001928E-02 0.  1.
        1   -1    0    0  501    0  0.00000000000E+00  0.00000000000E+00 -0.11126342132E+04  0.11126342132E+04  0.50400001928E-02 0. -1.
    10030    2    1    2    0    0  0.00000000000E+00  0.00000000000E+00 -0.11030114126E+03  0.21149672851E+04  0.21120890784E+04 0.  0.
        4    1    3    3  502    0  0.24211114014E+03  0.24963458742E+03 -0.10536519361E+04  0.11095581313E+04  0.12699999809E+01 0. -1.
       -4    1    3    3    0  502 -0.24211114014E+03 -0.24963458742E+03  0.94335079486E+03  0.10054091538E+04  0.12699999809E+01 0.  1.
</event>
<event>
 5   0  0.4018942E-05  0.2504216E+04  0.7818609E-02  0.8401485E-01
       -1   -1    0    0    0  501  0.00000000000E+00  0.00000000000E+00  0.13905907961E+04  0.13905907961E+04  0.50400001928E-02 0. -1.
        1   -1    0    0  501    0  0.00000000000E+00  0.00000000000E+00 -0.11274159778E+04  0.11274159778E+04  0.50400001928E-02 0.  1.
    10030    2    1    2    0    0  0.00000000000E+00  0.00000000000E+00  0.26317481829E+03  0.25180067739E+04  0.25042158710E+04 0.  0.
        5    1    3    3  502    0  0.19453939871E+03  0.12144285810E+04 -0.10437456571E+03  0.12343413207E+04  0.46999998093E+01 0. -1.
       -5    1    3    3    0  502 -0.19453939871E+03 -0.12144285810E+04  0.36754938400E+03  0.12836654532E+04  0.46999998093E+01 0.  1.
</event>
<event>
 5   0  0.4061631E-05  0.1424085E+04  0.7818609E-02  0.8936567E-01
        1   -1    0    0  501    0  0.00000000000E+00  0.00000000000E+00  0.23876658431E+03  0.23876658436E+03  0.50400001928E-02 0.  1.
       -1   -1    0    0    0  501  0.00000000000E+00  0.00000000000E+00 -0.21234313279E+04  0.21234313279E+04  0.50400001928E-02 0. -1.
    10030    2    1    2    0    0  0.00000000000E+00  0.00000000000E+00 -0.18846647436E+04  0.23621979123E+04  0.14240848925E+04 0.  0.
        3    1    3    3  502    0 -0.69591918548E+03 -0.18503585564E+02 -0.11903611759E+04  0.13789871771E+04  0.10100000352E+00 0. -1.
       -3    1    3    3    0  502  0.69591918548E+03  0.18503585564E+02 -0.69430356774E+03  0.98321073518E+03  0.10100000352E+00 0.  1.
</event>
<event>
 5   0  0.9519092E-05  0.2529088E+04  0.7818609E-02  0.8392695E-01
       -2   -1    0    0    0  501  0.00000000000E+00  0.00000000000E+00  0.11328464414E+04  0.11328464414E+04  0.25500000920E-02 0.  1.
        2   -1    0    0  501    0  0.00000000000E+00  0.00000000000E+00 -0.14115523829E+04  0.14115523829E+04  0.25500000920E-02 0. -1.
    10030    2    1    2    0    0  0.00000000000E+00  0.00000000000E+00 -0.27870594149E+03  0.25443988244E+04  0.25290884476E+04 0.  0.
        4    1    3    3  502    0  0.18300580760E+03  0.10220969388E+04 -0.86545421539E+03  0.13517344006E+04  0.12699999809E+01 0. -1.
       -4    1    3    3    0  502 -0.18300580760E+03 -0.10220969388E+04  0.58674827390E+03  0.11926644238E+04  0.12699999809E+01 0.  1.
</event>
<event>
 5   0  0.9144244E-05  0.2190598E+04  0.7818609E-02  0.8522351E-01
       -2   -1    0    0    0  501  0.00000000000E+00  0.00000000000E+00  0.16074248516E+04  0.16074248516E+04  0.25500000920E-02 0.  1.
        2   -1    0    0  501    0  0.00000000000E+00  0.00000000000E+00 -0.74633686395E+03  0.74633686396E+03  0.25500000920E-02 0. -1.
    10030    2    1    2    0    0  0.00000000000E+00  0.00000000000E+00  0.86108798766E+03  0.23537617156E+04  0.21905984779E+04 0.  0.
        1    1    3    3  502    0  0.68129730859E+03 -0.38091905766E+03  0.12561606211E+04  0.14789201660E+04  0.50400001928E-02 0.  1.
       -1    1    3    3    0  502 -0.68129730859E+03  0.38091905766E+03 -0.39507263347E+03  0.87484154961E+03  0.50400001928E-02 0. -1.
</event>
<event>
 5   0  0.9750757E-05  0.2372080E+04  0.7818609E-02  0.8450031E-01
        2   -1    0    0  501    0  0.00000000000E+00  0.00000000000E+00  0.25471642223E+04  0.25471642223E+04  0.25500000920E-02 0.  1.
       -2   -1    0    0    0  501  0.00000000000E+00  0.00000000000E+00 -0.55225768879E+03  0.55225768880E+03  0.25500000920E-02 0. -1.
    10030    2    1    2    0    0  0.00000000000E+00  0.00000000000E+00  0.19949065335E+04  0.30994219111E+04  0.23720801221E+04 0.  0.
        2    1    3    3  502    0  0.11531060438E+04  0.26498364370E+03  0.88953870772E+03  0.14802530163E+04  0.25500000920E-02 0.  1.
       -2    1    3    3    0  502 -0.11531060438E+04 -0.26498364370E+03  0.11053678258E+04  0.16191688948E+04  0.25500000920E-02 0. -1.
</event>
<event>
 5   0  0.4061631E-05  0.2034628E+04  0.7818609E-02  0.8590600E-01
       -1   -1    0    0    0  501  0.00000000000E+00  0.00000000000E+00  0.12060603899E+04  0.12060603899E+04  0.50400001928E-02 0.  1.
        1   -1    0    0  501    0  0.00000000000E+00  0.00000000000E+00 -0.85810650871E+03  0.85810650872E+03  0.50400001928E-02 0. -1.
    10030    2    1    2    0    0  0.00000000000E+00  0.00000000000E+00  0.34795388116E+03  0.20641668986E+04  0.20346284874E+04 0.  0.
        3    1    3    3  502    0  0.84391622200E+03  0.22131961033E+03  0.70478533706E+03  0.11215611179E+04  0.10100000352E+00 0.  1.
       -3    1    3    3    0  502 -0.84391622200E+03 -0.22131961033E+03 -0.35683145591E+03  0.94260578069E+03  0.10100000352E+00 0. -1.
</event>
<event>
 5   0  0.9182865E-05  0.2146206E+04  0.7818609E-02  0.8541158E-01
       -2   -1    0    0    0  501  0.00000000000E+00  0.00000000000E+00  0.89453634484E+03  0.89453634484E+03  0.25500000920E-02 0.  1.
        2   -1    0    0  501    0  0.00000000000E+00  0.00000000000E+00 -0.12873152062E+04  0.12873152062E+04  0.25500000920E-02 0. -1.
    10030    2    1    2    0    0  0.00000000000E+00  0.00000000000E+00 -0.39277886135E+03  0.21818515510E+04  0.21462061776E+04 0.  0.
        3    1    3    3  502    0 -0.55699350267E+03  0.86570861632E+03 -0.50450243267E+03  0.11463925528E+04  0.10100000352E+00 0.  1.
       -3    1    3    3    0  502  0.55699350267E+03 -0.86570861632E+03  0.11172357132E+03  0.10354589982E+04  0.10100000352E+00 0. -1.
</event>
<event>
 5   0  0.9491680E-05  0.1190702E+04  0.7818609E-02  0.9121034E-01
        2   -1    0    0  501    0  0.00000000000E+00  0.00000000000E+00  0.13209211776E+04  0.13209211776E+04  0.25500000920E-02 0.  1.
       -2   -1    0    0    0  501  0.00000000000E+00  0.00000000000E+00 -0.26832996969E+03  0.26832996970E+03  0.25500000920E-02 0. -1.
    10030    2    1    2    0    0  0.00000000000E+00  0.00000000000E+00  0.10525912079E+04  0.15892511473E+04  0.11907018763E+04 0.  0.
        5    1    3    3  502    0  0.45176171759E+03  0.15302763297E+03  0.50801438991E+02  0.47969676060E+03  0.46999998093E+01 0. -1.
       -5    1    3    3    0  502 -0.45176171759E+03 -0.15302763297E+03  0.10017897689E+04  0.11095543867E+04  0.46999998093E+01 0.  1.
</event>
<event>
 5   0  0.9144244E-05  0.2464428E+04  0.7818609E-02  0.8415769E-01
       -2   -1    0    0    0  501  0.00000000000E+00  0.00000000000E+00  0.15535081087E+04  0.15535081087E+04  0.25500000920E-02 0. -1.
        2   -1    0    0  501    0  0.00000000000E+00  0.00000000000E+00 -0.97736979040E+03  0.97736979040E+03  0.25500000920E-02 0.  1.
    10030    2    1    2    0    0  0.00000000000E+00  0.00000000000E+00  0.57613831835E+03  0.25308778991E+04  0.24644284487E+04 0.  0.
        1    1    3    3  502    0 -0.67764924891E+03 -0.57624654369E+03 -0.58761414185E+03  0.10660951943E+04  0.50400001928E-02 0.  1.
       -1    1    3    3    0  502  0.67764924891E+03  0.57624654369E+03  0.11637524602E+04  0.14647827048E+04  0.50400001928E-02 0. -1.
</event>
<event>
 5   0  0.4061631E-05  0.1880674E+04  0.7818609E-02  0.8664536E-01
        1   -1    0    0  501    0  0.00000000000E+00  0.00000000000E+00  0.42180483553E+03  0.42180483556E+03  0.50400001928E-02 0.  1.
       -1   -1    0    0    0  501  0.00000000000E+00  0.00000000000E+00 -0.20963100086E+04  0.20963100086E+04  0.50400001928E-02 0. -1.
    10030    2    1    2    0    0  0.00000000000E+00  0.00000000000E+00 -0.16745051731E+04  0.25181148442E+04  0.18806740265E+04 0.  0.
        3    1    3    3  502    0 -0.49959025114E+03  0.67184613006E+03 -0.26405676957E+03  0.87789158172E+03  0.10100000352E+00 0.  1.
       -3    1    3    3    0  502  0.49959025114E+03 -0.67184613006E+03 -0.14104484035E+04  0.16402232624E+04  0.10100000352E+00 0. -1.
</event>
<event>
 5   0  0.4260395E-05  0.2447739E+04  0.7818609E-02  0.8421844E-01
        1   -1    0    0  501    0  0.00000000000E+00  0.00000000000E+00  0.75623882012E+03  0.75623882014E+03  0.50400001928E-02 0.  1.
       -1   -1    0    0    0  501  0.00000000000E+00  0.00000000000E+00 -0.19806652421E+04  0.19806652421E+04  0.50400001928E-02 0. -1.
    10030    2    1    2    0    0  0.00000000000E+00  0.00000000000E+00 -0.12244264220E+04  0.27369040622E+04  0.24477385038E+04 0.  0.
        4    1    3    3  502    0 -0.25629910443E+03 -0.49707006957E+03  0.60500816505E+03  0.82389585366E+03  0.12699999809E+01 0.  1.
       -4    1    3    3    0  502  0.25629910443E+03  0.49707006957E+03 -0.18294345870E+04  0.19130082086E+04  0.12699999809E+01 0. -1.
</event>
<event>
 5   0  0.4061631E-05  0.1942964E+04  0.7818609E-02  0.8633761E-01
       -1   -1    0    0    0  501  0.00000000000E+00  0.00000000000E+00  0.13468109730E+04  0.13468109730E+04  0.50400001928E-02 0. -1.
        1   -1    0    0  501    0  0.00000000000E+00  0.00000000000E+00 -0.70074970935E+03  0.70074970937E+03  0.50400001928E-02 0.  1.
    10030    2    1    2    0    0  0.00000000000E+00  0.00000000000E+00  0.64606126364E+03  0.20475606824E+04  0.19429641251E+04 0.  0.
        3    1    3    3  502    0  0.40363388302E+03  0.47416944065E+03 -0.46277903943E+03  0.77583594883E+03  0.10100000352E+00 0.  1.
       -3    1    3    3    0  502 -0.40363388302E+03 -0.47416944065E+03  0.11088403031E+04  0.12717247335E+04  0.10100000352E+00 0. -1.
</event>
<event>
 5   0  0.9144244E-05  0.2416726E+04  0.7818609E-02  0.8433268E-01
       -2   -1    0    0    0  501  0.00000000000E+00  0.00000000000E+00  0.95937677342E+03  0.95937677342E+03  0.25500000920E-02 0.  1.
        2   -1    0    0  501    0  0.00000000000E+00  0.00000000000E+00 -0.15219683609E+04  0.15219683609E+04  0.25500000920E-02 0. -1.
    10030    2    1    2    0    0  0.00000000000E+00  0.00000000000E+00 -0.56259158745E+03  0.24813451343E+04  0.24167259632E+04 0.  0.
        1    1    3    3  502    0  0.57029607577E+03 -0.34785444785E+03 -0.13151456998E+04  0.14750757752E+04  0.50400001928E-02 0. -1.
       -1    1    3    3    0  502 -0.57029607577E+03  0.34785444785E+03  0.75255411236E+03  0.10062693591E+04  0.50400001928E-02 0.  1.
</event>
<event>
 5   0  0.9491680E-05  0.2380251E+04  0.7818609E-02  0.8446934E-01
        2   -1    0    0  501    0  0.00000000000E+00  0.00000000000E+00  0.92647060316E+03  0.92647060316E+03  0.25500000920E-02 0. -1.
       -2   -1    0    0    0  501  0.00000000000E+00  0.00000000000E+00 -0.15288115465E+04  0.15288115465E+04  0.25500000920E-02 0.  1.
    10030    2    1    2    0    0  0.00000000000E+00  0.00000000000E+00 -0.60234094336E+03  0.24552821497E+04  0.23802512100E+04 0.  0.
        5    1    3    3  502    0  0.84172333746E+03  0.82073495908E+03 -0.11020559137E+03  0.11807927050E+04  0.46999998093E+01 0. -1.
       -5    1    3    3    0  502 -0.84172333746E+03 -0.82073495908E+03 -0.49213535198E+03  0.12744894447E+04  0.46999998093E+01 0.  1.
</event>
<event>
 5   0  0.9750757E-05  0.2220203E+04  0.7818609E-02  0.8510066E-01
       -2   -1    0    0    0  501  0.00000000000E+00  0.00000000000E+00  0.10851696435E+04  0.10851696435E+04  0.25500000920E-02 0.  1.
        2   -1    0    0  501    0  0.00000000000E+00  0.00000000000E+00 -0.11356063595E+04  0.11356063595E+04  0.25500000920E-02 0. -1.
    10030    2    1    2    0    0  0.00000000000E+00  0.00000000000E+00 -0.50436715955E+02  0.22207760030E+04  0.22202031873E+04 0.  0.
        2    1    3    3  502    0 -0.33998393415E+03 -0.10419669012E+04  0.15101293610E+03  0.11063855592E+04  0.25500000920E-02 0.  1.
       -2    1    3    3    0  502  0.33998393415E+03  0.10419669012E+04 -0.20144965206E+03  0.11143904437E+04  0.25500000920E-02 0. -1.
</event>
<event>
 5   0  0.9182865E-05  0.2449198E+04  0.7818609E-02  0.8421311E-01
       -2   -1    0    0    0  501  0.00000000000E+00  0.00000000000E+00  0.11637258338E+04  0.11637258338E+04  0.25500000920E-02 0.  1.
        2   -1    0    0  501    0  0.00000000000E+00  0.00000000000E+00 -0.12886559371E+04  0.12886559371E+04  0.25500000920E-02 0. -1.
    10030    2    1    2    0    0  0.00000000000E+00  0.00000000000E+00 -0.12493010325E+03  0.24523817709E+04  0.24491975869E+04 0.  0.
        3    1    3    3  502    0  0.43227072380E+03 -0.10338614734E+04  0.43205421544E+03  0.12009989093E+04  0.10100000352E+00 0.  1.
       -3    1    3    3    0  502 -0.43227072380E+03  0.10338614734E+04 -0.55698431869E+03  0.12513828616E+04  0.10100000352E+00 0. -1.
</event>
<event>
 5   0  0.9750757E-05  0.2432689E+04  0.7818609E-02  0.8427366E-01
       -2   -1    0    0    0  501  0.00000000000E+00  0.00000000000E+00  0.11250858306E+04  0.11250858306E+04  0.25500000920E-02 0. -1.
        2   -1    0    0  501    0  0.00000000000E+00  0.00000000000E+00 -0.13150053242E+04  0.13150053242E+04  0.25500000920E-02 0.  1.
    10030    2    1    2    0    0  0.00000000000E+00  0.00000000000E+00 -0.18991949365E+03  0.24400911548E+04  0.24326889299E+04 0.  0.
        2    1    3    3  502    0  0.67823494161E+02 -0.10010014882E+04  0.59480257720E+03  0.11663593407E+04  0.25500000920E-02 0. -1.
       -2    1    3    3    0  502 -0.67823494161E+02  0.10010014882E+04 -0.78472207084E+03  0.12737318141E+04  0.25500000920E-02 0.  1.
</event>
<event>
 5   0  0.9182865E-05  0.2326204E+04  0.7818609E-02  0.8467660E-01
        2   -1    0    0  501    0  0.00000000000E+00  0.00000000000E+00  0.12094362241E+04  0.12094362241E+04  0.25500000920E-02 0.  1.
       -2   -1    0    0    0  501  0.00000000000E+00  0.00000000000E+00 -0.11185430248E+04  0.11185430248E+04  0.25500000920E-02 0. -1.
    10030    2    1    2    0    0  0.00000000000E+00  0.00000000000E+00  0.90893199306E+02  0.23279792489E+04  0.23262041634E+04 0.  0.
        3    1    3    3  502    0 -0.11177110471E+03  0.11575224883E+04  0.24091353049E+02  0.11631558341E+04  0.10100000352E+00 0.  1.
       -3    1    3    3    0  502  0.11177110471E+03 -0.11575224883E+04  0.66801846256E+02  0.11648234148E+04  0.10100000352E+00 0. -1.
</event>
<event>
 5   0  0.9182865E-05  0.2304045E+04  0.7818609E-02  0.8476328E-01
        2   -1    0    0  501    0  0.00000000000E+00  0.00000000000E+00  0.66215293935E+03  0.66215293935E+03  0.25500000920E-02 0.  1.
       -2   -1    0    0    0  501  0.00000000000E+00  0.00000000000E+00 -0.20043046815E+04  0.20043046815E+04  0.25500000920E-02 0. -1.
    10030    2    1    2    0    0  0.00000000000E+00  0.00000000000E+00 -0.13421517422E+04  0.26664576209E+04  0.23040453435E+04 0.  0.
        3    1    3    3  502    0  0.81417560207E+02  0.54818943678E+03 -0.18398944396E+04  0.19215493844E+04  0.10100000352E+00 0. -1.
       -3    1    3    3    0  502 -0.81417560207E+02 -0.54818943678E+03  0.49774269742E+03  0.74490823646E+03  0.10100000352E+00 0.  1.
</event>
<event>
 5   0  0.9519092E-05  0.2275813E+04  0.7818609E-02  0.8487519E-01
        2   -1    0    0  501    0  0.00000000000E+00  0.00000000000E+00  0.24539285000E+04  0.24539285000E+04  0.25500000920E-02 0. -1.
       -2   -1    0    0    0  501  0.00000000000E+00  0.00000000000E+00 -0.52765654411E+03  0.52765654411E+03  0.25500000920E-02 0.  1.
    10030    2    1    2    0    0  0.00000000000E+00  0.00000000000E+00  0.19262719558E+04  0.29815850441E+04  0.22758132013E+04 0.  0.
        4    1    3    3  502    0 -0.10591116364E+04  0.12402716888E+03  0.14834520248E+04  0.18269460090E+04  0.12699999809E+01 0. -1.
       -4    1    3    3    0  502  0.10591116364E+04 -0.12402716888E+03  0.44281993109E+03  0.11546390351E+04  0.12699999809E+01 0.  1.
</event>
<event>
 5   0  0.4018942E-05  0.2309532E+04  0.7818609E-02  0.8474172E-01
        1   -1    0    0  501    0  0.00000000000E+00  0.00000000000E+00  0.10071146055E+04  0.10071146055E+04  0.50400001928E-02 0.  1.
       -1   -1    0    0    0  501  0.00000000000E+00  0.00000000000E+00 -0.13240642381E+04  0.13240642381E+04  0.50400001928E-02 0. -1.
    10030    2    1    2    0    0  0.00000000000E+00  0.00000000000E+00 -0.31694963263E+03  0.23311788436E+04  0.23095319290E+04 0.  0.
        5    1    3    3  502    0 -0.17204340358E+03 -0.11204118766E+04  0.63909603467E+02  0.11353537921E+04  0.46999998093E+01 0.  1.
       -5    1    3    3    0  502  0.17204340358E+03  0.11204118766E+04 -0.38085923610E+03  0.11958250514E+04  0.46999998093E+01 0. -1.
</event>
<event>
 5   0  0.3934906E-05  0.2212816E+04  0.7818609E-02  0.8513113E-01
       -1   -1    0    0    0  501  0.00000000000E+00  0.00000000000E+00  0.14413349453E+04  0.14413349453E+04  0.50400001928E-02 0. -1.
        1   -1    0    0  501    0  0.00000000000E+00  0.00000000000E+00 -0.84930888828E+03  0.84930888830E+03  0.50400001928E-02 0.  1.
    10030    2    1    2    0    0  0.00000000000E+00  0.00000000000E+00  0.59202605697E+03  0.22906438336E+04  0.22128159255E+04 0.  0.
        2    1    3    3  502    0  0.70883672730E+02 -0.68888385443E+03 -0.59721043484E+03  0.91446474150E+03  0.25500000920E-02 0.  1.
       -2    1    3    3    0  502 -0.70883672730E+02  0.68888385443E+03  0.11892364918E+04  0.13761790921E+04  0.25500000920E-02 0. -1.
</event>
<event>
 5   0  0.3934906E-05  0.2399185E+04  0.7818609E-02  0.8439809E-01
       -1   -1    0    0    0  501  0.00000000000E+00  0.00000000000E+00  0.10923849657E+04  0.10923849657E+04  0.50400001928E-02 0. -1.
        1   -1    0    0  501    0  0.00000000000E+00  0.00000000000E+00 -0.13173216044E+04  0.13173216044E+04  0.50400001928E-02 0.  1.
    10030    2    1    2    0    0  0.00000000000E+00  0.00000000000E+00 -0.22493663865E+03  0.24097065701E+04  0.23991851247E+04 0.  0.
        2    1    3    3  502    0 -0.10737673548E+04  0.27485679738E+03 -0.57328285243E+03  0.12478685108E+04  0.25500000920E-02 0.  1.
       -2    1    3    3    0  502  0.10737673548E+04 -0.27485679738E+03  0.34834621378E+03  0.11618380593E+04  0.25500000920E-02 0. -1.
</event>
<event>
 5   0  0.4061631E-05  0.1909568E+04  0.7818609E-02  0.8650108E-01
       -1   -1    0    0    0  501  0.00000000000E+00  0.00000000000E+00  0.74802745055E+03  0.74802745057E+03  0.50400001928E-02 0. -1.
        1   -1    0    0  501    0  0.00000000000E+00  0.00000000000E+00 -0.12186884503E+04  0.12186884504E+04  0.50400001928E-02 0.  1.
    10030    2    1    2    0    0  0.00000000000E+00  0.00000000000E+00 -0.47066099979E+03  0.19667159009E+04  0.19095679245E+04 0.  0.
        3    1    3    3  502    0 -0.18201571254E+03  0.36988103604E+03  0.65164593217E+03  0.77109281643E+03  0.10100000352E+00 0. -1.
       -3    1    3    3    0  502  0.18201571254E+03 -0.36988103604E+03 -0.11223069320E+04  0.11956230845E+04  0.10100000352E+00 0.  1.
</event>
<event>
 5   0  0.9144244E-05  0.1623908E+04  0.7818609E-02  0.8805994E-01
        2   -1    0    0  501    0  0.00000000000E+00  0.00000000000E+00  0.21627024712E+04  0.21627024712E+04  0.25500000920E-02 0. -1.
       -2   -1    0    0    0  501  0.00000000000E+00  0.00000000000E+00 -0.30483580144E+03  0.30483580145E+03  0.25500000920E-02 0.  1.
    10030    2    1    2    0    0  0.00000000000E+00  0.00000000000E+00  0.18578666697E+04  0.24675382726E+04  0.16239078066E+04 0.  0.
        1    1    3    3  502    0  0.43204017404E+02 -0.30364725328E+03 -0.21342919635E+03  0.37365794977E+03  0.50400001928E-02 0.  1.
       -1    1    3    3    0  502 -0.43204017404E+02  0.30364725328E+03  0.20712958661E+04  0.20938803229E+04  0.50400001928E-02 0. -1.
</event>
<event>
 5   0  0.4061631E-05  0.2366809E+04  0.7818609E-02  0.8452035E-01
        1   -1    0    0  501    0  0.00000000000E+00  0.00000000000E+00  0.16346824416E+04  0.16346824416E+04  0.50400001928E-02 0. -1.
       -1   -1    0    0    0  501  0.00000000000E+00  0.00000000000E+00 -0.85670815571E+03  0.85670815573E+03  0.50400001928E-02 0.  1.
    10030    2    1    2    0    0  0.00000000000E+00  0.00000000000E+00  0.77797428591E+03  0.24913905974E+04  0.23668086359E+04 0.  0.
        3    1    3    3  502    0 -0.98189282596E+03 -0.43359543179E+03  0.91354194228E+03  0.14094954454E+04  0.10100000352E+00 0. -1.
       -3    1    3    3    0  502  0.98189282596E+03  0.43359543179E+03 -0.13556765637E+03  0.10818951519E+04  0.10100000352E+00 0.  1.
</event>
<event>
 5   0  0.9182865E-05  0.2435981E+04  0.7818609E-02  0.8426154E-01
       -2   -1    0    0    0  501  0.00000000000E+00  0.00000000000E+00  0.69171906124E+03  0.69171906124E+03  0.25500000920E-02 0.  1.
        2   -1    0    0  501    0  0.00000000000E+00  0.00000000000E+00 -0.21446581166E+04  0.21446581166E+04  0.25500000920E-02 0. -1.
    10030    2    1    2    0    0  0.00000000000E+00  0.00000000000E+00 -0.14529390554E+04  0.28363771779E+04  0.24359810337E+04 0.  0.
        3    1    3    3  502    0 -0.63838380234E+03 -0.30731949161E+03  0.42709008180E+03  0.82727570808E+03  0.10100000352E+00 0.  1.
       -3    1    3    3    0  502  0.63838380234E+03  0.30731949161E+03 -0.18800291372E+04  0.20091014698E+04  0.10100000352E+00 0. -1.
</event>
<event>
 5   0  0.4208577E-05  0.2434813E+04  0.7818609E-02  0.8426584E-01
        1   -1    0    0  501    0  0.00000000000E+00  0.00000000000E+00  0.13225604720E+04  0.13225604720E+04  0.50400001928E-02 0.  1.
       -1   -1    0    0    0  501  0.00000000000E+00  0.00000000000E+00 -0.11206126573E+04  0.11206126573E+04  0.50400001928E-02 0. -1.
    10030    2    1    2    0    0  0.00000000000E+00  0.00000000000E+00  0.20194781468E+03  0.24431731293E+04  0.24348125225E+04 0.  0.
        1    1    3    3  502    0 -0.98029773612E+03 -0.71977424841E+03  0.15611151881E+03  0.12261441296E+04  0.50400001928E-02 0.  1.
       -1    1    3    3    0  502  0.98029773612E+03  0.71977424841E+03  0.45836295869E+02  0.12170289997E+04  0.50400001928E-02 0. -1.
</event>
<event>
 5   0  0.9519092E-05  0.2354956E+04  0.7818609E-02  0.8456563E-01
        2   -1    0    0  501    0  0.00000000000E+00  0.00000000000E+00  0.12569497179E+04  0.12569497179E+04  0.25500000920E-02 0.  1.
       -2   -1    0    0    0  501  0.00000000000E+00  0.00000000000E+00 -0.11030308344E+04  0.11030308344E+04  0.25500000920E-02 0. -1.
    10030    2    1    2    0    0  0.00000000000E+00  0.00000000000E+00  0.15391888353E+03  0.23599805523E+04  0.23549558774E+04 0.  0.
        4    1    3    3  502    0  0.59193090675E+02  0.84794235066E+03 -0.73960587058E+03  0.11267335571E+04  0.12699999809E+01 0. -1.
       -4    1    3    3    0  502 -0.59193090675E+02 -0.84794235066E+03  0.89352475412E+03  0.12332469952E+04  0.12699999809E+01 0.  1.
</event>
<event>
 5   0  0.9519092E-05  0.2396859E+04  0.7818609E-02  0.8440680E-01
        2   -1    0    0  501    0  0.00000000000E+00  0.00000000000E+00  0.92605869200E+03  0.92605869200E+03  0.25500000920E-02 0.  1.
       -2   -1    0    0    0  501  0.00000000000E+00  0.00000000000E+00 -0.15509099101E+04  0.15509099101E+04  0.25500000920E-02 0. -1.
    10030    2    1    2    0    0  0.00000000000E+00  0.00000000000E+00 -0.62485121808E+03  0.24769686021E+04  0.23968592806E+04 0.  0.
        4    1    3    3  502    0  0.11822238560E+04  0.32143758747E+02 -0.51266847055E+03  0.12889984641E+04  0.12699999809E+01 0. -1.
       -4    1    3    3    0  502 -0.11822238560E+04 -0.32143758747E+02 -0.11218274752E+03  0.11879701380E+04  0.12699999809E+01 0.  1.
</event>
<event>
 5   0  0.4018942E-05  0.2395531E+04  0.7818609E-02  0.8441179E-01
        1   -1    0    0  501    0  0.00000000000E+00  0.00000000000E+00  0.14205727634E+04  0.14205727634E+04  0.50400001928E-02 0.  1.
       -1   -1    0    0    0  501  0.00000000000E+00  0.00000000000E+00 -0.10099041533E+04  0.10099041533E+04  0.50400001928E-02 0. -1.
    10030    2    1    2    0    0  0.00000000000E+00  0.00000000000E+00  0.41066861013E+03  0.24304769167E+04  0.23955311176E+04 0.  0.
        5    1    3    3  502    0  0.17690600915E+03  0.96590564464E+03  0.90116026046E+03  0.13328095721E+04  0.46999998093E+01 0.  1.
       -5    1    3    3    0  502 -0.17690600915E+03 -0.96590564464E+03 -0.49049165033E+03  0.10976673446E+04  0.46999998093E+01 0. -1.
</event>
<event>
 5   0  0.4061631E-05  0.2099661E+04  0.7818609E-02  0.8561393E-01
       -1   -1    0    0    0  501  0.00000000000E+00  0.00000000000E+00  0.44381446655E+03  0.44381446658E+03  0.50400001928E-02 0. -1.
        1   -1    0    0  501    0  0.00000000000E+00  0.00000000000E+00 -0.24833440569E+04  0.24833440569E+04  0.50400001928E-02 0.  1.
    10030    2    1    2    0    0  0.00000000000E+00  0.00000000000E+00 -0.20395295903E+04  0.29271585235E+04  0.20996609421E+04 0.  0.
        3    1    3    3  502    0 -0.29349939922E+03  0.85992466244E+03 -0.17528754364E+04  0.19743820877E+04  0.10100000352E+00 0.  1.
       -3    1    3    3    0  502  0.29349939922E+03 -0.85992466244E+03 -0.28665415392E+03  0.95277643578E+03  0.10100000352E+00 0. -1.
</event>
<event>
 5   0  0.3934906E-05  0.2429233E+04  0.7818609E-02  0.8428640E-01
       -1   -1    0    0    0  501  0.00000000000E+00  0.00000000000E+00  0.63390874482E+03  0.63390874484E+03  0.50400001928E-02 0. -1.
        1   -1    0    0  501    0  0.00000000000E+00  0.00000000000E+00 -0.23272961776E+04  0.23272961777E+04  0.50400001928E-02 0.  1.
    10030    2    1    2    0    0  0.00000000000E+00  0.00000000000E+00 -0.16933874328E+04  0.29612049225E+04  0.24292331291E+04 0.  0.
        2    1    3    3  502    0  0.15081116646E+02 -0.11292892790E+04 -0.30185716967E+03  0.11690335610E+04  0.25500000920E-02 0. -1.
       -2    1    3    3    0  502 -0.15081116646E+02  0.11292892790E+04 -0.13915302632E+04  0.17921713615E+04  0.25500000920E-02 0.  1.
</event>
<event>
 5   0  0.9519092E-05  0.2429163E+04  0.7818609E-02  0.8428665E-01
       -2   -1    0    0    0  501  0.00000000000E+00  0.00000000000E+00  0.93709587491E+03  0.93709587491E+03  0.25500000920E-02 0. -1.
        2   -1    0    0  501    0  0.00000000000E+00  0.00000000000E+00 -0.15742338472E+04  0.15742338472E+04  0.25500000920E-02 0.  1.
    10030    2    1    2    0    0  0.00000000000E+00  0.00000000000E+00 -0.63713797228E+03  0.25113297221E+04  0.24291628553E+04 0.  0.
        4    1    3    3  502    0 -0.37126480226E+03  0.24782157636E+03  0.84922034244E+03  0.95939037415E+03  0.12699999809E+01 0. -1.
       -4    1    3    3    0  502  0.37126480226E+03 -0.24782157636E+03 -0.14863583147E+04  0.15519393480E+04  0.12699999809E+01 0.  1.
</event>
<event>
 5   0  0.4061631E-05  0.2562151E+04  0.7818609E-02  0.8381172E-01
        1   -1    0    0  501    0  0.00000000000E+00  0.00000000000E+00  0.14134784100E+04  0.14134784100E+04  0.50400001928E-02 0. -1.
       -1   -1    0    0    0  501  0.00000000000E+00  0.00000000000E+00 -0.11610750913E+04  0.11610750913E+04  0.50400001928E-02 0.  1.
    10030    2    1    2    0    0  0.00000000000E+00  0.00000000000E+00  0.25240331872E+03  0.25745535013E+04  0.25621511071E+04 0.  0.
        3    1    3    3  502    0 -0.21052884449E+03  0.98306793057E+03 -0.67162509418E+03  0.12090596461E+04  0.10100000352E+00 0.  1.
       -3    1    3    3    0  502  0.21052884449E+03 -0.98306793057E+03  0.92402841290E+03  0.13654938552E+04  0.10100000352E+00 0. -1.
</event>
<event>
 5   0  0.9750757E-05  0.2484349E+04  0.7818609E-02  0.8408583E-01
        2   -1    0    0  501    0  0.00000000000E+00  0.00000000000E+00  0.15891556111E+04  0.15891556111E+04  0.25500000920E-02 0. -1.
       -2   -1    0    0    0  501  0.00000000000E+00  0.00000000000E+00 -0.97095413894E+03  0.97095413894E+03  0.25500000920E-02 0.  1.
    10030    2    1    2    0    0  0.00000000000E+00  0.00000000000E+00  0.61820147214E+03  0.25601097500E+04  0.24843487823E+04 0.  0.
        2    1    3    3  502    0  0.11612644620E+04 -0.41063045125E+03  0.47476611663E+03  0.13200588561E+04  0.25500000920E-02 0.  1.
       -2    1    3    3    0  502 -0.11612644620E+04  0.41063045125E+03  0.14343535551E+03  0.12400508939E+04  0.25500000920E-02 0. -1.
</event>
<event>
 5   0  0.9519092E-05  0.2320382E+04  0.7818609E-02  0.8469928E-01
       -2   -1    0    0    0  501  0.00000000000E+00  0.00000000000E+00  0.25712160167E+04  0.25712160167E+04  0.25500000920E-02 0. -1.
        2   -1    0    0  501    0  0.00000000000E+00  0.00000000000E+00 -0.52350464039E+03  0.52350464040E+03  0.25500000920E-02 0.  1.
    10030    2    1    2    0    0  0.00000000000E+00  0.00000000000E+00  0.20477113763E+04  0.30947206571E+04  0.23203823101E+04 0.  0.
        4    1    3    3  502    0  0.52419656963E+03  0.16990869504E+03  0.23855424415E+04  0.24483597287E+04  0.12699999809E+01 0. -1.
       -4    1    3    3    0  502 -0.52419656963E+03 -0.16990869504E+03 -0.33783106515E+03  0.64636092839E+03  0.12699999809E+01 0.  1.
</event>
<event>
 5   0  0.4018942E-05  0.1878547E+04  0.7818609E-02  0.8665609E-01
        1   -1    0    0  501    0  0.00000000000E+00  0.00000000000E+00  0.99131245217E+03  0.99131245218E+03  0.50400001928E-02 0. -1.
       -1   -1    0    0    0  501  0.00000000000E+00  0.00000000000E+00 -0.88996665052E+03  0.88996665054E+03  0.50400001928E-02 0.  1.
    10030    2    1    2    0    0  0.00000000000E+00  0.00000000000E+00  0.10134580164E+03  0.18812791027E+04  0.18785473353E+04 0.  0.
        5    1    3    3  502    0 -0.30518640582E+03 -0.30078799463E+02 -0.83840719766E+03  0.89274419379E+03  0.46999998093E+01 0.  1.
       -5    1    3    3    0  502  0.30518640582E+03  0.30078799463E+02  0.93975299930E+03  0.98853490892E+03  0.46999998093E+01 0. -1.
</event>
<event>
 5   0  0.3934906E-05  0.2371561E+04  0.7818609E-02  0.8450228E-01
        1   -1    0    0  501    0  0.00000000000E+00  0.00000000000E+00  0.79554692716E+03  0.79554692717E+03  0.50400001928E-02 0. -1.
       -1   -1    0    0    0  501  0.00000000000E+00  0.00000000000E+00 -0.17674320821E+04  0.17674320821E+04  0.50400001928E-02 0.  1.
    10030    2    1    2    0    0  0.00000000000E+00  0.00000000000E+00 -0.97188515491E+03  0.25629790092E+04  0.23715608041E+04 0.  0.
        2    1    3    3  502    0  0.10301712284E+04  0.32411763705E+03  0.43243429091E+02  0.10808214453E+04  0.25500000920E-02 0. -1.
       -2    1    3    3    0  502 -0.10301712284E+04 -0.32411763705E+03 -0.10151285840E+04  0.14821575640E+04  0.25500000920E-02 0.  1.
</event>
<event>
 5   0  0.9750757E-05  0.2428079E+04  0.7818609E-02  0.8429065E-01
        2   -1    0    0  501    0  0.00000000000E+00  0.00000000000E+00  0.11426136289E+04  0.11426136289E+04  0.25500000920E-02 0. -1.
       -2   -1    0    0    0  501  0.00000000000E+00  0.00000000000E+00 -0.12899305688E+04  0.12899305688E+04  0.25500000920E-02 0.  1.
    10030    2    1    2    0    0  0.00000000000E+00  0.00000000000E+00 -0.14731693998E+03  0.24325441977E+04  0.24280792806E+04 0.  0.
        2    1    3    3  502    0  0.10194796739E+04 -0.14497781484E+03  0.57059081895E+03  0.11772558154E+04  0.25500000920E-02 0. -1.
       -2    1    3    3    0  502 -0.10194796739E+04  0.14497781484E+03 -0.71790775893E+03  0.12552883823E+04  0.25500000920E-02 0.  1.
</event>
<event>
 5   0  0.9182865E-05  0.2376829E+04  0.7818609E-02  0.8448230E-01
       -2   -1    0    0    0  501  0.00000000000E+00  0.00000000000E+00  0.52422148693E+03  0.52422148693E+03  0.25500000920E-02 0.  1.
        2   -1    0    0  501    0  0.00000000000E+00  0.00000000000E+00 -0.26941457027E+04  0.26941457027E+04  0.25500000920E-02 0. -1.
    10030    2    1    2    0    0  0.00000000000E+00  0.00000000000E+00 -0.21699242158E+04  0.32183671897E+04  0.23768290357E+04 0.  0.
        3    1    3    3  502    0  0.48314329529E+03  0.57553050484E+03  0.16170383085E+03  0.76864227369E+03  0.10100000352E+00 0.  1.
       -3    1    3    3    0  502 -0.48314329529E+03 -0.57553050484E+03 -0.23316280466E+04  0.24497249160E+04  0.10100000352E+00 0. -1.
</event>
<event>
 5   0  0.9491680E-05  0.2414962E+04  0.7818609E-02  0.8433923E-01
        2   -1    0    0  501    0  0.00000000000E+00  0.00000000000E+00  0.21807974971E+04  0.21807974971E+04  0.25500000920E-02 0.  1.
       -2   -1    0    0    0  501  0.00000000000E+00  0.00000000000E+00 -0.66856773827E+03  0.66856773827E+03  0.25500000920E-02 0. -1.
    10030    2    1    2    0    0  0.00000000000E+00  0.00000000000E+00  0.15122297588E+04  0.28493652354E+04  0.24149624016E+04 0.  0.
        5    1    3    3  502    0  0.56014317133E+03 -0.86292755163E+03  0.15019486184E+04  0.18205153320E+04  0.46999998093E+01 0.  1.
       -5    1    3    3    0  502 -0.56014317133E+03  0.86292755163E+03  0.10281140395E+02  0.10288499033E+04  0.46999998093E+01 0. -1.
</event>
<event>
 5   0  0.3934906E-05  0.2404366E+04  0.7818609E-02  0.8437871E-01
        1   -1    0    0  501    0  0.00000000000E+00  0.00000000000E+00  0.15446447027E+04  0.15446447027E+04  0.50400001928E-02 0.  1.
       -1   -1    0    0    0  501  0.00000000000E+00  0.00000000000E+00 -0.93564822639E+03  0.93564822640E+03  0.50400001928E-02 0. -1.
    10030    2    1    2    0    0  0.00000000000E+00  0.00000000000E+00  0.60899647628E+03  0.24802929291E+04  0.24043660923E+04 0.  0.
        2    1    3    3  502    0  0.21866407770E+03 -0.79855017334E+03  0.12036584536E+04  0.14609209531E+04  0.25500000920E-02 0.  1.
       -2    1    3    3    0  502 -0.21866407770E+03  0.79855017334E+03 -0.59466197730E+03  0.10193719760E+04  0.25500000920E-02 0. -1.
</event>
<event>
 5   0  0.9750757E-05  0.2389155E+04  0.7818609E-02  0.8443575E-01
        2   -1    0    0  501    0  0.00000000000E+00  0.00000000000E+00  0.92854203033E+03  0.92854203033E+03  0.25500000920E-02 0.  1.
       -2   -1    0    0    0  501  0.00000000000E+00  0.00000000000E+00 -0.15368341947E+04  0.15368341947E+04  0.25500000920E-02 0. -1.
    10030    2    1    2    0    0  0.00000000000E+00  0.00000000000E+00 -0.60829216439E+03  0.24653762251E+04  0.23891547823E+04 0.  0.
        2    1    3    3  502    0 -0.69528421751E+03  0.29526427780E+03 -0.12590964442E+04  0.14683068456E+04  0.25500000920E-02 0. -1.
       -2    1    3    3    0  502  0.69528421751E+03 -0.29526427780E+03  0.65080427983E+03  0.99706937949E+03  0.25500000920E-02 0.  1.
</event>
<event>
 5   0  0.3934906E-05  0.2533379E+04  0.7818609E-02  0.8391190E-01
        1   -1    0    0  501    0  0.00000000000E+00  0.00000000000E+00  0.20849220953E+04  0.20849220953E+04  0.50400001928E-02 0. -1.
       -1   -1    0    0    0  501  0.00000000000E+00  0.00000000000E+00 -0.76957444226E+03  0.76957444228E+03  0.50400001928E-02 0.  1.
    10030    2    1    2    0    0  0.00000000000E+00  0.00000000000E+00  0.13153476530E+04  0.28544965376E+04  0.25333793705E+04 0.  0.
        2    1    3    3  502    0 -0.85882376192E+03 -0.60321768343E+03  0.14568382327E+04  0.17955020089E+04  0.25500000920E-02 0. -1.
       -2    1    3    3    0  502  0.85882376192E+03  0.60321768343E+03 -0.14149057968E+03  0.10589945287E+04  0.25500000920E-02 0.  1.
</event>
<event>
 5   0  0.9491680E-05  0.2377285E+04  0.7818609E-02  0.8448057E-01
       -2   -1    0    0    0  501  0.00000000000E+00  0.00000000000E+00  0.66067322617E+03  0.66067322618E+03  0.25500000920E-02 0.  1.
        2   -1    0    0  501    0  0.00000000000E+00  0.00000000000E+00 -0.21385328684E+04  0.21385328684E+04  0.25500000920E-02 0. -1.
    10030    2    1    2    0    0  0.00000000000E+00  0.00000000000E+00 -0.14778596423E+04  0.27992060946E+04  0.23772853505E+04 0.  0.
        5    1    3    3  502    0  0.90319722442E+03  0.46809625005E+03 -0.14628358987E+04  0.17817941189E+04  0.46999998093E+01 0. -1.
       -5    1    3    3    0  502 -0.90319722442E+03 -0.46809625005E+03 -0.15023743563E+02  0.10174119757E+04  0.46999998093E+01 0.  1.
</event>
<event>
 5   0  0.4208577E-05  0.2376944E+04  0.7818609E-02  0.8448186E-01
        1   -1    0    0  501    0  0.00000000000E+00  0.00000000000E+00  0.18960679789E+04  0.18960679789E+04  0.50400001928E-02 0. -1.
       -1   -1    0    0    0  501  0.00000000000E+00  0.00000000000E+00 -0.74494451077E+03  0.74494451079E+03  0.50400001928E-02 0.  1.
    10030    2    1    2    0    0  0.00000000000E+00  0.00000000000E+00  0.11511234682E+04  0.26410124897E+04  0.23769437797E+04 0.  0.
        1    1    3    3  502    0  0.27442139013E+03 -0.22844395796E+03 -0.68393871113E+03  0.77153477037E+03  0.50400001928E-02 0.  1.
       -1    1    3    3    0  502 -0.27442139013E+03  0.22844395796E+03  0.18350621793E+04  0.18694777194E+04  0.50400001928E-02 0. -1.
</event>
<event>
 5   0  0.3934906E-05  0.2114419E+04  0.7818609E-02  0.8554918E-01
        1   -1    0    0  501    0  0.00000000000E+00  0.00000000000E+00  0.12301176499E+04  0.12301176499E+04  0.50400001928E-02 0.  1.
       -1   -1    0    0    0  501  0.00000000000E+00  0.00000000000E+00 -0.90860592187E+03  0.90860592189E+03  0.50400001928E-02 0. -1.
    10030    2    1    2    0    0  0.00000000000E+00  0.00000000000E+00  0.32151172801E+03  0.21387235718E+04  0.21144192407E+04 0.  0.
        2    1    3    3  502    0 -0.16210919459E+03 -0.20975902783E+03  0.11959522063E+04  0.12249816001E+04  0.25500000920E-02 0.  1.
       -2    1    3    3    0  502  0.16210919459E+03  0.20975902783E+03 -0.87444047831E+03  0.91374197170E+03  0.25500000920E-02 0. -1.
</event>
<event>
 5   0  0.4208577E-05  0.1721913E+04  0.7818609E-02  0.8748964E-01
       -1   -1    0    0    0  501  0.00000000000E+00  0.00000000000E+00  0.30123454652E+03  0.30123454656E+03  0.50400001928E-02 0.  1.
        1   -1    0    0  501    0  0.00000000000E+00  0.00000000000E+00 -0.24606950767E+04  0.24606950768E+04  0.50400001928E-02 0. -1.
    10030    2    1    2    0    0  0.00000000000E+00  0.00000000000E+00 -0.21594605302E+04  0.27619296233E+04  0.17219133145E+04 0.  0.
        1    1    3    3  502    0  0.45368296540E+03 -0.45975423684E+03 -0.16666161237E+03  0.66706692651E+03  0.50400001928E-02 0.  1.
       -1    1    3    3    0  502 -0.45368296540E+03  0.45975423684E+03 -0.19927989179E+04  0.20948626968E+04  0.50400001928E-02 0. -1.
</event>
<event>
 5   0  0.9491680E-05  0.2360209E+04  0.7818609E-02  0.8454553E-01
       -2   -1    0    0    0  501  0.00000000000E+00  0.00000000000E+00  0.91744141314E+03  0.91744141314E+03  0.25500000920E-02 0. -1.
        2   -1    0    0  501    0  0.00000000000E+00  0.00000000000E+00 -0.15179678331E+04  0.15179678331E+04  0.25500000920E-02 0.  1.
    10030    2    1    2    0    0  0.00000000000E+00  0.00000000000E+00 -0.60052641993E+03  0.24354092462E+04  0.23602089347E+04 0.  0.
        5    1    3    3  502    0  0.10054757402E+04 -0.57247681634E+03 -0.53985362290E+03  0.12767831427E+04  0.46999998093E+01 0. -1.
       -5    1    3    3    0  502 -0.10054757402E+04  0.57247681634E+03 -0.60672797036E+02  0.11586261035E+04  0.46999998093E+01 0.  1.
</event>
<event>
 5   0  0.4018942E-05  0.2343456E+04  0.7818609E-02  0.8460981E-01
        1   -1    0    0  501    0  0.00000000000E+00  0.00000000000E+00  0.17717724900E+04  0.17717724900E+04  0.50400001928E-02 0. -1.
       -1   -1    0    0    0  501  0.00000000000E+00  0.00000000000E+00 -0.77489999532E+03  0.77489999533E+03  0.50400001928E-02 0.  1.
    10030    2    1    2    0    0  0.00000000000E+00  0.00000000000E+00  0.99687249465E+03  0.25466724853E+04  0.23434559899E+04 0.  0.
        5    1    3    3  502    0 -0.55200085703E+03 -0.75648236954E+03  0.12637454603E+04  0.15729097876E+04  0.46999998093E+01 0. -1.
       -5    1    3    3    0  502  0.55200085703E+03  0.75648236954E+03 -0.26687296565E+03  0.97376269768E+03  0.46999998093E+01 0.  1.
</event>
<event>
 5   0  0.4061631E-05  0.2356386E+04  0.7818609E-02  0.8456015E-01
        1   -1    0    0  501    0  0.00000000000E+00  0.00000000000E+00  0.11847228788E+04  0.11847228788E+04  0.50400001928E-02 0.  1.
       -1   -1    0    0    0  501  0.00000000000E+00  0.00000000000E+00 -0.11716995866E+04  0.11716995866E+04  0.50400001928E-02 0. -1.
    10030    2    1    2    0    0  0.00000000000E+00  0.00000000000E+00  0.13023292234E+02  0.23564224655E+04  0.23563864771E+04 0.  0.
        3    1    3    3  502    0  0.33439314766E+03  0.95553731425E+03 -0.59621553705E+03  0.11748801271E+04  0.10100000352E+00 0. -1.
       -3    1    3    3    0  502 -0.33439314766E+03 -0.95553731425E+03  0.60923882929E+03  0.11815423384E+04  0.10100000352E+00 0.  1.
</event>
<event>
 5   0  0.9144244E-05  0.2350631E+04  0.7818609E-02  0.8458221E-01
        2   -1    0    0  501    0  0.00000000000E+00  0.00000000000E+00  0.11607457669E+04  0.11607457669E+04  0.25500000920E-02 0.  1.
       -2   -1    0    0    0  501  0.00000000000E+00  0.00000000000E+00 -0.11900685341E+04  0.11900685341E+04  0.25500000920E-02 0. -1.
    10030    2    1    2    0    0  0.00000000000E+00  0.00000000000E+00 -0.29322767216E+02  0.23508143010E+04  0.23506314159E+04 0.  0.
        1    1    3    3  502    0 -0.19380307481E+02  0.54826868192E+03 -0.10541617398E+04  0.11883733074E+04  0.50400001928E-02 0. -1.
       -1    1    3    3    0  502  0.19380307481E+02 -0.54826868192E+03  0.10248389726E+04  0.11624409937E+04  0.50400001928E-02 0.  1.
</event>
<event>
 5   0  0.4061631E-05  0.2355214E+04  0.7818609E-02  0.8456464E-01
        1   -1    0    0  501    0  0.00000000000E+00  0.00000000000E+00  0.98653906395E+03  0.98653906397E+03  0.50400001928E-02 0. -1.
       -1   -1    0    0    0  501  0.00000000000E+00  0.00000000000E+00 -0.14056802821E+04  0.14056802821E+04  0.50400001928E-02 0.  1.
    10030    2    1    2    0    0  0.00000000000E+00  0.00000000000E+00 -0.41914121814E+03  0.23922193461E+04  0.23552142236E+04 0.  0.
        3    1    3    3  502    0  0.18578106087E+03  0.58408170548E+03 -0.12309004432E+04  0.13750570724E+04  0.10100000352E+00 0.  1.
       -3    1    3    3    0  502 -0.18578106087E+03 -0.58408170548E+03  0.81175922504E+03  0.10171622736E+04  0.10100000352E+00 0. -1.
</event>
<event>
 5   0  0.9182865E-05  0.2840698E+04  0.7818609E-02  0.8290744E-01
       -2   -1    0    0    0  501  0.00000000000E+00  0.00000000000E+00  0.10411127620E+04  0.10411127621E+04  0.25500000920E-02 0. -1.
        2   -1    0    0  501    0  0.00000000000E+00  0.00000000000E+00 -0.19377257311E+04  0.19377257311E+04  0.25500000920E-02 0.  1.
    10030    2    1    2    0    0  0.00000000000E+00  0.00000000000E+00 -0.89661296901E+03  0.29788384931E+04  0.28406977931E+04 0.  0.
        3    1    3    3  502    0 -0.55773811066E+03 -0.12625613828E+04 -0.96964182111E+02  0.13836672679E+04  0.10100000352E+00 0. -1.
       -3    1    3    3    0  502  0.55773811066E+03  0.12625613828E+04 -0.79964878690E+03  0.15951712253E+04  0.10100000352E+00 0.  1.
</event>
<event>
 5   0  0.4208577E-05  0.2383308E+04  0.7818609E-02  0.8445779E-01
        1   -1    0    0  501    0  0.00000000000E+00  0.00000000000E+00  0.17447494874E+04  0.17447494874E+04  0.50400001928E-02 0. -1.
       -1   -1    0    0    0  501  0.00000000000E+00  0.00000000000E+00 -0.81389262832E+03  0.81389262834E+03  0.50400001928E-02 0.  1.
    10030    2    1    2    0    0  0.00000000000E+00  0.00000000000E+00  0.93085685911E+03  0.25586421158E+04  0.23833075724E+04 0.  0.
        1    1    3    3  502    0  0.91074088514E+03 -0.48249135280E+03  0.11075905615E+04  0.15129453782E+04  0.50400001928E-02 0.  1.
       -1    1    3    3    0  502 -0.91074088514E+03  0.48249135280E+03 -0.17673370242E+03  0.10456967376E+04  0.50400001928E-02 0. -1.
</event>
<event>
 5   0  0.4208577E-05  0.2406096E+04  0.7818609E-02  0.8437225E-01
        1   -1    0    0  501    0  0.00000000000E+00  0.00000000000E+00  0.10715444582E+04  0.10715444582E+04  0.50400001928E-02 0.  1.
       -1   -1    0    0    0  501  0.00000000000E+00  0.00000000000E+00 -0.13506896564E+04  0.13506896564E+04  0.50400001928E-02 0. -1.
    10030    2    1    2    0    0  0.00000000000E+00  0.00000000000E+00 -0.27914519820E+03  0.24222341145E+04  0.24060956057E+04 0.  0.
        1    1    3    3  502    0 -0.26566613103E+03 -0.17143988150E+03 -0.13081139269E+04  0.13457831073E+04  0.50400001928E-02 0. -1.
       -1    1    3    3    0  502  0.26566613103E+03  0.17143988150E+03  0.10289687287E+04  0.10764510072E+04  0.50400001928E-02 0.  1.
</event>
<event>
 5   0  0.9144244E-05  0.1380224E+04  0.7818609E-02  0.8968259E-01
       -2   -1    0    0    0  501  0.00000000000E+00  0.00000000000E+00  0.25731612502E+03  0.25731612503E+03  0.25500000920E-02 0.  1.
        2   -1    0    0  501    0  0.00000000000E+00  0.00000000000E+00 -0.18508540771E+04  0.18508540771E+04  0.25500000920E-02 0. -1.
    10030    2    1    2    0    0  0.00000000000E+00  0.00000000000E+00 -0.15935379521E+04  0.21081702022E+04  0.13802240385E+04 0.  0.
        1    1    3    3  502    0  0.67043779618E+03  0.94208782611E+02 -0.10010797090E+04  0.12085208798E+04  0.50400001928E-02 0. -1.
       -1    1    3    3    0  502 -0.67043779618E+03 -0.94208782611E+02 -0.59245824315E+03  0.89964932233E+03  0.50400001928E-02 0.  1.
</event>
<event>
 5   0  0.4061631E-05  0.1782466E+04  0.7818609E-02  0.8715680E-01
       -1   -1    0    0    0  501  0.00000000000E+00  0.00000000000E+00  0.10424835549E+04  0.10424835549E+04  0.50400001928E-02 0.  1.
        1   -1    0    0  501    0  0.00000000000E+00  0.00000000000E+00 -0.76192656364E+03  0.76192656366E+03  0.50400001928E-02 0. -1.
    10030    2    1    2    0    0  0.00000000000E+00  0.00000000000E+00  0.28055699129E+03  0.18044101186E+04  0.17824656100E+04 0.  0.
        3    1    3    3  502    0 -0.64663025759E+03 -0.39418413934E+02 -0.47931177529E+03  0.80586865526E+03  0.10100000352E+00 0. -1.
       -3    1    3    3    0  502  0.64663025759E+03  0.39418413934E+02  0.75986876657E+03  0.99854146334E+03  0.10100000352E+00 0.  1.
</event>
<event>
 5   0  0.4208577E-05  0.2145139E+04  0.7818609E-02  0.8541616E-01
       -1   -1    0    0    0  501  0.00000000000E+00  0.00000000000E+00  0.73304450446E+03  0.73304450448E+03  0.50400001928E-02 0.  1.
        1   -1    0    0  501    0  0.00000000000E+00  0.00000000000E+00 -0.15693522355E+04  0.15693522355E+04  0.50400001928E-02 0. -1.
    10030    2    1    2    0    0  0.00000000000E+00  0.00000000000E+00 -0.83630773103E+03  0.23023967400E+04  0.21451387198E+04 0.  0.
        1    1    3    3  502    0 -0.12395354854E+03  0.25902069229E+03 -0.15273286857E+04  0.15540878725E+04  0.50400001928E-02 0. -1.
       -1    1    3    3    0  502  0.12395354854E+03 -0.25902069229E+03  0.69102095471E+03  0.74830886745E+03  0.50400001928E-02 0.  1.
</event>
<event>
 5   0  0.9182865E-05  0.2380145E+04  0.7818609E-02  0.8446975E-01
       -2   -1    0    0    0  501  0.00000000000E+00  0.00000000000E+00  0.10804354667E+04  0.10804354667E+04  0.25500000920E-02 0. -1.
        2   -1    0    0  501    0  0.00000000000E+00  0.00000000000E+00 -0.13108346977E+04  0.13108346977E+04  0.25500000920E-02 0.  1.
    10030    2    1    2    0    0  0.00000000000E+00  0.00000000000E+00 -0.23039923103E+03  0.23912701645E+04  0.23801447842E+04 0.  0.
        3    1    3    3  502    0 -0.88993817671E+03 -0.62739215272E+03 -0.59771675741E+03  0.12421256796E+04  0.10100000352E+00 0.  1.
       -3    1    3    3    0  502  0.88993817671E+03  0.62739215272E+03  0.36731752638E+03  0.11491444848E+04  0.10100000352E+00 0. -1.
</event>
<event>
 5   0  0.9491680E-05  0.2401061E+04  0.7818609E-02  0.8439107E-01
        2   -1    0    0  501    0  0.00000000000E+00  0.00000000000E+00  0.16156836869E+04  0.16156836869E+04  0.25500000920E-02 0.  1.
       -2   -1    0    0    0  501  0.00000000000E+00  0.00000000000E+00 -0.89205140406E+03  0.89205140407E+03  0.25500000920E-02 0. -1.
    10030    2    1    2    0    0  0.00000000000E+00  0.00000000000E+00  0.72363228284E+03  0.25077350910E+04  0.24010605169E+04 0.  0.
        5    1    3    3  502    0 -0.48930726652E+03 -0.10679510463E+04  0.10320727808E+03  0.11792433466E+04  0.46999998093E+01 0. -1.
       -5    1    3    3    0  502  0.48930726652E+03  0.10679510463E+04  0.62042500476E+03  0.13284917444E+04  0.46999998093E+01 0.  1.
</event>
<event>
 5   0  0.9750757E-05  0.2340214E+04  0.7818609E-02  0.8462232E-01
       -2   -1    0    0    0  501  0.00000000000E+00  0.00000000000E+00  0.70675956336E+03  0.70675956337E+03  0.25500000920E-02 0.  1.
        2   -1    0    0  501    0  0.00000000000E+00  0.00000000000E+00 -0.19372214858E+04  0.19372214858E+04  0.25500000920E-02 0. -1.
    10030    2    1    2    0    0  0.00000000000E+00  0.00000000000E+00 -0.12304619224E+04  0.26439810491E+04  0.23402135043E+04 0.  0.
        2    1    3    3  502    0 -0.11198912302E+04 -0.96785125503E+02 -0.24804299029E+03  0.11511077504E+04  0.25500000920E-02 0.  1.
       -2    1    3    3    0  502  0.11198912302E+04  0.96785125503E+02 -0.98241893212E+03  0.14928732988E+04  0.25500000920E-02 0. -1.
</event>
<event>
 5   0  0.9750757E-05  0.2385948E+04  0.7818609E-02  0.8444783E-01
        2   -1    0    0  501    0  0.00000000000E+00  0.00000000000E+00  0.17039514988E+04  0.17039514988E+04  0.25500000920E-02 0. -1.
       -2   -1    0    0    0  501  0.00000000000E+00  0.00000000000E+00 -0.83522760518E+03  0.83522760518E+03  0.25500000920E-02 0.  1.
    10030    2    1    2    0    0  0.00000000000E+00  0.00000000000E+00  0.86872389365E+03  0.25391791040E+04  0.23859483060E+04 0.  0.
        2    1    3    3  502    0 -0.42611245722E+03 -0.10304620743E+04  0.88557635869E+03  0.14239625697E+04  0.25500000920E-02 0. -1.
       -2    1    3    3    0  502  0.42611245722E+03  0.10304620743E+04 -0.16852465040E+02  0.11152165343E+04  0.25500000920E-02 0.  1.
</event>
<event>
 5   0  0.9182865E-05  0.2385097E+04  0.7818609E-02  0.8445104E-01
        2   -1    0    0  501    0  0.00000000000E+00  0.00000000000E+00  0.21394167571E+04  0.21394167571E+04  0.25500000920E-02 0. -1.
       -2   -1    0    0    0  501  0.00000000000E+00  0.00000000000E+00 -0.66474737318E+03  0.66474737319E+03  0.25500000920E-02 0.  1.
    10030    2    1    2    0    0  0.00000000000E+00  0.00000000000E+00  0.14746693839E+04  0.28041641303E+04  0.23850967858E+04 0.  0.
        3    1    3    3  502    0 -0.10112847809E+04  0.55923161779E+03  0.10835880428E+04  0.15841716975E+04  0.10100000352E+00 0. -1.
       -3    1    3    3    0  502  0.10112847809E+04 -0.55923161779E+03  0.39108134110E+03  0.12199924328E+04  0.10100000352E+00 0.  1.
</event>
<event>
 5   0  0.3934906E-05  0.2430527E+04  0.7818609E-02  0.8428162E-01
        1   -1    0    0  501    0  0.00000000000E+00  0.00000000000E+00  0.17760579264E+04  0.17760579264E+04  0.50400001928E-02 0.  1.
       -1   -1    0    0    0  501  0.00000000000E+00  0.00000000000E+00 -0.83154153123E+03  0.83154153124E+03  0.50400001928E-02 0. -1.
    10030    2    1    2    0    0  0.00000000000E+00  0.00000000000E+00  0.94451639515E+03  0.26075994576E+04  0.24305274552E+04 0.  0.
        2    1    3    3  502    0  0.68925076358E+02 -0.91168126777E+03  0.13311793201E+04  0.16149154103E+04  0.25500000920E-02 0.  1.
       -2    1    3    3    0  502 -0.68925076358E+02  0.91168126777E+03 -0.38666292500E+03  0.99268404728E+03  0.25500000920E-02 0. -1.
</event>
<event>
 5   0  0.9144244E-05  0.2463450E+04  0.7818609E-02  0.8416124E-01
        2   -1    0    0  501    0  0.00000000000E+00  0.00000000000E+00  0.17830563849E+04  0.17830563849E+04  0.25500000920E-02 0. -1.
       -2   -1    0    0    0  501  0.00000000000E+00  0.00000000000E+00 -0.85086819239E+03  0.85086819240E+03  0.25500000920E-02 0.  1.
    10030    2    1    2    0    0  0.00000000000E+00  0.00000000000E+00  0.93218819246E+03  0.26339245773E+04  0.24634495839E+04 0.  0.
        1    1    3    3  502    0  0.39965488950E+03  0.14238386298E+03 -0.77027892671E+03  0.87939002729E+03  0.50400001928E-02 0.  1.
       -1    1    3    3    0  502 -0.39965488950E+03 -0.14238386298E+03  0.17024671192E+04  0.17545345500E+04  0.50400001928E-02 0. -1.
</event>
<event>
 5   0  0.4061631E-05  0.2374721E+04  0.7818609E-02  0.8449029E-01
       -1   -1    0    0    0  501  0.00000000000E+00  0.00000000000E+00  0.15478375480E+04  0.15478375480E+04  0.50400001928E-02 0.  1.
        1   -1    0    0  501    0  0.00000000000E+00  0.00000000000E+00 -0.91083510757E+03  0.91083510759E+03  0.50400001928E-02 0. -1.
    10030    2    1    2    0    0  0.00000000000E+00  0.00000000000E+00  0.63700244043E+03  0.24586726556E+04  0.23747208506E+04 0.  0.
        3    1    3    3  502    0  0.88776732038E+03 -0.32187844511E+03 -0.42672822269E+03  0.10362593955E+04  0.10100000352E+00 0. -1.
       -3    1    3    3    0  502 -0.88776732038E+03  0.32187844511E+03  0.10637306631E+04  0.14224132601E+04  0.10100000352E+00 0.  1.
</event>
<event>
 5   0  0.4061631E-05  0.2385860E+04  0.7818609E-02  0.8444816E-01
       -1   -1    0    0    0  501  0.00000000000E+00  0.00000000000E+00  0.10132080217E+04  0.10132080218E+04  0.50400001928E-02 0. -1.
        1   -1    0    0  501    0  0.00000000000E+00  0.00000000000E+00 -0.14045309440E+04  0.14045309440E+04  0.50400001928E-02 0.  1.
    10030    2    1    2    0    0  0.00000000000E+00  0.00000000000E+00 -0.39132292222E+03  0.24177389657E+04  0.23858600288E+04 0.  0.
        3    1    3    3  502    0 -0.28680202885E+03  0.66860200914E+03 -0.11537025326E+04  0.13639331341E+04  0.10100000352E+00 0.  1.
       -3    1    3    3    0  502  0.28680202885E+03 -0.66860200914E+03  0.76237961034E+03  0.10538058317E+04  0.10100000352E+00 0. -1.
</event>
<event>
 5   0  0.4260395E-05  0.2384683E+04  0.7818609E-02  0.8445260E-01
       -1   -1    0    0    0  501  0.00000000000E+00  0.00000000000E+00  0.92072681569E+03  0.92072681571E+03  0.50400001928E-02 0.  1.
        1   -1    0    0  501    0  0.00000000000E+00  0.00000000000E+00 -0.15440824688E+04  0.15440824688E+04  0.50400001928E-02 0. -1.
    10030    2    1    2    0    0  0.00000000000E+00  0.00000000000E+00 -0.62335565308E+03  0.24648092845E+04  0.23846829011E+04 0.  0.
        4    1    3    3  502    0 -0.16305120974E+03 -0.88285984525E+03  0.49931942993E+03  0.10273016642E+04  0.12699999809E+01 0.  1.
       -4    1    3    3    0  502  0.16305120974E+03  0.88285984525E+03 -0.11226750830E+04  0.14375076202E+04  0.12699999809E+01 0. -1.
</event>
<event>
 5   0  0.9519092E-05  0.2450031E+04  0.7818609E-02  0.8421007E-01
       -2   -1    0    0    0  501  0.00000000000E+00  0.00000000000E+00  0.89023668259E+03  0.89023668260E+03  0.25500000920E-02 0. -1.
        2   -1    0    0  501    0  0.00000000000E+00  0.00000000000E+00 -0.16856902103E+04  0.16856902103E+04  0.25500000920E-02 0.  1.
    10030    2    1    2    0    0  0.00000000000E+00  0.00000000000E+00 -0.79545352773E+03  0.25759268929E+04  0.24500312330E+04 0.  0.
        4    1    3    3  502    0 -0.98588554199E+03  0.35510931968E+02  0.36583550248E+03  0.10521732538E+04  0.12699999809E+01 0. -1.
       -4    1    3    3    0  502  0.98588554199E+03 -0.35510931968E+02 -0.11612890302E+04  0.15237536391E+04  0.12699999809E+01 0.  1.
</event>
<event>
 5   0  0.4061631E-05  0.1246498E+04  0.7818609E-02  0.9073103E-01
       -1   -1    0    0    0  501  0.00000000000E+00  0.00000000000E+00  0.23676254560E+03  0.23676254566E+03  0.50400001928E-02 0.  1.
        1   -1    0    0  501    0  0.00000000000E+00  0.00000000000E+00 -0.16406283919E+04  0.16406283919E+04  0.50400001928E-02 0. -1.
    10030    2    1    2    0    0  0.00000000000E+00  0.00000000000E+00 -0.14038658463E+04  0.18773909375E+04  0.12464980618E+04 0.  0.
        3    1    3    3  502    0  0.21711550652E+03  0.46029738090E+03 -0.12437775242E+04  0.13438732686E+04  0.10100000352E+00 0. -1.
       -3    1    3    3    0  502 -0.21711550652E+03 -0.46029738090E+03 -0.16008832204E+03  0.53351766895E+03  0.10100000352E+00 0.  1.
</event>
<event>
 5   0  0.9491680E-05  0.2144532E+04  0.7818609E-02  0.8541877E-01
        2   -1    0    0  501    0  0.00000000000E+00  0.00000000000E+00  0.11504018401E+04  0.11504018401E+04  0.25500000920E-02 0.  1.
       -2   -1    0    0    0  501  0.00000000000E+00  0.00000000000E+00 -0.99943693717E+03  0.99943693717E+03  0.25500000920E-02 0. -1.
    10030    2    1    2    0    0  0.00000000000E+00  0.00000000000E+00  0.15096490297E+03  0.21498387773E+04  0.21445317360E+04 0.  0.
        5    1    3    3  502    0  0.48665682868E+02  0.14724923646E+03 -0.98812444172E+03  0.10002313176E+04  0.46999998093E+01 0. -1.
       -5    1    3    3    0  502 -0.48665682868E+02 -0.14724923646E+03  0.11390893447E+04  0.11496074597E+04  0.46999998093E+01 0.  1.
</event>
<event>
 5   0  0.4061631E-05  0.2417948E+04  0.7818609E-02  0.8432814E-01
        1   -1    0    0  501    0  0.00000000000E+00  0.00000000000E+00  0.16621100946E+04  0.16621100946E+04  0.50400001928E-02 0.  1.
       -1   -1    0    0    0  501  0.00000000000E+00  0.00000000000E+00 -0.87937535084E+03  0.87937535085E+03  0.50400001928E-02 0. -1.
    10030    2    1    2    0    0  0.00000000000E+00  0.00000000000E+00  0.78273474379E+03  0.25414854455E+04  0.24179484259E+04 0.  0.
        3    1    3    3  502    0  0.10501169991E+04 -0.16720837395E+03 -0.21327468446E+03  0.10845231456E+04  0.10100000352E+00 0.  1.
       -3    1    3    3    0  502 -0.10501169991E+04  0.16720837395E+03  0.99600942825E+03  0.14569622999E+04  0.10100000352E+00 0. -1.
</event>
<event>
 5   0  0.9144244E-05  0.2412315E+04  0.7818609E-02  0.8434907E-01
       -2   -1    0    0    0  501  0.00000000000E+00  0.00000000000E+00  0.15071592256E+04  0.15071592256E+04  0.25500000920E-02 0.  1.
        2   -1    0    0  501    0  0.00000000000E+00  0.00000000000E+00 -0.96527003829E+03  0.96527003829E+03  0.25500000920E-02 0. -1.
    10030    2    1    2    0    0  0.00000000000E+00  0.00000000000E+00  0.54188918728E+03  0.24724292639E+04  0.24123147750E+04 0.  0.
        1    1    3    3  502    0  0.19984615218E+03 -0.72725563309E+03  0.12356639136E+04  0.14476548442E+04  0.50400001928E-02 0.  1.
       -1    1    3    3    0  502 -0.19984615218E+03  0.72725563309E+03 -0.69377472632E+03  0.10247744197E+04  0.50400001928E-02 0. -1.
</event>
<event>
 5   0  0.4061631E-05  0.2279102E+04  0.7818609E-02  0.8486207E-01
        1   -1    0    0  501    0  0.00000000000E+00  0.00000000000E+00  0.19207996494E+04  0.19207996494E+04  0.50400001928E-02 0. -1.
       -1   -1    0    0    0  501  0.00000000000E+00  0.00000000000E+00 -0.67606005305E+03  0.67606005307E+03  0.50400001928E-02 0.  1.
    10030    2    1    2    0    0  0.00000000000E+00  0.00000000000E+00  0.12447395964E+04  0.25968597025E+04  0.22791015010E+04 0.  0.
        3    1    3    3  502    0 -0.11447732115E+03 -0.21459469232E+03  0.18908802900E+04  0.19064585545E+04  0.10100000352E+00 0. -1.
       -3    1    3    3    0  502  0.11447732115E+03  0.21459469232E+03 -0.64614069358E+03  0.69040114798E+03  0.10100000352E+00 0.  1.
</event>
<event>
 5   0  0.9491680E-05  0.1620149E+04  0.7818609E-02  0.8808264E-01
        2   -1    0    0  501    0  0.00000000000E+00  0.00000000000E+00  0.20708667756E+04  0.20708667756E+04  0.25500000920E-02 0.  1.
       -2   -1    0    0    0  501  0.00000000000E+00  0.00000000000E+00 -0.31688216973E+03  0.31688216974E+03  0.25500000920E-02 0. -1.
    10030    2    1    2    0    0  0.00000000000E+00  0.00000000000E+00  0.17539846058E+04  0.23877489453E+04  0.16201490759E+04 0.  0.
        5    1    3    3  502    0 -0.29115843189E+03 -0.82239274299E+02 -0.23046761780E+03  0.38036028124E+03  0.46999998093E+01 0. -1.
       -5    1    3    3    0  502  0.29115843189E+03  0.82239274299E+02  0.19844522236E+04  0.20073886641E+04  0.46999998093E+01 0.  1.
</event>
<event>
 5   0  0.9182865E-05  0.2349169E+04  0.7818609E-02  0.8458783E-01
       -2   -1    0    0    0  501  0.00000000000E+00  0.00000000000E+00  0.10023120810E+04  0.10023120810E+04  0.25500000920E-02 0. -1.
        2   -1    0    0  501    0  0.00000000000E+00  0.00000000000E+00 -0.13764666094E+04  0.13764666094E+04  0.25500000920E-02 0.  1.
    10030    2    1    2    0    0  0.00000000000E+00  0.00000000000E+00 -0.37415452841E+03  0.23787786905E+04  0.23491693100E+04 0.  0.
        3    1    3    3  502    0  0.11529740219E+04 -0.15067646791E+01 -0.41417559378E+03  0.12251093005E+04  0.10100000352E+00 0. -1.
       -3    1    3    3    0  502 -0.11529740219E+04  0.15067646791E+01  0.40021065368E+02  0.11536693900E+04  0.10100000352E+00 0.  1.
</event>
<event>
 5   0  0.9182865E-05  0.1422479E+04  0.7818609E-02  0.8937706E-01
        2   -1    0    0  501    0  0.00000000000E+00  0.00000000000E+00  0.15541487506E+04  0.15541487506E+04  0.25500000920E-02 0.  1.
       -2   -1    0    0    0  501  0.00000000000E+00  0.00000000000E+00 -0.32549114960E+03  0.32549114961E+03  0.25500000920E-02 0. -1.
    10030    2    1    2    0    0  0.00000000000E+00  0.00000000000E+00  0.12286576010E+04  0.18796399002E+04  0.14224790522E+04 0.  0.
        3    1    3    3  502    0  0.51308928157E+03  0.34682338278E+03  0.15219482716E+03  0.63773846154E+03  0.10100000352E+00 0. -1.
       -3    1    3    3    0  502 -0.51308928157E+03 -0.34682338278E+03  0.10764627738E+04  0.12419014386E+04  0.10100000352E+00 0.  1.
</event>
<event>
 5   0  0.4208577E-05  0.2326203E+04  0.7818609E-02  0.8467661E-01
        1   -1    0    0  501    0  0.00000000000E+00  0.00000000000E+00  0.14412264000E+04  0.14412264000E+04  0.50400001928E-02 0.  1.
       -1   -1    0    0    0  501  0.00000000000E+00  0.00000000000E+00 -0.93864876713E+03  0.93864876715E+03  0.50400001928E-02 0. -1.
    10030    2    1    2    0    0  0.00000000000E+00  0.00000000000E+00  0.50257763284E+03  0.23798751671E+04  0.23262032444E+04 0.  0.
        1    1    3    3  502    0 -0.44236144185E+03 -0.69359957035E+03  0.10924769900E+04  0.13675781451E+04  0.50400001928E-02 0.  1.
       -1    1    3    3    0  502  0.44236144185E+03  0.69359957035E+03 -0.58989935716E+03  0.10122970220E+04  0.50400001928E-02 0. -1.
</event>
<event>
 5   0  0.4260395E-05  0.2340299E+04  0.7818609E-02  0.8462199E-01
        1   -1    0    0  501    0  0.00000000000E+00  0.00000000000E+00  0.11164099502E+04  0.11164099502E+04  0.50400001928E-02 0.  1.
       -1   -1    0    0    0  501  0.00000000000E+00  0.00000000000E+00 -0.12264755818E+04  0.12264755818E+04  0.50400001928E-02 0. -1.
    10030    2    1    2    0    0  0.00000000000E+00  0.00000000000E+00 -0.11006563166E+03  0.23428855320E+04  0.23402987358E+04 0.  0.
        4    1    3    3  502    0 -0.24380437918E+03 -0.25605110548E+03  0.10616575186E+04  0.11189821462E+04  0.12699999809E+01 0.  1.
       -4    1    3    3    0  502  0.24380437918E+03  0.25605110548E+03 -0.11717231503E+04  0.12239033858E+04  0.12699999809E+01 0. -1.
</event>
<event>
 5   0  0.4208577E-05  0.2426139E+04  0.7818609E-02  0.8429782E-01
        1   -1    0    0  501    0  0.00000000000E+00  0.00000000000E+00  0.12971808951E+04  0.12971808951E+04  0.50400001928E-02 0. -1.
       -1   -1    0    0    0  501  0.00000000000E+00  0.00000000000E+00 -0.11344118756E+04  0.11344118756E+04  0.50400001928E-02 0.  1.
    10030    2    1    2    0    0  0.00000000000E+00  0.00000000000E+00  0.16276901953E+03  0.24315927707E+04  0.24261388354E+04 0.  0.
        1    1    3    3  502    0  0.10274915314E+04 -0.48376554829E+03  0.50868722413E+03  0.12443997126E+04  0.50400001928E-02 0. -1.
       -1    1    3    3    0  502 -0.10274915314E+04  0.48376554829E+03 -0.34591820460E+03  0.11871930580E+04  0.50400001928E-02 0.  1.
</event>
<event>
 5   0  0.3234750E-05  0.2388425E+04  0.7818609E-02  0.8443850E-01
       -3   -1    0    0    0  501  0.00000000000E+00  0.00000000000E+00  0.15190076046E+04  0.15190076079E+04  0.10100000352E+00 0. -1.
        3   -1    0    0  501    0  0.00000000000E+00  0.00000000000E+00 -0.93886514535E+03  0.93886515078E+03  0.10100000352E+00 0.  1.
    10030    2    1    2    0    0  0.00000000000E+00  0.00000000000E+00  0.58014245924E+03  0.24578727587E+04  0.23884248418E+04 0.  0.
        1    1    3    3  502    0 -0.50112365380E+03 -0.96752481327E+03  0.79307209294E+03  0.13476618735E+04  0.50400001928E-02 0. -1.
       -1    1    3    3    0  502  0.50112365380E+03  0.96752481327E+03 -0.21292963370E+03  0.11102108852E+04  0.50400001928E-02 0.  1.
</event>
<event>
 5   0  0.4018942E-05  0.1508796E+04  0.7818609E-02  0.8878625E-01
        1   -1    0    0  501    0  0.00000000000E+00  0.00000000000E+00  0.62286864883E+03  0.62286864885E+03  0.50400001928E-02 0.  1.
       -1   -1    0    0    0  501  0.00000000000E+00  0.00000000000E+00 -0.91370183613E+03  0.91370183615E+03  0.50400001928E-02 0. -1.
    10030    2    1    2    0    0  0.00000000000E+00  0.00000000000E+00 -0.29083318730E+03  0.15365704850E+04  0.15087958485E+04 0.  0.
        5    1    3    3  502    0  0.68882064314E+03  0.82215432966E+02  0.15645328939E+03  0.71114905442E+03  0.46999998093E+01 0.  1.
       -5    1    3    3    0  502 -0.68882064314E+03 -0.82215432966E+02 -0.44728647669E+03  0.82542143058E+03  0.46999998093E+01 0. -1.
</event>
<event>
 5   0  0.4260395E-05  0.2394623E+04  0.7818609E-02  0.8441520E-01
        1   -1    0    0  501    0  0.00000000000E+00  0.00000000000E+00  0.15431728944E+04  0.15431728944E+04  0.50400001928E-02 0. -1.
       -1   -1    0    0    0  501  0.00000000000E+00  0.00000000000E+00 -0.92896541866E+03  0.92896541868E+03  0.50400001928E-02 0.  1.
    10030    2    1    2    0    0  0.00000000000E+00  0.00000000000E+00  0.61420747574E+03  0.24721383131E+04  0.23946225205E+04 0.  0.
        4    1    3    3  502    0  0.10408308043E+04  0.22252715950E+03  0.87322102682E+03  0.13767220760E+04  0.12699999809E+01 0. -1.
       -4    1    3    3    0  502 -0.10408308043E+04 -0.22252715950E+03 -0.25901355108E+03  0.10954162371E+04  0.12699999809E+01 0.  1.
</event>
<event>
 5   0  0.3934906E-05  0.2434311E+04  0.7818609E-02  0.8426769E-01
       -1   -1    0    0    0  501  0.00000000000E+00  0.00000000000E+00  0.12438130798E+04  0.12438130798E+04  0.50400001928E-02 0. -1.
        1   -1    0    0  501    0  0.00000000000E+00  0.00000000000E+00 -0.11910692163E+04  0.11910692163E+04  0.50400001928E-02 0.  1.
    10030    2    1    2    0    0  0.00000000000E+00  0.00000000000E+00  0.52743863520E+02  0.24348822961E+04  0.24343109663E+04 0.  0.
        2    1    3    3  502    0  0.10068764992E+04  0.62419244862E+03 -0.25306967925E+03  0.12113879478E+04  0.25500000920E-02 0.  1.
       -2    1    3    3    0  502 -0.10068764992E+04 -0.62419244862E+03  0.30581354277E+03  0.12234943483E+04  0.25500000920E-02 0. -1.
</event>
<event>
 5   0  0.9750757E-05  0.2234208E+04  0.7818609E-02  0.8504323E-01
       -2   -1    0    0    0  501  0.00000000000E+00  0.00000000000E+00  0.14334589728E+04  0.14334589728E+04  0.25500000920E-02 0. -1.
        2   -1    0    0  501    0  0.00000000000E+00  0.00000000000E+00 -0.87056642160E+03  0.87056642160E+03  0.25500000920E-02 0.  1.
    10030    2    1    2    0    0  0.00000000000E+00  0.00000000000E+00  0.56289255124E+03  0.23040253944E+04  0.22342079120E+04 0.  0.
        2    1    3    3  502    0  0.62777075264E+03 -0.16794806669E+03  0.12184760789E+04  0.13809368653E+04  0.25500000920E-02 0. -1.
       -2    1    3    3    0  502 -0.62777075264E+03  0.16794806669E+03 -0.65558352766E+03  0.92308852919E+03  0.25500000920E-02 0.  1.
</event>
<event>
 5   0  0.4018942E-05  0.2381161E+04  0.7818609E-02  0.8446590E-01
       -1   -1    0    0    0  501  0.00000000000E+00  0.00000000000E+00  0.61132438056E+03  0.61132438059E+03  0.50400001928E-02 0. -1.
        1   -1    0    0  501    0  0.00000000000E+00  0.00000000000E+00 -0.23187071299E+04  0.23187071299E+04  0.50400001928E-02 0.  1.
    10030    2    1    2    0    0  0.00000000000E+00  0.00000000000E+00 -0.17073827493E+04  0.29300315105E+04  0.23811612292E+04 0.  0.
        5    1    3    3  502    0 -0.79779278215E+03  0.88513040463E+02  0.22828055633E+03  0.83453099641E+03  0.46999998093E+01 0. -1.
       -5    1    3    3    0  502  0.79779278215E+03 -0.88513040463E+02 -0.19356633056E+04  0.20955005140E+04  0.46999998093E+01 0.  1.
</event>
<event>
 5   0  0.4061631E-05  0.2403039E+04  0.7818609E-02  0.8438367E-01
       -1   -1    0    0    0  501  0.00000000000E+00  0.00000000000E+00  0.57820322072E+03  0.57820322074E+03  0.50400001928E-02 0. -1.
        1   -1    0    0  501    0  0.00000000000E+00  0.00000000000E+00 -0.24967852121E+04  0.24967852121E+04  0.50400001928E-02 0.  1.
    10030    2    1    2    0    0  0.00000000000E+00  0.00000000000E+00 -0.19185819914E+04  0.30749884329E+04  0.24030391184E+04 0.  0.
        3    1    3    3  502    0  0.64251179311E+03 -0.12125000680E+03 -0.22491923123E+04  0.23423042152E+04  0.10100000352E+00 0.  1.
       -3    1    3    3    0  502 -0.64251179311E+03  0.12125000680E+03  0.33061032088E+03  0.73268421773E+03  0.10100000352E+00 0. -1.
</event>
<event>
 5   0  0.9750757E-05  0.2359001E+04  0.7818609E-02  0.8455014E-01
        2   -1    0    0  501    0  0.00000000000E+00  0.00000000000E+00  0.25488208584E+04  0.25488208584E+04  0.25500000920E-02 0. -1.
       -2   -1    0    0    0  501  0.00000000000E+00  0.00000000000E+00 -0.54582955944E+03  0.54582955944E+03  0.25500000920E-02 0.  1.
    10030    2    1    2    0    0  0.00000000000E+00  0.00000000000E+00  0.20029912990E+04  0.30946504178E+04  0.23590012855E+04 0.  0.
        2    1    3    3  502    0  0.20064831733E+03 -0.45300401080E+03 -0.40270198035E+03  0.63846790525E+03  0.25500000920E-02 0.  1.
       -2    1    3    3    0  502 -0.20064831733E+03  0.45300401080E+03  0.24056932793E+04  0.24561825126E+04  0.25500000920E-02 0. -1.
</event>
<event>
 5   0  0.3934906E-05  0.2367461E+04  0.7818609E-02  0.8451787E-01
       -1   -1    0    0    0  501  0.00000000000E+00  0.00000000000E+00  0.47362043940E+03  0.47362043943E+03  0.50400001928E-02 0. -1.
        1   -1    0    0  501    0  0.00000000000E+00  0.00000000000E+00 -0.29585237866E+04  0.29585237866E+04  0.50400001928E-02 0.  1.
    10030    2    1    2    0    0  0.00000000000E+00  0.00000000000E+00 -0.24849033472E+04  0.34321442261E+04  0.23674605263E+04 0.  0.
        2    1    3    3  502    0 -0.68061233830E+03  0.86926796968E+03 -0.18615283640E+04  0.21642892155E+04  0.25500000920E-02 0.  1.
       -2    1    3    3    0  502  0.68061233830E+03 -0.86926796968E+03 -0.62337498317E+03  0.12678550106E+04  0.25500000920E-02 0. -1.
</event>
<event>
 5   0  0.4018942E-05  0.2387850E+04  0.7818609E-02  0.8444066E-01
        1   -1    0    0  501    0  0.00000000000E+00  0.00000000000E+00  0.10300447899E+04  0.10300447899E+04  0.50400001928E-02 0.  1.
       -1   -1    0    0    0  501  0.00000000000E+00  0.00000000000E+00 -0.13838788875E+04  0.13838788875E+04  0.50400001928E-02 0. -1.
    10030    2    1    2    0    0  0.00000000000E+00  0.00000000000E+00 -0.35383409758E+03  0.24139236775E+04  0.23878502784E+04 0.  0.
        5    1    3    3  502    0  0.55620263869E+03  0.21844620016E+03 -0.12218158762E+04  0.13601236131E+04  0.46999998093E+01 0. -1.
       -5    1    3    3    0  502 -0.55620263869E+03 -0.21844620016E+03  0.86798177860E+03  0.10538000644E+04  0.46999998093E+01 0.  1.
</event>
<event>
 5   0  0.9144244E-05  0.2077276E+04  0.7818609E-02  0.8571320E-01
       -2   -1    0    0    0  501  0.00000000000E+00  0.00000000000E+00  0.10440691757E+04  0.10440691757E+04  0.25500000920E-02 0.  1.
        2   -1    0    0  501    0  0.00000000000E+00  0.00000000000E+00 -0.10332350069E+04  0.10332350069E+04  0.25500000920E-02 0. -1.
    10030    2    1    2    0    0  0.00000000000E+00  0.00000000000E+00  0.10834168822E+02  0.20773041827E+04  0.20772759297E+04 0.  0.
        1    1    3    3  502    0 -0.93419501906E+03  0.11781117325E+03  0.44379391229E+03  0.10409384433E+04  0.50400001928E-02 0.  1.
       -1    1    3    3    0  502  0.93419501906E+03 -0.11781117325E+03 -0.43295974347E+03  0.10363657393E+04  0.50400001928E-02 0. -1.
</event>
<event>
 5   0  0.9750757E-05  0.2476412E+04  0.7818609E-02  0.8411437E-01
        2   -1    0    0  501    0  0.00000000000E+00  0.00000000000E+00  0.11621590307E+04  0.11621590307E+04  0.25500000920E-02 0. -1.
       -2   -1    0    0    0  501  0.00000000000E+00  0.00000000000E+00 -0.13192291845E+04  0.13192291845E+04  0.25500000920E-02 0.  1.
    10030    2    1    2    0    0  0.00000000000E+00  0.00000000000E+00 -0.15707015377E+03  0.24813882153E+04  0.24764120097E+04 0.  0.
        2    1    3    3  502    0 -0.69648416372E+03 -0.99884544225E+03  0.14635232601E+03  0.12264588909E+04  0.25500000920E-02 0. -1.
       -2    1    3    3    0  502  0.69648416372E+03  0.99884544225E+03 -0.30342247979E+03  0.12549293243E+04  0.25500000920E-02 0.  1.
</event>
<event>
 5   0  0.9144244E-05  0.2396217E+04  0.7818609E-02  0.8440921E-01
        2   -1    0    0  501    0  0.00000000000E+00  0.00000000000E+00  0.12324712159E+04  0.12324712159E+04  0.25500000920E-02 0. -1.
       -2   -1    0    0    0  501  0.00000000000E+00  0.00000000000E+00 -0.11647042503E+04  0.11647042503E+04  0.25500000920E-02 0.  1.
    10030    2    1    2    0    0  0.00000000000E+00  0.00000000000E+00  0.67766965592E+02  0.23971754661E+04  0.23962174054E+04 0.  0.
        1    1    3    3  502    0  0.44270762942E+02 -0.92454500452E+03  0.79492484904E+03  0.12201019963E+04  0.50400001928E-02 0. -1.
       -1    1    3    3    0  502 -0.44270762942E+02  0.92454500452E+03 -0.72715788344E+03  0.11770734698E+04  0.50400001928E-02 0.  1.
</event>
<event>
 5   0  0.9491680E-05  0.2313318E+04  0.7818609E-02  0.8472689E-01
        2   -1    0    0  501    0  0.00000000000E+00  0.00000000000E+00  0.12714269363E+04  0.12714269363E+04  0.25500000920E-02 0.  1.
       -2   -1    0    0    0  501  0.00000000000E+00  0.00000000000E+00 -0.10522506285E+04  0.10522506285E+04  0.25500000920E-02 0. -1.
    10030    2    1    2    0    0  0.00000000000E+00  0.00000000000E+00  0.21917630784E+03  0.23236775648E+04  0.23133177843E+04 0.  0.
        5    1    3    3  502    0  0.10664411407E+04  0.64688679684E+02  0.55469376259E+03  0.12038224919E+04  0.46999998093E+01 0.  1.
       -5    1    3    3    0  502 -0.10664411407E+04 -0.64688679684E+02 -0.33551745474E+03  0.11198550729E+04  0.46999998093E+01 0. -1.
</event>
<event>
 5   0  0.9519092E-05  0.2408231E+04  0.7818609E-02  0.8436428E-01
       -2   -1    0    0    0  501  0.00000000000E+00  0.00000000000E+00  0.10643880647E+04  0.10643880647E+04  0.25500000920E-02 0.  1.
        2   -1    0    0  501    0  0.00000000000E+00  0.00000000000E+00 -0.13621857646E+04  0.13621857646E+04  0.25500000920E-02 0. -1.
    10030    2    1    2    0    0  0.00000000000E+00  0.00000000000E+00 -0.29779769986E+03  0.24265738293E+04  0.24082311099E+04 0.  0.
        4    1    3    3  502    0 -0.14179459461E+03 -0.67164516921E+03  0.84791862011E+03  0.10909539585E+04  0.12699999809E+01 0.  1.
       -4    1    3    3    0  502  0.14179459461E+03  0.67164516921E+03 -0.11457163200E+04  0.13356198707E+04  0.12699999809E+01 0. -1.
</event>
<event>
 5   0  0.9144244E-05  0.2445566E+04  0.7818609E-02  0.8422638E-01
        2   -1    0    0  501    0  0.00000000000E+00  0.00000000000E+00  0.23159009604E+04  0.23159009604E+04  0.25500000920E-02 0. -1.
       -2   -1    0    0    0  501  0.00000000000E+00  0.00000000000E+00 -0.64562297808E+03  0.64562297809E+03  0.25500000920E-02 0.  1.
    10030    2    1    2    0    0  0.00000000000E+00  0.00000000000E+00  0.16702779823E+04  0.29615239385E+04  0.24455664988E+04 0.  0.
        1    1    3    3  502    0 -0.67279606632E+03 -0.90349315688E+02  0.20667572180E+04  0.21753857000E+04  0.50400001928E-02 0. -1.
       -1    1    3    3    0  502  0.67279606632E+03  0.90349315688E+02 -0.39647923565E+03  0.78613823849E+03  0.50400001928E-02 0.  1.
</event>
<event>
 5   0  0.3934906E-05  0.2422519E+04  0.7818609E-02  0.8431121E-01
        1   -1    0    0  501    0  0.00000000000E+00  0.00000000000E+00  0.87407540940E+03  0.87407540942E+03  0.50400001928E-02 0.  1.
       -1   -1    0    0    0  501  0.00000000000E+00  0.00000000000E+00 -0.16785161163E+04  0.16785161163E+04  0.50400001928E-02 0. -1.
    10030    2    1    2    0    0  0.00000000000E+00  0.00000000000E+00 -0.80444070690E+03  0.25525915257E+04  0.24225190704E+04 0.  0.
        2    1    3    3  502    0 -0.21394958106E+03 -0.55908519661E+03  0.70731342325E+03  0.92662989323E+03  0.25500000920E-02 0.  1.
       -2    1    3    3    0  502  0.21394958106E+03  0.55908519661E+03 -0.15117541302E+04  0.16259616325E+04  0.25500000920E-02 0. -1.
</event>
<event>
 5   0  0.9750757E-05  0.2455360E+04  0.7818609E-02  0.8419064E-01
        2   -1    0    0  501    0  0.00000000000E+00  0.00000000000E+00  0.25072892295E+04  0.25072892295E+04  0.25500000920E-02 0.  1.
       -2   -1    0    0    0  501  0.00000000000E+00  0.00000000000E+00 -0.60112663978E+03  0.60112663978E+03  0.25500000920E-02 0. -1.
    10030    2    1    2    0    0  0.00000000000E+00  0.00000000000E+00  0.19061625897E+04  0.31084158693E+04  0.24553601361E+04 0.  0.
        2    1    3    3  502    0  0.82213473540E+03 -0.69905427606E+02  0.21039364378E+04  0.22599426599E+04  0.25500000920E-02 0.  1.
       -2    1    3    3    0  502 -0.82213473540E+03  0.69905427606E+02 -0.19777384808E+03  0.84847320933E+03  0.25500000920E-02 0. -1.
</event>
<event>
 5   0  0.9182865E-05  0.2353960E+04  0.7818609E-02  0.8456944E-01
        2   -1    0    0  501    0  0.00000000000E+00  0.00000000000E+00  0.11725199927E+04  0.11725199927E+04  0.25500000920E-02 0.  1.
       -2   -1    0    0    0  501  0.00000000000E+00  0.00000000000E+00 -0.11814567642E+04  0.11814567642E+04  0.25500000920E-02 0. -1.
    10030    2    1    2    0    0  0.00000000000E+00  0.00000000000E+00 -0.89367714585E+01  0.23539767570E+04  0.23539597929E+04 0.  0.
        3    1    3    3  502    0 -0.10985875385E+04  0.39259347685E+03  0.15128076604E+03  0.11763970835E+04  0.10100000352E+00 0. -1.
       -3    1    3    3    0  502  0.10985875385E+04 -0.39259347685E+03 -0.16021753750E+03  0.11775796734E+04  0.10100000352E+00 0.  1.
</event>
<event>
 5   0  0.3234750E-05  0.2187040E+04  0.7818609E-02  0.8523842E-01
        4   -1    0    0  501    0  0.00000000000E+00  0.00000000000E+00  0.10253804507E+04  0.10253812372E+04  0.12699999809E+01 0.  1.
       -4   -1    0    0    0  501  0.00000000000E+00  0.00000000000E+00 -0.11661855742E+04  0.11661862657E+04  0.12699999809E+01 0. -1.
    10030    2    1    2    0    0  0.00000000000E+00  0.00000000000E+00 -0.14080512346E+03  0.21915675029E+04  0.21870395600E+04 0.  0.
        3    1    3    3  502    0  0.26262986518E+03 -0.69891972776E+03 -0.87100740026E+03  0.11472214840E+04  0.10100000352E+00 0. -1.
       -3    1    3    3    0  502 -0.26262986518E+03  0.69891972776E+03  0.73020227680E+03  0.10443460189E+04  0.10100000352E+00 0.  1.
</event>
<event>
 5   0  0.9144244E-05  0.2494861E+04  0.7818609E-02  0.8404819E-01
        2   -1    0    0  501    0  0.00000000000E+00  0.00000000000E+00  0.12687179104E+04  0.12687179104E+04  0.25500000920E-02 0. -1.
       -2   -1    0    0    0  501  0.00000000000E+00  0.00000000000E+00 -0.12265003444E+04  0.12265003444E+04  0.25500000920E-02 0.  1.
    10030    2    1    2    0    0  0.00000000000E+00  0.00000000000E+00  0.42217565999E+02  0.24952182548E+04  0.24948610816E+04 0.  0.
        1    1    3    3  502    0 -0.10492322237E+04 -0.67590182684E+02 -0.65027433998E+03  0.12362497358E+04  0.50400001928E-02 0.  1.
       -1    1    3    3    0  502  0.10492322237E+04  0.67590182684E+02  0.69249190597E+03  0.12589685190E+04  0.50400001928E-02 0. -1.
</event>
<event>
 5   0  0.4208577E-05  0.2349930E+04  0.7818609E-02  0.8458491E-01
        1   -1    0    0  501    0  0.00000000000E+00  0.00000000000E+00  0.16060145255E+04  0.16060145255E+04  0.50400001928E-02 0.  1.
       -1   -1    0    0    0  501  0.00000000000E+00  0.00000000000E+00 -0.85960753882E+03  0.85960753884E+03  0.50400001928E-02 0. -1.
    10030    2    1    2    0    0  0.00000000000E+00  0.00000000000E+00  0.74640698668E+03  0.24656220644E+04  0.23499295254E+04 0.  0.
        1    1    3    3  502    0  0.57157910399E+03 -0.67765362894E+03 -0.43587988935E+03  0.98788075743E+03  0.50400001928E-02 0. -1.
       -1    1    3    3    0  502 -0.57157910399E+03  0.67765362894E+03  0.11822868760E+04  0.14777413069E+04  0.50400001928E-02 0.  1.
</event>
<event>
 5   0  0.9750757E-05  0.2400930E+04  0.7818609E-02  0.8439155E-01
        2   -1    0    0  501    0  0.00000000000E+00  0.00000000000E+00  0.12440409086E+04  0.12440409086E+04  0.25500000920E-02 0.  1.
       -2   -1    0    0    0  501  0.00000000000E+00  0.00000000000E+00 -0.11584158494E+04  0.11584158494E+04  0.25500000920E-02 0. -1.
    10030    2    1    2    0    0  0.00000000000E+00  0.00000000000E+00  0.85625059202E+02  0.24024567580E+04  0.24009304078E+04 0.  0.
        2    1    3    3  502    0  0.97372605395E+03  0.31272292068E+03  0.67184453855E+03  0.12236474726E+04  0.25500000920E-02 0.  1.
       -2    1    3    3    0  502 -0.97372605395E+03 -0.31272292068E+03 -0.58621947935E+03  0.11788092853E+04  0.25500000920E-02 0. -1.
</event>
<event>
 5   0  0.4018942E-05  0.2010995E+04  0.7818609E-02  0.8601497E-01
        1   -1    0    0  501    0  0.00000000000E+00  0.00000000000E+00  0.94086208481E+03  0.94086208482E+03  0.50400001928E-02 0. -1.
       -1   -1    0    0    0  501  0.00000000000E+00  0.00000000000E+00 -0.10745737375E+04  0.10745737375E+04  0.50400001928E-02 0.  1.
    10030    2    1    2    0    0  0.00000000000E+00  0.00000000000E+00 -0.13371165267E+03  0.20154358223E+04  0.20109954619E+04 0.  0.
        5    1    3    3  502    0  0.44553185378E+03  0.45439151299E+03 -0.84705616254E+03  0.10594793591E+04  0.46999998093E+01 0.  1.
       -5    1    3    3    0  502 -0.44553185378E+03 -0.45439151299E+03  0.71334450988E+03  0.95595646323E+03  0.46999998093E+01 0. -1.
</event>
<event>
 5   0  0.9491680E-05  0.2391946E+04  0.7818609E-02  0.8442525E-01
        2   -1    0    0  501    0  0.00000000000E+00  0.00000000000E+00  0.12097851776E+04  0.12097851776E+04  0.25500000920E-02 0.  1.
       -2   -1    0    0    0  501  0.00000000000E+00  0.00000000000E+00 -0.11823190051E+04  0.11823190051E+04  0.25500000920E-02 0. -1.
    10030    2    1    2    0    0  0.00000000000E+00  0.00000000000E+00  0.27466172488E+02  0.23921041827E+04  0.23919464940E+04 0.  0.
        5    1    3    3  502    0  0.42776688345E+03 -0.29222804932E+03 -0.10642749776E+04  0.11836743882E+04  0.46999998093E+01 0. -1.
       -5    1    3    3    0  502 -0.42776688345E+03  0.29222804932E+03  0.10917411501E+04  0.12084297945E+04  0.46999998093E+01 0.  1.
</event>
<event>
 5   0  0.4260395E-05  0.1956650E+04  0.7818609E-02  0.8627161E-01
        1   -1    0    0  501    0  0.00000000000E+00  0.00000000000E+00  0.18878323327E+04  0.18878323327E+04  0.50400001928E-02 0.  1.
       -1   -1    0    0    0  501  0.00000000000E+00  0.00000000000E+00 -0.50699425081E+03  0.50699425084E+03  0.50400001928E-02 0. -1.
    10030    2    1    2    0    0  0.00000000000E+00  0.00000000000E+00  0.13808380819E+04  0.23948265836E+04  0.19566503410E+04 0.  0.
        4    1    3    3  502    0 -0.95362898369E+03  0.16059991672E+03  0.87162015289E+03  0.13018924209E+04  0.12699999809E+01 0. -1.
       -4    1    3    3    0  502  0.95362898369E+03 -0.16059991672E+03  0.50921792902E+03  0.10929341627E+04  0.12699999809E+01 0.  1.
</event>
<event>
 5   0  0.9519092E-05  0.2413653E+04  0.7818609E-02  0.8434410E-01
       -2   -1    0    0    0  501  0.00000000000E+00  0.00000000000E+00  0.19966439453E+04  0.19966439453E+04  0.25500000920E-02 0. -1.
        2   -1    0    0  501    0  0.00000000000E+00  0.00000000000E+00 -0.72943923165E+03  0.72943923165E+03  0.25500000920E-02 0.  1.
    10030    2    1    2    0    0  0.00000000000E+00  0.00000000000E+00  0.12672047137E+04  0.27260831770E+04  0.24136531858E+04 0.  0.
        4    1    3    3  502    0 -0.21481146750E+03  0.11857395597E+04  0.55948351813E+03  0.13285878555E+04  0.12699999809E+01 0.  1.
       -4    1    3    3    0  502  0.21481146750E+03 -0.11857395597E+04  0.70772119557E+03  0.13974953215E+04  0.12699999809E+01 0. -1.
</event>
<event>
 5   0  0.4208577E-05  0.2486085E+04  0.7818609E-02  0.8407960E-01
        1   -1    0    0  501    0  0.00000000000E+00  0.00000000000E+00  0.16900878889E+04  0.16900878889E+04  0.50400001928E-02 0. -1.
       -1   -1    0    0    0  501  0.00000000000E+00  0.00000000000E+00 -0.91424539250E+03  0.91424539251E+03  0.50400001928E-02 0.  1.
    10030    2    1    2    0    0  0.00000000000E+00  0.00000000000E+00  0.77584249643E+03  0.26043332814E+04  0.24860853287E+04 0.  0.
        1    1    3    3  502    0 -0.92195944592E+03  0.20396154433E+03 -0.45895208127E+03  0.10498792999E+04  0.50400001928E-02 0.  1.
       -1    1    3    3    0  502  0.92195944592E+03 -0.20396154433E+03  0.12347945777E+04  0.15544539815E+04  0.50400001928E-02 0. -1.
</event>
<event>
 5   0  0.9144244E-05  0.2386279E+04  0.7818609E-02  0.8444658E-01
        2   -1    0    0  501    0  0.00000000000E+00  0.00000000000E+00  0.16490128502E+04  0.16490128502E+04  0.25500000920E-02 0.  1.
       -2   -1    0    0    0  501  0.00000000000E+00  0.00000000000E+00 -0.86329332473E+03  0.86329332473E+03  0.25500000920E-02 0. -1.
    10030    2    1    2    0    0  0.00000000000E+00  0.00000000000E+00  0.78571952543E+03  0.25123061749E+04  0.23862789325E+04 0.  0.
        1    1    3    3  502    0 -0.14909092844E+03 -0.64010931959E+03 -0.65552965025E+03  0.92827106405E+03  0.50400001928E-02 0. -1.
       -1    1    3    3    0  502  0.14909092844E+03  0.64010931959E+03  0.14412491757E+04  0.15840351108E+04  0.50400001928E-02 0.  1.
</event>
<event>
 5   0  0.4260395E-05  0.2207535E+04  0.7818609E-02  0.8515299E-01
       -1   -1    0    0    0  501  0.00000000000E+00  0.00000000000E+00  0.67187269895E+03  0.67187269897E+03  0.50400001928E-02 0.  1.
        1   -1    0    0  501    0  0.00000000000E+00  0.00000000000E+00 -0.18132936048E+04  0.18132936048E+04  0.50400001928E-02 0. -1.
    10030    2    1    2    0    0  0.00000000000E+00  0.00000000000E+00 -0.11414209058E+04  0.24851663038E+04  0.22075347954E+04 0.  0.
        4    1    3    3  502    0 -0.80024420434E+03 -0.61194161761E+03 -0.10784762352E+04  0.14757967112E+04  0.12699999809E+01 0. -1.
       -4    1    3    3    0  502  0.80024420434E+03  0.61194161761E+03 -0.62944670629E+02  0.10093695926E+04  0.12699999809E+01 0.  1.
</event>
<event>
 5   0  0.9182865E-05  0.2431045E+04  0.7818609E-02  0.8427971E-01
        2   -1    0    0  501    0  0.00000000000E+00  0.00000000000E+00  0.23486306636E+04  0.23486306636E+04  0.25500000920E-02 0.  1.
       -2   -1    0    0    0  501  0.00000000000E+00  0.00000000000E+00 -0.62908774985E+03  0.62908774985E+03  0.25500000920E-02 0. -1.
    10030    2    1    2    0    0  0.00000000000E+00  0.00000000000E+00  0.17195429138E+04  0.29777184135E+04  0.24310448613E+04 0.  0.
        3    1    3    3  502    0  0.11200794899E+04 -0.28240960863E+03  0.13232224334E+04  0.17564882206E+04  0.10100000352E+00 0. -1.
       -3    1    3    3    0  502 -0.11200794899E+04  0.28240960863E+03  0.39632048042E+03  0.12212301929E+04  0.10100000352E+00 0.  1.
</event>
<event>
 5   0  0.4061631E-05  0.2365243E+04  0.7818609E-02  0.8452632E-01
       -1   -1    0    0    0  501  0.00000000000E+00  0.00000000000E+00  0.77840988557E+03  0.77840988559E+03  0.50400001928E-02 0.  1.
        1   -1    0    0  501    0  0.00000000000E+00  0.00000000000E+00 -0.17967309810E+04  0.17967309810E+04  0.50400001928E-02 0. -1.
    10030    2    1    2    0    0  0.00000000000E+00  0.00000000000E+00 -0.10183210955E+04  0.25751408666E+04  0.23652426154E+04 0.  0.
        3    1    3    3  502    0  0.11297350427E+03  0.87657057493E+03 -0.13646756035E+04  0.16258777625E+04  0.10100000352E+00 0. -1.
       -3    1    3    3    0  502 -0.11297350427E+03 -0.87657057493E+03  0.34635450803E+03  0.94926310417E+03  0.10100000352E+00 0.  1.
</event>
<event>
 5   0  0.9144244E-05  0.2293137E+04  0.7818609E-02  0.8480632E-01
        2   -1    0    0  501    0  0.00000000000E+00  0.00000000000E+00  0.15977660354E+04  0.15977660354E+04  0.25500000920E-02 0. -1.
       -2   -1    0    0    0  501  0.00000000000E+00  0.00000000000E+00 -0.82278591898E+03  0.82278591899E+03  0.25500000920E-02 0.  1.
    10030    2    1    2    0    0  0.00000000000E+00  0.00000000000E+00  0.77498011639E+03  0.24205519544E+04  0.22931370615E+04 0.  0.
        1    1    3    3  502    0 -0.56045018494E+03  0.23109058005E+03  0.14147612156E+04  0.15391739873E+04  0.50400001928E-02 0. -1.
       -1    1    3    3    0  502  0.56045018494E+03 -0.23109058005E+03 -0.63978109918E+03  0.88137796709E+03  0.50400001928E-02 0.  1.
</event>
<event>
 5   0  0.4260395E-05  0.2440220E+04  0.7818609E-02  0.8424597E-01
       -1   -1    0    0    0  501  0.00000000000E+00  0.00000000000E+00  0.10295395067E+04  0.10295395068E+04  0.50400001928E-02 0.  1.
        1   -1    0    0  501    0  0.00000000000E+00  0.00000000000E+00 -0.14459554889E+04  0.14459554889E+04  0.50400001928E-02 0. -1.
    10030    2    1    2    0    0  0.00000000000E+00  0.00000000000E+00 -0.41641598212E+03  0.24754949956E+04  0.24402199088E+04 0.  0.
        4    1    3    3  502    0  0.57545977653E+03  0.10640709883E+04 -0.46958461614E+02  0.12106228697E+04  0.12699999809E+01 0. -1.
       -4    1    3    3    0  502 -0.57545977653E+03 -0.10640709883E+04 -0.36945752050E+03  0.12648721259E+04  0.12699999809E+01 0.  1.
</event>
<event>
 5   0  0.9182865E-05  0.2231324E+04  0.7818609E-02  0.8505503E-01
        2   -1    0    0  501    0  0.00000000000E+00  0.00000000000E+00  0.16462431853E+04  0.16462431853E+04  0.25500000920E-02 0.  1.
       -2   -1    0    0    0  501  0.00000000000E+00  0.00000000000E+00 -0.75608587194E+03  0.75608587194E+03  0.25500000920E-02 0. -1.
    10030    2    1    2    0    0  0.00000000000E+00  0.00000000000E+00  0.89015731334E+03  0.24023290572E+04  0.22313235661E+04 0.  0.
        3    1    3    3  502    0  0.60189043368E+03  0.43132761410E+03  0.13435305595E+04  0.15340762626E+04  0.10100000352E+00 0.  1.
       -3    1    3    3    0  502 -0.60189043368E+03 -0.43132761410E+03 -0.45337324619E+03  0.86825279464E+03  0.10100000352E+00 0. -1.
</event>
<event>
 5   0  0.4260395E-05  0.2333795E+04  0.7818609E-02  0.8464714E-01
       -1   -1    0    0    0  501  0.00000000000E+00  0.00000000000E+00  0.73767460135E+03  0.73767460136E+03  0.50400001928E-02 0. -1.
        1   -1    0    0  501    0  0.00000000000E+00  0.00000000000E+00 -0.18458671711E+04  0.18458671711E+04  0.50400001928E-02 0.  1.
    10030    2    1    2    0    0  0.00000000000E+00  0.00000000000E+00 -0.11081925698E+04  0.25835417725E+04  0.23337946179E+04 0.  0.
        4    1    3    3  502    0  0.92723713794E+03 -0.57608419321E+03 -0.10105376443E+04  0.14875582849E+04  0.12699999809E+01 0.  1.
       -4    1    3    3    0  502 -0.92723713794E+03  0.57608419321E+03 -0.97654925504E+02  0.10959834876E+04  0.12699999809E+01 0. -1.
</event>
<event>
 5   0  0.3234750E-05  0.2454646E+04  0.7818609E-02  0.8419324E-01
       -3   -1    0    0    0  501  0.00000000000E+00  0.00000000000E+00  0.92922283755E+03  0.92922284303E+03  0.10100000352E+00 0. -1.
        3   -1    0    0  501    0  0.00000000000E+00  0.00000000000E+00 -0.16210549139E+04  0.16210549171E+04  0.10100000352E+00 0.  1.
    10030    2    1    2    0    0  0.00000000000E+00  0.00000000000E+00 -0.69183207640E+03  0.25502777601E+04  0.24546456021E+04 0.  0.
        1    1    3    3  502    0 -0.33930499147E+03 -0.11195415085E+04 -0.73162089712E+03  0.13797717940E+04  0.50400001928E-02 0.  1.
       -1    1    3    3    0  502  0.33930499147E+03  0.11195415085E+04  0.39788820717E+02  0.11705059661E+04  0.50400001928E-02 0. -1.
</event>
<event>
 5   0  0.4260395E-05  0.2418853E+04  0.7818609E-02  0.8432479E-01
       -1   -1    0    0    0  501  0.00000000000E+00  0.00000000000E+00  0.11550227254E+04  0.11550227254E+04  0.50400001928E-02 0. -1.
        1   -1    0    0  501    0  0.00000000000E+00  0.00000000000E+00 -0.12663931211E+04  0.12663931211E+04  0.50400001928E-02 0.  1.
    10030    2    1    2    0    0  0.00000000000E+00  0.00000000000E+00 -0.11137039569E+03  0.24214158465E+04  0.24188533103E+04 0.  0.
        4    1    3    3  502    0 -0.43357109825E+02 -0.15040928213E+03  0.11448385728E+04  0.11554911345E+04  0.12699999809E+01 0. -1.
       -4    1    3    3    0  502  0.43357109825E+02  0.15040928213E+03 -0.12562089685E+04  0.12659247121E+04  0.12699999809E+01 0.  1.
</event>
<event>
 5   0  0.4018942E-05  0.2357070E+04  0.7818609E-02  0.8455753E-01
       -1   -1    0    0    0  501  0.00000000000E+00  0.00000000000E+00  0.29095719473E+04  0.29095719473E+04  0.50400001928E-02 0. -1.
        1   -1    0    0  501    0  0.00000000000E+00  0.00000000000E+00 -0.47737082025E+03  0.47737082028E+03  0.50400001928E-02 0.  1.
    10030    2    1    2    0    0  0.00000000000E+00  0.00000000000E+00  0.24322011271E+04  0.33869427676E+04  0.23570700008E+04 0.  0.
        5    1    3    3  502    0  0.10737336371E+04  0.14646593516E+03  0.18817051396E+04  0.21714494045E+04  0.46999998093E+01 0. -1.
       -5    1    3    3    0  502 -0.10737336371E+04 -0.14646593516E+03  0.55049598745E+03  0.12154933631E+04  0.46999998093E+01 0.  1.
</event>
<event>
 5   0  0.9750757E-05  0.2354819E+04  0.7818609E-02  0.8456615E-01
        2   -1    0    0  501    0  0.00000000000E+00  0.00000000000E+00  0.11033807543E+04  0.11033807543E+04  0.25500000920E-02 0. -1.
       -2   -1    0    0    0  501  0.00000000000E+00  0.00000000000E+00 -0.12564049588E+04  0.12564049588E+04  0.25500000920E-02 0.  1.
    10030    2    1    2    0    0  0.00000000000E+00  0.00000000000E+00 -0.15302420456E+03  0.23597857131E+04  0.23548189324E+04 0.  0.
        2    1    3    3  502    0 -0.98166365139E+03  0.32108010694E+03 -0.64298050160E+03  0.12166264361E+04  0.25500000920E-02 0. -1.
       -2    1    3    3    0  502  0.98166365139E+03 -0.32108010694E+03  0.48995629704E+03  0.11431592770E+04  0.25500000920E-02 0.  1.
</event>
<event>
 5   0  0.9519092E-05  0.2439786E+04  0.7818609E-02  0.8424757E-01
        2   -1    0    0  501    0  0.00000000000E+00  0.00000000000E+00  0.93574623033E+03  0.93574623034E+03  0.25500000920E-02 0.  1.
       -2   -1    0    0    0  501  0.00000000000E+00  0.00000000000E+00 -0.15903234934E+04  0.15903234935E+04  0.25500000920E-02 0. -1.
    10030    2    1    2    0    0  0.00000000000E+00  0.00000000000E+00 -0.65457726312E+03  0.25260697238E+04  0.24397862316E+04 0.  0.
        4    1    3    3  502    0 -0.52870185581E+03  0.24268438262E+03  0.78287984249E+03  0.97535830471E+03  0.12699999809E+01 0.  1.
       -4    1    3    3    0  502  0.52870185581E+03 -0.24268438262E+03 -0.14374571056E+04  0.15507114191E+04  0.12699999809E+01 0. -1.
</event>
<event>
 5   0  0.9491680E-05  0.2342148E+04  0.7818609E-02  0.8461486E-01
       -2   -1    0    0    0  501  0.00000000000E+00  0.00000000000E+00  0.16345234109E+04  0.16345234109E+04  0.25500000920E-02 0.  1.
        2   -1    0    0  501    0  0.00000000000E+00  0.00000000000E+00 -0.83903023951E+03  0.83903023951E+03  0.25500000920E-02 0. -1.
    10030    2    1    2    0    0  0.00000000000E+00  0.00000000000E+00  0.79549317137E+03  0.24735536504E+04  0.23421482181E+04 0.  0.
        5    1    3    3  502    0 -0.58206906090E+03 -0.28625830961E+03 -0.63196589403E+03  0.90562199217E+03  0.46999998093E+01 0. -1.
       -5    1    3    3    0  502  0.58206906090E+03  0.28625830961E+03  0.14274590654E+04  0.15679316582E+04  0.46999998093E+01 0.  1.
</event>
<event>
 5   0  0.3234750E-05  0.1522865E+04  0.7818609E-02  0.8869389E-01
        4   -1    0    0  501    0  0.00000000000E+00  0.00000000000E+00  0.61279119693E+03  0.61279251296E+03  0.12699999809E+01 0.  1.
       -4   -1    0    0    0  501  0.00000000000E+00  0.00000000000E+00 -0.94612564886E+03  0.94612650123E+03  0.12699999809E+01 0. -1.
    10030    2    1    2    0    0  0.00000000000E+00  0.00000000000E+00 -0.33333445192E+03  0.15589190142E+04  0.15228646151E+04 0.  0.
        2    1    3    3  502    0  0.12894892542E+03  0.43066280665E+03 -0.79577457506E+03  0.91397781850E+03  0.25500000920E-02 0. -1.
       -2    1    3    3    0  502 -0.12894892542E+03 -0.43066280665E+03  0.46244012314E+03  0.64494119569E+03  0.25500000920E-02 0.  1.
</event>
<event>
 5   0  0.4260395E-05  0.2428617E+04  0.7818609E-02  0.8428867E-01
        1   -1    0    0  501    0  0.00000000000E+00  0.00000000000E+00  0.93160800036E+03  0.93160800038E+03  0.50400001928E-02 0. -1.
       -1   -1    0    0    0  501  0.00000000000E+00  0.00000000000E+00 -0.15827959898E+04  0.15827959898E+04  0.50400001928E-02 0.  1.
    10030    2    1    2    0    0  0.00000000000E+00  0.00000000000E+00 -0.65118798947E+03  0.25144039902E+04  0.24286172256E+04 0.  0.
        4    1    3    3  502    0 -0.63740815440E+03  0.10019343423E+04 -0.58829330641E+03  0.13252366615E+04  0.12699999809E+01 0.  1.
       -4    1    3    3    0  502  0.63740815440E+03 -0.10019343423E+04 -0.62894683066E+02  0.11891673287E+04  0.12699999809E+01 0. -1.
</event>
<event>
 5   0  0.4208577E-05  0.2345487E+04  0.7818609E-02  0.8460199E-01
       -1   -1    0    0    0  501  0.00000000000E+00  0.00000000000E+00  0.11843027600E+04  0.11843027600E+04  0.50400001928E-02 0.  1.
        1   -1    0    0  501    0  0.00000000000E+00  0.00000000000E+00 -0.11612973242E+04  0.11612973242E+04  0.50400001928E-02 0. -1.
    10030    2    1    2    0    0  0.00000000000E+00  0.00000000000E+00  0.23005435791E+02  0.23456000842E+04  0.23454872639E+04 0.  0.
        1    1    3    3  502    0  0.75534098702E+03 -0.44747965197E+03 -0.76606254684E+03  0.11651737515E+04  0.50400001928E-02 0. -1.
       -1    1    3    3    0  502 -0.75534098702E+03  0.44747965197E+03  0.78906798263E+03  0.11804263327E+04  0.50400001928E-02 0.  1.
</event>
<event>
 5   0  0.9182865E-05  0.1724471E+04  0.7818609E-02  0.8747529E-01
       -2   -1    0    0    0  501  0.00000000000E+00  0.00000000000E+00  0.46438965823E+03  0.46438965824E+03  0.25500000920E-02 0. -1.
        2   -1    0    0  501    0  0.00000000000E+00  0.00000000000E+00 -0.16009188798E+04  0.16009188798E+04  0.25500000920E-02 0.  1.
    10030    2    1    2    0    0  0.00000000000E+00  0.00000000000E+00 -0.11365292216E+04  0.20653085381E+04  0.17244711322E+04 0.  0.
        3    1    3    3  502    0 -0.42763909815E+03  0.24568497052E+03 -0.14153103682E+04  0.14987794206E+04  0.10100000352E+00 0.  1.
       -3    1    3    3    0  502  0.42763909815E+03 -0.24568497052E+03  0.27878114664E+03  0.56652911746E+03  0.10100000352E+00 0. -1.
</event>
<event>
 5   0  0.9144244E-05  0.2350807E+04  0.7818609E-02  0.8458154E-01
        2   -1    0    0  501    0  0.00000000000E+00  0.00000000000E+00  0.81098730042E+03  0.81098730042E+03  0.25500000920E-02 0. -1.
       -2   -1    0    0    0  501  0.00000000000E+00  0.00000000000E+00 -0.17035696663E+04  0.17035696663E+04  0.25500000920E-02 0.  1.
    10030    2    1    2    0    0  0.00000000000E+00  0.00000000000E+00 -0.89258236589E+03  0.25145569667E+04  0.23508069804E+04 0.  0.
        1    1    3    3  502    0  0.11019181250E+03  0.44343571270E+03 -0.16046836547E+04  0.16684684889E+04  0.50400001928E-02 0.  1.
       -1    1    3    3    0  502 -0.11019181250E+03 -0.44343571270E+03  0.71210128877E+03  0.84608847784E+03  0.50400001928E-02 0. -1.
</event>
<event>
 5   0  0.9491680E-05  0.2403415E+04  0.7818609E-02  0.8438226E-01
        2   -1    0    0  501    0  0.00000000000E+00  0.00000000000E+00  0.18608070246E+04  0.18608070246E+04  0.25500000920E-02 0.  1.
       -2   -1    0    0    0  501  0.00000000000E+00  0.00000000000E+00 -0.77606146929E+03  0.77606146929E+03  0.25500000920E-02 0. -1.
    10030    2    1    2    0    0  0.00000000000E+00  0.00000000000E+00  0.10847455553E+04  0.26368684939E+04  0.24034147653E+04 0.  0.
        5    1    3    3  502    0 -0.18158697759E+03  0.93539062102E+03  0.13457185945E+04  0.16489117835E+04  0.46999998093E+01 0.  1.
       -5    1    3    3    0  502  0.18158697759E+03 -0.93539062102E+03 -0.26097303920E+03  0.98795671034E+03  0.46999998093E+01 0. -1.
</event>
<event>
 5   0  0.4061631E-05  0.2412506E+04  0.7818609E-02  0.8434836E-01
        1   -1    0    0  501    0  0.00000000000E+00  0.00000000000E+00  0.70675461142E+03  0.70675461144E+03  0.50400001928E-02 0. -1.
       -1   -1    0    0    0  501  0.00000000000E+00  0.00000000000E+00 -0.20587711451E+04  0.20587711452E+04  0.50400001928E-02 0.  1.
    10030    2    1    2    0    0  0.00000000000E+00  0.00000000000E+00 -0.13520165337E+04  0.27655257566E+04  0.24125057519E+04 0.  0.
        3    1    3    3  502    0 -0.91961352814E+03  0.37840062627E+03 -0.14586832840E+04  0.17653988242E+04  0.10100000352E+00 0.  1.
       -3    1    3    3    0  502  0.91961352814E+03 -0.37840062627E+03  0.10666675031E+03  0.10001269324E+04  0.10100000352E+00 0. -1.
</event>
<event>
 5   0  0.9750757E-05  0.2426582E+04  0.7818609E-02  0.8429618E-01
        2   -1    0    0  501    0  0.00000000000E+00  0.00000000000E+00  0.11401811243E+04  0.11401811243E+04  0.25500000920E-02 0. -1.
       -2   -1    0    0    0  501  0.00000000000E+00  0.00000000000E+00 -0.12910891109E+04  0.12910891109E+04  0.25500000920E-02 0.  1.
    10030    2    1    2    0    0  0.00000000000E+00  0.00000000000E+00 -0.15090798656E+03  0.24312702352E+04  0.24265823160E+04 0.  0.
        2    1    3    3  502    0  0.65028611520E+02  0.12105290513E+04 -0.25697913975E+02  0.12125467773E+04  0.25500000920E-02 0. -1.
       -2    1    3    3    0  502 -0.65028611520E+02 -0.12105290513E+04 -0.12521007258E+03  0.12187234579E+04  0.25500000920E-02 0.  1.
</event>
<event>
 5   0  0.4208577E-05  0.2414038E+04  0.7818609E-02  0.8434267E-01
        1   -1    0    0  501    0  0.00000000000E+00  0.00000000000E+00  0.88668233651E+03  0.88668233653E+03  0.50400001928E-02 0.  1.
       -1   -1    0    0    0  501  0.00000000000E+00  0.00000000000E+00 -0.16430853435E+04  0.16430853435E+04  0.50400001928E-02 0. -1.
    10030    2    1    2    0    0  0.00000000000E+00  0.00000000000E+00 -0.75640300696E+03  0.25297676800E+04  0.24140379048E+04 0.  0.
        1    1    3    3  502    0  0.34334062969E+03 -0.45317865627E+03  0.73756762292E+03  0.93126778152E+03  0.50400001928E-02 0.  1.
       -1    1    3    3    0  502 -0.34334062969E+03  0.45317865627E+03 -0.14939706299E+04  0.15984998985E+04  0.50400001928E-02 0. -1.
</event>
<event>
 5   0  0.9182865E-05  0.2444833E+04  0.7818609E-02  0.8422907E-01
        2   -1    0    0  501    0  0.00000000000E+00  0.00000000000E+00  0.23897835789E+04  0.23897835789E+04  0.25500000920E-02 0.  1.
       -2   -1    0    0    0  501  0.00000000000E+00  0.00000000000E+00 -0.62528752389E+03  0.62528752390E+03  0.25500000920E-02 0. -1.
    10030    2    1    2    0    0  0.00000000000E+00  0.00000000000E+00  0.17644960550E+04  0.30150711028E+04  0.24448328014E+04 0.  0.
        3    1    3    3  502    0  0.58486298035E+03  0.10101788689E+04  0.43456955114E+03  0.12455427564E+04  0.10100000352E+00 0. -1.
       -3    1    3    3    0  502 -0.58486298035E+03 -0.10101788689E+04  0.13299265039E+04  0.17695283464E+04  0.10100000352E+00 0.  1.
</event>
<event>
 5   0  0.9750757E-05  0.2401615E+04  0.7818609E-02  0.8438899E-01
        2   -1    0    0  501    0  0.00000000000E+00  0.00000000000E+00  0.22610266743E+04  0.22610266743E+04  0.25500000920E-02 0. -1.
       -2   -1    0    0    0  501  0.00000000000E+00  0.00000000000E+00 -0.63773635719E+03  0.63773635720E+03  0.25500000920E-02 0.  1.
    10030    2    1    2    0    0  0.00000000000E+00  0.00000000000E+00  0.16232903172E+04  0.28987630315E+04  0.24016152188E+04 0.  0.
        2    1    3    3  502    0  0.41283321142E+03  0.12789384351E+03 -0.54060563188E+03  0.69212899439E+03  0.25500000920E-02 0.  1.
       -2    1    3    3    0  502 -0.41283321142E+03 -0.12789384351E+03  0.21638959490E+04  0.22066340372E+04  0.25500000920E-02 0. -1.
</event>
<event>
 5   0  0.4208577E-05  0.2298088E+04  0.7818609E-02  0.8478675E-01
       -1   -1    0    0    0  501  0.00000000000E+00  0.00000000000E+00  0.78892562299E+03  0.78892562301E+03  0.50400001928E-02 0.  1.
        1   -1    0    0  501    0  0.00000000000E+00  0.00000000000E+00 -0.16735451619E+04  0.16735451619E+04  0.50400001928E-02 0. -1.
    10030    2    1    2    0    0  0.00000000000E+00  0.00000000000E+00 -0.88461953891E+03  0.24624707849E+04  0.22980884748E+04 0.  0.
        1    1    3    3  502    0 -0.45555232946E+03  0.93998636593E+03  0.70683888208E+02  0.10469472313E+04  0.50400001928E-02 0.  1.
       -1    1    3    3    0  502  0.45555232946E+03 -0.93998636593E+03 -0.95530342712E+03  0.14155235536E+04  0.50400001928E-02 0. -1.
</event>
<event>
 5   0  0.9491680E-05  0.2168387E+04  0.7818609E-02  0.8531703E-01
        2   -1    0    0  501    0  0.00000000000E+00  0.00000000000E+00  0.97297821792E+03  0.97297821792E+03  0.25500000920E-02 0. -1.
       -2   -1    0    0    0  501  0.00000000000E+00  0.00000000000E+00 -0.12081208537E+04  0.12081208537E+04  0.25500000920E-02 0.  1.
    10030    2    1    2    0    0  0.00000000000E+00  0.00000000000E+00 -0.23514263583E+03  0.21810990717E+04  0.21683867508E+04 0.  0.
        5    1    3    3  502    0  0.25959006182E+03  0.53332073554E+03  0.79529270556E+03  0.99213435817E+03  0.46999998093E+01 0. -1.
       -5    1    3    3    0  502 -0.25959006182E+03 -0.53332073554E+03 -0.10304353414E+04  0.11889647135E+04  0.46999998093E+01 0.  1.
</event>
<event>
 5   0  0.9750757E-05  0.2053244E+04  0.7818609E-02  0.8582124E-01
        2   -1    0    0  501    0  0.00000000000E+00  0.00000000000E+00  0.37260170540E+03  0.37260170541E+03  0.25500000920E-02 0. -1.
       -2   -1    0    0    0  501  0.00000000000E+00  0.00000000000E+00 -0.28286317842E+04  0.28286317842E+04  0.25500000920E-02 0.  1.
    10030    2    1    2    0    0  0.00000000000E+00  0.00000000000E+00 -0.24560300788E+04  0.32012334896E+04  0.20532442882E+04 0.  0.
        2    1    3    3  502    0 -0.56758776808E+03  0.85543776036E+03 -0.12204746197E+04  0.15948316317E+04  0.25500000920E-02 0. -1.
       -2    1    3    3    0  502  0.56758776808E+03 -0.85543776036E+03 -0.12355554591E+04  0.16064018578E+04  0.25500000920E-02 0.  1.
</event>
<event>
 5   0  0.9491680E-05  0.1479834E+04  0.7818609E-02  0.8897975E-01
        2   -1    0    0  501    0  0.00000000000E+00  0.00000000000E+00  0.22864449635E+04  0.22864449636E+04  0.25500000920E-02 0. -1.
       -2   -1    0    0    0  501  0.00000000000E+00  0.00000000000E+00 -0.23944467574E+03  0.23944467576E+03  0.25500000920E-02 0.  1.
    10030    2    1    2    0    0  0.00000000000E+00  0.00000000000E+00  0.20470002878E+04  0.25258896393E+04  0.14798338730E+04 0.  0.
        5    1    3    3  502    0 -0.42124397075E+03  0.60824589876E+03  0.10119959331E+04  0.12536217192E+04  0.46999998093E+01 0. -1.
       -5    1    3    3    0  502  0.42124397075E+03 -0.60824589876E+03  0.10350043547E+04  0.12722679201E+04  0.46999998093E+01 0.  1.
</event>
<event>
 5   0  0.4208577E-05  0.1768756E+04  0.7818609E-02  0.8723093E-01
       -1   -1    0    0    0  501  0.00000000000E+00  0.00000000000E+00  0.49472916855E+03  0.49472916858E+03  0.50400001928E-02 0. -1.
        1   -1    0    0  501    0  0.00000000000E+00  0.00000000000E+00 -0.15809152164E+04  0.15809152164E+04  0.50400001928E-02 0.  1.
    10030    2    1    2    0    0  0.00000000000E+00  0.00000000000E+00 -0.10861860478E+04  0.20756443850E+04  0.17687564791E+04 0.  0.
        1    1    3    3  502    0 -0.26251283433E+03  0.14732857610E+02  0.44780301917E+03  0.51928565287E+03  0.50400001928E-02 0. -1.
       -1    1    3    3    0  502  0.26251283433E+03 -0.14732857610E+02 -0.15339890670E+04  0.15563587321E+04  0.50400001928E-02 0.  1.
</event>
<event>
 5   0  0.9519092E-05  0.2423944E+04  0.7818609E-02  0.8430593E-01
        2   -1    0    0  501    0  0.00000000000E+00  0.00000000000E+00  0.16589044923E+04  0.16589044923E+04  0.25500000920E-02 0.  1.
       -2   -1    0    0    0  501  0.00000000000E+00  0.00000000000E+00 -0.88544964144E+03  0.88544964144E+03  0.25500000920E-02 0. -1.
    10030    2    1    2    0    0  0.00000000000E+00  0.00000000000E+00  0.77345485090E+03  0.25443541338E+04  0.24239442138E+04 0.  0.
        4    1    3    3  502    0  0.32844771804E+03 -0.11550285285E+04  0.21454878891E+03  0.12198367107E+04  0.12699999809E+01 0.  1.
       -4    1    3    3    0  502 -0.32844771804E+03  0.11550285285E+04  0.55890606199E+03  0.13245174231E+04  0.12699999809E+01 0. -1.
</event>
<event>
 5   0  0.9182865E-05  0.2263174E+04  0.7818609E-02  0.8492584E-01
        2   -1    0    0  501    0  0.00000000000E+00  0.00000000000E+00  0.13743816172E+04  0.13743816172E+04  0.25500000920E-02 0. -1.
       -2   -1    0    0    0  501  0.00000000000E+00  0.00000000000E+00 -0.93168351137E+03  0.93168351137E+03  0.25500000920E-02 0.  1.
    10030    2    1    2    0    0  0.00000000000E+00  0.00000000000E+00  0.44269810587E+03  0.23060651286E+04  0.22631736046E+04 0.  0.
        3    1    3    3  502    0  0.27843256638E+03  0.23596413263E+03 -0.87006449630E+03  0.94351258806E+03  0.10100000352E+00 0.  1.
       -3    1    3    3    0  502 -0.27843256638E+03 -0.23596413263E+03  0.13127626022E+04  0.13625525406E+04  0.10100000352E+00 0. -1.
</event>
<event>
 5   0  0.3234750E-05  0.1875505E+04  0.7818609E-02  0.8667146E-01
        4   -1    0    0  501    0  0.00000000000E+00  0.00000000000E+00  0.17659869426E+04  0.17659873993E+04  0.12699999809E+01 0.  1.
       -4   -1    0    0    0  501  0.00000000000E+00  0.00000000000E+00 -0.49795212303E+03  0.49795374256E+03  0.12699999809E+01 0. -1.
    10030    2    1    2    0    0  0.00000000000E+00  0.00000000000E+00  0.12680348196E+04  0.22639411418E+04  0.18755045161E+04 0.  0.
        2    1    3    3  502    0 -0.80945204573E+03 -0.37440852441E+03  0.98383989900E+03  0.13279063613E+04  0.25500000920E-02 0. -1.
       -2    1    3    3    0  502  0.80945204573E+03  0.37440852441E+03  0.28419492058E+03  0.93603478054E+03  0.25500000920E-02 0.  1.
</event>
<event>
 5   0  0.9182865E-05  0.2281656E+04  0.7818609E-02  0.8485189E-01
        2   -1    0    0  501    0  0.00000000000E+00  0.00000000000E+00  0.70128306845E+03  0.70128306845E+03  0.25500000920E-02 0. -1.
       -2   -1    0    0    0  501  0.00000000000E+00  0.00000000000E+00 -0.18558678270E+04  0.18558678270E+04  0.25500000920E-02 0.  1.
    10030    2    1    2    0    0  0.00000000000E+00  0.00000000000E+00 -0.11545847586E+04  0.25571508955E+04  0.22816561392E+04 0.  0.
        3    1    3    3  502    0 -0.47990674371E+03 -0.49958501702E+03 -0.15931539417E+04  0.17372493097E+04  0.10100000352E+00 0.  1.
       -3    1    3    3    0  502  0.47990674371E+03  0.49958501702E+03  0.43856918308E+03  0.81990158582E+03  0.10100000352E+00 0. -1.
</event>
<event>
 5   0  0.4061631E-05  0.2753151E+04  0.7818609E-02  0.8317962E-01
       -1   -1    0    0    0  501  0.00000000000E+00  0.00000000000E+00  0.88944590510E+03  0.88944590512E+03  0.50400001928E-02 0.  1.
        1   -1    0    0  501    0  0.00000000000E+00  0.00000000000E+00 -0.21304950537E+04  0.21304950537E+04  0.50400001928E-02 0. -1.
    10030    2    1    2    0    0  0.00000000000E+00  0.00000000000E+00 -0.12410491486E+04  0.30199409588E+04  0.27531509958E+04 0.  0.
        3    1    3    3  502    0 -0.11530179451E+04  0.12144325739E+03 -0.14345727512E+04  0.18445047669E+04  0.10100000352E+00 0. -1.
       -3    1    3    3    0  502  0.11530179451E+04 -0.12144325739E+03  0.19352360254E+03  0.11754361920E+04  0.10100000352E+00 0.  1.
</event>
<event>
 5   0  0.4061631E-05  0.2403453E+04  0.7818609E-02  0.8438212E-01
        1   -1    0    0  501    0  0.00000000000E+00  0.00000000000E+00  0.11184944772E+04  0.11184944772E+04  0.50400001928E-02 0. -1.
       -1   -1    0    0    0  501  0.00000000000E+00  0.00000000000E+00 -0.12911516462E+04  0.12911516462E+04  0.50400001928E-02 0.  1.
    10030    2    1    2    0    0  0.00000000000E+00  0.00000000000E+00 -0.17265716896E+03  0.24096461234E+04  0.24034525047E+04 0.  0.
        3    1    3    3  502    0 -0.19268193012E+03 -0.11205613497E+04  0.30372657215E+03  0.11768746346E+04  0.10100000352E+00 0. -1.
       -3    1    3    3    0  502  0.19268193012E+03  0.11205613497E+04 -0.47638374110E+03  0.12327714888E+04  0.10100000352E+00 0.  1.
</event>
<event>
 5   0  0.9519092E-05  0.2272406E+04  0.7818609E-02  0.8488881E-01
        2   -1    0    0  501    0  0.00000000000E+00  0.00000000000E+00  0.11119746716E+04  0.11119746716E+04  0.25500000920E-02 0. -1.
       -2   -1    0    0    0  501  0.00000000000E+00  0.00000000000E+00 -0.11609596177E+04  0.11609596177E+04  0.25500000920E-02 0.  1.
    10030    2    1    2    0    0  0.00000000000E+00  0.00000000000E+00 -0.48984946110E+02  0.22729342893E+04  0.22724063806E+04 0.  0.
        4    1    3    3  502    0  0.67093104912E+03 -0.89275372572E+03 -0.23382173878E+03  0.11409784862E+04  0.12699999809E+01 0. -1.
       -4    1    3    3    0  502 -0.67093104912E+03  0.89275372572E+03  0.18483679267E+03  0.11319558032E+04  0.12699999809E+01 0.  1.
</event>
<event>
 5   0  0.4018942E-05  0.2383701E+04  0.7818609E-02  0.8445631E-01
       -1   -1    0    0    0  501  0.00000000000E+00  0.00000000000E+00  0.15806311228E+04  0.15806311228E+04  0.50400001928E-02 0. -1.
        1   -1    0    0  501    0  0.00000000000E+00  0.00000000000E+00 -0.89869653172E+03  0.89869653173E+03  0.50400001928E-02 0.  1.
    10030    2    1    2    0    0  0.00000000000E+00  0.00000000000E+00  0.68193459108E+03  0.24793276545E+04  0.23837010786E+04 0.  0.
        5    1    3    3  502    0 -0.10215064693E+04  0.33198763292E+03 -0.19627532162E+03  0.10918962163E+04  0.46999998093E+01 0.  1.
       -5    1    3    3    0  502  0.10215064693E+04 -0.33198763292E+03  0.87820991270E+03  0.13874314383E+04  0.46999998093E+01 0. -1.
</event>
<event>
 5   0  0.4018942E-05  0.2320378E+04  0.7818609E-02  0.8469929E-01
       -1   -1    0    0    0  501  0.00000000000E+00  0.00000000000E+00  0.81016600974E+03  0.81016600975E+03  0.50400001928E-02 0.  1.
        1   -1    0    0  501    0  0.00000000000E+00  0.00000000000E+00 -0.16614354860E+04  0.16614354860E+04  0.50400001928E-02 0. -1.
    10030    2    1    2    0    0  0.00000000000E+00  0.00000000000E+00 -0.85126947622E+03  0.24716014957E+04  0.23203780365E+04 0.  0.
        5    1    3    3  502    0  0.21025143723E+03  0.15763303447E+03 -0.16293085089E+04  0.16503703062E+04  0.46999998093E+01 0. -1.
       -5    1    3    3    0  502 -0.21025143723E+03 -0.15763303447E+03  0.77803903264E+03  0.82123118957E+03  0.46999998093E+01 0.  1.
</event>
<event>
 5   0  0.3234750E-05  0.2357536E+04  0.7818609E-02  0.8455575E-01
       -3   -1    0    0    0  501  0.00000000000E+00  0.00000000000E+00  0.99850277885E+03  0.99850278395E+03  0.10100000352E+00 0.  1.
        3   -1    0    0  501    0  0.00000000000E+00  0.00000000000E+00 -0.13915769637E+04  0.13915769674E+04  0.10100000352E+00 0. -1.
    10030    2    1    2    0    0  0.00000000000E+00  0.00000000000E+00 -0.39307418489E+03  0.23900797514E+04  0.23575355571E+04 0.  0.
        5    1    3    3  502    0 -0.10857402039E+04  0.20682092461E+03  0.21883166845E+03  0.11267280392E+04  0.46999998093E+01 0.  1.
       -5    1    3    3    0  502  0.10857402039E+04 -0.20682092461E+03 -0.61190585334E+03  0.12633517121E+04  0.46999998093E+01 0. -1.
</event>
<event>
 5   0  0.4061631E-05  0.2237653E+04  0.7818609E-02  0.8502918E-01
        1   -1    0    0  501    0  0.00000000000E+00  0.00000000000E+00  0.12669659286E+04  0.12669659287E+04  0.50400001928E-02 0.  1.
       -1   -1    0    0    0  501  0.00000000000E+00  0.00000000000E+00 -0.98800825029E+03  0.98800825030E+03  0.50400001928E-02 0. -1.
    10030    2    1    2    0    0  0.00000000000E+00  0.00000000000E+00  0.27895767835E+03  0.22549741790E+04  0.22376530476E+04 0.  0.
        3    1    3    3  502    0 -0.60901787499E+03 -0.37859646273E+03  0.10049250103E+04  0.12345494483E+04  0.10100000352E+00 0.  1.
       -3    1    3    3    0  502  0.60901787499E+03  0.37859646273E+03 -0.72596733199E+03  0.10204247307E+04  0.10100000352E+00 0. -1.
</event>
<event>
 5   0  0.9144244E-05  0.2645642E+04  0.7818609E-02  0.8352861E-01
        2   -1    0    0  501    0  0.00000000000E+00  0.00000000000E+00  0.11988117912E+04  0.11988117912E+04  0.25500000920E-02 0. -1.
       -2   -1    0    0    0  501  0.00000000000E+00  0.00000000000E+00 -0.14596586683E+04  0.14596586683E+04  0.25500000920E-02 0.  1.
    10030    2    1    2    0    0  0.00000000000E+00  0.00000000000E+00 -0.26084687712E+03  0.26584704596E+04  0.26456424723E+04 0.  0.
        1    1    3    3  502    0  0.89910059036E+03 -0.41200795659E+03  0.75231405694E+03  0.12426217720E+04  0.50400001928E-02 0. -1.
       -1    1    3    3    0  502 -0.89910059036E+03  0.41200795659E+03 -0.10131609341E+04  0.14158486876E+04  0.50400001928E-02 0.  1.
</event>
<event>
 5   0  0.3934906E-05  0.1279345E+04  0.7818609E-02  0.9046107E-01
       -1   -1    0    0    0  501  0.00000000000E+00  0.00000000000E+00  0.34993244514E+03  0.34993244518E+03  0.50400001928E-02 0. -1.
        1   -1    0    0  501    0  0.00000000000E+00  0.00000000000E+00 -0.11693137477E+04  0.11693137477E+04  0.50400001928E-02 0.  1.
    10030    2    1    2    0    0  0.00000000000E+00  0.00000000000E+00 -0.81938130260E+03  0.15192461929E+04  0.12793448619E+04 0.  0.
        2    1    3    3  502    0 -0.62186539611E+03 -0.44679636727E+02 -0.23979666785E+03  0.66799347507E+03  0.25500000920E-02 0.  1.
       -2    1    3    3    0  502  0.62186539611E+03  0.44679636727E+02 -0.57958463475E+03  0.85125271786E+03  0.25500000920E-02 0. -1.
</event>
<event>
 5   0  0.4061631E-05  0.2402906E+04  0.7818609E-02  0.8438416E-01
       -1   -1    0    0    0  501  0.00000000000E+00  0.00000000000E+00  0.11003576936E+04  0.11003576936E+04  0.50400001928E-02 0. -1.
        1   -1    0    0  501    0  0.00000000000E+00  0.00000000000E+00 -0.13118363709E+04  0.13118363710E+04  0.50400001928E-02 0.  1.
    10030    2    1    2    0    0  0.00000000000E+00  0.00000000000E+00 -0.21147867737E+03  0.24121940645E+04  0.24029059436E+04 0.  0.
        3    1    3    3  502    0 -0.35470219088E+03 -0.45112577851E+03  0.95387901624E+03  0.11131995778E+04  0.10100000352E+00 0. -1.
       -3    1    3    3    0  502  0.35470219088E+03  0.45112577851E+03 -0.11653576936E+04  0.12989944867E+04  0.10100000352E+00 0.  1.
</event>
<event>
 5   0  0.3934906E-05  0.2465824E+04  0.7818609E-02  0.8415263E-01
       -1   -1    0    0    0  501  0.00000000000E+00  0.00000000000E+00  0.84333722859E+03  0.84333722860E+03  0.50400001928E-02 0. -1.
        1   -1    0    0  501    0  0.00000000000E+00  0.00000000000E+00 -0.18024490758E+04  0.18024490758E+04  0.50400001928E-02 0.  1.
    10030    2    1    2    0    0  0.00000000000E+00  0.00000000000E+00 -0.95911184725E+03  0.26457863044E+04  0.24658243314E+04 0.  0.
        2    1    3    3  502    0  0.24015401681E+03 -0.99794283770E+03  0.25330646527E+03  0.10572265720E+04  0.25500000920E-02 0. -1.
       -2    1    3    3    0  502 -0.24015401681E+03  0.99794283770E+03 -0.12124183125E+04  0.15885597325E+04  0.25500000920E-02 0.  1.
</event>
<event>
 5   0  0.4061631E-05  0.2375584E+04  0.7818609E-02  0.8448701E-01
       -1   -1    0    0    0  501  0.00000000000E+00  0.00000000000E+00  0.14100276646E+04  0.14100276646E+04  0.50400001928E-02 0. -1.
        1   -1    0    0  501    0  0.00000000000E+00  0.00000000000E+00 -0.10005831611E+04  0.10005831611E+04  0.50400001928E-02 0.  1.
    10030    2    1    2    0    0  0.00000000000E+00  0.00000000000E+00  0.40944450351E+03  0.24106108257E+04  0.23755840864E+04 0.  0.
        3    1    3    3  502    0  0.96948469831E+03 -0.45764335524E+02 -0.49010358426E+03  0.10872885947E+04  0.10100000352E+00 0.  1.
       -3    1    3    3    0  502 -0.96948469831E+03  0.45764335524E+02  0.89954808777E+03  0.13233222310E+04  0.10100000352E+00 0. -1.
</event>
<event>
 5   0  0.9491680E-05  0.2430699E+04  0.7818609E-02  0.8428099E-01
       -2   -1    0    0    0  501  0.00000000000E+00  0.00000000000E+00  0.15033320422E+04  0.15033320422E+04  0.25500000920E-02 0. -1.
        2   -1    0    0  501    0  0.00000000000E+00  0.00000000000E+00 -0.98253336917E+03  0.98253336918E+03  0.25500000920E-02 0.  1.
    10030    2    1    2    0    0  0.00000000000E+00  0.00000000000E+00  0.52079867303E+03  0.24858654114E+04  0.24306985798E+04 0.  0.
        5    1    3    3  502    0 -0.59855882452E+03 -0.24554051455E+03 -0.79177978066E+03  0.10224970033E+04  0.46999998093E+01 0.  1.
       -5    1    3    3    0  502  0.59855882452E+03  0.24554051455E+03  0.13125784537E+04  0.14633684081E+04  0.46999998093E+01 0. -1.
</event>
<event>
 5   0  0.9144244E-05  0.2444177E+04  0.7818609E-02  0.8423147E-01
       -2   -1    0    0    0  501  0.00000000000E+00  0.00000000000E+00  0.11453909310E+04  0.11453909310E+04  0.25500000920E-02 0. -1.
        2   -1    0    0  501    0  0.00000000000E+00  0.00000000000E+00 -0.13039217961E+04  0.13039217961E+04  0.25500000920E-02 0.  1.
    10030    2    1    2    0    0  0.00000000000E+00  0.00000000000E+00 -0.15853086505E+03  0.24493127271E+04  0.24441769167E+04 0.  0.
        1    1    3    3  502    0  0.20592552342E+03  0.61121720653E+03  0.96094674650E+03  0.11573290130E+04  0.50400001928E-02 0. -1.
       -1    1    3    3    0  502 -0.20592552342E+03 -0.61121720653E+03 -0.11194776115E+04  0.12919837141E+04  0.50400001928E-02 0.  1.
</event>
<event>
 5   0  0.4208577E-05  0.2449839E+04  0.7818609E-02  0.8421077E-01
        1   -1    0    0  501    0  0.00000000000E+00  0.00000000000E+00  0.12474484052E+04  0.12474484052E+04  0.50400001928E-02 0.  1.
       -1   -1    0    0    0  501  0.00000000000E+00  0.00000000000E+00 -0.12027971238E+04  0.12027971238E+04  0.50400001928E-02 0. -1.
    10030    2    1    2    0    0  0.00000000000E+00  0.00000000000E+00  0.44651281366E+02  0.24502455291E+04  0.24498386510E+04 0.  0.
        1    1    3    3  502    0 -0.66770966382E+03 -0.24096436429E+03 -0.97610231122E+03  0.12069282257E+04  0.50400001928E-02 0. -1.
       -1    1    3    3    0  502  0.66770966382E+03  0.24096436429E+03  0.10207535926E+04  0.12433173034E+04  0.50400001928E-02 0.  1.
</event>
<event>
 5   0  0.9750757E-05  0.2437455E+04  0.7818609E-02  0.8425613E-01
        2   -1    0    0  501    0  0.00000000000E+00  0.00000000000E+00  0.27157469813E+04  0.27157469813E+04  0.25500000920E-02 0.  1.
       -2   -1    0    0    0  501  0.00000000000E+00  0.00000000000E+00 -0.54692014136E+03  0.54692014136E+03  0.25500000920E-02 0. -1.
    10030    2    1    2    0    0  0.00000000000E+00  0.00000000000E+00  0.21688268399E+04  0.32626671227E+04  0.24374550030E+04 0.  0.
        2    1    3    3  502    0 -0.59324197813E+03 -0.98791023624E+03  0.55336966517E+03  0.12783272921E+04  0.25500000920E-02 0. -1.
       -2    1    3    3    0  502  0.59324197813E+03  0.98791023624E+03  0.16154571748E+04  0.19843398305E+04  0.25500000920E-02 0.  1.
</event>
<event>
 5   0  0.9491680E-05  0.2421175E+04  0.7818609E-02  0.8431618E-01
       -2   -1    0    0    0  501  0.00000000000E+00  0.00000000000E+00  0.11144503126E+04  0.11144503126E+04  0.25500000920E-02 0. -1.
        2   -1    0    0  501    0  0.00000000000E+00  0.00000000000E+00 -0.13150176705E+04  0.13150176705E+04  0.25500000920E-02 0.  1.
    10030    2    1    2    0    0  0.00000000000E+00  0.00000000000E+00 -0.20056735783E+03  0.24294679831E+04  0.24211748008E+04 0.  0.
        5    1    3    3  502    0  0.20541731647E+03 -0.15899253417E+03  0.10861473125E+04  0.11167868974E+04  0.46999998093E+01 0. -1.
       -5    1    3    3    0  502 -0.20541731647E+03  0.15899253417E+03 -0.12867146703E+04  0.13126810857E+04  0.46999998093E+01 0.  1.
</event>
<event>
 5   0  0.3934906E-05  0.2310620E+04  0.7818609E-02  0.8473745E-01
       -1   -1    0    0    0  501  0.00000000000E+00  0.00000000000E+00  0.10903260792E+04  0.10903260792E+04  0.50400001928E-02 0.  1.
        1   -1    0    0  501    0  0.00000000000E+00  0.00000000000E+00 -0.12241671317E+04  0.12241671317E+04  0.50400001928E-02 0. -1.
    10030    2    1    2    0    0  0.00000000000E+00  0.00000000000E+00 -0.13384105248E+03  0.23144932109E+04  0.23106201324E+04 0.  0.
        2    1    3    3  502    0  0.10217237686E+04  0.42308878118E+03  0.26803162944E+03  0.11378772036E+04  0.25500000920E-02 0.  1.
       -2    1    3    3    0  502 -0.10217237686E+04 -0.42308878118E+03 -0.40187268192E+03  0.11766160073E+04  0.25500000920E-02 0. -1.
</event>
<event>
 5   0  0.9750757E-05  0.1465614E+04  0.7818609E-02  0.8907647E-01
        2   -1    0    0  501    0  0.00000000000E+00  0.00000000000E+00  0.61705003883E+03  0.61705003883E+03  0.25500000920E-02 0. -1.
       -2   -1    0    0    0  501  0.00000000000E+00  0.00000000000E+00 -0.87027941668E+03  0.87027941669E+03  0.25500000920E-02 0.  1.
    10030    2    1    2    0    0  0.00000000000E+00  0.00000000000E+00 -0.25322937785E+03  0.14873294555E+04  0.14656137934E+04 0.  0.
        2    1    3    3  502    0 -0.69717922101E+03  0.18093774920E+03  0.10323967639E+02  0.72034985917E+03  0.25500000920E-02 0. -1.
       -2    1    3    3    0  502  0.69717922101E+03 -0.18093774920E+03 -0.26355334549E+03  0.76697959635E+03  0.25500000920E-02 0.  1.
</event>
<event>
 5   0  0.9182865E-05  0.2562665E+04  0.7818609E-02  0.8380995E-01
        2   -1    0    0  501    0  0.00000000000E+00  0.00000000000E+00  0.98626653577E+03  0.98626653577E+03  0.25500000920E-02 0. -1.
       -2   -1    0    0    0  501  0.00000000000E+00  0.00000000000E+00 -0.16646750719E+04  0.16646750719E+04  0.25500000920E-02 0.  1.
    10030    2    1    2    0    0  0.00000000000E+00  0.00000000000E+00 -0.67840853609E+03  0.26509416076E+04  0.25626652659E+04 0.  0.
        3    1    3    3  502    0  0.28795380484E+03  0.12213852652E+04 -0.60719184818E+03  0.13940521190E+04  0.10100000352E+00 0.  1.
       -3    1    3    3    0  502 -0.28795380484E+03 -0.12213852652E+04 -0.71216687915E+02  0.12568894886E+04  0.10100000352E+00 0. -1.
</event>
<event>
 5   0  0.3234750E-05  0.2347096E+04  0.7818609E-02  0.8459580E-01
        3   -1    0    0  501    0  0.00000000000E+00  0.00000000000E+00  0.69298421023E+03  0.69298421759E+03  0.10100000352E+00 0. -1.
       -3   -1    0    0    0  501  0.00000000000E+00  0.00000000000E+00 -0.19873684328E+04  0.19873684353E+04  0.10100000352E+00 0.  1.
    10030    2    1    2    0    0  0.00000000000E+00  0.00000000000E+00 -0.12943842225E+04  0.26803526529E+04  0.23470960416E+04 0.  0.
        1    1    3    3  502    0 -0.56842928261E+03  0.64980794934E+03 -0.15549478689E+04  0.17785457811E+04  0.50400001928E-02 0.  1.
       -1    1    3    3    0  502  0.56842928261E+03 -0.64980794934E+03  0.26056364633E+03  0.90180687188E+03  0.50400001928E-02 0. -1.
</event>
<event>
 5   0  0.4018942E-05  0.2256777E+04  0.7818609E-02  0.8495161E-01
       -1   -1    0    0    0  501  0.00000000000E+00  0.00000000000E+00  0.89905424986E+03  0.89905424988E+03  0.50400001928E-02 0. -1.
        1   -1    0    0  501    0  0.00000000000E+00  0.00000000000E+00 -0.14162223186E+04  0.14162223186E+04  0.50400001928E-02 0.  1.
    10030    2    1    2    0    0  0.00000000000E+00  0.00000000000E+00 -0.51716806870E+03  0.23152765684E+04  0.22567770774E+04 0.  0.
        5    1    3    3  502    0 -0.56742229976E+03  0.54878229549E+03  0.56860952993E+03  0.97286636371E+03  0.46999998093E+01 0. -1.
       -5    1    3    3    0  502  0.56742229976E+03 -0.54878229549E+03 -0.10857775986E+04  0.13424102047E+04  0.46999998093E+01 0.  1.
</event>
<event>
 5   0  0.9144244E-05  0.2415605E+04  0.7818609E-02  0.8433684E-01
        2   -1    0    0  501    0  0.00000000000E+00  0.00000000000E+00  0.15128963922E+04  0.15128963922E+04  0.25500000920E-02 0.  1.
       -2   -1    0    0    0  501  0.00000000000E+00  0.00000000000E+00 -0.96423435824E+03  0.96423435824E+03  0.25500000920E-02 0. -1.
    10030    2    1    2    0    0  0.00000000000E+00  0.00000000000E+00  0.54866203395E+03  0.24771307504E+04  0.24156048367E+04 0.  0.
        1    1    3    3  502    0 -0.11723286683E+04 -0.22121432334E+03  0.46753460368E+03  0.12813582205E+04  0.50400001928E-02 0.  1.
       -1    1    3    3    0  502  0.11723286683E+04  0.22121432334E+03  0.81127430270E+02  0.11957725300E+04  0.50400001928E-02 0. -1.
</event>
<event>
 5   0  0.4260395E-05  0.2284719E+04  0.7818609E-02  0.8483971E-01
       -1   -1    0    0    0  501  0.00000000000E+00  0.00000000000E+00  0.56022663293E+03  0.56022663295E+03  0.50400001928E-02 0.  1.
        1   -1    0    0  501    0  0.00000000000E+00  0.00000000000E+00 -0.23293875758E+04  0.23293875758E+04  0.50400001928E-02 0. -1.
    10030    2    1    2    0    0  0.00000000000E+00  0.00000000000E+00 -0.17691609429E+04  0.28896142088E+04  0.22847187647E+04 0.  0.
        4    1    3    3  502    0 -0.23545536681E+03 -0.98242636969E+02 -0.22928932892E+04  0.23070440165E+04  0.12699999809E+01 0. -1.
       -4    1    3    3    0  502  0.23545536681E+03  0.98242636969E+02  0.52373234631E+03  0.58257019229E+03  0.12699999809E+01 0.  1.
</event>
<event>
 5   0  0.3934906E-05  0.2268321E+04  0.7818609E-02  0.8490518E-01
       -1   -1    0    0    0  501  0.00000000000E+00  0.00000000000E+00  0.13580214483E+04  0.13580214483E+04  0.50400001928E-02 0. -1.
        1   -1    0    0  501    0  0.00000000000E+00  0.00000000000E+00 -0.94720142929E+03  0.94720142930E+03  0.50400001928E-02 0.  1.
    10030    2    1    2    0    0  0.00000000000E+00  0.00000000000E+00  0.41082001905E+03  0.23052228776E+04  0.22683208388E+04 0.  0.
        2    1    3    3  502    0 -0.99253752546E+03 -0.29108399639E+03 -0.26741069683E+03  0.10683487788E+04  0.25500000920E-02 0.  1.
       -2    1    3    3    0  502  0.99253752546E+03  0.29108399639E+03  0.67823071588E+03  0.12368740988E+04  0.25500000920E-02 0. -1.
</event>
<event>
 5   0  0.9519092E-05  0.2344257E+04  0.7818609E-02  0.8460673E-01
        2   -1    0    0  501    0  0.00000000000E+00  0.00000000000E+00  0.11160494620E+04  0.11160494620E+04  0.25500000920E-02 0. -1.
       -2   -1    0    0    0  501  0.00000000000E+00  0.00000000000E+00 -0.12310249693E+04  0.12310249693E+04  0.25500000920E-02 0.  1.
    10030    2    1    2    0    0  0.00000000000E+00  0.00000000000E+00 -0.11497550732E+03  0.23470744313E+04  0.23442566026E+04 0.  0.
        4    1    3    3  502    0  0.10054202316E+04 -0.55195305018E+03 -0.29935862041E+03  0.11853856791E+04  0.12699999809E+01 0.  1.
       -4    1    3    3    0  502 -0.10054202316E+04  0.55195305018E+03  0.18438311309E+03  0.11616887522E+04  0.12699999809E+01 0. -1.
</event>
<event>
 5   0  0.9750757E-05  0.2365357E+04  0.7818609E-02  0.8452588E-01
       -2   -1    0    0    0  501  0.00000000000E+00  0.00000000000E+00  0.90360217313E+03  0.90360217313E+03  0.25500000920E-02 0. -1.
        2   -1    0    0  501    0  0.00000000000E+00  0.00000000000E+00 -0.15479473204E+04  0.15479473204E+04  0.25500000920E-02 0.  1.
    10030    2    1    2    0    0  0.00000000000E+00  0.00000000000E+00 -0.64434514728E+03  0.24515494935E+04  0.23653571084E+04 0.  0.
        2    1    3    3  502    0 -0.11739126942E+03 -0.52447252391E+03  0.76972339173E+03  0.93878977320E+03  0.25500000920E-02 0. -1.
       -2    1    3    3    0  502  0.11739126942E+03  0.52447252391E+03 -0.14140685390E+04  0.15127597203E+04  0.25500000920E-02 0.  1.
</event>
<event>
 5   0  0.9491680E-05  0.2360450E+04  0.7818609E-02  0.8454461E-01
       -2   -1    0    0    0  501  0.00000000000E+00  0.00000000000E+00  0.87793572421E+03  0.87793572422E+03  0.25500000920E-02 0.  1.
        2   -1    0    0  501    0  0.00000000000E+00  0.00000000000E+00 -0.15865975087E+04  0.15865975087E+04  0.25500000920E-02 0. -1.
    10030    2    1    2    0    0  0.00000000000E+00  0.00000000000E+00 -0.70866178453E+03  0.24645332330E+04  0.23604496460E+04 0.  0.
        5    1    3    3  502    0  0.82201632142E+03  0.19911606699E+03  0.50509963150E+03  0.98514251180E+03  0.46999998093E+01 0.  1.
       -5    1    3    3    0  502 -0.82201632142E+03 -0.19911606699E+03 -0.12137614160E+04  0.14793907212E+04  0.46999998093E+01 0. -1.
</event>
<event>
 5   0  0.3934906E-05  0.2421950E+04  0.7818609E-02  0.8431331E-01
       -1   -1    0    0    0  501  0.00000000000E+00  0.00000000000E+00  0.18930147365E+04  0.18930147365E+04  0.50400001928E-02 0.  1.
        1   -1    0    0  501    0  0.00000000000E+00  0.00000000000E+00 -0.77466909574E+03  0.77466909575E+03  0.50400001928E-02 0. -1.
    10030    2    1    2    0    0  0.00000000000E+00  0.00000000000E+00  0.11183456408E+04  0.26676838323E+04  0.24219496396E+04 0.  0.
        2    1    3    3  502    0 -0.40439359140E+03  0.32433713688E+03  0.17646220960E+04  0.18391900111E+04  0.25500000920E-02 0.  1.
       -2    1    3    3    0  502  0.40439359140E+03 -0.32433713688E+03 -0.64627645525E+03  0.82849382118E+03  0.25500000920E-02 0. -1.
</event>
<event>
 5   0  0.9519092E-05  0.2441125E+04  0.7818609E-02  0.8424266E-01
        2   -1    0    0  501    0  0.00000000000E+00  0.00000000000E+00  0.15552605598E+04  0.15552605598E+04  0.25500000920E-02 0. -1.
       -2   -1    0    0    0  501  0.00000000000E+00  0.00000000000E+00 -0.95789269713E+03  0.95789269714E+03  0.25500000920E-02 0.  1.
    10030    2    1    2    0    0  0.00000000000E+00  0.00000000000E+00  0.59736786268E+03  0.25131532569E+04  0.24411249312E+04 0.  0.
        4    1    3    3  502    0 -0.86614565772E+03 -0.82339048042E+03  0.55418185133E+03  0.13173076030E+04  0.12699999809E+01 0. -1.
       -4    1    3    3    0  502  0.86614565772E+03  0.82339048042E+03  0.43186011350E+02  0.11958456540E+04  0.12699999809E+01 0.  1.
</event>
<event>
 5   0  0.9182865E-05  0.2527841E+04  0.7818609E-02  0.8393134E-01
        2   -1    0    0  501    0  0.00000000000E+00  0.00000000000E+00  0.12244771671E+04  0.12244771671E+04  0.25500000920E-02 0. -1.
       -2   -1    0    0    0  501  0.00000000000E+00  0.00000000000E+00 -0.13046346304E+04  0.13046346304E+04  0.25500000920E-02 0.  1.
    10030    2    1    2    0    0  0.00000000000E+00  0.00000000000E+00 -0.80157463292E+02  0.25291117975E+04  0.25278412263E+04 0.  0.
        3    1    3    3  502    0  0.25578475801E+03  0.44182989649E+03  0.11167272306E+04  0.12278921848E+04  0.10100000352E+00 0. -1.
       -3    1    3    3    0  502 -0.25578475801E+03 -0.44182989649E+03 -0.11968846939E+04  0.13012196127E+04  0.10100000352E+00 0.  1.
</event>
<event>
 5   0  0.4061631E-05  0.2345741E+04  0.7818609E-02  0.8460101E-01
       -1   -1    0    0    0  501  0.00000000000E+00  0.00000000000E+00  0.81287499409E+03  0.81287499410E+03  0.50400001928E-02 0.  1.
        1   -1    0    0  501    0  0.00000000000E+00  0.00000000000E+00 -0.16922965308E+04  0.16922965308E+04  0.50400001928E-02 0. -1.
    10030    2    1    2    0    0  0.00000000000E+00  0.00000000000E+00 -0.87942153674E+03  0.25051715249E+04  0.23457412752E+04 0.  0.
        3    1    3    3  502    0 -0.11522196514E+04 -0.21002115045E+03 -0.37296065231E+03  0.12291536385E+04  0.10100000352E+00 0. -1.
       -3    1    3    3    0  502  0.11522196514E+04  0.21002115045E+03 -0.50646088442E+03  0.12760178864E+04  0.10100000352E+00 0.  1.
</event>
<event>
 5   0  0.9182865E-05  0.1685129E+04  0.7818609E-02  0.8769891E-01
       -2   -1    0    0    0  501  0.00000000000E+00  0.00000000000E+00  0.55502967435E+03  0.55502967436E+03  0.25500000920E-02 0.  1.
        2   -1    0    0  501    0  0.00000000000E+00  0.00000000000E+00 -0.12790581608E+04  0.12790581608E+04  0.25500000920E-02 0. -1.
    10030    2    1    2    0    0  0.00000000000E+00  0.00000000000E+00 -0.72402848645E+03  0.18340878352E+04  0.16851293535E+04 0.  0.
        3    1    3    3  502    0 -0.49076012447E+03 -0.63326052860E+03 -0.78089271163E+02  0.80496108063E+03  0.10100000352E+00 0.  1.
       -3    1    3    3    0  502  0.49076012447E+03  0.63326052860E+03 -0.64593921529E+03  0.10291267545E+04  0.10100000352E+00 0. -1.
</event>
<event>
 5   0  0.3934906E-05  0.2281407E+04  0.7818609E-02  0.8485288E-01
        1   -1    0    0  501    0  0.00000000000E+00  0.00000000000E+00  0.23846795869E+04  0.23846795869E+04  0.50400001928E-02 0.  1.
       -1   -1    0    0    0  501  0.00000000000E+00  0.00000000000E+00 -0.54565190782E+03  0.54565190784E+03  0.50400001928E-02 0. -1.
    10030    2    1    2    0    0  0.00000000000E+00  0.00000000000E+00  0.18390276791E+04  0.29303314947E+04  0.22814074307E+04 0.  0.
        2    1    3    3  502    0 -0.76755368461E+03 -0.87026533457E+02 -0.15856903339E+03  0.78857873078E+03  0.25500000920E-02 0. -1.
       -2    1    3    3    0  502  0.76755368461E+03  0.87026533457E+02  0.19975967125E+04  0.21417527640E+04  0.25500000920E-02 0.  1.
</event>
<event>
 5   0  0.4208577E-05  0.2215121E+04  0.7818609E-02  0.8512161E-01
       -1   -1    0    0    0  501  0.00000000000E+00  0.00000000000E+00  0.49080996923E+03  0.49080996926E+03  0.50400001928E-02 0. -1.
        1   -1    0    0  501    0  0.00000000000E+00  0.00000000000E+00 -0.24993186282E+04  0.24993186282E+04  0.50400001928E-02 0.  1.
    10030    2    1    2    0    0  0.00000000000E+00  0.00000000000E+00 -0.20085086590E+04  0.29901285975E+04  0.22151212148E+04 0.  0.
        1    1    3    3  502    0 -0.69399363712E+03  0.77194486681E+03 -0.15255991227E+04  0.18452584450E+04  0.50400001928E-02 0.  1.
       -1    1    3    3    0  502  0.69399363712E+03 -0.77194486681E+03 -0.48290953635E+03  0.11448701525E+04  0.50400001928E-02 0. -1.
</event>
<event>
 5   0  0.9519092E-05  0.2345395E+04  0.7818609E-02  0.8460234E-01
       -2   -1    0    0    0  501  0.00000000000E+00  0.00000000000E+00  0.98290276433E+03  0.98290276433E+03  0.25500000920E-02 0. -1.
        2   -1    0    0  501    0  0.00000000000E+00  0.00000000000E+00 -0.13991409442E+04  0.13991409442E+04  0.25500000920E-02 0.  1.
    10030    2    1    2    0    0  0.00000000000E+00  0.00000000000E+00 -0.41623817988E+03  0.23820437085E+04  0.23453950642E+04 0.  0.
        4    1    3    3  502    0 -0.34850155036E+02  0.44000670886E+03  0.89531869386E+03  0.99820719974E+03  0.12699999809E+01 0. -1.
       -4    1    3    3    0  502  0.34850155036E+02 -0.44000670886E+03 -0.13115568737E+04  0.13838365088E+04  0.12699999809E+01 0.  1.
</event>
<event>
 5   0  0.9519092E-05  0.2375624E+04  0.7818609E-02  0.8448686E-01
        2   -1    0    0  501    0  0.00000000000E+00  0.00000000000E+00  0.17831128713E+04  0.17831128713E+04  0.25500000920E-02 0. -1.
       -2   -1    0    0    0  501  0.00000000000E+00  0.00000000000E+00 -0.79125513002E+03  0.79125513002E+03  0.25500000920E-02 0.  1.
    10030    2    1    2    0    0  0.00000000000E+00  0.00000000000E+00  0.99185774129E+03  0.25743680013E+04  0.23756238817E+04 0.  0.
        4    1    3    3  502    0 -0.43608710605E+03  0.79854241795E+03  0.13233892355E+04  0.16059896136E+04  0.12699999809E+01 0. -1.
       -4    1    3    3    0  502  0.43608710605E+03 -0.79854241795E+03 -0.33153149422E+03  0.96837838776E+03  0.12699999809E+01 0.  1.
</event>
<event>
 5   0  0.9519092E-05  0.2381304E+04  0.7818609E-02  0.8446536E-01
       -2   -1    0    0    0  501  0.00000000000E+00  0.00000000000E+00  0.12920237596E+04  0.12920237596E+04  0.25500000920E-02 0. -1.
        2   -1    0    0  501    0  0.00000000000E+00  0.00000000000E+00 -0.10972341446E+04  0.10972341446E+04  0.25500000920E-02 0.  1.
    10030    2    1    2    0    0  0.00000000000E+00  0.00000000000E+00  0.19478961497E+03  0.23892579042E+04  0.23813043356E+04 0.  0.
        4    1    3    3  502    0 -0.16637024495E+03 -0.72058374558E+03  0.10336411342E+04  0.12709585359E+04  0.12699999809E+01 0. -1.
       -4    1    3    3    0  502  0.16637024495E+03  0.72058374558E+03 -0.83885151926E+03  0.11182993683E+04  0.12699999809E+01 0.  1.
</event>
<event>
 5   0  0.4061631E-05  0.2368492E+04  0.7818609E-02  0.8451395E-01
        1   -1    0    0  501    0  0.00000000000E+00  0.00000000000E+00  0.16675086358E+04  0.16675086359E+04  0.50400001928E-02 0.  1.
       -1   -1    0    0    0  501  0.00000000000E+00  0.00000000000E+00 -0.84103841879E+03  0.84103841881E+03  0.50400001928E-02 0. -1.
    10030    2    1    2    0    0  0.00000000000E+00  0.00000000000E+00  0.82647021706E+03  0.25085470547E+04  0.23684922009E+04 0.  0.
        3    1    3    3  502    0 -0.24676947251E+02  0.10825915542E+04 -0.94514148792E+02  0.10869895858E+04  0.10100000352E+00 0. -1.
       -3    1    3    3    0  502  0.24676947251E+02 -0.10825915542E+04  0.92098436585E+03  0.14215574689E+04  0.10100000352E+00 0.  1.
</event>
<event>
 5   0  0.9182865E-05  0.2350108E+04  0.7818609E-02  0.8458422E-01
       -2   -1    0    0    0  501  0.00000000000E+00  0.00000000000E+00  0.92802071507E+03  0.92802071508E+03  0.25500000920E-02 0.  1.
        2   -1    0    0  501    0  0.00000000000E+00  0.00000000000E+00 -0.14878457627E+04  0.14878457627E+04  0.25500000920E-02 0. -1.
    10030    2    1    2    0    0  0.00000000000E+00  0.00000000000E+00 -0.55982504759E+03  0.24158664777E+04  0.23501078176E+04 0.  0.
        3    1    3    3  502    0  0.18824396545E+01  0.69654251983E+03 -0.12527415544E+04  0.14333654237E+04  0.10100000352E+00 0. -1.
       -3    1    3    3    0  502 -0.18824396545E+01 -0.69654251983E+03  0.69291650684E+03  0.98250105403E+03  0.10100000352E+00 0.  1.
</event>
<event>
 5   0  0.9144244E-05  0.2374165E+04  0.7818609E-02  0.8449240E-01
       -2   -1    0    0    0  501  0.00000000000E+00  0.00000000000E+00  0.12300227704E+04  0.12300227704E+04  0.25500000920E-02 0. -1.
        2   -1    0    0  501    0  0.00000000000E+00  0.00000000000E+00 -0.11456413604E+04  0.11456413604E+04  0.25500000920E-02 0.  1.
    10030    2    1    2    0    0  0.00000000000E+00  0.00000000000E+00  0.84381409918E+02  0.23756641308E+04  0.23741650827E+04 0.  0.
        1    1    3    3  502    0  0.85699777622E+02 -0.39476039383E+02  0.12262645878E+04  0.12298892832E+04  0.50400001928E-02 0. -1.
       -1    1    3    3    0  502 -0.85699777622E+02  0.39476039383E+02 -0.11418831779E+04  0.11457748476E+04  0.50400001928E-02 0.  1.
</event>
<event>
 5   0  0.3934906E-05  0.2383139E+04  0.7818609E-02  0.8445843E-01
       -1   -1    0    0    0  501  0.00000000000E+00  0.00000000000E+00  0.15485857414E+04  0.15485857414E+04  0.50400001928E-02 0.  1.
        1   -1    0    0  501    0  0.00000000000E+00  0.00000000000E+00 -0.91686103622E+03  0.91686103624E+03  0.50400001928E-02 0. -1.
    10030    2    1    2    0    0  0.00000000000E+00  0.00000000000E+00  0.63172470517E+03  0.24654467776E+04  0.23831390455E+04 0.  0.
        2    1    3    3  502    0 -0.53847052774E+03  0.83456713457E+03  0.99691901475E+03  0.14072314427E+04  0.25500000920E-02 0.  1.
       -2    1    3    3    0  502  0.53847052774E+03 -0.83456713457E+03 -0.36519430958E+03  0.10582153349E+04  0.25500000920E-02 0. -1.
</event>
<event>
 5   0  0.4208577E-05  0.2568043E+04  0.7818609E-02  0.8379138E-01
       -1   -1    0    0    0  501  0.00000000000E+00  0.00000000000E+00  0.20141280525E+04  0.20141280525E+04  0.50400001928E-02 0. -1.
        1   -1    0    0  501    0  0.00000000000E+00  0.00000000000E+00 -0.81857300545E+03  0.81857300547E+03  0.50400001928E-02 0.  1.
    10030    2    1    2    0    0  0.00000000000E+00  0.00000000000E+00  0.11955550470E+04  0.28327010579E+04  0.25680427203E+04 0.  0.
        1    1    3    3  502    0  0.10980120302E+04  0.50600961117E+03  0.12073224275E+03  0.12150112837E+04  0.50400001928E-02 0.  1.
       -1    1    3    3    0  502 -0.10980120302E+04 -0.50600961117E+03  0.10748228043E+04  0.16176897742E+04  0.50400001928E-02 0. -1.
</event>
<event>
 5   0  0.3934906E-05  0.2371285E+04  0.7818609E-02  0.8450333E-01
        1   -1    0    0  501    0  0.00000000000E+00  0.00000000000E+00  0.77337963853E+03  0.77337963855E+03  0.50400001928E-02 0. -1.
       -1   -1    0    0    0  501  0.00000000000E+00  0.00000000000E+00 -0.18176682697E+04  0.18176682697E+04  0.50400001928E-02 0.  1.
    10030    2    1    2    0    0  0.00000000000E+00  0.00000000000E+00 -0.10442886312E+04  0.25910479082E+04  0.23712845712E+04 0.  0.
        2    1    3    3  502    0 -0.59845432832E+03  0.65030818538E+02  0.59397636808E+03  0.84568582599E+03  0.25500000920E-02 0. -1.
       -2    1    3    3    0  502  0.59845432832E+03 -0.65030818538E+02 -0.16382649992E+04  0.17453620823E+04  0.25500000920E-02 0.  1.
</event>
<event>
 5   0  0.9182865E-05  0.2436393E+04  0.7818609E-02  0.8426003E-01
        2   -1    0    0  501    0  0.00000000000E+00  0.00000000000E+00  0.13220823155E+04  0.13220823155E+04  0.25500000920E-02 0.  1.
       -2   -1    0    0    0  501  0.00000000000E+00  0.00000000000E+00 -0.11224735595E+04  0.11224735595E+04  0.25500000920E-02 0. -1.
    10030    2    1    2    0    0  0.00000000000E+00  0.00000000000E+00  0.19960875599E+03  0.24445558750E+04  0.24363927784E+04 0.  0.
        3    1    3    3  502    0  0.49489463027E+03 -0.34319532750E+03 -0.96265742378E+03  0.11355232510E+04  0.10100000352E+00 0. -1.
       -3    1    3    3    0  502 -0.49489463027E+03  0.34319532750E+03  0.11622661798E+04  0.13090326240E+04  0.10100000352E+00 0.  1.
</event>
<event>
 5   0  0.3934906E-05  0.2346514E+04  0.7818609E-02  0.8459804E-01
        1   -1    0    0  501    0  0.00000000000E+00  0.00000000000E+00  0.12292748846E+04  0.12292748846E+04  0.50400001928E-02 0.  1.
       -1   -1    0    0    0  501  0.00000000000E+00  0.00000000000E+00 -0.11197913815E+04  0.11197913815E+04  0.50400001928E-02 0. -1.
    10030    2    1    2    0    0  0.00000000000E+00  0.00000000000E+00  0.10948350309E+03  0.23490662662E+04  0.23465135170E+04 0.  0.
        2    1    3    3  502    0 -0.72248491998E+03 -0.57971831493E+03 -0.66609272013E+03  0.11409370255E+04  0.25500000920E-02 0. -1.
       -2    1    3    3    0  502  0.72248491998E+03  0.57971831493E+03  0.77557622322E+03  0.12081292407E+04  0.25500000920E-02 0.  1.
</event>
<event>
 5   0  0.9519092E-05  0.2405298E+04  0.7818609E-02  0.8437523E-01
       -2   -1    0    0    0  501  0.00000000000E+00  0.00000000000E+00  0.10661570365E+04  0.10661570365E+04  0.25500000920E-02 0. -1.
        2   -1    0    0  501    0  0.00000000000E+00  0.00000000000E+00 -0.13566145689E+04  0.13566145689E+04  0.25500000920E-02 0.  1.
    10030    2    1    2    0    0  0.00000000000E+00  0.00000000000E+00 -0.29045753240E+03  0.24227716054E+04  0.24052976269E+04 0.  0.
        4    1    3    3  502    0  0.39851393293E+03  0.13983840970E+03 -0.12794618832E+04  0.13473650059E+04  0.12699999809E+01 0.  1.
       -4    1    3    3    0  502 -0.39851393293E+03 -0.13983840970E+03  0.98900435079E+03  0.10754065995E+04  0.12699999809E+01 0. -1.
</event>
<event>
 5   0  0.4061631E-05  0.2456490E+04  0.7818609E-02  0.8418652E-01
       -1   -1    0    0    0  501  0.00000000000E+00  0.00000000000E+00  0.93496599338E+03  0.93496599339E+03  0.50400001928E-02 0.  1.
        1   -1    0    0  501    0  0.00000000000E+00  0.00000000000E+00 -0.16135194084E+04  0.16135194084E+04  0.50400001928E-02 0. -1.
    10030    2    1    2    0    0  0.00000000000E+00  0.00000000000E+00 -0.67855341503E+03  0.25484854018E+04  0.24564899972E+04 0.  0.
        3    1    3    3  502    0 -0.10056722836E+04 -0.69777528325E+03 -0.23389161286E+03  0.12461831265E+04  0.10100000352E+00 0.  1.
       -3    1    3    3    0  502  0.10056722836E+04  0.69777528325E+03 -0.44466180218E+03  0.13023022754E+04  0.10100000352E+00 0. -1.
</event>
<event>
 5   0  0.4208577E-05  0.2598785E+04  0.7818609E-02  0.8368614E-01
       -1   -1    0    0    0  501  0.00000000000E+00  0.00000000000E+00  0.13029336871E+04  0.13029336871E+04  0.50400001928E-02 0.  1.
        1   -1    0    0  501    0  0.00000000000E+00  0.00000000000E+00 -0.12958605310E+04  0.12958605310E+04  0.50400001928E-02 0. -1.
    10030    2    1    2    0    0  0.00000000000E+00  0.00000000000E+00  0.70731560484E+01  0.25987942181E+04  0.25987845925E+04 0.  0.
        1    1    3    3  502    0 -0.33486985759E+03  0.90159125606E+03 -0.87020330331E+03  0.12970190452E+04  0.50400001928E-02 0. -1.
       -1    1    3    3    0  502  0.33486985759E+03 -0.90159125606E+03  0.87727645936E+03  0.13017751729E+04  0.50400001928E-02 0.  1.
</event>
<event>
 5   0  0.9519092E-05  0.2448400E+04  0.7818609E-02  0.8421602E-01
       -2   -1    0    0    0  501  0.00000000000E+00  0.00000000000E+00  0.57020983198E+03  0.57020983198E+03  0.25500000920E-02 0.  1.
        2   -1    0    0  501    0  0.00000000000E+00  0.00000000000E+00 -0.26282699589E+04  0.26282699589E+04  0.25500000920E-02 0. -1.
    10030    2    1    2    0    0  0.00000000000E+00  0.00000000000E+00 -0.20580601269E+04  0.31984797909E+04  0.24483997808E+04 0.  0.
        4    1    3    3  502    0  0.45176675320E+03  0.10118049715E+04 -0.17088637109E+04  0.20366784957E+04  0.12699999809E+01 0. -1.
       -4    1    3    3    0  502 -0.45176675320E+03 -0.10118049715E+04 -0.34919641603E+03  0.11618012952E+04  0.12699999809E+01 0.  1.
</event>
<event>
 5   0  0.9491680E-05  0.2400630E+04  0.7818609E-02  0.8439268E-01
       -2   -1    0    0    0  501  0.00000000000E+00  0.00000000000E+00  0.12228516203E+04  0.12228516203E+04  0.25500000920E-02 0.  1.
        2   -1    0    0  501    0  0.00000000000E+00  0.00000000000E+00 -0.11781932901E+04  0.11781932901E+04  0.25500000920E-02 0. -1.
    10030    2    1    2    0    0  0.00000000000E+00  0.00000000000E+00  0.44658330282E+02  0.24010449104E+04  0.24006295623E+04 0.  0.
        5    1    3    3  502    0 -0.70216202776E+02 -0.35229223047E+03  0.11678191394E+04  0.12218280415E+04  0.46999998093E+01 0.  1.
       -5    1    3    3    0  502  0.70216202776E+02  0.35229223047E+03 -0.11231608091E+04  0.11792168689E+04  0.46999998093E+01 0. -1.
</event>
<event>
 5   0  0.3934906E-05  0.1243735E+04  0.7818609E-02  0.9075414E-01
        1   -1    0    0  501    0  0.00000000000E+00  0.00000000000E+00  0.11356058521E+04  0.11356058522E+04  0.50400001928E-02 0. -1.
       -1   -1    0    0    0  501  0.00000000000E+00  0.00000000000E+00 -0.34054005670E+03  0.34054005674E+03  0.50400001928E-02 0.  1.
    10030    2    1    2    0    0  0.00000000000E+00  0.00000000000E+00  0.79506579544E+03  0.14761459089E+04  0.12437351508E+04 0.  0.
        2    1    3    3  502    0 -0.17333549142E+03 -0.25089021294E+03 -0.24570880512E+03  0.39161704311E+03  0.25500000920E-02 0.  1.
       -2    1    3    3    0  502  0.17333549142E+03  0.25089021294E+03  0.10407746006E+04  0.10845288658E+04  0.25500000920E-02 0. -1.
</event>
<event>
 5   0  0.3934906E-05  0.2119002E+04  0.7818609E-02  0.8552919E-01
        1   -1    0    0  501    0  0.00000000000E+00  0.00000000000E+00  0.15440342355E+04  0.15440342355E+04  0.50400001928E-02 0. -1.
       -1   -1    0    0    0  501  0.00000000000E+00  0.00000000000E+00 -0.72701893170E+03  0.72701893172E+03  0.50400001928E-02 0.  1.
    10030    2    1    2    0    0  0.00000000000E+00  0.00000000000E+00  0.81701530376E+03  0.22710531672E+04  0.21190017654E+04 0.  0.
        2    1    3    3  502    0  0.70016851090E+03  0.41003590536E+03  0.11387006544E+04  0.13982147788E+04  0.25500000920E-02 0. -1.
       -2    1    3    3    0  502 -0.70016851090E+03 -0.41003590536E+03 -0.32168535068E+03  0.87283838835E+03  0.25500000920E-02 0.  1.
</event>
<event>
 5   0  0.4208577E-05  0.2418723E+04  0.7818609E-02  0.8432527E-01
       -1   -1    0    0    0  501  0.00000000000E+00  0.00000000000E+00  0.14364972068E+04  0.14364972068E+04  0.50400001928E-02 0. -1.
        1   -1    0    0  501    0  0.00000000000E+00  0.00000000000E+00 -0.10181403142E+04  0.10181403142E+04  0.50400001928E-02 0.  1.
    10030    2    1    2    0    0  0.00000000000E+00  0.00000000000E+00  0.41835689254E+03  0.24546375210E+04  0.24187233968E+04 0.  0.
        1    1    3    3  502    0 -0.10159472163E+03 -0.11591774774E+04  0.54352718118E+03  0.12843035888E+04  0.50400001928E-02 0. -1.
       -1    1    3    3    0  502  0.10159472163E+03  0.11591774774E+04 -0.12517028864E+03  0.11703339322E+04  0.50400001928E-02 0.  1.
</event>
<event>
 5   0  0.4018942E-05  0.2453259E+04  0.7818609E-02  0.8419829E-01
       -1   -1    0    0    0  501  0.00000000000E+00  0.00000000000E+00  0.99144069162E+03  0.99144069163E+03  0.50400001928E-02 0.  1.
        1   -1    0    0  501    0  0.00000000000E+00  0.00000000000E+00 -0.15176101570E+04  0.15176101570E+04  0.50400001928E-02 0. -1.
    10030    2    1    2    0    0  0.00000000000E+00  0.00000000000E+00 -0.52616946534E+03  0.25090508486E+04  0.24532594348E+04 0.  0.
        5    1    3    3  502    0 -0.84782649991E+02  0.97319522221E+03 -0.10217780669E+04  0.14136299184E+04  0.46999998093E+01 0. -1.
       -5    1    3    3    0  502  0.84782649991E+02 -0.97319522221E+03  0.49560860158E+03  0.10954209302E+04  0.46999998093E+01 0.  1.
</event>
<event>
 5   0  0.4061631E-05  0.2356363E+04  0.7818609E-02  0.8456024E-01
        1   -1    0    0  501    0  0.00000000000E+00  0.00000000000E+00  0.16252635466E+04  0.16252635466E+04  0.50400001928E-02 0. -1.
       -1   -1    0    0    0  501  0.00000000000E+00  0.00000000000E+00 -0.85408370106E+03  0.85408370107E+03  0.50400001928E-02 0.  1.
    10030    2    1    2    0    0  0.00000000000E+00  0.00000000000E+00  0.77117984553E+03  0.24793472477E+04  0.23563625401E+04 0.  0.
        3    1    3    3  502    0 -0.22307240178E+03  0.11292005554E+04  0.65022400774E+03  0.13219858022E+04  0.10100000352E+00 0.  1.
       -3    1    3    3    0  502  0.22307240178E+03 -0.11292005554E+04  0.12095583779E+03  0.11573614455E+04  0.10100000352E+00 0. -1.
</event>
<event>
 5   0  0.9144244E-05  0.2369314E+04  0.7818609E-02  0.8451082E-01
        2   -1    0    0  501    0  0.00000000000E+00  0.00000000000E+00  0.15490229876E+04  0.15490229876E+04  0.25500000920E-02 0.  1.
       -2   -1    0    0    0  501  0.00000000000E+00  0.00000000000E+00 -0.90599825030E+03  0.90599825031E+03  0.25500000920E-02 0. -1.
    10030    2    1    2    0    0  0.00000000000E+00  0.00000000000E+00  0.64302473734E+03  0.24550212380E+04  0.23693139231E+04 0.  0.
        1    1    3    3  502    0 -0.10275750521E+04 -0.48446767075E+03 -0.26482750197E+02  0.11363629472E+04  0.50400001928E-02 0. -1.
       -1    1    3    3    0  502  0.10275750521E+04  0.48446767075E+03  0.66950748754E+03  0.13186582907E+04  0.50400001928E-02 0.  1.
</event>
<event>
 5   0  0.4018942E-05  0.2399235E+04  0.7818609E-02  0.8439790E-01
       -1   -1    0    0    0  501  0.00000000000E+00  0.00000000000E+00  0.63700518771E+03  0.63700518773E+03  0.50400001928E-02 0.  1.
        1   -1    0    0  501    0  0.00000000000E+00  0.00000000000E+00 -0.22591381386E+04  0.22591381386E+04  0.50400001928E-02 0. -1.
    10030    2    1    2    0    0  0.00000000000E+00  0.00000000000E+00 -0.16221329509E+04  0.28961433263E+04  0.23992354733E+04 0.  0.
        5    1    3    3  502    0 -0.53993414898E+03  0.56558795934E+03 -0.19092335976E+04  0.20631562338E+04  0.46999998093E+01 0. -1.
       -5    1    3    3    0  502  0.53993414898E+03 -0.56558795934E+03  0.28710064670E+03  0.83298709252E+03  0.46999998093E+01 0.  1.
</event>
<event>
 5   0  0.4208577E-05  0.2136346E+04  0.7818609E-02  0.8545400E-01
        1   -1    0    0  501    0  0.00000000000E+00  0.00000000000E+00  0.20704775764E+04  0.20704775764E+04  0.50400001928E-02 0.  1.
       -1   -1    0    0    0  501  0.00000000000E+00  0.00000000000E+00 -0.55107740377E+03  0.55107740380E+03  0.50400001928E-02 0. -1.
    10030    2    1    2    0    0  0.00000000000E+00  0.00000000000E+00  0.15194001726E+04  0.26215549802E+04  0.21363458591E+04 0.  0.
        1    1    3    3  502    0  0.74638989940E+03  0.67597171142E+03  0.32246293994E+03  0.10573636953E+04  0.50400001928E-02 0. -1.
       -1    1    3    3    0  502 -0.74638989940E+03 -0.67597171142E+03  0.11969372326E+04  0.15641912848E+04  0.50400001928E-02 0.  1.
</event>
<event>
 5   0  0.4061631E-05  0.2391949E+04  0.7818609E-02  0.8442524E-01
       -1   -1    0    0    0  501  0.00000000000E+00  0.00000000000E+00  0.11081325593E+04  0.11081325593E+04  0.50400001928E-02 0. -1.
        1   -1    0    0  501    0  0.00000000000E+00  0.00000000000E+00 -0.12907801234E+04  0.12907801234E+04  0.50400001928E-02 0.  1.
    10030    2    1    2    0    0  0.00000000000E+00  0.00000000000E+00 -0.18264756408E+03  0.23989126827E+04  0.23919493989E+04 0.  0.
        3    1    3    3  502    0 -0.28100318370E+03  0.39555650939E+03  0.10049859574E+04  0.11159858988E+04  0.10100000352E+00 0. -1.
       -3    1    3    3    0  502  0.28100318370E+03 -0.39555650939E+03 -0.11876335215E+04  0.12829267840E+04  0.10100000352E+00 0.  1.
</event>
<event>
 5   0  0.4260395E-05  0.2431745E+04  0.7818609E-02  0.8427713E-01
        1   -1    0    0  501    0  0.00000000000E+00  0.00000000000E+00  0.15841793919E+04  0.15841793919E+04  0.50400001928E-02 0. -1.
       -1   -1    0    0    0  501  0.00000000000E+00  0.00000000000E+00 -0.93319355467E+03  0.93319355468E+03  0.50400001928E-02 0.  1.
    10030    2    1    2    0    0  0.00000000000E+00  0.00000000000E+00  0.65098583720E+03  0.25173729466E+04  0.24317450507E+04 0.  0.
        4    1    3    3  502    0  0.11883736203E+04 -0.14170225145E+03  0.54760088666E+03  0.13161229933E+04  0.12699999809E+01 0. -1.
       -4    1    3    3    0  502 -0.11883736203E+04  0.14170225145E+03  0.10338495054E+03  0.12012499533E+04  0.12699999809E+01 0.  1.
</event>
<event>
 5   0  0.4061631E-05  0.2155939E+04  0.7818609E-02  0.8536994E-01
        1   -1    0    0  501    0  0.00000000000E+00  0.00000000000E+00  0.15087799566E+04  0.15087799566E+04  0.50400001928E-02 0.  1.
       -1   -1    0    0    0  501  0.00000000000E+00  0.00000000000E+00 -0.77017091144E+03  0.77017091146E+03  0.50400001928E-02 0. -1.
    10030    2    1    2    0    0  0.00000000000E+00  0.00000000000E+00  0.73860904515E+03  0.22789508681E+04  0.21559391776E+04 0.  0.
        3    1    3    3  502    0  0.60452861699E+03 -0.84108555439E+03  0.68490054571E+03  0.12417602531E+04  0.10100000352E+00 0.  1.
       -3    1    3    3    0  502 -0.60452861699E+03  0.84108555439E+03  0.53708499437E+02  0.10371906149E+04  0.10100000352E+00 0. -1.
</event>
<event>
 5   0  0.9144244E-05  0.2387243E+04  0.7818609E-02  0.8444295E-01
        2   -1    0    0  501    0  0.00000000000E+00  0.00000000000E+00  0.21291748591E+04  0.21291748591E+04  0.25500000920E-02 0. -1.
       -2   -1    0    0    0  501  0.00000000000E+00  0.00000000000E+00 -0.66914760500E+03  0.66914760500E+03  0.25500000920E-02 0.  1.
    10030    2    1    2    0    0  0.00000000000E+00  0.00000000000E+00  0.14600272541E+04  0.27983224641E+04  0.23872429768E+04 0.  0.
        1    1    3    3  502    0 -0.85818828324E+03 -0.57097999467E+03  0.14355047091E+04  0.17672518365E+04  0.50400001928E-02 0. -1.
       -1    1    3    3    0  502  0.85818828324E+03  0.57097999467E+03  0.24522545002E+02  0.10310706276E+04  0.50400001928E-02 0.  1.
</event>
<event>
 5   0  0.9182865E-05  0.2338443E+04  0.7818609E-02  0.8462916E-01
        2   -1    0    0  501    0  0.00000000000E+00  0.00000000000E+00  0.14620741334E+04  0.14620741334E+04  0.25500000920E-02 0. -1.
       -2   -1    0    0    0  501  0.00000000000E+00  0.00000000000E+00 -0.93502707413E+03  0.93502707413E+03  0.25500000920E-02 0.  1.
    10030    2    1    2    0    0  0.00000000000E+00  0.00000000000E+00  0.52704705932E+03  0.23971012076E+04  0.23384429855E+04 0.  0.
        3    1    3    3  502    0  0.11216871082E+04  0.27595308227E+03  0.44902362127E+03  0.12393362316E+04  0.10100000352E+00 0.  1.
       -3    1    3    3    0  502 -0.11216871082E+04 -0.27595308227E+03  0.78023438042E+02  0.11577649759E+04  0.10100000352E+00 0. -1.
</event>
<event>
 5   0  0.4061631E-05  0.2401522E+04  0.7818609E-02  0.8438934E-01
       -1   -1    0    0    0  501  0.00000000000E+00  0.00000000000E+00  0.91269777221E+03  0.91269777222E+03  0.50400001928E-02 0.  1.
        1   -1    0    0  501    0  0.00000000000E+00  0.00000000000E+00 -0.15797422530E+04  0.15797422530E+04  0.50400001928E-02 0. -1.
    10030    2    1    2    0    0  0.00000000000E+00  0.00000000000E+00 -0.66704448080E+03  0.24924400252E+04  0.24015222131E+04 0.  0.
        3    1    3    3  502    0 -0.97570966923E+03 -0.27448974896E+03 -0.10016912963E+04  0.14250401553E+04  0.10100000352E+00 0. -1.
       -3    1    3    3    0  502  0.97570966923E+03  0.27448974896E+03  0.33464681555E+03  0.10673998699E+04  0.10100000352E+00 0.  1.
</event>
<event>
 5   0  0.3234750E-05  0.2383575E+04  0.7818609E-02  0.8445679E-01
       -4   -1    0    0    0  501  0.00000000000E+00  0.00000000000E+00  0.12889561637E+04  0.12889567893E+04  0.12699999809E+01 0.  1.
        4   -1    0    0  501    0  0.00000000000E+00  0.00000000000E+00 -0.11019425695E+04  0.11019433013E+04  0.12699999809E+01 0. -1.
    10030    2    1    2    0    0  0.00000000000E+00  0.00000000000E+00  0.18701359416E+03  0.23909000906E+04  0.23835748696E+04 0.  0.
        5    1    3    3  502    0 -0.38354158899E+03 -0.11267212708E+04  0.15477008183E+03  0.12002419926E+04  0.46999998093E+01 0.  1.
       -5    1    3    3    0  502  0.38354158899E+03  0.11267212708E+04  0.32243512323E+02  0.11906580981E+04  0.46999998093E+01 0. -1.
</event>
<event>
 5   0  0.4260395E-05  0.2341687E+04  0.7818609E-02  0.8461663E-01
       -1   -1    0    0    0  501  0.00000000000E+00  0.00000000000E+00  0.57425260326E+03  0.57425260328E+03  0.50400001928E-02 0. -1.
        1   -1    0    0  501    0  0.00000000000E+00  0.00000000000E+00 -0.23872331047E+04  0.23872331047E+04  0.50400001928E-02 0.  1.
    10030    2    1    2    0    0  0.00000000000E+00  0.00000000000E+00 -0.18129805014E+04  0.29614857079E+04  0.23416872763E+04 0.  0.
        4    1    3    3  502    0 -0.10533029729E+04 -0.42666898779E+03 -0.55017427765E+03  0.12626111541E+04  0.12699999809E+01 0.  1.
       -4    1    3    3    0  502  0.10533029729E+04  0.42666898779E+03 -0.12628062238E+04  0.16988745538E+04  0.12699999809E+01 0. -1.
</event>
<event>
 5   0  0.3934906E-05  0.2209834E+04  0.7818609E-02  0.8514346E-01
       -1   -1    0    0    0  501  0.00000000000E+00  0.00000000000E+00  0.94956154705E+03  0.94956154707E+03  0.50400001928E-02 0.  1.
        1   -1    0    0  501    0  0.00000000000E+00  0.00000000000E+00 -0.12856892479E+04  0.12856892479E+04  0.50400001928E-02 0. -1.
    10030    2    1    2    0    0  0.00000000000E+00  0.00000000000E+00 -0.33612770087E+03  0.22352507950E+04  0.22098335424E+04 0.  0.
        2    1    3    3  502    0 -0.66609117880E+03  0.67229474640E+03  0.40874361365E+03  0.10308874945E+04  0.25500000920E-02 0.  1.
       -2    1    3    3    0  502  0.66609117880E+03 -0.67229474640E+03 -0.74487131452E+03  0.12043633006E+04  0.25500000920E-02 0. -1.
</event>
<event>
 5   0  0.4208577E-05  0.2405991E+04  0.7818609E-02  0.8437264E-01
       -1   -1    0    0    0  501  0.00000000000E+00  0.00000000000E+00  0.99983348123E+03  0.99983348124E+03  0.50400001928E-02 0. -1.
        1   -1    0    0  501    0  0.00000000000E+00  0.00000000000E+00 -0.14474390512E+04  0.14474390512E+04  0.50400001928E-02 0.  1.
    10030    2    1    2    0    0  0.00000000000E+00  0.00000000000E+00 -0.44760556998E+03  0.24472725325E+04  0.24059908773E+04 0.  0.
        1    1    3    3  502    0  0.30071855930E+03 -0.11473361472E+04 -0.42821390924E+03  0.12610230127E+04  0.50400001928E-02 0.  1.
       -1    1    3    3    0  502 -0.30071855930E+03  0.11473361472E+04 -0.19391660738E+02  0.11862495197E+04  0.50400001928E-02 0. -1.
</event>
<event>
 5   0  0.4018942E-05  0.2320721E+04  0.7818609E-02  0.8469796E-01
       -1   -1    0    0    0  501  0.00000000000E+00  0.00000000000E+00  0.13259681320E+04  0.13259681320E+04  0.50400001928E-02 0. -1.
        1   -1    0    0  501    0  0.00000000000E+00  0.00000000000E+00 -0.10154368639E+04  0.10154368639E+04  0.50400001928E-02 0.  1.
    10030    2    1    2    0    0  0.00000000000E+00  0.00000000000E+00  0.31053126810E+03  0.23414049958E+04  0.23207213719E+04 0.  0.
        5    1    3    3  502    0 -0.31014059759E+03 -0.10939923098E+04  0.38842807676E+03  0.12016259089E+04  0.46999998093E+01 0.  1.
       -5    1    3    3    0  502  0.31014059759E+03  0.10939923098E+04 -0.77896808655E+02  0.11397790869E+04  0.46999998093E+01 0. -1.
</event>
<event>
 5   0  0.9491680E-05  0.1212831E+04  0.7818609E-02  0.9101699E-01
       -2   -1    0    0    0  501  0.00000000000E+00  0.00000000000E+00  0.20155256850E+03  0.20155256852E+03  0.25500000920E-02 0. -1.
        2   -1    0    0  501    0  0.00000000000E+00  0.00000000000E+00 -0.18245349557E+04  0.18245349557E+04  0.25500000920E-02 0.  1.
    10030    2    1    2    0    0  0.00000000000E+00  0.00000000000E+00 -0.16229823872E+04  0.20260875242E+04  0.12128309143E+04 0.  0.
        5    1    3    3  502    0 -0.84880758984E+02 -0.48277150079E+03 -0.21511735943E+03  0.53532292454E+03  0.46999998093E+01 0. -1.
       -5    1    3    3    0  502  0.84880758984E+02  0.48277150079E+03 -0.14078650277E+04  0.14907645996E+04  0.46999998093E+01 0.  1.
</event>
<event>
 5   0  0.9519092E-05  0.2432648E+04  0.7818609E-02  0.8427381E-01
        2   -1    0    0  501    0  0.00000000000E+00  0.00000000000E+00  0.10492883156E+04  0.10492883156E+04  0.25500000920E-02 0.  1.
       -2   -1    0    0    0  501  0.00000000000E+00  0.00000000000E+00 -0.14099498662E+04  0.14099498662E+04  0.25500000920E-02 0. -1.
    10030    2    1    2    0    0  0.00000000000E+00  0.00000000000E+00 -0.36066155061E+03  0.24592381819E+04  0.24326478744E+04 0.  0.
        4    1    3    3  502    0  0.11851303189E+04  0.20799980522E+03 -0.36016426427E+03  0.12559927157E+04  0.12699999809E+01 0. -1.
       -4    1    3    3    0  502 -0.11851303189E+04 -0.20799980522E+03 -0.49728634160E+00  0.12032454662E+04  0.12699999809E+01 0.  1.
</event>
<event>
 5   0  0.4018942E-05  0.2419040E+04  0.7818609E-02  0.8432409E-01
        1   -1    0    0  501    0  0.00000000000E+00  0.00000000000E+00  0.11890483736E+04  0.11890483736E+04  0.50400001928E-02 0. -1.
       -1   -1    0    0    0  501  0.00000000000E+00  0.00000000000E+00 -0.12303445750E+04  0.12303445750E+04  0.50400001928E-02 0.  1.
    10030    2    1    2    0    0  0.00000000000E+00  0.00000000000E+00 -0.41296201411E+02  0.24193929487E+04  0.24190404841E+04 0.  0.
        5    1    3    3  502    0  0.32338183533E+03  0.89592432738E+02 -0.11828477533E+04  0.12295338600E+04  0.46999998093E+01 0.  1.
       -5    1    3    3    0  502 -0.32338183533E+03 -0.89592432738E+02  0.11415515519E+04  0.11898590887E+04  0.46999998093E+01 0. -1.
</event>
<event>
 5   0  0.3234750E-05  0.2446381E+04  0.7818609E-02  0.8422341E-01
       -3   -1    0    0    0  501  0.00000000000E+00  0.00000000000E+00  0.89673377631E+03  0.89673378200E+03  0.10100000352E+00 0.  1.
        3   -1    0    0  501    0  0.00000000000E+00  0.00000000000E+00 -0.16684938087E+04  0.16684938118E+04  0.10100000352E+00 0. -1.
    10030    2    1    2    0    0  0.00000000000E+00  0.00000000000E+00 -0.77176003242E+03  0.25652275938E+04  0.24463808085E+04 0.  0.
        3    1    3    3  502    0  0.12199578849E+04  0.72864717251E+02 -0.43922636483E+03  0.12986632811E+04  0.10100000352E+00 0. -1.
       -3    1    3    3    0  502 -0.12199578849E+04 -0.72864717251E+02 -0.33253366760E+03  0.12665643127E+04  0.10100000352E+00 0.  1.
</event>
<event>
 5   0  0.9182865E-05  0.1397359E+04  0.7818609E-02  0.8955732E-01
       -2   -1    0    0    0  501  0.00000000000E+00  0.00000000000E+00  0.54649394191E+03  0.54649394192E+03  0.25500000920E-02 0. -1.
        2   -1    0    0  501    0  0.00000000000E+00  0.00000000000E+00 -0.89324561322E+03  0.89324561323E+03  0.25500000920E-02 0.  1.
    10030    2    1    2    0    0  0.00000000000E+00  0.00000000000E+00 -0.34675167131E+03  0.14397395551E+04  0.13973593901E+04 0.  0.
        3    1    3    3  502    0  0.41354179276E+02 -0.48724245815E+03 -0.68754800204E+03  0.84370471522E+03  0.10100000352E+00 0.  1.
       -3    1    3    3    0  502 -0.41354179276E+02  0.48724245815E+03  0.34079633073E+03  0.59603483993E+03  0.10100000352E+00 0. -1.
</event>
<event>
 5   0  0.9519092E-05  0.1311514E+04  0.7818609E-02  0.9020484E-01
       -2   -1    0    0    0  501  0.00000000000E+00  0.00000000000E+00  0.79653305487E+03  0.79653305488E+03  0.25500000920E-02 0.  1.
        2   -1    0    0  501    0  0.00000000000E+00  0.00000000000E+00 -0.53986108475E+03  0.53986108476E+03  0.25500000920E-02 0. -1.
    10030    2    1    2    0    0  0.00000000000E+00  0.00000000000E+00  0.25667197012E+03  0.13363941396E+04  0.13115139329E+04 0.  0.
        4    1    3    3  502    0 -0.53885486025E+03  0.23237294084E+03  0.42655482608E+03  0.72547389795E+03  0.12699999809E+01 0.  1.
       -4    1    3    3    0  502  0.53885486025E+03 -0.23237294084E+03 -0.16988285596E+03  0.61092024169E+03  0.12699999809E+01 0. -1.
</event>
<event>
 5   0  0.9519092E-05  0.2444292E+04  0.7818609E-02  0.8423105E-01
        2   -1    0    0  501    0  0.00000000000E+00  0.00000000000E+00  0.10126914715E+04  0.10126914716E+04  0.25500000920E-02 0.  1.
       -2   -1    0    0    0  501  0.00000000000E+00  0.00000000000E+00 -0.14749222523E+04  0.14749222523E+04  0.25500000920E-02 0. -1.
    10030    2    1    2    0    0  0.00000000000E+00  0.00000000000E+00 -0.46223078072E+03  0.24876137238E+04  0.24442922788E+04 0.  0.
        4    1    3    3  502    0 -0.62155794438E+03  0.53325247515E+03 -0.11543578426E+04  0.14153572419E+04  0.12699999809E+01 0. -1.
       -4    1    3    3    0  502  0.62155794438E+03 -0.53325247515E+03  0.69212706185E+03  0.10722564820E+04  0.12699999809E+01 0.  1.
</event>
<event>
 5   0  0.4208577E-05  0.2363536E+04  0.7818609E-02  0.8453283E-01
        1   -1    0    0  501    0  0.00000000000E+00  0.00000000000E+00  0.10798341578E+04  0.10798341578E+04  0.50400001928E-02 0. -1.
       -1   -1    0    0    0  501  0.00000000000E+00  0.00000000000E+00 -0.12933244377E+04  0.12933244377E+04  0.50400001928E-02 0.  1.
    10030    2    1    2    0    0  0.00000000000E+00  0.00000000000E+00 -0.21349027990E+03  0.23731585956E+04  0.23635362532E+04 0.  0.
        1    1    3    3  502    0  0.74339032532E+03  0.90772458584E+03  0.35190913425E+02  0.11738106747E+04  0.50400001928E-02 0.  1.
       -1    1    3    3    0  502 -0.74339032532E+03 -0.90772458584E+03 -0.24868119332E+03  0.11993479209E+04  0.50400001928E-02 0. -1.
</event>
<event>
 5   0  0.4061631E-05  0.2067051E+04  0.7818609E-02  0.8575898E-01
       -1   -1    0    0    0  501  0.00000000000E+00  0.00000000000E+00  0.12728837751E+04  0.12728837751E+04  0.50400001928E-02 0.  1.
        1   -1    0    0  501    0  0.00000000000E+00  0.00000000000E+00 -0.83917718845E+03  0.83917718847E+03  0.50400001928E-02 0. -1.
    10030    2    1    2    0    0  0.00000000000E+00  0.00000000000E+00  0.43370658662E+03  0.21120609635E+04  0.20670510662E+04 0.  0.
        3    1    3    3  502    0 -0.46328816670E+03  0.92384357419E+03  0.22423150130E+03  0.10575455789E+04  0.10100000352E+00 0. -1.
       -3    1    3    3    0  502  0.46328816670E+03 -0.92384357419E+03  0.20947508531E+03  0.10545153847E+04  0.10100000352E+00 0.  1.
</event>
<event>
 5   0  0.4061631E-05  0.2462063E+04  0.7818609E-02  0.8416627E-01
       -1   -1    0    0    0  501  0.00000000000E+00  0.00000000000E+00  0.23019640044E+04  0.23019640044E+04  0.50400001928E-02 0.  1.
        1   -1    0    0  501    0  0.00000000000E+00  0.00000000000E+00 -0.65832409528E+03  0.65832409530E+03  0.50400001928E-02 0. -1.
    10030    2    1    2    0    0  0.00000000000E+00  0.00000000000E+00  0.16436399092E+04  0.29602880998E+04  0.24620628511E+04 0.  0.
        3    1    3    3  502    0 -0.49143519142E+03  0.15039348986E+03  0.21668053893E+04  0.22269199255E+04  0.10100000352E+00 0.  1.
       -3    1    3    3    0  502  0.49143519142E+03 -0.15039348986E+03 -0.52316548017E+03  0.73336817425E+03  0.10100000352E+00 0. -1.
</event>
<event>
 5   0  0.9144244E-05  0.2516226E+04  0.7818609E-02  0.8397227E-01
        2   -1    0    0  501    0  0.00000000000E+00  0.00000000000E+00  0.17259514290E+04  0.17259514290E+04  0.25500000920E-02 0.  1.
       -2   -1    0    0    0  501  0.00000000000E+00  0.00000000000E+00 -0.91708776388E+03  0.91708776388E+03  0.25500000920E-02 0. -1.
    10030    2    1    2    0    0  0.00000000000E+00  0.00000000000E+00  0.80886366515E+03  0.26430391929E+04  0.25162264895E+04 0.  0.
        1    1    3    3  502    0 -0.10243971789E+04 -0.66200244364E+03  0.80316188781E+02  0.12223287224E+04  0.50400001928E-02 0. -1.
       -1    1    3    3    0  502  0.10243971789E+04  0.66200244364E+03  0.72854747637E+03  0.14207104705E+04  0.50400001928E-02 0.  1.
</event>
<event>
 5   0  0.4260395E-05  0.2375846E+04  0.7818609E-02  0.8448602E-01
       -1   -1    0    0    0  501  0.00000000000E+00  0.00000000000E+00  0.12465387015E+04  0.12465387015E+04  0.50400001928E-02 0.  1.
        1   -1    0    0  501    0  0.00000000000E+00  0.00000000000E+00 -0.11320640252E+04  0.11320640252E+04  0.50400001928E-02 0. -1.
    10030    2    1    2    0    0  0.00000000000E+00  0.00000000000E+00  0.11447467631E+03  0.23786027266E+04  0.23758464765E+04 0.  0.
        4    1    3    3  502    0 -0.24763109387E+02 -0.53749085377E+03  0.11175459580E+04  0.12403306860E+04  0.12699999809E+01 0.  1.
       -4    1    3    3    0  502  0.24763109387E+02  0.53749085377E+03 -0.10030712817E+04  0.11382720407E+04  0.12699999809E+01 0. -1.
</event>
<event>
 5   0  0.9182865E-05  0.2440514E+04  0.7818609E-02  0.8424489E-01
       -2   -1    0    0    0  501  0.00000000000E+00  0.00000000000E+00  0.10584287066E+04  0.10584287066E+04  0.25500000920E-02 0.  1.
        2   -1    0    0  501    0  0.00000000000E+00  0.00000000000E+00 -0.14068285527E+04  0.14068285527E+04  0.25500000920E-02 0. -1.
    10030    2    1    2    0    0  0.00000000000E+00  0.00000000000E+00 -0.34839984610E+03  0.24652572594E+04  0.24405144749E+04 0.  0.
        3    1    3    3  502    0  0.56738837293E+02  0.15511790200E+03  0.10470848510E+04  0.10600318649E+04  0.10100000352E+00 0.  1.
       -3    1    3    3    0  502 -0.56738837293E+02 -0.15511790200E+03 -0.13954846971E+04  0.14052253945E+04  0.10100000352E+00 0. -1.
</event>
<event>
 5   0  0.4018942E-05  0.1700164E+04  0.7818609E-02  0.8761271E-01
        1   -1    0    0  501    0  0.00000000000E+00  0.00000000000E+00  0.11345949614E+04  0.11345949614E+04  0.50400001928E-02 0.  1.
       -1   -1    0    0    0  501  0.00000000000E+00  0.00000000000E+00 -0.63691368096E+03  0.63691368098E+03  0.50400001928E-02 0. -1.
    10030    2    1    2    0    0  0.00000000000E+00  0.00000000000E+00  0.49768128039E+03  0.17715086423E+04  0.17001635842E+04 0.  0.
        5    1    3    3  502    0  0.31426876298E+03  0.22112278294E+01 -0.57414391902E+03  0.65454799263E+03  0.46999998093E+01 0. -1.
       -5    1    3    3    0  502 -0.31426876298E+03 -0.22112278294E+01  0.10718251994E+04  0.11169606497E+04  0.46999998093E+01 0.  1.
</event>
<event>
 5   0  0.9182865E-05  0.2409916E+04  0.7818609E-02  0.8435801E-01
        2   -1    0    0  501    0  0.00000000000E+00  0.00000000000E+00  0.39420969728E+03  0.39420969728E+03  0.25500000920E-02 0. -1.
       -2   -1    0    0    0  501  0.00000000000E+00  0.00000000000E+00 -0.36831248317E+04  0.36831248317E+04  0.25500000920E-02 0.  1.
    10030    2    1    2    0    0  0.00000000000E+00  0.00000000000E+00 -0.32889151345E+04  0.40773345290E+04  0.24099157869E+04 0.  0.
        3    1    3    3  502    0  0.56271659005E+03 -0.86601552917E+03 -0.26946495958E+04  0.28857874682E+04  0.10100000352E+00 0.  1.
       -3    1    3    3    0  502 -0.56271659005E+03  0.86601552917E+03 -0.59426553871E+03  0.11915470608E+04  0.10100000352E+00 0. -1.
</event>
<event>
 5   0  0.9144244E-05  0.2275265E+04  0.7818609E-02  0.8487738E-01
       -2   -1    0    0    0  501  0.00000000000E+00  0.00000000000E+00  0.58178467679E+03  0.58178467679E+03  0.25500000920E-02 0.  1.
        2   -1    0    0  501    0  0.00000000000E+00  0.00000000000E+00 -0.22245471515E+04  0.22245471515E+04  0.25500000920E-02 0. -1.
    10030    2    1    2    0    0  0.00000000000E+00  0.00000000000E+00 -0.16427624747E+04  0.28063318283E+04  0.22752647719E+04 0.  0.
        1    1    3    3  502    0  0.49949112185E+03 -0.98882603239E+03 -0.11404961878E+04  0.15899685084E+04  0.50400001928E-02 0. -1.
       -1    1    3    3    0  502 -0.49949112185E+03  0.98882603239E+03 -0.50226628692E+03  0.12163633200E+04  0.50400001928E-02 0.  1.
</event>
<event>
 5   0  0.4018942E-05  0.2482470E+04  0.7818609E-02  0.8409257E-01
        1   -1    0    0  501    0  0.00000000000E+00  0.00000000000E+00  0.21985600605E+04  0.21985600605E+04  0.50400001928E-02 0.  1.
       -1   -1    0    0    0  501  0.00000000000E+00  0.00000000000E+00 -0.70076061465E+03  0.70076061467E+03  0.50400001928E-02 0. -1.
    10030    2    1    2    0    0  0.00000000000E+00  0.00000000000E+00  0.14977994459E+04  0.28993206752E+04  0.24824699792E+04 0.  0.
        5    1    3    3  502    0 -0.21942851937E+03 -0.11788429616E+04  0.37439564524E+03  0.12561901896E+04  0.46999998093E+01 0.  1.
       -5    1    3    3    0  502  0.21942851937E+03  0.11788429616E+04  0.11234038006E+04  0.16431304856E+04  0.46999998093E+01 0. -1.
</event>
<event>
 5   0  0.3934906E-05  0.2320170E+04  0.7818609E-02  0.8470011E-01
        1   -1    0    0  501    0  0.00000000000E+00  0.00000000000E+00  0.95489024112E+03  0.95489024113E+03  0.50400001928E-02 0.  1.
       -1   -1    0    0    0  501  0.00000000000E+00  0.00000000000E+00 -0.14093736865E+04  0.14093736865E+04  0.50400001928E-02 0. -1.
    10030    2    1    2    0    0  0.00000000000E+00  0.00000000000E+00 -0.45448344535E+03  0.23642639276E+04  0.23201699760E+04 0.  0.
        2    1    3    3  502    0  0.26962495544E+03  0.11060916331E+04 -0.45432402045E+03  0.12257840890E+04  0.25500000920E-02 0. -1.
       -2    1    3    3    0  502 -0.26962495544E+03 -0.11060916331E+04 -0.15942489843E+00  0.11384798386E+04  0.25500000920E-02 0.  1.
</event>
<event>
 5   0  0.9750757E-05  0.2263961E+04  0.7818609E-02  0.8492268E-01
        2   -1    0    0  501    0  0.00000000000E+00  0.00000000000E+00  0.13754472961E+04  0.13754472961E+04  0.25500000920E-02 0. -1.
       -2   -1    0    0    0  501  0.00000000000E+00  0.00000000000E+00 -0.93160962652E+03  0.93160962653E+03  0.25500000920E-02 0.  1.
    10030    2    1    2    0    0  0.00000000000E+00  0.00000000000E+00  0.44383766955E+03  0.23070569226E+04  0.22639610790E+04 0.  0.
        2    1    3    3  502    0  0.39899480372E+03 -0.10473655506E+04  0.60124695973E+02  0.11224020800E+04  0.25500000920E-02 0. -1.
       -2    1    3    3    0  502 -0.39899480372E+03  0.10473655506E+04  0.38371297358E+03  0.11846548426E+04  0.25500000920E-02 0.  1.
</event>
<event>
 5   0  0.9750757E-05  0.2382441E+04  0.7818609E-02  0.8446107E-01
        2   -1    0    0  501    0  0.00000000000E+00  0.00000000000E+00  0.12168959633E+04  0.12168959633E+04  0.25500000920E-02 0. -1.
       -2   -1    0    0    0  501  0.00000000000E+00  0.00000000000E+00 -0.11660870123E+04  0.11660870124E+04  0.25500000920E-02 0.  1.
    10030    2    1    2    0    0  0.00000000000E+00  0.00000000000E+00  0.50808950938E+02  0.23829829756E+04  0.23824412506E+04 0.  0.
        2    1    3    3  502    0 -0.86034580446E+02  0.10621645094E+04  0.55788929605E+03  0.12028449030E+04  0.25500000920E-02 0. -1.
       -2    1    3    3    0  502  0.86034580446E+02 -0.10621645094E+04 -0.50708034512E+03  0.11801380726E+04  0.25500000920E-02 0.  1.
</event>
<event>
 5   0  0.4061631E-05  0.2337882E+04  0.7818609E-02  0.8463133E-01
       -1   -1    0    0    0  501  0.00000000000E+00  0.00000000000E+00  0.14052148746E+04  0.14052148746E+04  0.50400001928E-02 0. -1.
        1   -1    0    0  501    0  0.00000000000E+00  0.00000000000E+00 -0.97239442152E+03  0.97239442154E+03  0.50400001928E-02 0.  1.
    10030    2    1    2    0    0  0.00000000000E+00  0.00000000000E+00  0.43282045311E+03  0.23776092962E+04  0.23378820374E+04 0.  0.
        3    1    3    3  502    0 -0.79158977105E+03 -0.56397603628E+03  0.87686056819E+03  0.13090331552E+04  0.10100000352E+00 0. -1.
       -3    1    3    3    0  502  0.79158977105E+03  0.56397603628E+03 -0.44404011507E+03  0.10685761410E+04  0.10100000352E+00 0.  1.
</event>
<event>
 5   0  0.3934906E-05  0.1603984E+04  0.7818609E-02  0.8818104E-01
        1   -1    0    0  501    0  0.00000000000E+00  0.00000000000E+00  0.86275323257E+03  0.86275323259E+03  0.50400001928E-02 0.  1.
       -1   -1    0    0    0  501  0.00000000000E+00  0.00000000000E+00 -0.74551013153E+03  0.74551013155E+03  0.50400001928E-02 0. -1.
    10030    2    1    2    0    0  0.00000000000E+00  0.00000000000E+00  0.11724310104E+03  0.16082633641E+04  0.16039841345E+04 0.  0.
        2    1    3    3  502    0 -0.57388495957E+03 -0.46304547038E+03  0.37479791915E+03  0.82718107731E+03  0.25500000920E-02 0.  1.
       -2    1    3    3    0  502  0.57388495957E+03  0.46304547038E+03 -0.25755481811E+03  0.78108228683E+03  0.25500000920E-02 0. -1.
</event>
<event>
 5   0  0.9144244E-05  0.2429725E+04  0.7818609E-02  0.8428458E-01
       -2   -1    0    0    0  501  0.00000000000E+00  0.00000000000E+00  0.98948436480E+03  0.98948436481E+03  0.25500000920E-02 0.  1.
        2   -1    0    0  501    0  0.00000000000E+00  0.00000000000E+00 -0.14915759205E+04  0.14915759205E+04  0.25500000920E-02 0. -1.
    10030    2    1    2    0    0  0.00000000000E+00  0.00000000000E+00 -0.50209155565E+03  0.24810602853E+04  0.24297251303E+04 0.  0.
        1    1    3    3  502    0 -0.72832135099E+01 -0.77454653377E+03  0.70463163202E+03  0.10471299418E+04  0.50400001928E-02 0.  1.
       -1    1    3    3    0  502  0.72832135099E+01  0.77454653377E+03 -0.12067231877E+04  0.14339303435E+04  0.50400001928E-02 0. -1.
</event>
<event>
 5   0  0.4260395E-05  0.2533261E+04  0.7818609E-02  0.8391231E-01
       -1   -1    0    0    0  501  0.00000000000E+00  0.00000000000E+00  0.18199942794E+04  0.18199942794E+04  0.50400001928E-02 0.  1.
        1   -1    0    0  501    0  0.00000000000E+00  0.00000000000E+00 -0.88151527174E+03  0.88151527175E+03  0.50400001928E-02 0. -1.
    10030    2    1    2    0    0  0.00000000000E+00  0.00000000000E+00  0.93847900768E+03  0.27015095512E+04  0.25332609434E+04 0.  0.
        4    1    3    3  502    0  0.12528172170E+04 -0.17696534391E+03  0.53217996570E+03  0.13726197000E+04  0.12699999809E+01 0.  1.
       -4    1    3    3    0  502 -0.12528172170E+04  0.17696534391E+03  0.40629904198E+03  0.13288898512E+04  0.12699999809E+01 0. -1.
</event>
<event>
 5   0  0.9144244E-05  0.2531415E+04  0.7818609E-02  0.8391879E-01
       -2   -1    0    0    0  501  0.00000000000E+00  0.00000000000E+00  0.13408892049E+04  0.13408892049E+04  0.25500000920E-02 0. -1.
        2   -1    0    0  501    0  0.00000000000E+00  0.00000000000E+00 -0.11947407009E+04  0.11947407009E+04  0.25500000920E-02 0.  1.
    10030    2    1    2    0    0  0.00000000000E+00  0.00000000000E+00  0.14614850394E+03  0.25356299058E+04  0.25314145520E+04 0.  0.
        1    1    3    3  502    0 -0.68647068673E+03  0.38713523807E+03  0.10651270488E+04  0.13249948402E+04  0.50400001928E-02 0. -1.
       -1    1    3    3    0  502  0.68647068673E+03 -0.38713523807E+03 -0.91897854487E+03  0.12106350657E+04  0.50400001928E-02 0.  1.
</event>
<event>
 5   0  0.4208577E-05  0.2227682E+04  0.7818609E-02  0.8506994E-01
        1   -1    0    0  501    0  0.00000000000E+00  0.00000000000E+00  0.79430636980E+03  0.79430636982E+03  0.50400001928E-02 0.  1.
       -1   -1    0    0    0  501  0.00000000000E+00  0.00000000000E+00 -0.15619190005E+04  0.15619190005E+04  0.50400001928E-02 0. -1.
    10030    2    1    2    0    0  0.00000000000E+00  0.00000000000E+00 -0.76761263074E+03  0.23562253704E+04  0.22276823932E+04 0.  0.
        1    1    3    3  502    0  0.39656784876E+03  0.45138803854E+03 -0.13758078303E+04  0.15012875827E+04  0.50400001928E-02 0. -1.
       -1    1    3    3    0  502 -0.39656784876E+03 -0.45138803854E+03  0.60819519955E+03  0.85493778767E+03  0.50400001928E-02 0.  1.
</event>
<event>
 5   0  0.9519092E-05  0.2375050E+04  0.7818609E-02  0.8448904E-01
       -2   -1    0    0    0  501  0.00000000000E+00  0.00000000000E+00  0.99066372529E+03  0.99066372530E+03  0.25500000920E-02 0. -1.
        2   -1    0    0  501    0  0.00000000000E+00  0.00000000000E+00 -0.14235061592E+04  0.14235061592E+04  0.25500000920E-02 0.  1.
    10030    2    1    2    0    0  0.00000000000E+00  0.00000000000E+00 -0.43284243388E+03  0.24141698845E+04  0.23750502434E+04 0.  0.
        4    1    3    3  502    0 -0.98685500524E+03 -0.53788787768E+03 -0.60615289310E+03  0.12769608894E+04  0.12699999809E+01 0.  1.
       -4    1    3    3    0  502  0.98685500524E+03  0.53788787768E+03  0.17331045922E+03  0.11372089951E+04  0.12699999809E+01 0. -1.
</event>
<event>
 5   0  0.3234750E-05  0.2264859E+04  0.7818609E-02  0.8491907E-01
       -3   -1    0    0    0  501  0.00000000000E+00  0.00000000000E+00  0.10794671671E+04  0.10794671718E+04  0.10100000352E+00 0.  1.
        3   -1    0    0  501    0  0.00000000000E+00  0.00000000000E+00 -0.11879898676E+04  0.11879898719E+04  0.10100000352E+00 0. -1.
    10030    2    1    2    0    0  0.00000000000E+00  0.00000000000E+00 -0.10852270053E+03  0.22674570437E+04  0.22648585538E+04 0.  0.
        3    1    3    3  502    0 -0.81706985879E+03  0.50838434062E+02  0.72907379203E+03  0.10962373397E+04  0.10100000352E+00 0.  1.
       -3    1    3    3    0  502  0.81706985879E+03 -0.50838434062E+02 -0.83759649256E+03  0.11712197040E+04  0.10100000352E+00 0. -1.
</event>
<event>
 5   0  0.9182865E-05  0.2401854E+04  0.7818609E-02  0.8438810E-01
       -2   -1    0    0    0  501  0.00000000000E+00  0.00000000000E+00  0.66868007048E+03  0.66868007048E+03  0.25500000920E-02 0. -1.
        2   -1    0    0  501    0  0.00000000000E+00  0.00000000000E+00 -0.21568250127E+04  0.21568250127E+04  0.25500000920E-02 0.  1.
    10030    2    1    2    0    0  0.00000000000E+00  0.00000000000E+00 -0.14881449423E+04  0.28255050832E+04  0.24018542017E+04 0.  0.
        3    1    3    3  502    0 -0.24015725545E+03 -0.11201127574E+04 -0.32008761875E+03  0.11894470104E+04  0.10100000352E+00 0. -1.
       -3    1    3    3    0  502  0.24015725545E+03  0.11201127574E+04 -0.11680573235E+04  0.16360580729E+04  0.10100000352E+00 0.  1.
</event>
<event>
 5   0  0.9750757E-05  0.2467330E+04  0.7818609E-02  0.8414718E-01
       -2   -1    0    0    0  501  0.00000000000E+00  0.00000000000E+00  0.70868725967E+03  0.70868725967E+03  0.25500000920E-02 0.  1.
        2   -1    0    0  501    0  0.00000000000E+00  0.00000000000E+00 -0.21475338238E+04  0.21475338238E+04  0.25500000920E-02 0. -1.
    10030    2    1    2    0    0  0.00000000000E+00  0.00000000000E+00 -0.14388465642E+04  0.28562210835E+04  0.24673304284E+04 0.  0.
        2    1    3    3  502    0  0.10893683752E+04  0.32916953880E+03 -0.16806036584E+03  0.11503566094E+04  0.25500000920E-02 0. -1.
       -2    1    3    3    0  502 -0.10893683752E+04 -0.32916953880E+03 -0.12707861983E+04  0.17058644741E+04  0.25500000920E-02 0.  1.
</event>
<event>
 5   0  0.9144244E-05  0.2113915E+04  0.7818609E-02  0.8555138E-01
        2   -1    0    0  501    0  0.00000000000E+00  0.00000000000E+00  0.16099688029E+04  0.16099688029E+04  0.25500000920E-02 0. -1.
       -2   -1    0    0    0  501  0.00000000000E+00  0.00000000000E+00 -0.69390112234E+03  0.69390112234E+03  0.25500000920E-02 0.  1.
    10030    2    1    2    0    0  0.00000000000E+00  0.00000000000E+00  0.91606768058E+03  0.23038699253E+04  0.21139150023E+04 0.  0.
        1    1    3    3  502    0  0.56288455703E+03 -0.37454199898E+03  0.13434654955E+04  0.15040014199E+04  0.50400001928E-02 0. -1.
       -1    1    3    3    0  502 -0.56288455703E+03  0.37454199898E+03 -0.42739781493E+03  0.79986850531E+03  0.50400001928E-02 0.  1.
</event>
<event>
 5   0  0.4260395E-05  0.2390268E+04  0.7818609E-02  0.8443156E-01
       -1   -1    0    0    0  501  0.00000000000E+00  0.00000000000E+00  0.17830043122E+04  0.17830043122E+04  0.50400001928E-02 0. -1.
        1   -1    0    0  501    0  0.00000000000E+00  0.00000000000E+00 -0.80108905939E+03  0.80108905940E+03  0.50400001928E-02 0.  1.
    10030    2    1    2    0    0  0.00000000000E+00  0.00000000000E+00  0.98191525284E+03  0.25840933716E+04  0.23902679744E+04 0.  0.
        4    1    3    3  502    0  0.72936107270E+02 -0.59915782594E+02 -0.79705232975E+03  0.80262295382E+03  0.12699999809E+01 0.  1.
       -4    1    3    3    0  502 -0.72936107270E+02  0.59915782594E+02  0.17789675826E+04  0.17814704178E+04  0.12699999809E+01 0. -1.
</event>
<event>
 5   0  0.9750757E-05  0.2140833E+04  0.7818609E-02  0.8543466E-01
        2   -1    0    0  501    0  0.00000000000E+00  0.00000000000E+00  0.15246046911E+04  0.15246046911E+04  0.25500000920E-02 0.  1.
       -2   -1    0    0    0  501  0.00000000000E+00  0.00000000000E+00 -0.75153374007E+03  0.75153374007E+03  0.25500000920E-02 0. -1.
    10030    2    1    2    0    0  0.00000000000E+00  0.00000000000E+00  0.77307095100E+03  0.22761384311E+04  0.21408333570E+04 0.  0.
        2    1    3    3  502    0  0.67547567127E+03 -0.45638556466E+03  0.11240917779E+04  0.13885739056E+04  0.25500000920E-02 0.  1.
       -2    1    3    3    0  502 -0.67547567127E+03  0.45638556466E+03 -0.35102082690E+03  0.88756452556E+03  0.25500000920E-02 0. -1.
</event>
<event>
 5   0  0.4018942E-05  0.2584312E+04  0.7818609E-02  0.8373550E-01
       -1   -1    0    0    0  501  0.00000000000E+00  0.00000000000E+00  0.14193394464E+04  0.14193394464E+04  0.50400001928E-02 0. -1.
        1   -1    0    0  501    0  0.00000000000E+00  0.00000000000E+00 -0.11763691810E+04  0.11763691810E+04  0.50400001928E-02 0.  1.
    10030    2    1    2    0    0  0.00000000000E+00  0.00000000000E+00  0.24297026537E+03  0.25957086274E+04  0.25843120417E+04 0.  0.
        5    1    3    3  502    0  0.11154024799E+04 -0.41532502230E+03 -0.38375154884E+03  0.12505618367E+04  0.46999998093E+01 0.  1.
       -5    1    3    3    0  502 -0.11154024799E+04  0.41532502230E+03  0.62672181422E+03  0.13451467907E+04  0.46999998093E+01 0. -1.
</event>
<event>
 5   0  0.4260395E-05  0.1667274E+04  0.7818609E-02  0.8780253E-01
       -1   -1    0    0    0  501  0.00000000000E+00  0.00000000000E+00  0.65279440905E+03  0.65279440906E+03  0.50400001928E-02 0.  1.
        1   -1    0    0  501    0  0.00000000000E+00  0.00000000000E+00 -0.10645779768E+04  0.10645779768E+04  0.50400001928E-02 0. -1.
    10030    2    1    2    0    0  0.00000000000E+00  0.00000000000E+00 -0.41178356777E+03  0.17173723859E+04  0.16672738843E+04 0.  0.
        4    1    3    3  502    0 -0.41890912917E+03  0.59629162375E+03  0.21111921250E+03  0.75869723464E+03  0.12699999809E+01 0.  1.
       -4    1    3    3    0  502  0.41890912917E+03 -0.59629162375E+03 -0.62290278027E+03  0.95867515125E+03  0.12699999809E+01 0. -1.
</event>
<event>
 5   0  0.3934906E-05  0.2270752E+04  0.7818609E-02  0.8489543E-01
       -1   -1    0    0    0  501  0.00000000000E+00  0.00000000000E+00  0.10559147409E+04  0.10559147409E+04  0.50400001928E-02 0. -1.
        1   -1    0    0  501    0  0.00000000000E+00  0.00000000000E+00 -0.12208165522E+04  0.12208165522E+04  0.50400001928E-02 0.  1.
    10030    2    1    2    0    0  0.00000000000E+00  0.00000000000E+00 -0.16490181130E+03  0.22767312931E+04  0.22707515878E+04 0.  0.
        2    1    3    3  502    0 -0.82245995459E+03  0.25987308203E+03  0.65780478418E+03  0.10847495240E+04  0.25500000920E-02 0. -1.
       -2    1    3    3    0  502  0.82245995459E+03 -0.25987308203E+03 -0.82270659548E+03  0.11919817691E+04  0.25500000920E-02 0.  1.
</event>
<event>
 5   0  0.4018942E-05  0.2348971E+04  0.7818609E-02  0.8458859E-01
       -1   -1    0    0    0  501  0.00000000000E+00  0.00000000000E+00  0.14659426270E+04  0.14659426270E+04  0.50400001928E-02 0. -1.
        1   -1    0    0  501    0  0.00000000000E+00  0.00000000000E+00 -0.94097567115E+03  0.94097567117E+03  0.50400001928E-02 0.  1.
    10030    2    1    2    0    0  0.00000000000E+00  0.00000000000E+00  0.52496695587E+03  0.24069182982E+04  0.23489711342E+04 0.  0.
        5    1    3    3  502    0 -0.88804729654E+03 -0.98528845216E+02  0.10435599067E+04  0.13738177838E+04  0.46999998093E+01 0. -1.
       -5    1    3    3    0  502  0.88804729654E+03  0.98528845216E+02 -0.51859295081E+03  0.10331005144E+04  0.46999998093E+01 0.  1.
</event>
<event>
 5   0  0.9182865E-05  0.2409335E+04  0.7818609E-02  0.8436017E-01
        2   -1    0    0  501    0  0.00000000000E+00  0.00000000000E+00  0.27483767167E+04  0.27483767167E+04  0.25500000920E-02 0.  1.
       -2   -1    0    0    0  501  0.00000000000E+00  0.00000000000E+00 -0.52802921866E+03  0.52802921867E+03  0.25500000920E-02 0. -1.
    10030    2    1    2    0    0  0.00000000000E+00  0.00000000000E+00  0.22203474980E+04  0.32764059353E+04  0.24093345225E+04 0.  0.
        3    1    3    3  502    0  0.60712464408E+03 -0.59288228839E+03  0.22729415311E+04  0.24261848559E+04  0.10100000352E+00 0.  1.
       -3    1    3    3    0  502 -0.60712464408E+03  0.59288228839E+03 -0.52594033065E+02  0.85022107940E+03  0.10100000352E+00 0. -1.
</event>
<event>
 5   0  0.9519092E-05  0.2400958E+04  0.7818609E-02  0.8439145E-01
       -2   -1    0    0    0  501  0.00000000000E+00  0.00000000000E+00  0.10721987547E+04  0.10721987547E+04  0.25500000920E-02 0. -1.
        2   -1    0    0  501    0  0.00000000000E+00  0.00000000000E+00 -0.13441072418E+04  0.13441072418E+04  0.25500000920E-02 0.  1.
    10030    2    1    2    0    0  0.00000000000E+00  0.00000000000E+00 -0.27190848704E+03  0.24163059965E+04  0.24009582344E+04 0.  0.
        4    1    3    3  502    0  0.28828267058E+03  0.71918862634E+03  0.78686381513E+03  0.11043076813E+04  0.12699999809E+01 0. -1.
       -4    1    3    3    0  502 -0.28828267058E+03 -0.71918862634E+03 -0.10587723022E+04  0.13119983152E+04  0.12699999809E+01 0.  1.
</event>
<event>
 5   0  0.9491680E-05  0.2215479E+04  0.7818609E-02  0.8512013E-01
       -2   -1    0    0    0  501  0.00000000000E+00  0.00000000000E+00  0.56134342008E+03  0.56134342009E+03  0.25500000920E-02 0.  1.
        2   -1    0    0  501    0  0.00000000000E+00  0.00000000000E+00 -0.21859822743E+04  0.21859822743E+04  0.25500000920E-02 0. -1.
    10030    2    1    2    0    0  0.00000000000E+00  0.00000000000E+00 -0.16246388543E+04  0.27473256944E+04  0.22154789696E+04 0.  0.
        5    1    3    3  502    0  0.74342881788E+03 -0.73069431403E+03 -0.34756325246E+03  0.10988279630E+04  0.46999998093E+01 0. -1.
       -5    1    3    3    0  502 -0.74342881788E+03  0.73069431403E+03 -0.12770756018E+04  0.16484977314E+04  0.46999998093E+01 0.  1.
</event>
<event>
 5   0  0.3934906E-05  0.2394296E+04  0.7818609E-02  0.8441642E-01
       -1   -1    0    0    0  501  0.00000000000E+00  0.00000000000E+00  0.52726035446E+03  0.52726035449E+03  0.50400001928E-02 0. -1.
        1   -1    0    0  501    0  0.00000000000E+00  0.00000000000E+00 -0.27181331669E+04  0.27181331669E+04  0.50400001928E-02 0.  1.
    10030    2    1    2    0    0  0.00000000000E+00  0.00000000000E+00 -0.21908728124E+04  0.32453935214E+04  0.23942964370E+04 0.  0.
        2    1    3    3  502    0  0.98468908671E+03 -0.46468774133E+02 -0.17472306843E+03  0.10011493870E+04  0.25500000920E-02 0. -1.
       -2    1    3    3    0  502 -0.98468908671E+03  0.46468774133E+02 -0.20161497440E+04  0.22442441344E+04  0.25500000920E-02 0.  1.
</event>
<event>
 5   0  0.3934906E-05  0.1726739E+04  0.7818609E-02  0.8746259E-01
       -1   -1    0    0    0  501  0.00000000000E+00  0.00000000000E+00  0.54795598627E+03  0.54795598629E+03  0.50400001928E-02 0.  1.
        1   -1    0    0  501    0  0.00000000000E+00  0.00000000000E+00 -0.13603405203E+04  0.13603405203E+04  0.50400001928E-02 0. -1.
    10030    2    1    2    0    0  0.00000000000E+00  0.00000000000E+00 -0.81238453404E+03  0.19082965066E+04  0.17267388123E+04 0.  0.
        2    1    3    3  502    0  0.17800855101E+02 -0.60145641369E+02 -0.13578191200E+04  0.13592671302E+04  0.25500000920E-02 0. -1.
       -2    1    3    3    0  502 -0.17800855101E+02  0.60145641369E+02  0.54543458594E+03  0.54902937641E+03  0.25500000920E-02 0.  1.
</event>
<event>
 5   0  0.3234750E-05  0.2274495E+04  0.7818609E-02  0.8488046E-01
       -3   -1    0    0    0  501  0.00000000000E+00  0.00000000000E+00  0.50459323225E+03  0.50459324236E+03  0.10100000352E+00 0.  1.
        3   -1    0    0  501    0  0.00000000000E+00  0.00000000000E+00 -0.25631183940E+04  0.25631183960E+04  0.10100000352E+00 0. -1.
    10030    2    1    2    0    0  0.00000000000E+00  0.00000000000E+00 -0.20585251618E+04  0.30677116384E+04  0.22744952967E+04 0.  0.
        3    1    3    3  502    0 -0.44586021497E+03 -0.66401316809E+03  0.61159432804E+02  0.80215042548E+03  0.10100000352E+00 0.  1.
       -3    1    3    3    0  502  0.44586021497E+03  0.66401316809E+03 -0.21196845946E+04  0.22655612129E+04  0.10100000352E+00 0. -1.
</event>
<event>
 5   0  0.4260395E-05  0.1308332E+04  0.7818609E-02  0.9022983E-01
       -1   -1    0    0    0  501  0.00000000000E+00  0.00000000000E+00  0.27801960834E+03  0.27801960838E+03  0.50400001928E-02 0. -1.
        1   -1    0    0  501    0  0.00000000000E+00  0.00000000000E+00 -0.15392203896E+04  0.15392203896E+04  0.50400001928E-02 0.  1.
    10030    2    1    2    0    0  0.00000000000E+00  0.00000000000E+00 -0.12612007813E+04  0.18172399980E+04  0.13083324500E+04 0.  0.
        4    1    3    3  502    0 -0.51612947151E+03 -0.39236724172E+03 -0.50959089604E+03  0.82463699769E+03  0.12699999809E+01 0.  1.
       -4    1    3    3    0  502  0.51612947151E+03  0.39236724172E+03 -0.75160988523E+03  0.99260300030E+03  0.12699999809E+01 0. -1.
</event>
<event>
 5   0  0.4061631E-05  0.2340263E+04  0.7818609E-02  0.8462213E-01
       -1   -1    0    0    0  501  0.00000000000E+00  0.00000000000E+00  0.47348874836E+03  0.47348874838E+03  0.50400001928E-02 0. -1.
        1   -1    0    0  501    0  0.00000000000E+00  0.00000000000E+00 -0.28917417243E+04  0.28917417243E+04  0.50400001928E-02 0.  1.
    10030    2    1    2    0    0  0.00000000000E+00  0.00000000000E+00 -0.24182529760E+04  0.33652304727E+04  0.23402625234E+04 0.  0.
        3    1    3    3  502    0 -0.76750048214E+03  0.28808849459E+03 -0.84805195732E+01  0.81983162919E+03  0.10100000352E+00 0. -1.
       -3    1    3    3    0  502  0.76750048214E+03 -0.28808849459E+03 -0.24097724564E+04  0.25453988435E+04  0.10100000352E+00 0.  1.
</event>
<event>
 5   0  0.9519092E-05  0.2347406E+04  0.7818609E-02  0.8459461E-01
       -2   -1    0    0    0  501  0.00000000000E+00  0.00000000000E+00  0.15736471267E+04  0.15736471267E+04  0.25500000920E-02 0. -1.
        2   -1    0    0  501    0  0.00000000000E+00  0.00000000000E+00 -0.87540493968E+03  0.87540493968E+03  0.25500000920E-02 0.  1.
    10030    2    1    2    0    0  0.00000000000E+00  0.00000000000E+00  0.69824218702E+03  0.24490520664E+04  0.23474057749E+04 0.  0.
        4    1    3    3  502    0 -0.64770083089E+03  0.29949186286E+03  0.13213332185E+04  0.15017106344E+04  0.12699999809E+01 0. -1.
       -4    1    3    3    0  502  0.64770083089E+03 -0.29949186286E+03 -0.62309103151E+03  0.94734143196E+03  0.12699999809E+01 0.  1.
</event>
<event>
 5   0  0.9491680E-05  0.1953438E+04  0.7818609E-02  0.8628705E-01
        2   -1    0    0  501    0  0.00000000000E+00  0.00000000000E+00  0.12623158014E+04  0.12623158014E+04  0.25500000920E-02 0. -1.
       -2   -1    0    0    0  501  0.00000000000E+00  0.00000000000E+00 -0.75573795838E+03  0.75573795838E+03  0.25500000920E-02 0.  1.
    10030    2    1    2    0    0  0.00000000000E+00  0.00000000000E+00  0.50657784304E+03  0.20180537598E+04  0.19534379607E+04 0.  0.
        5    1    3    3  502    0  0.22872114103E+03 -0.54609662945E+03 -0.54920921713E+03  0.80758141585E+03  0.46999998093E+01 0.  1.
       -5    1    3    3    0  502 -0.22872114103E+03  0.54609662945E+03  0.10557870602E+04  0.12104723439E+04  0.46999998093E+01 0. -1.
</event>
<event>
 5   0  0.4018942E-05  0.2615279E+04  0.7818609E-02  0.8363030E-01
        1   -1    0    0  501    0  0.00000000000E+00  0.00000000000E+00  0.25112686281E+04  0.25112686282E+04  0.50400001928E-02 0.  1.
       -1   -1    0    0    0  501  0.00000000000E+00  0.00000000000E+00 -0.68089922442E+03  0.68089922443E+03  0.50400001928E-02 0. -1.
    10030    2    1    2    0    0  0.00000000000E+00  0.00000000000E+00  0.18303694037E+04  0.31921678526E+04  0.26152788465E+04 0.  0.
        5    1    3    3  502    0 -0.11821335025E+04  0.40162359169E+03  0.44063382996E+03  0.13239793765E+04  0.46999998093E+01 0. -1.
       -5    1    3    3    0  502  0.11821335025E+04 -0.40162359169E+03  0.13897355738E+04  0.18681884761E+04  0.46999998093E+01 0.  1.
</event>
<event>
 5   0  0.9144244E-05  0.2386439E+04  0.7818609E-02  0.8444598E-01
        2   -1    0    0  501    0  0.00000000000E+00  0.00000000000E+00  0.98212385981E+03  0.98212385981E+03  0.25500000920E-02 0. -1.
       -2   -1    0    0    0  501  0.00000000000E+00  0.00000000000E+00 -0.14496872573E+04  0.14496872573E+04  0.25500000920E-02 0.  1.
    10030    2    1    2    0    0  0.00000000000E+00  0.00000000000E+00 -0.46756339747E+03  0.24318111171E+04  0.23864387230E+04 0.  0.
        1    1    3    3  502    0  0.75697730182E+02 -0.11118053234E+04  0.20086178153E+03  0.11323368221E+04  0.50400001928E-02 0.  1.
       -1    1    3    3    0  502 -0.75697730182E+02  0.11118053234E+04 -0.66842517900E+03  0.12994742950E+04  0.50400001928E-02 0. -1.
</event>
<event>
 5   0  0.9750757E-05  0.2387815E+04  0.7818609E-02  0.8444080E-01
        2   -1    0    0  501    0  0.00000000000E+00  0.00000000000E+00  0.10693904396E+04  0.10693904396E+04  0.25500000920E-02 0.  1.
       -2   -1    0    0    0  501  0.00000000000E+00  0.00000000000E+00 -0.13329224663E+04  0.13329224663E+04  0.25500000920E-02 0. -1.
    10030    2    1    2    0    0  0.00000000000E+00  0.00000000000E+00 -0.26353202669E+03  0.24023129059E+04  0.23878145172E+04 0.  0.
        2    1    3    3  502    0 -0.25953894072E+03  0.67321241338E+03 -0.10887720388E+04  0.13061393371E+04  0.25500000920E-02 0. -1.
       -2    1    3    3    0  502  0.25953894072E+03 -0.67321241338E+03  0.82524001214E+03  0.10961735688E+04  0.25500000920E-02 0.  1.
</event>
<event>
 5   0  0.9750757E-05  0.2378243E+04  0.7818609E-02  0.8447694E-01
        2   -1    0    0  501    0  0.00000000000E+00  0.00000000000E+00  0.18783646126E+04  0.18783646126E+04  0.25500000920E-02 0. -1.
       -2   -1    0    0    0  501  0.00000000000E+00  0.00000000000E+00 -0.75278805321E+03  0.75278805321E+03  0.25500000920E-02 0.  1.
    10030    2    1    2    0    0  0.00000000000E+00  0.00000000000E+00  0.11255765594E+04  0.26311526658E+04  0.23782434190E+04 0.  0.
        2    1    3    3  502    0 -0.80095273545E+03  0.53770560223E+03 -0.20638489210E+03  0.98653298110E+03  0.25500000920E-02 0.  1.
       -2    1    3    3    0  502  0.80095273545E+03 -0.53770560223E+03  0.13319614515E+04  0.16446196847E+04  0.25500000920E-02 0. -1.
</event>
<event>
 5   0  0.4260395E-05  0.2449797E+04  0.7818609E-02  0.8421092E-01
        1   -1    0    0  501    0  0.00000000000E+00  0.00000000000E+00  0.21911862209E+04  0.21911862209E+04  0.50400001928E-02 0.  1.
       -1   -1    0    0    0  501  0.00000000000E+00  0.00000000000E+00 -0.68473231955E+03  0.68473231957E+03  0.50400001928E-02 0. -1.
    10030    2    1    2    0    0  0.00000000000E+00  0.00000000000E+00  0.15064539014E+04  0.28759185405E+04  0.24497967456E+04 0.  0.
        4    1    3    3  502    0  0.24390865817E+03 -0.82374187361E+03 -0.27176083158E+03  0.90105364455E+03  0.12699999809E+01 0. -1.
       -4    1    3    3    0  502 -0.24390865817E+03  0.82374187361E+03  0.17782147329E+04  0.19748648959E+04  0.12699999809E+01 0.  1.
</event>
<event>
 5   0  0.4208577E-05  0.2429162E+04  0.7818609E-02  0.8428666E-01
        1   -1    0    0  501    0  0.00000000000E+00  0.00000000000E+00  0.91669301395E+03  0.91669301396E+03  0.50400001928E-02 0.  1.
       -1   -1    0    0    0  501  0.00000000000E+00  0.00000000000E+00 -0.16092711345E+04  0.16092711345E+04  0.50400001928E-02 0. -1.
    10030    2    1    2    0    0  0.00000000000E+00  0.00000000000E+00 -0.69257812051E+03  0.25259641484E+04  0.24291624948E+04 0.  0.
        1    1    3    3  502    0 -0.56053264663E+03 -0.58544973475E+03 -0.12869131733E+04  0.15208858456E+04  0.50400001928E-02 0. -1.
       -1    1    3    3    0  502  0.56053264663E+03  0.58544973475E+03  0.59433505274E+03  0.10050783028E+04  0.50400001928E-02 0.  1.
</event>
<event>
 5   0  0.9491680E-05  0.1791869E+04  0.7818609E-02  0.8710636E-01
        2   -1    0    0  501    0  0.00000000000E+00  0.00000000000E+00  0.66308884257E+03  0.66308884258E+03  0.25500000920E-02 0.  1.
       -2   -1    0    0    0  501  0.00000000000E+00  0.00000000000E+00 -0.12105443883E+04  0.12105443883E+04  0.25500000920E-02 0. -1.
    10030    2    1    2    0    0  0.00000000000E+00  0.00000000000E+00 -0.54745554569E+03  0.18736332308E+04  0.17918688315E+04 0.  0.
        5    1    3    3  502    0 -0.58327384204E+03 -0.40858732887E+03  0.29469967757E+03  0.77072820765E+03  0.46999998093E+01 0.  1.
       -5    1    3    3    0  502  0.58327384204E+03  0.40858732887E+03 -0.84215522326E+03  0.11029050232E+04  0.46999998093E+01 0. -1.
</event>
<event>
 5   0  0.4018942E-05  0.2393380E+04  0.7818609E-02  0.8441986E-01
        1   -1    0    0  501    0  0.00000000000E+00  0.00000000000E+00  0.92530494251E+03  0.92530494252E+03  0.50400001928E-02 0.  1.
       -1   -1    0    0    0  501  0.00000000000E+00  0.00000000000E+00 -0.15476708943E+04  0.15476708943E+04  0.50400001928E-02 0. -1.
    10030    2    1    2    0    0  0.00000000000E+00  0.00000000000E+00 -0.62236595174E+03  0.24729758368E+04  0.23933804778E+04 0.  0.
        5    1    3    3  502    0 -0.21901239006E+03  0.92423173187E+03 -0.10633161204E+04  0.14257748711E+04  0.46999998093E+01 0. -1.
       -5    1    3    3    0  502  0.21901239006E+03 -0.92423173187E+03  0.44095016869E+03  0.10472009656E+04  0.46999998093E+01 0.  1.
</event>
<event>
 5   0  0.9750757E-05  0.2424431E+04  0.7818609E-02  0.8430413E-01
       -2   -1    0    0    0  501  0.00000000000E+00  0.00000000000E+00  0.12510103171E+04  0.12510103171E+04  0.25500000920E-02 0. -1.
        2   -1    0    0  501    0  0.00000000000E+00  0.00000000000E+00 -0.11746236517E+04  0.11746236517E+04  0.25500000920E-02 0.  1.
    10030    2    1    2    0    0  0.00000000000E+00  0.00000000000E+00  0.76386665385E+02  0.24256339689E+04  0.24244309081E+04 0.  0.
        2    1    3    3  502    0  0.35941867833E+03  0.11043077511E+04  0.38591278564E+03  0.12237671648E+04  0.25500000920E-02 0. -1.
       -2    1    3    3    0  502 -0.35941867833E+03 -0.11043077511E+04 -0.30952612026E+03  0.12018668040E+04  0.25500000920E-02 0.  1.
</event>
<event>
 5   0  0.9519092E-05  0.1283139E+04  0.7818609E-02  0.9043044E-01
       -2   -1    0    0    0  501  0.00000000000E+00  0.00000000000E+00  0.72316759957E+03  0.72316759957E+03  0.25500000920E-02 0. -1.
        2   -1    0    0  501    0  0.00000000000E+00  0.00000000000E+00 -0.56917857472E+03  0.56917857473E+03  0.25500000920E-02 0.  1.
    10030    2    1    2    0    0  0.00000000000E+00  0.00000000000E+00  0.15398902485E+03  0.12923461743E+04  0.12831391251E+04 0.  0.
        4    1    3    3  502    0  0.27999481013E+03  0.18998504855E+03 -0.47200245448E+03  0.58075755897E+03  0.12699999809E+01 0.  1.
       -4    1    3    3    0  502 -0.27999481013E+03 -0.18998504855E+03  0.62599147933E+03  0.71158861533E+03  0.12699999809E+01 0. -1.
</event>
<event>
 5   0  0.4260395E-05  0.2346712E+04  0.7818609E-02  0.8459728E-01
       -1   -1    0    0    0  501  0.00000000000E+00  0.00000000000E+00  0.91558870171E+03  0.91558870172E+03  0.50400001928E-02 0.  1.
        1   -1    0    0  501    0  0.00000000000E+00  0.00000000000E+00 -0.15036931057E+04  0.15036931057E+04  0.50400001928E-02 0. -1.
    10030    2    1    2    0    0  0.00000000000E+00  0.00000000000E+00 -0.58810440398E+03  0.24192818074E+04  0.23467120986E+04 0.  0.
        4    1    3    3  502    0 -0.34089948930E+03  0.11227244865E+04 -0.30057814245E+03  0.12112272978E+04  0.12699999809E+01 0. -1.
       -4    1    3    3    0  502  0.34089948930E+03 -0.11227244865E+04 -0.28752626152E+03  0.12080545096E+04  0.12699999809E+01 0.  1.
</event>
<event>
 5   0  0.9491680E-05  0.2453195E+04  0.7818609E-02  0.8419853E-01
        2   -1    0    0  501    0  0.00000000000E+00  0.00000000000E+00  0.10549717917E+04  0.10549717917E+04  0.25500000920E-02 0. -1.
       -2   -1    0    0    0  501  0.00000000000E+00  0.00000000000E+00 -0.14261432975E+04  0.14261432975E+04  0.25500000920E-02 0.  1.
    10030    2    1    2    0    0  0.00000000000E+00  0.00000000000E+00 -0.37117150576E+03  0.24811150892E+04  0.24531946109E+04 0.  0.
        5    1    3    3  502    0  0.12364871657E+03  0.57410772597E+03 -0.12747030653E+04  0.14034880409E+04  0.46999998093E+01 0.  1.
       -5    1    3    3    0  502 -0.12364871657E+03 -0.57410772597E+03  0.90353155957E+03  0.10776270483E+04  0.46999998093E+01 0. -1.
</event>
<event>
 5   0  0.9182865E-05  0.2407692E+04  0.7818609E-02  0.8436629E-01
        2   -1    0    0  501    0  0.00000000000E+00  0.00000000000E+00  0.12597038978E+04  0.12597038978E+04  0.25500000920E-02 0.  1.
       -2   -1    0    0    0  501  0.00000000000E+00  0.00000000000E+00 -0.11504648219E+04  0.11504648219E+04  0.25500000920E-02 0. -1.
    10030    2    1    2    0    0  0.00000000000E+00  0.00000000000E+00  0.10923907590E+03  0.24101687196E+04  0.24076918577E+04 0.  0.
        3    1    3    3  502    0 -0.24474440505E+03 -0.83494548682E+03  0.88746775233E+03  0.12428325758E+04  0.10100000352E+00 0.  1.
       -3    1    3    3    0  502  0.24474440505E+03  0.83494548682E+03 -0.77822867643E+03  0.11673361439E+04  0.10100000352E+00 0. -1.
</event>
<event>
 5   0  0.9519092E-05  0.1331206E+04  0.7818609E-02  0.9005178E-01
       -2   -1    0    0    0  501  0.00000000000E+00  0.00000000000E+00  0.35425733443E+03  0.35425733444E+03  0.25500000920E-02 0.  1.
        2   -1    0    0  501    0  0.00000000000E+00  0.00000000000E+00 -0.12505815079E+04  0.12505815079E+04  0.25500000920E-02 0. -1.
    10030    2    1    2    0    0  0.00000000000E+00  0.00000000000E+00 -0.89632417346E+03  0.16048388423E+04  0.13312064776E+04 0.  0.
        4    1    3    3  502    0 -0.49417365241E+03 -0.13175120119E+03  0.65380607163E+02  0.51559888910E+03  0.12699999809E+01 0.  1.
       -4    1    3    3    0  502  0.49417365241E+03  0.13175120119E+03 -0.96170478062E+03  0.10892399532E+04  0.12699999809E+01 0. -1.
</event>
<event>
 5   0  0.3934906E-05  0.2367397E+04  0.7818609E-02  0.8451812E-01
       -1   -1    0    0    0  501  0.00000000000E+00  0.00000000000E+00  0.88406964279E+03  0.88406964280E+03  0.50400001928E-02 0.  1.
        1   -1    0    0  501    0  0.00000000000E+00  0.00000000000E+00 -0.15848770062E+04  0.15848770062E+04  0.50400001928E-02 0. -1.
    10030    2    1    2    0    0  0.00000000000E+00  0.00000000000E+00 -0.70080736344E+03  0.24689466490E+04  0.23673965859E+04 0.  0.
        2    1    3    3  502    0 -0.79272289331E+03  0.86093925338E+03 -0.16526211797E+03  0.11819211273E+04  0.25500000920E-02 0.  1.
       -2    1    3    3    0  502  0.79272289331E+03 -0.86093925338E+03 -0.53554524547E+03  0.12870255217E+04  0.25500000920E-02 0. -1.
</event>
<event>
 5   0  0.9491680E-05  0.2376105E+04  0.7818609E-02  0.8448504E-01
        2   -1    0    0  501    0  0.00000000000E+00  0.00000000000E+00  0.15968066470E+04  0.15968066470E+04  0.25500000920E-02 0.  1.
       -2   -1    0    0    0  501  0.00000000000E+00  0.00000000000E+00 -0.88393250529E+03  0.88393250530E+03  0.25500000920E-02 0. -1.
    10030    2    1    2    0    0  0.00000000000E+00  0.00000000000E+00  0.71287414167E+03  0.24807391523E+04  0.23761054690E+04 0.  0.
        5    1    3    3  502    0  0.94622189161E+03 -0.68388865693E+03  0.58614308821E+03  0.13063787250E+04  0.46999998093E+01 0.  1.
       -5    1    3    3    0  502 -0.94622189161E+03  0.68388865693E+03  0.12673105345E+03  0.11743604273E+04  0.46999998093E+01 0. -1.
</event>
<event>
 5   0  0.4018942E-05  0.2370643E+04  0.7818609E-02  0.8450577E-01
       -1   -1    0    0    0  501  0.00000000000E+00  0.00000000000E+00  0.86561680081E+03  0.86561680082E+03  0.50400001928E-02 0.  1.
        1   -1    0    0  501    0  0.00000000000E+00  0.00000000000E+00 -0.16231053892E+04  0.16231053892E+04  0.50400001928E-02 0. -1.
    10030    2    1    2    0    0  0.00000000000E+00  0.00000000000E+00 -0.75748858837E+03  0.24887221900E+04  0.23706431991E+04 0.  0.
        5    1    3    3  502    0  0.44129007964E+03  0.30050446921E+03 -0.14897205074E+04  0.15825072356E+04  0.46999998093E+01 0. -1.
       -5    1    3    3    0  502 -0.44129007964E+03 -0.30050446921E+03  0.73223191904E+03  0.90621495445E+03  0.46999998093E+01 0.  1.
</event>
<event>
 5   0  0.9519092E-05  0.2404065E+04  0.7818609E-02  0.8437983E-01
        2   -1    0    0  501    0  0.00000000000E+00  0.00000000000E+00  0.96166582358E+03  0.96166582358E+03  0.25500000920E-02 0.  1.
       -2   -1    0    0    0  501  0.00000000000E+00  0.00000000000E+00 -0.15024780775E+04  0.15024780775E+04  0.25500000920E-02 0. -1.
    10030    2    1    2    0    0  0.00000000000E+00  0.00000000000E+00 -0.54081225389E+03  0.24641439011E+04  0.24040647394E+04 0.  0.
        4    1    3    3  502    0 -0.11194552227E+03  0.11106200065E+04 -0.72750094516E+03  0.13323917731E+04  0.12699999809E+01 0. -1.
       -4    1    3    3    0  502  0.11194552227E+03 -0.11106200065E+04  0.18668869127E+03  0.11317521280E+04  0.12699999809E+01 0.  1.
</event>
<event>
 5   0  0.4208577E-05  0.2357073E+04  0.7818609E-02  0.8455752E-01
       -1   -1    0    0    0  501  0.00000000000E+00  0.00000000000E+00  0.73970474705E+03  0.73970474707E+03  0.50400001928E-02 0.  1.
        1   -1    0    0  501    0  0.00000000000E+00  0.00000000000E+00 -0.18777058686E+04  0.18777058686E+04  0.50400001928E-02 0. -1.
    10030    2    1    2    0    0  0.00000000000E+00  0.00000000000E+00 -0.11380011216E+04  0.26174106157E+04  0.23570727139E+04 0.  0.
        1    1    3    3  502    0  0.45216853800E+02 -0.47107876341E+03 -0.17675601711E+04  0.18298165819E+04  0.50400001928E-02 0. -1.
       -1    1    3    3    0  502 -0.45216853800E+02  0.47107876341E+03  0.62955904949E+03  0.78759403376E+03  0.50400001928E-02 0.  1.
</event>
<event>
 5   0  0.9491680E-05  0.2404681E+04  0.7818609E-02  0.8437753E-01
       -2   -1    0    0    0  501  0.00000000000E+00  0.00000000000E+00  0.11766686342E+04  0.11766686342E+04  0.25500000920E-02 0.  1.
        2   -1    0    0  501    0  0.00000000000E+00  0.00000000000E+00 -0.12285721404E+04  0.12285721404E+04  0.25500000920E-02 0. -1.
    10030    2    1    2    0    0  0.00000000000E+00  0.00000000000E+00 -0.51903506245E+02  0.24052407746E+04  0.24046806877E+04 0.  0.
        5    1    3    3  502    0  0.30297188494E+03  0.11256528394E+04 -0.32049263848E+03  0.12089763849E+04  0.46999998093E+01 0. -1.
       -5    1    3    3    0  502 -0.30297188494E+03 -0.11256528394E+04  0.26858913223E+03  0.11962643897E+04  0.46999998093E+01 0.  1.
</event>
<event>
 5   0  0.4018942E-05  0.2372283E+04  0.7818609E-02  0.8449954E-01
        1   -1    0    0  501    0  0.00000000000E+00  0.00000000000E+00  0.11172514245E+04  0.11172514246E+04  0.50400001928E-02 0.  1.
       -1   -1    0    0    0  501  0.00000000000E+00  0.00000000000E+00 -0.12592796429E+04  0.12592796429E+04  0.50400001928E-02 0. -1.
    10030    2    1    2    0    0  0.00000000000E+00  0.00000000000E+00 -0.14202821836E+03  0.23765310675E+04  0.23722832672E+04 0.  0.
        5    1    3    3  502    0  0.73871576368E+02 -0.50420640263E+03  0.10019914373E+04  0.11241396874E+04  0.46999998093E+01 0.  1.
       -5    1    3    3    0  502 -0.73871576368E+02  0.50420640263E+03 -0.11440196557E+04  0.12523913801E+04  0.46999998093E+01 0. -1.
</event>
<event>
 5   0  0.4018942E-05  0.1694839E+04  0.7818609E-02  0.8764313E-01
       -1   -1    0    0    0  501  0.00000000000E+00  0.00000000000E+00  0.89158175311E+03  0.89158175312E+03  0.50400001928E-02 0. -1.
        1   -1    0    0  501    0  0.00000000000E+00  0.00000000000E+00 -0.80544498156E+03  0.80544498157E+03  0.50400001928E-02 0.  1.
    10030    2    1    2    0    0  0.00000000000E+00  0.00000000000E+00  0.86136771551E+02  0.16970267347E+04  0.16948392829E+04 0.  0.
        5    1    3    3  502    0 -0.42124465836E+03  0.12313345020E+03  0.76891022449E+03  0.88535525756E+03  0.46999998093E+01 0. -1.
       -5    1    3    3    0  502  0.42124465836E+03 -0.12313345020E+03 -0.68277345294E+03  0.81167147714E+03  0.46999998093E+01 0.  1.
</event>
<event>
 5   0  0.9491680E-05  0.2510853E+04  0.7818609E-02  0.8399129E-01
       -2   -1    0    0    0  501  0.00000000000E+00  0.00000000000E+00  0.14729791990E+04  0.14729791990E+04  0.25500000920E-02 0. -1.
        2   -1    0    0  501    0  0.00000000000E+00  0.00000000000E+00 -0.10700056872E+04  0.10700056872E+04  0.25500000920E-02 0.  1.
    10030    2    1    2    0    0  0.00000000000E+00  0.00000000000E+00  0.40297351186E+03  0.25429848862E+04  0.25108533371E+04 0.  0.
        5    1    3    3  502    0 -0.38641780382E+03 -0.11703716798E+04 -0.40284348247E+02  0.12331802410E+04  0.46999998093E+01 0. -1.
       -5    1    3    3    0  502  0.38641780382E+03  0.11703716798E+04  0.44325786011E+03  0.13098046452E+04  0.46999998093E+01 0.  1.
</event>
<event>
 5   0  0.4260395E-05  0.2367443E+04  0.7818609E-02  0.8451794E-01
        1   -1    0    0  501    0  0.00000000000E+00  0.00000000000E+00  0.12954664936E+04  0.12954664936E+04  0.50400001928E-02 0. -1.
       -1   -1    0    0    0  501  0.00000000000E+00  0.00000000000E+00 -0.10816158940E+04  0.10816158940E+04  0.50400001928E-02 0.  1.
    10030    2    1    2    0    0  0.00000000000E+00  0.00000000000E+00  0.21385059960E+03  0.23770823876E+04  0.23674434732E+04 0.  0.
        4    1    3    3  502    0  0.13941342560E+03 -0.35831808193E+03 -0.10171718469E+04  0.10874135046E+04  0.12699999809E+01 0.  1.
       -4    1    3    3    0  502 -0.13941342560E+03  0.35831808193E+03  0.12310224465E+04  0.12896688830E+04  0.12699999809E+01 0. -1.
</event>
<event>
 5   0  0.4260395E-05  0.2476511E+04  0.7818609E-02  0.8411402E-01
       -1   -1    0    0    0  501  0.00000000000E+00  0.00000000000E+00  0.78405959245E+03  0.78405959246E+03  0.50400001928E-02 0. -1.
        1   -1    0    0  501    0  0.00000000000E+00  0.00000000000E+00 -0.19555608466E+04  0.19555608466E+04  0.50400001928E-02 0.  1.
    10030    2    1    2    0    0  0.00000000000E+00  0.00000000000E+00 -0.11715012541E+04  0.27396204391E+04  0.24765106423E+04 0.  0.
        4    1    3    3  502    0  0.76879017280E+03 -0.30924646086E+03 -0.16036153927E+04  0.18050638892E+04  0.12699999809E+01 0.  1.
       -4    1    3    3    0  502 -0.76879017280E+03  0.30924646086E+03  0.43211413855E+03  0.93455654991E+03  0.12699999809E+01 0. -1.
</event>
<event>
 5   0  0.4018942E-05  0.2457844E+04  0.7818609E-02  0.8418159E-01
        1   -1    0    0  501    0  0.00000000000E+00  0.00000000000E+00  0.25416240789E+04  0.25416240789E+04  0.50400001928E-02 0. -1.
       -1   -1    0    0    0  501  0.00000000000E+00  0.00000000000E+00 -0.59420655390E+03  0.59420655393E+03  0.50400001928E-02 0.  1.
    10030    2    1    2    0    0  0.00000000000E+00  0.00000000000E+00  0.19474175250E+04  0.31358306328E+04  0.24578443281E+04 0.  0.
        5    1    3    3  502    0 -0.47060263091E+03  0.10900060682E+04  0.56894671238E+03  0.13165494736E+04  0.46999998093E+01 0.  1.
       -5    1    3    3    0  502  0.47060263091E+03 -0.10900060682E+04  0.13784708126E+04  0.18192811592E+04  0.46999998093E+01 0. -1.
</event>
<event>
 5   0  0.4260395E-05  0.2379788E+04  0.7818609E-02  0.8447110E-01
        1   -1    0    0  501    0  0.00000000000E+00  0.00000000000E+00  0.11999903990E+04  0.11999903991E+04  0.50400001928E-02 0.  1.
       -1   -1    0    0    0  501  0.00000000000E+00  0.00000000000E+00 -0.11798827747E+04  0.11798827747E+04  0.50400001928E-02 0. -1.
    10030    2    1    2    0    0  0.00000000000E+00  0.00000000000E+00  0.20107624368E+02  0.23798731737E+04  0.23797882272E+04 0.  0.
        4    1    3    3  502    0  0.11015863558E+03  0.22937894568E+03 -0.11523545582E+04  0.11801153615E+04  0.12699999809E+01 0. -1.
       -4    1    3    3    0  502 -0.11015863558E+03 -0.22937894568E+03  0.11724621825E+04  0.11997578123E+04  0.12699999809E+01 0.  1.
</event>
<event>
 5   0  0.4260395E-05  0.2359127E+04  0.7818609E-02  0.8454966E-01
       -1   -1    0    0    0  501  0.00000000000E+00  0.00000000000E+00  0.71777162814E+03  0.71777162815E+03  0.50400001928E-02 0.  1.
        1   -1    0    0  501    0  0.00000000000E+00  0.00000000000E+00 -0.19384575363E+04  0.19384575363E+04  0.50400001928E-02 0. -1.
    10030    2    1    2    0    0  0.00000000000E+00  0.00000000000E+00 -0.12206859082E+04  0.26562291645E+04  0.23591268062E+04 0.  0.
        4    1    3    3  502    0  0.32956374447E+03  0.91710104888E+03  0.13794527858E+03  0.98423427511E+03  0.12699999809E+01 0.  1.
       -4    1    3    3    0  502 -0.32956374447E+03 -0.91710104888E+03 -0.13586311868E+04  0.16719948894E+04  0.12699999809E+01 0. -1.
</event>
<event>
 5   0  0.4260395E-05  0.2449311E+04  0.7818609E-02  0.8421270E-01
       -1   -1    0    0    0  501  0.00000000000E+00  0.00000000000E+00  0.19413630065E+04  0.19413630065E+04  0.50400001928E-02 0.  1.
        1   -1    0    0  501    0  0.00000000000E+00  0.00000000000E+00 -0.77254007388E+03  0.77254007389E+03  0.50400001928E-02 0. -1.
    10030    2    1    2    0    0  0.00000000000E+00  0.00000000000E+00  0.11688229326E+04  0.27139030804E+04  0.24493106953E+04 0.  0.
        4    1    3    3  502    0  0.60369383678E+02  0.26671762513E+03  0.19070992169E+04  0.19266062883E+04  0.12699999809E+01 0.  1.
       -4    1    3    3    0  502 -0.60369383678E+02 -0.26671762513E+03 -0.73827628428E+03  0.78729679211E+03  0.12699999809E+01 0. -1.
</event>
<event>
 5   0  0.4061631E-05  0.2405359E+04  0.7818609E-02  0.8437500E-01
        1   -1    0    0  501    0  0.00000000000E+00  0.00000000000E+00  0.14448385391E+04  0.14448385392E+04  0.50400001928E-02 0. -1.
       -1   -1    0    0    0  501  0.00000000000E+00  0.00000000000E+00 -0.10011073714E+04  0.10011073714E+04  0.50400001928E-02 0.  1.
    10030    2    1    2    0    0  0.00000000000E+00  0.00000000000E+00  0.44373116772E+03  0.24459459106E+04  0.24053594426E+04 0.  0.
        3    1    3    3  502    0 -0.11463991624E+04 -0.29702167546E+03  0.85993698924E+01  0.11842832746E+04  0.10100000352E+00 0.  1.
       -3    1    3    3    0  502  0.11463991624E+04  0.29702167546E+03  0.43513179783E+03  0.12616626359E+04  0.10100000352E+00 0. -1.
</event>
<event>
 5   0  0.9750757E-05  0.2354049E+04  0.7818609E-02  0.8456910E-01
       -2   -1    0    0    0  501  0.00000000000E+00  0.00000000000E+00  0.17808781242E+04  0.17808781242E+04  0.25500000920E-02 0. -1.
        2   -1    0    0  501    0  0.00000000000E+00  0.00000000000E+00 -0.77792325234E+03  0.77792325234E+03  0.25500000920E-02 0.  1.
    10030    2    1    2    0    0  0.00000000000E+00  0.00000000000E+00  0.10029548719E+04  0.25588013766E+04  0.23540488546E+04 0.  0.
        2    1    3    3  502    0 -0.65219338942E+03 -0.30855537077E+03  0.15123232980E+04  0.16756146310E+04  0.25500000920E-02 0. -1.
       -2    1    3    3    0  502  0.65219338942E+03  0.30855537077E+03 -0.50936842609E+03  0.88318674556E+03  0.25500000920E-02 0.  1.
</event>
<event>
 5   0  0.4208577E-05  0.2417035E+04  0.7818609E-02  0.8433153E-01
        1   -1    0    0  501    0  0.00000000000E+00  0.00000000000E+00  0.21264019197E+04  0.21264019197E+04  0.50400001928E-02 0. -1.
       -1   -1    0    0    0  501  0.00000000000E+00  0.00000000000E+00 -0.68684792959E+03  0.68684792961E+03  0.50400001928E-02 0.  1.
    10030    2    1    2    0    0  0.00000000000E+00  0.00000000000E+00  0.14395539901E+04  0.28132498493E+04  0.24170351723E+04 0.  0.
        1    1    3    3  502    0 -0.11530754054E+04  0.30287810700E+03  0.95021291911E+03  0.15245401372E+04  0.50400001928E-02 0.  1.
       -1    1    3    3    0  502  0.11530754054E+04 -0.30287810700E+03  0.48934107099E+03  0.12887097121E+04  0.50400001928E-02 0. -1.
</event>
<event>
 5   0  0.4208577E-05  0.2376145E+04  0.7818609E-02  0.8448489E-01
        1   -1    0    0  501    0  0.00000000000E+00  0.00000000000E+00  0.21351717753E+04  0.21351717754E+04  0.50400001928E-02 0.  1.
       -1   -1    0    0    0  501  0.00000000000E+00  0.00000000000E+00 -0.66107845843E+03  0.66107845845E+03  0.50400001928E-02 0. -1.
    10030    2    1    2    0    0  0.00000000000E+00  0.00000000000E+00  0.14740933169E+04  0.27962502338E+04  0.23761448321E+04 0.  0.
        1    1    3    3  502    0 -0.10393376119E+04 -0.57556226280E+03  0.74250019496E+03  0.14010000462E+04  0.50400001928E-02 0. -1.
       -1    1    3    3    0  502  0.10393376119E+04  0.57556226280E+03  0.73159312196E+03  0.13952501876E+04  0.50400001928E-02 0.  1.
</event>
<event>
 5   0  0.9491680E-05  0.2372563E+04  0.7818609E-02  0.8449848E-01
       -2   -1    0    0    0  501  0.00000000000E+00  0.00000000000E+00  0.10869927506E+04  0.10869927506E+04  0.25500000920E-02 0.  1.
        2   -1    0    0  501    0  0.00000000000E+00  0.00000000000E+00 -0.12946394513E+04  0.12946394513E+04  0.25500000920E-02 0. -1.
    10030    2    1    2    0    0  0.00000000000E+00  0.00000000000E+00 -0.20764670068E+03  0.23816322019E+04  0.23725629165E+04 0.  0.
        5    1    3    3  502    0  0.38298132569E+03  0.36270967133E+03 -0.11704331807E+04  0.12838103139E+04  0.46999998093E+01 0. -1.
       -5    1    3    3    0  502 -0.38298132569E+03 -0.36270967133E+03  0.96278648005E+03  0.10978218880E+04  0.46999998093E+01 0.  1.
</event>
<event>
 5   0  0.3934906E-05  0.2211615E+04  0.7818609E-02  0.8513609E-01
        1   -1    0    0  501    0  0.00000000000E+00  0.00000000000E+00  0.15231954748E+04  0.15231954748E+04  0.50400001928E-02 0. -1.
       -1   -1    0    0    0  501  0.00000000000E+00  0.00000000000E+00 -0.80279288214E+03  0.80279288216E+03  0.50400001928E-02 0.  1.
    10030    2    1    2    0    0  0.00000000000E+00  0.00000000000E+00  0.72040259269E+03  0.23259883570E+04  0.22116152336E+04 0.  0.
        2    1    3    3  502    0 -0.60323712224E+03 -0.30078895009E+03  0.12821427867E+04  0.14485368975E+04  0.25500000920E-02 0. -1.
       -2    1    3    3    0  502  0.60323712224E+03  0.30078895009E+03 -0.56174019398E+03  0.87745145945E+03  0.25500000920E-02 0.  1.
</event>
<event>
 5   0  0.4061631E-05  0.1511830E+04  0.7818609E-02  0.8876624E-01
        1   -1    0    0  501    0  0.00000000000E+00  0.00000000000E+00  0.95993180031E+03  0.95993180032E+03  0.50400001928E-02 0.  1.
       -1   -1    0    0    0  501  0.00000000000E+00  0.00000000000E+00 -0.59525863453E+03  0.59525863456E+03  0.50400001928E-02 0. -1.
    10030    2    1    2    0    0  0.00000000000E+00  0.00000000000E+00  0.36467316578E+03  0.15551904349E+04  0.15118302719E+04 0.  0.
        3    1    3    3  502    0  0.72745450907E+03 -0.19495623979E+03  0.11559364731E+03  0.76194481408E+03  0.10100000352E+00 0. -1.
       -3    1    3    3    0  502 -0.72745450907E+03  0.19495623979E+03  0.24907951846E+03  0.79324562080E+03  0.10100000352E+00 0.  1.
</event>
<event>
 5   0  0.4260395E-05  0.2380124E+04  0.7818609E-02  0.8446983E-01
       -1   -1    0    0    0  501  0.00000000000E+00  0.00000000000E+00  0.85389411521E+03  0.85389411522E+03  0.50400001928E-02 0.  1.
        1   -1    0    0  501    0  0.00000000000E+00  0.00000000000E+00 -0.16585747826E+04  0.16585747826E+04  0.50400001928E-02 0. -1.
    10030    2    1    2    0    0  0.00000000000E+00  0.00000000000E+00 -0.80468066742E+03  0.25124688979E+04  0.23801237334E+04 0.  0.
        4    1    3    3  502    0 -0.51334759774E+03  0.34815442226E+02 -0.15350916991E+04  0.16190262532E+04  0.12699999809E+01 0. -1.
       -4    1    3    3    0  502  0.51334759774E+03 -0.34815442226E+02  0.73041103168E+03  0.89344264462E+03  0.12699999809E+01 0.  1.
</event>
<event>
 5   0  0.4260395E-05  0.1665103E+04  0.7818609E-02  0.8781522E-01
       -1   -1    0    0    0  501  0.00000000000E+00  0.00000000000E+00  0.53548497019E+03  0.53548497022E+03  0.50400001928E-02 0.  1.
        1   -1    0    0  501    0  0.00000000000E+00  0.00000000000E+00 -0.12944189815E+04  0.12944189815E+04  0.50400001928E-02 0. -1.
    10030    2    1    2    0    0  0.00000000000E+00  0.00000000000E+00 -0.75893401132E+03  0.18299039517E+04  0.16651028914E+04 0.  0.
        4    1    3    3  502    0 -0.77576292734E+03 -0.88315255123E+02 -0.69709238876E+03  0.10466838659E+04  0.12699999809E+01 0. -1.
       -4    1    3    3    0  502  0.77576292734E+03  0.88315255123E+02 -0.61841622564E+02  0.78322008586E+03  0.12699999809E+01 0.  1.
</event>
<event>
 5   0  0.9519092E-05  0.2415325E+04  0.7818609E-02  0.8433788E-01
        2   -1    0    0  501    0  0.00000000000E+00  0.00000000000E+00  0.13297609978E+04  0.13297609978E+04  0.25500000920E-02 0.  1.
       -2   -1    0    0    0  501  0.00000000000E+00  0.00000000000E+00 -0.10967749320E+04  0.10967749320E+04  0.25500000920E-02 0. -1.
    10030    2    1    2    0    0  0.00000000000E+00  0.00000000000E+00  0.23298606578E+03  0.24265359299E+04  0.24153248461E+04 0.  0.
        4    1    3    3  502    0  0.11209051500E+04  0.21052311620E+03  0.51544909188E+03  0.12515740957E+04  0.12699999809E+01 0.  1.
       -4    1    3    3    0  502 -0.11209051500E+04 -0.21052311620E+03 -0.28246302609E+03  0.11749618342E+04  0.12699999809E+01 0. -1.
</event>
<event>
 5   0  0.3234750E-05  0.2418047E+04  0.7818609E-02  0.8432778E-01
       -3   -1    0    0    0  501  0.00000000000E+00  0.00000000000E+00  0.12724688685E+04  0.12724688725E+04  0.10100000352E+00 0.  1.
        3   -1    0    0  501    0  0.00000000000E+00  0.00000000000E+00 -0.11487415605E+04  0.11487415649E+04  0.10100000352E+00 0. -1.
    10030    2    1    2    0    0  0.00000000000E+00  0.00000000000E+00  0.12372730802E+03  0.24212104374E+04  0.24180470499E+04 0.  0.
        5    1    3    3  502    0 -0.13142397374E+03  0.68305729289E+03 -0.92830629924E+03  0.11600061213E+04  0.46999998093E+01 0. -1.
       -5    1    3    3    0  502  0.13142397374E+03 -0.68305729289E+03  0.10520336073E+04  0.12612043161E+04  0.46999998093E+01 0.  1.
</event>
<event>
 5   0  0.4061631E-05  0.2251236E+04  0.7818609E-02  0.8497400E-01
        1   -1    0    0  501    0  0.00000000000E+00  0.00000000000E+00  0.83954187614E+03  0.83954187615E+03  0.50400001928E-02 0.  1.
       -1   -1    0    0    0  501  0.00000000000E+00  0.00000000000E+00 -0.15091754443E+04  0.15091754443E+04  0.50400001928E-02 0. -1.
    10030    2    1    2    0    0  0.00000000000E+00  0.00000000000E+00 -0.66963356814E+03  0.23487173204E+04  0.22512360906E+04 0.  0.
        3    1    3    3  502    0  0.25092841958E+03 -0.10954152356E+04 -0.26787973290E+03  0.11552745005E+04  0.10100000352E+00 0. -1.
       -3    1    3    3    0  502 -0.25092841958E+03  0.10954152356E+04 -0.40175383524E+03  0.11934428199E+04  0.10100000352E+00 0.  1.
</event>
<event>
 5   0  0.9750757E-05  0.2209261E+04  0.7818609E-02  0.8514583E-01
       -2   -1    0    0    0  501  0.00000000000E+00  0.00000000000E+00  0.91661478903E+03  0.91661478904E+03  0.25500000920E-02 0. -1.
        2   -1    0    0  501    0  0.00000000000E+00  0.00000000000E+00 -0.13312120992E+04  0.13312120992E+04  0.25500000920E-02 0.  1.
    10030    2    1    2    0    0  0.00000000000E+00  0.00000000000E+00 -0.41459731015E+03  0.22478268882E+04  0.22092611412E+04 0.  0.
        2    1    3    3  502    0 -0.83289990825E+03 -0.25282578331E+03  0.48469554914E+03  0.99627953368E+03  0.25500000920E-02 0. -1.
       -2    1    3    3    0  502  0.83289990825E+03  0.25282578331E+03 -0.89929285929E+03  0.12515473545E+04  0.25500000920E-02 0.  1.
</event>
<event>
 5   0  0.9491680E-05  0.1881455E+04  0.7818609E-02  0.8664143E-01
       -2   -1    0    0    0  501  0.00000000000E+00  0.00000000000E+00  0.92028649690E+03  0.92028649690E+03  0.25500000920E-02 0. -1.
        2   -1    0    0  501    0  0.00000000000E+00  0.00000000000E+00 -0.96162265908E+03  0.96162265908E+03  0.25500000920E-02 0.  1.
    10030    2    1    2    0    0  0.00000000000E+00  0.00000000000E+00 -0.41336162183E+02  0.18819091560E+04  0.18814551265E+04 0.  0.
        5    1    3    3  502    0 -0.18086655799E+03 -0.59634833398E+03  0.68420206178E+03  0.92547209498E+03  0.46999998093E+01 0. -1.
       -5    1    3    3    0  502  0.18086655799E+03  0.59634833398E+03 -0.72553822396E+03  0.95643706101E+03  0.46999998093E+01 0.  1.
</event>
<event>
 5   0  0.9182865E-05  0.2418298E+04  0.7818609E-02  0.8432685E-01
        2   -1    0    0  501    0  0.00000000000E+00  0.00000000000E+00  0.16553013721E+04  0.16553013721E+04  0.25500000920E-02 0. -1.
       -2   -1    0    0    0  501  0.00000000000E+00  0.00000000000E+00 -0.88324758334E+03  0.88324758334E+03  0.25500000920E-02 0.  1.
    10030    2    1    2    0    0  0.00000000000E+00  0.00000000000E+00  0.77205378874E+03  0.25385489554E+04  0.24182976960E+04 0.  0.
        3    1    3    3  502    0  0.11106884461E+04 -0.35779823828E+03  0.53423662570E+02  0.11681192155E+04  0.10100000352E+00 0. -1.
       -3    1    3    3    0  502 -0.11106884461E+04  0.35779823828E+03  0.71863012617E+03  0.13704297399E+04  0.10100000352E+00 0.  1.
</event>
<event>
 5   0  0.3934906E-05  0.2404161E+04  0.7818609E-02  0.8437947E-01
       -1   -1    0    0    0  501  0.00000000000E+00  0.00000000000E+00  0.13543953175E+04  0.13543953175E+04  0.50400001928E-02 0. -1.
        1   -1    0    0  501    0  0.00000000000E+00  0.00000000000E+00 -0.10668950951E+04  0.10668950951E+04  0.50400001928E-02 0.  1.
    10030    2    1    2    0    0  0.00000000000E+00  0.00000000000E+00  0.28750022242E+03  0.24212904126E+04  0.24041611602E+04 0.  0.
        2    1    3    3  502    0 -0.10390529631E+04  0.21413276219E+02 -0.46463009647E+03  0.11384070955E+04  0.25500000920E-02 0.  1.
       -2    1    3    3    0  502  0.10390529631E+04 -0.21413276219E+02  0.75213031889E+03  0.12828833171E+04  0.25500000920E-02 0. -1.
</event>
<event>
 5   0  0.9182865E-05  0.2436757E+04  0.7818609E-02  0.8425869E-01
       -2   -1    0    0    0  501  0.00000000000E+00  0.00000000000E+00  0.95047310495E+03  0.95047310495E+03  0.25500000920E-02 0. -1.
        2   -1    0    0  501    0  0.00000000000E+00  0.00000000000E+00 -0.15617977643E+04  0.15617977643E+04  0.25500000920E-02 0.  1.
    10030    2    1    2    0    0  0.00000000000E+00  0.00000000000E+00 -0.61132465936E+03  0.25122708693E+04  0.24367574933E+04 0.  0.
        3    1    3    3  502    0  0.57287836805E+03 -0.16854039605E+03  0.78925182158E+03  0.98970396470E+03  0.10100000352E+00 0. -1.
       -3    1    3    3    0  502 -0.57287836805E+03  0.16854039605E+03 -0.14005764809E+04  0.15225669046E+04  0.10100000352E+00 0.  1.
</event>
<event>
 5   0  0.4018942E-05  0.2159210E+04  0.7818609E-02  0.8535600E-01
       -1   -1    0    0    0  501  0.00000000000E+00  0.00000000000E+00  0.16902733447E+04  0.16902733447E+04  0.50400001928E-02 0.  1.
        1   -1    0    0  501    0  0.00000000000E+00  0.00000000000E+00 -0.68956148025E+03  0.68956148027E+03  0.50400001928E-02 0. -1.
    10030    2    1    2    0    0  0.00000000000E+00  0.00000000000E+00  0.10007118644E+04  0.23798348250E+04  0.21592104016E+04 0.  0.
        5    1    3    3  502    0 -0.50806398534E+03  0.95226704208E+03  0.47372590472E+03  0.11787195830E+04  0.46999998093E+01 0. -1.
       -5    1    3    3    0  502  0.50806398534E+03 -0.95226704208E+03  0.52698595971E+03  0.12011152419E+04  0.46999998093E+01 0.  1.
</event>
<event>
 5   0  0.4061631E-05  0.2422525E+04  0.7818609E-02  0.8431119E-01
       -1   -1    0    0    0  501  0.00000000000E+00  0.00000000000E+00  0.20735639413E+04  0.20735639413E+04  0.50400001928E-02 0.  1.
        1   -1    0    0  501    0  0.00000000000E+00  0.00000000000E+00 -0.70755293716E+03  0.70755293718E+03  0.50400001928E-02 0. -1.
    10030    2    1    2    0    0  0.00000000000E+00  0.00000000000E+00  0.13660110042E+04  0.27811168785E+04  0.24225245155E+04 0.  0.
        3    1    3    3  502    0 -0.30655734365E+03 -0.78410567251E+03 -0.31673652429E+03  0.89951161561E+03  0.10100000352E+00 0. -1.
       -3    1    3    3    0  502  0.30655734365E+03  0.78410567251E+03  0.16827475285E+04  0.18816052629E+04  0.10100000352E+00 0.  1.
</event>
<event>
 5   0  0.4208577E-05  0.2437363E+04  0.7818609E-02  0.8425647E-01
       -1   -1    0    0    0  501  0.00000000000E+00  0.00000000000E+00  0.15812003001E+04  0.15812003001E+04  0.50400001928E-02 0.  1.
        1   -1    0    0  501    0  0.00000000000E+00  0.00000000000E+00 -0.93927638975E+03  0.93927638977E+03  0.50400001928E-02 0. -1.
    10030    2    1    2    0    0  0.00000000000E+00  0.00000000000E+00  0.64192391034E+03  0.25204766899E+04  0.24373625987E+04 0.  0.
        1    1    3    3  502    0 -0.58606384700E+03 -0.42511555363E+02  0.14250331287E+04  0.15414270930E+04  0.50400001928E-02 0.  1.
       -1    1    3    3    0  502  0.58606384700E+03  0.42511555363E+02 -0.78310921840E+03  0.97904959684E+03  0.50400001928E-02 0. -1.
</event>
<event>
 5   0  0.9519092E-05  0.2419642E+04  0.7818609E-02  0.8432186E-01
        2   -1    0    0  501    0  0.00000000000E+00  0.00000000000E+00  0.13621795854E+04  0.13621795854E+04  0.25500000920E-02 0. -1.
       -2   -1    0    0    0  501  0.00000000000E+00  0.00000000000E+00 -0.10745033580E+04  0.10745033580E+04  0.25500000920E-02 0.  1.
    10030    2    1    2    0    0  0.00000000000E+00  0.00000000000E+00  0.28767622741E+03  0.24366829434E+04  0.24196417410E+04 0.  0.
        4    1    3    3  502    0 -0.55113399602E+03 -0.10619694111E+04 -0.36693002968E+02  0.11970278614E+04  0.12699999809E+01 0. -1.
       -4    1    3    3    0  502  0.55113399602E+03  0.10619694111E+04  0.32436923038E+03  0.12396550820E+04  0.12699999809E+01 0.  1.
</event>
<event>
 5   0  0.4260395E-05  0.2424509E+04  0.7818609E-02  0.8430384E-01
        1   -1    0    0  501    0  0.00000000000E+00  0.00000000000E+00  0.15104796551E+04  0.15104796551E+04  0.50400001928E-02 0. -1.
       -1   -1    0    0    0  501  0.00000000000E+00  0.00000000000E+00 -0.97291002520E+03  0.97291002521E+03  0.50400001928E-02 0.  1.
    10030    2    1    2    0    0  0.00000000000E+00  0.00000000000E+00  0.53756962986E+03  0.24833896803E+04  0.24245088569E+04 0.  0.
        4    1    3    3  502    0  0.81658297534E+03 -0.80704366278E+03  0.66737799602E+03  0.13279767437E+04  0.12699999809E+01 0. -1.
       -4    1    3    3    0  502 -0.81658297534E+03  0.80704366278E+03 -0.12980836616E+03  0.11554129366E+04  0.12699999809E+01 0.  1.
</event>
<event>
 5   0  0.3234750E-05  0.2184515E+04  0.7818609E-02  0.8524901E-01
        4   -1    0    0  501    0  0.00000000000E+00  0.00000000000E+00  0.65876540689E+03  0.65876663108E+03  0.12699999809E+01 0.  1.
       -4   -1    0    0    0  501  0.00000000000E+00  0.00000000000E+00 -0.18110008020E+04  0.18110012473E+04  0.12699999809E+01 0. -1.
    10030    2    1    2    0    0  0.00000000000E+00  0.00000000000E+00 -0.11522353951E+04  0.24697678784E+04  0.21845152706E+04 0.  0.
        1    1    3    3  502    0  0.93426968952E+03  0.80197163857E+02 -0.12093787070E+04  0.15303229381E+04  0.50400001928E-02 0. -1.
       -1    1    3    3    0  502 -0.93426968952E+03 -0.80197163857E+02  0.57143311831E+02  0.93944494036E+03  0.50400001928E-02 0.  1.
</event>
<event>
 5   0  0.4061631E-05  0.2396376E+04  0.7818609E-02  0.8440861E-01
       -1   -1    0    0    0  501  0.00000000000E+00  0.00000000000E+00  0.14050608624E+04  0.14050608625E+04  0.50400001928E-02 0. -1.
        1   -1    0    0  501    0  0.00000000000E+00  0.00000000000E+00 -0.10217742804E+04  0.10217742804E+04  0.50400001928E-02 0.  1.
    10030    2    1    2    0    0  0.00000000000E+00  0.00000000000E+00  0.38328658206E+03  0.24268351429E+04  0.23963764743E+04 0.  0.
        3    1    3    3  502    0  0.84490860128E+03  0.70859946637E+03  0.66629153806E+03  0.12883819978E+04  0.10100000352E+00 0. -1.
       -3    1    3    3    0  502 -0.84490860128E+03 -0.70859946637E+03 -0.28300495600E+03  0.11384531451E+04  0.10100000352E+00 0.  1.
</event>
<event>
 5   0  0.9750757E-05  0.2391441E+04  0.7818609E-02  0.8442715E-01
       -2   -1    0    0    0  501  0.00000000000E+00  0.00000000000E+00  0.12903078596E+04  0.12903078596E+04  0.25500000920E-02 0.  1.
        2   -1    0    0  501    0  0.00000000000E+00  0.00000000000E+00 -0.11080668987E+04  0.11080668987E+04  0.25500000920E-02 0. -1.
    10030    2    1    2    0    0  0.00000000000E+00  0.00000000000E+00  0.18224096092E+03  0.23983747584E+04  0.23914409283E+04 0.  0.
        2    1    3    3  502    0  0.55795119724E+03 -0.89589920563E+03  0.65471293648E+03  0.12420120589E+04  0.25500000920E-02 0.  1.
       -2    1    3    3    0  502 -0.55795119724E+03  0.89589920563E+03 -0.47247197556E+03  0.11563626995E+04  0.25500000920E-02 0. -1.
</event>
<event>
 5   0  0.9519092E-05  0.2388115E+04  0.7818609E-02  0.8443967E-01
       -2   -1    0    0    0  501  0.00000000000E+00  0.00000000000E+00  0.66318905265E+03  0.66318905266E+03  0.25500000920E-02 0. -1.
        2   -1    0    0  501    0  0.00000000000E+00  0.00000000000E+00 -0.21498741046E+04  0.21498741046E+04  0.25500000920E-02 0.  1.
    10030    2    1    2    0    0  0.00000000000E+00  0.00000000000E+00 -0.14866850519E+04  0.28130631573E+04  0.23881147131E+04 0.  0.
        4    1    3    3  502    0  0.27395022808E+03  0.11571079477E+04 -0.61525602951E+03  0.13388387225E+04  0.12699999809E+01 0.  1.
       -4    1    3    3    0  502 -0.27395022808E+03 -0.11571079477E+04 -0.87142902243E+03  0.14742244348E+04  0.12699999809E+01 0. -1.
</event>
<event>
 5   0  0.9750757E-05  0.2426389E+04  0.7818609E-02  0.8429689E-01
       -2   -1    0    0    0  501  0.00000000000E+00  0.00000000000E+00  0.73294140904E+03  0.73294140904E+03  0.25500000920E-02 0.  1.
        2   -1    0    0  501    0  0.00000000000E+00  0.00000000000E+00 -0.20081297561E+04  0.20081297561E+04  0.25500000920E-02 0. -1.
    10030    2    1    2    0    0  0.00000000000E+00  0.00000000000E+00 -0.12751883470E+04  0.27410711651E+04  0.24263894601E+04 0.  0.
        2    1    3    3  502    0  0.39147022375E+02  0.85613054674E+03 -0.16076494466E+04  0.18218201738E+04  0.25500000920E-02 0. -1.
       -2    1    3    3    0  502 -0.39147022375E+02 -0.85613054674E+03  0.33246109954E+03  0.91925099137E+03  0.25500000920E-02 0.  1.
</event>
<event>
 5   0  0.4260395E-05  0.2228445E+04  0.7818609E-02  0.8506681E-01
       -1   -1    0    0    0  501  0.00000000000E+00  0.00000000000E+00  0.10113518355E+04  0.10113518356E+04  0.50400001928E-02 0. -1.
        1   -1    0    0  501    0  0.00000000000E+00  0.00000000000E+00 -0.12275568168E+04  0.12275568169E+04  0.50400001928E-02 0.  1.
    10030    2    1    2    0    0  0.00000000000E+00  0.00000000000E+00 -0.21620498130E+03  0.22389086524E+04  0.22284450543E+04 0.  0.
        4    1    3    3  502    0  0.82912211081E+03 -0.65166750513E+03 -0.46948045350E+03  0.11543515587E+04  0.12699999809E+01 0.  1.
       -4    1    3    3    0  502 -0.82912211081E+03  0.65166750513E+03  0.25327547220E+03  0.10845570937E+04  0.12699999809E+01 0. -1.
</event>
<event>
 5   0  0.9491680E-05  0.2429220E+04  0.7818609E-02  0.8428644E-01
        2   -1    0    0  501    0  0.00000000000E+00  0.00000000000E+00  0.10575591020E+04  0.10575591020E+04  0.25500000920E-02 0. -1.
       -2   -1    0    0    0  501  0.00000000000E+00  0.00000000000E+00 -0.13949837267E+04  0.13949837267E+04  0.25500000920E-02 0.  1.
    10030    2    1    2    0    0  0.00000000000E+00  0.00000000000E+00 -0.33742462468E+03  0.24525428286E+04  0.24292202348E+04 0.  0.
        5    1    3    3  502    0  0.98209904787E+03 -0.65491676216E+03  0.12007790571E+03  0.11865392107E+04  0.46999998093E+01 0.  1.
       -5    1    3    3    0  502 -0.98209904787E+03  0.65491676216E+03 -0.45750253039E+03  0.12660036179E+04  0.46999998093E+01 0. -1.
</event>
<event>
 5   0  0.3934906E-05  0.1328028E+04  0.7818609E-02  0.9007629E-01
        1   -1    0    0  501    0  0.00000000000E+00  0.00000000000E+00  0.10871082730E+04  0.10871082730E+04  0.50400001928E-02 0. -1.
       -1   -1    0    0    0  501  0.00000000000E+00  0.00000000000E+00 -0.40558506709E+03  0.40558506712E+03  0.50400001928E-02 0.  1.
    10030    2    1    2    0    0  0.00000000000E+00  0.00000000000E+00  0.68152320590E+03  0.14926933401E+04  0.13280284362E+04 0.  0.
        2    1    3    3  502    0  0.10341278874E+03 -0.62579008747E+03  0.56161228383E+03  0.84718108796E+03  0.25500000920E-02 0. -1.
       -2    1    3    3    0  502 -0.10341278874E+03  0.62579008747E+03  0.11991092208E+03  0.64551225217E+03  0.25500000920E-02 0.  1.
</event>
<event>
 5   0  0.4208577E-05  0.2364747E+04  0.7818609E-02  0.8452821E-01
       -1   -1    0    0    0  501  0.00000000000E+00  0.00000000000E+00  0.15008984163E+04  0.15008984163E+04  0.50400001928E-02 0. -1.
        1   -1    0    0  501    0  0.00000000000E+00  0.00000000000E+00 -0.93144649115E+03  0.93144649117E+03  0.50400001928E-02 0.  1.
    10030    2    1    2    0    0  0.00000000000E+00  0.00000000000E+00  0.56945192517E+03  0.24323449075E+04  0.23647465517E+04 0.  0.
        1    1    3    3  502    0 -0.42126061563E+03 -0.38079542343E+03  0.13514547683E+04  0.14659112018E+04  0.50400001928E-02 0. -1.
       -1    1    3    3    0  502  0.42126061563E+03  0.38079542343E+03 -0.78200284314E+03  0.96643370569E+03  0.50400001928E-02 0.  1.
</event>
<event>
 5   0  0.4018942E-05  0.2362263E+04  0.7818609E-02  0.8453768E-01
       -1   -1    0    0    0  501  0.00000000000E+00  0.00000000000E+00  0.97570555566E+03  0.97570555568E+03  0.50400001928E-02 0. -1.
        1   -1    0    0  501    0  0.00000000000E+00  0.00000000000E+00 -0.14298082745E+04  0.14298082746E+04  0.50400001928E-02 0.  1.
    10030    2    1    2    0    0  0.00000000000E+00  0.00000000000E+00 -0.45410271889E+03  0.24055138302E+04  0.23622632174E+04 0.  0.
        5    1    3    3  502    0  0.99952285321E+03 -0.57469439563E+03  0.34021702359E+02  0.11534726476E+04  0.46999998093E+01 0. -1.
       -5    1    3    3    0  502 -0.99952285321E+03  0.57469439563E+03 -0.48812442124E+03  0.12520411827E+04  0.46999998093E+01 0.  1.
</event>
<event>
 5   0  0.4260395E-05  0.2413243E+04  0.7818609E-02  0.8434562E-01
       -1   -1    0    0    0  501  0.00000000000E+00  0.00000000000E+00  0.24259404748E+04  0.24259404748E+04  0.50400001928E-02 0. -1.
        1   -1    0    0  501    0  0.00000000000E+00  0.00000000000E+00 -0.60015284371E+03  0.60015284373E+03  0.50400001928E-02 0.  1.
    10030    2    1    2    0    0  0.00000000000E+00  0.00000000000E+00  0.18257876311E+04  0.30260933185E+04  0.24132426937E+04 0.  0.
        4    1    3    3  502    0 -0.72267040176E+03 -0.41754889862E+03  0.20055856621E+04  0.21723202004E+04  0.12699999809E+01 0. -1.
       -4    1    3    3    0  502  0.72267040176E+03  0.41754889862E+03 -0.17979803101E+03  0.85377311809E+03  0.12699999809E+01 0.  1.
</event>
<event>
 5   0  0.9144244E-05  0.1944495E+04  0.7818609E-02  0.8633020E-01
       -2   -1    0    0    0  501  0.00000000000E+00  0.00000000000E+00  0.82565149048E+03  0.82565149048E+03  0.25500000920E-02 0. -1.
        2   -1    0    0  501    0  0.00000000000E+00  0.00000000000E+00 -0.11448715717E+04  0.11448715717E+04  0.25500000920E-02 0.  1.
    10030    2    1    2    0    0  0.00000000000E+00  0.00000000000E+00 -0.31922008124E+03  0.19705230622E+04  0.19444947103E+04 0.  0.
        1    1    3    3  502    0  0.43844184870E+03 -0.42976764431E+03  0.60436005616E+03  0.86150018009E+03  0.50400001928E-02 0. -1.
       -1    1    3    3    0  502 -0.43844184870E+03  0.42976764431E+03 -0.92358013740E+03  0.11090228821E+04  0.50400001928E-02 0.  1.
</event>
<event>
 5   0  0.4208577E-05  0.2382320E+04  0.7818609E-02  0.8446152E-01
        1   -1    0    0  501    0  0.00000000000E+00  0.00000000000E+00  0.93859774973E+03  0.93859774974E+03  0.50400001928E-02 0.  1.
       -1   -1    0    0    0  501  0.00000000000E+00  0.00000000000E+00 -0.15116828162E+04  0.15116828162E+04  0.50400001928E-02 0. -1.
    10030    2    1    2    0    0  0.00000000000E+00  0.00000000000E+00 -0.57308506648E+03  0.24502805660E+04  0.23823199530E+04 0.  0.
        1    1    3    3  502    0  0.72419755423E+03 -0.71733402756E+03 -0.92042893703E+03  0.13733971140E+04  0.50400001928E-02 0. -1.
       -1    1    3    3    0  502 -0.72419755423E+03  0.71733402756E+03  0.34734387055E+03  0.10768834519E+04  0.50400001928E-02 0.  1.
</event>
<event>
 5   0  0.9182865E-05  0.2395997E+04  0.7818609E-02  0.8441004E-01
        2   -1    0    0  501    0  0.00000000000E+00  0.00000000000E+00  0.17205926504E+04  0.17205926504E+04  0.25500000920E-02 0. -1.
       -2   -1    0    0    0  501  0.00000000000E+00  0.00000000000E+00 -0.83413169755E+03  0.83413169756E+03  0.25500000920E-02 0.  1.
    10030    2    1    2    0    0  0.00000000000E+00  0.00000000000E+00  0.88646095290E+03  0.25547243480E+04  0.23959973859E+04 0.  0.
        3    1    3    3  502    0 -0.34453450262E+03  0.97676069765E+03 -0.19867783146E+03  0.10546271260E+04  0.10100000352E+00 0.  1.
       -3    1    3    3    0  502  0.34453450262E+03 -0.97676069765E+03  0.10851387844E+04  0.15000972220E+04  0.10100000352E+00 0. -1.
</event>
<event>
 5   0  0.9144244E-05  0.2449918E+04  0.7818609E-02  0.8421048E-01
        2   -1    0    0  501    0  0.00000000000E+00  0.00000000000E+00  0.25753558096E+04  0.25753558096E+04  0.25500000920E-02 0. -1.
       -2   -1    0    0    0  501  0.00000000000E+00  0.00000000000E+00 -0.58264739687E+03  0.58264739687E+03  0.25500000920E-02 0.  1.
    10030    2    1    2    0    0  0.00000000000E+00  0.00000000000E+00  0.19927084128E+04  0.31580032065E+04  0.24499178423E+04 0.  0.
        1    1    3    3  502    0 -0.31764925957E+03  0.11758845441E+04  0.11640207481E+04  0.16847996365E+04  0.50400001928E-02 0. -1.
       -1    1    3    3    0  502  0.31764925957E+03 -0.11758845441E+04  0.82868766467E+03  0.14732035700E+04  0.50400001928E-02 0.  1.
</event>
<event>
 5   0  0.9144244E-05  0.2479596E+04  0.7818609E-02  0.8410291E-01
       -2   -1    0    0    0  501  0.00000000000E+00  0.00000000000E+00  0.15850874517E+04  0.15850874517E+04  0.25500000920E-02 0. -1.
        2   -1    0    0  501    0  0.00000000000E+00  0.00000000000E+00 -0.96972477216E+03  0.96972477217E+03  0.25500000920E-02 0.  1.
    10030    2    1    2    0    0  0.00000000000E+00  0.00000000000E+00  0.61536267956E+03  0.25548122239E+04  0.24795955864E+04 0.  0.
        1    1    3    3  502    0 -0.55883730417E+03 -0.45371563700E+03 -0.73236518732E+03  0.10268961873E+04  0.50400001928E-02 0.  1.
       -1    1    3    3    0  502  0.55883730417E+03  0.45371563700E+03  0.13477278669E+04  0.15279160366E+04  0.50400001928E-02 0. -1.
</event>
<event>
 5   0  0.9491680E-05  0.2389966E+04  0.7818609E-02  0.8443270E-01
       -2   -1    0    0    0  501  0.00000000000E+00  0.00000000000E+00  0.62340163521E+03  0.62340163522E+03  0.25500000920E-02 0. -1.
        2   -1    0    0  501    0  0.00000000000E+00  0.00000000000E+00 -0.22906326477E+04  0.22906326477E+04  0.25500000920E-02 0.  1.
    10030    2    1    2    0    0  0.00000000000E+00  0.00000000000E+00 -0.16672310125E+04  0.29140342829E+04  0.23899658058E+04 0.  0.
        5    1    3    3  502    0  0.49584505301E+03 -0.99277326490E+03 -0.13741025971E+04  0.17662505794E+04  0.46999998093E+01 0.  1.
       -5    1    3    3    0  502 -0.49584505301E+03  0.99277326490E+03 -0.29312841545E+03  0.11477837035E+04  0.46999998093E+01 0. -1.
</event>
<event>
 5   0  0.4018942E-05  0.2461021E+04  0.7818609E-02  0.8417005E-01
       -1   -1    0    0    0  501  0.00000000000E+00  0.00000000000E+00  0.11938461790E+04  0.11938461790E+04  0.50400001928E-02 0. -1.
        1   -1    0    0  501    0  0.00000000000E+00  0.00000000000E+00 -0.12683005714E+04  0.12683005715E+04  0.50400001928E-02 0.  1.
    10030    2    1    2    0    0  0.00000000000E+00  0.00000000000E+00 -0.74454392446E+02  0.24621467505E+04  0.24610207566E+04 0.  0.
        5    1    3    3  502    0 -0.19479292777E+03  0.34103567370E+03  0.11294470296E+04  0.11957935851E+04  0.46999998093E+01 0. -1.
       -5    1    3    3    0  502  0.19479292777E+03 -0.34103567370E+03 -0.12039014221E+04  0.12663531654E+04  0.46999998093E+01 0.  1.
</event>
<event>
 5   0  0.9182865E-05  0.2517911E+04  0.7818609E-02  0.8396632E-01
        2   -1    0    0  501    0  0.00000000000E+00  0.00000000000E+00  0.21724008866E+04  0.21724008866E+04  0.25500000920E-02 0.  1.
       -2   -1    0    0    0  501  0.00000000000E+00  0.00000000000E+00 -0.72959315131E+03  0.72959315131E+03  0.25500000920E-02 0. -1.
    10030    2    1    2    0    0  0.00000000000E+00  0.00000000000E+00  0.14428077353E+04  0.29019940379E+04  0.25179108871E+04 0.  0.
        3    1    3    3  502    0 -0.32257176995E+03  0.18598843125E+03 -0.66467850348E+03  0.76186728930E+03  0.10100000352E+00 0. -1.
       -3    1    3    3    0  502  0.32257176995E+03 -0.18598843125E+03  0.21074862388E+04  0.21401267486E+04  0.10100000352E+00 0.  1.
</event>
<event>
 5   0  0.3934906E-05  0.2414567E+04  0.7818609E-02  0.8434070E-01
        1   -1    0    0  501    0  0.00000000000E+00  0.00000000000E+00  0.13684238923E+04  0.13684238923E+04  0.50400001928E-02 0. -1.
       -1   -1    0    0    0  501  0.00000000000E+00  0.00000000000E+00 -0.10651185100E+04  0.10651185100E+04  0.50400001928E-02 0.  1.
    10030    2    1    2    0    0  0.00000000000E+00  0.00000000000E+00  0.30330538225E+03  0.24335424023E+04  0.24145671390E+04 0.  0.
        2    1    3    3  502    0  0.86878129376E+03  0.39638099466E+03 -0.59282323365E+03  0.11239831919E+04  0.25500000920E-02 0.  1.
       -2    1    3    3    0  502 -0.86878129376E+03 -0.39638099466E+03  0.89612861590E+03  0.13095592104E+04  0.25500000920E-02 0. -1.
</event>
<event>
 5   0  0.4208577E-05  0.2374944E+04  0.7818609E-02  0.8448944E-01
       -1   -1    0    0    0  501  0.00000000000E+00  0.00000000000E+00  0.87788535279E+03  0.87788535280E+03  0.50400001928E-02 0.  1.
        1   -1    0    0  501    0  0.00000000000E+00  0.00000000000E+00 -0.16062338645E+04  0.16062338645E+04  0.50400001928E-02 0. -1.
    10030    2    1    2    0    0  0.00000000000E+00  0.00000000000E+00 -0.72834851171E+03  0.24841192173E+04  0.23749435217E+04 0.  0.
        1    1    3    3  502    0 -0.10100625835E+04 -0.61545037450E+03 -0.25405595397E+03  0.12097727117E+04  0.50400001928E-02 0.  1.
       -1    1    3    3    0  502  0.10100625835E+04  0.61545037450E+03 -0.47429255774E+03  0.12743465056E+04  0.50400001928E-02 0. -1.
</event>
<event>
 5   0  0.4061631E-05  0.2469026E+04  0.7818609E-02  0.8414104E-01
        1   -1    0    0  501    0  0.00000000000E+00  0.00000000000E+00  0.85487205716E+03  0.85487205717E+03  0.50400001928E-02 0. -1.
       -1   -1    0    0    0  501  0.00000000000E+00  0.00000000000E+00 -0.17827484067E+04  0.17827484067E+04  0.50400001928E-02 0.  1.
    10030    2    1    2    0    0  0.00000000000E+00  0.00000000000E+00 -0.92787634956E+03  0.26376204639E+04  0.24690255551E+04 0.  0.
        3    1    3    3  502    0 -0.59962796815E+03 -0.40199614297E+03 -0.15337525514E+04  0.16951553021E+04  0.10100000352E+00 0.  1.
       -3    1    3    3    0  502  0.59962796815E+03  0.40199614297E+03  0.60587620180E+03  0.94246516183E+03  0.10100000352E+00 0. -1.
</event>
<event>
 5   0  0.4061631E-05  0.2409636E+04  0.7818609E-02  0.8435905E-01
        1   -1    0    0  501    0  0.00000000000E+00  0.00000000000E+00  0.11162800379E+04  0.11162800380E+04  0.50400001928E-02 0.  1.
       -1   -1    0    0    0  501  0.00000000000E+00  0.00000000000E+00 -0.13003783012E+04  0.13003783013E+04  0.50400001928E-02 0. -1.
    10030    2    1    2    0    0  0.00000000000E+00  0.00000000000E+00 -0.18409826330E+03  0.24166583392E+04  0.24096359389E+04 0.  0.
        3    1    3    3  502    0  0.23915871736E+03 -0.48695892997E+03  0.98684635590E+03  0.11261401475E+04  0.10100000352E+00 0.  1.
       -3    1    3    3    0  502 -0.23915871736E+03  0.48695892997E+03 -0.11709446192E+04  0.12905181917E+04  0.10100000352E+00 0. -1.
</event>
<event>
 5   0  0.9750757E-05  0.2363084E+04  0.7818609E-02  0.8453455E-01
        2   -1    0    0  501    0  0.00000000000E+00  0.00000000000E+00  0.14544825223E+04  0.14544825223E+04  0.25500000920E-02 0.  1.
       -2   -1    0    0    0  501  0.00000000000E+00  0.00000000000E+00 -0.95981990424E+03  0.95981990424E+03  0.25500000920E-02 0. -1.
    10030    2    1    2    0    0  0.00000000000E+00  0.00000000000E+00  0.49466261809E+03  0.24143024266E+04  0.23630838117E+04 0.  0.
        2    1    3    3  502    0 -0.40159241536E+03 -0.94309264144E+03 -0.35306313583E+03  0.10841373420E+04  0.25500000920E-02 0. -1.
       -2    1    3    3    0  502  0.40159241536E+03  0.94309264144E+03  0.84772575392E+03  0.13301650846E+04  0.25500000920E-02 0.  1.
</event>
<event>
 5   0  0.4018942E-05  0.2463618E+04  0.7818609E-02  0.8416063E-01
       -1   -1    0    0    0  501  0.00000000000E+00  0.00000000000E+00  0.11139598329E+04  0.11139598329E+04  0.50400001928E-02 0. -1.
        1   -1    0    0  501    0  0.00000000000E+00  0.00000000000E+00 -0.13621261162E+04  0.13621261162E+04  0.50400001928E-02 0.  1.
    10030    2    1    2    0    0  0.00000000000E+00  0.00000000000E+00 -0.24816628325E+03  0.24760859491E+04  0.24636182990E+04 0.  0.
        5    1    3    3  502    0  0.10620470870E+04 -0.61202468029E+03 -0.24640966812E+03  0.12503031788E+04  0.46999998093E+01 0. -1.
       -5    1    3    3    0  502 -0.10620470870E+04  0.61202468029E+03 -0.17566151239E+01  0.12257827703E+04  0.46999998093E+01 0.  1.
</event>
<event>
 5   0  0.9491680E-05  0.2382461E+04  0.7818609E-02  0.8446099E-01
       -2   -1    0    0    0  501  0.00000000000E+00  0.00000000000E+00  0.18912783322E+04  0.18912783322E+04  0.25500000920E-02 0. -1.
        2   -1    0    0  501    0  0.00000000000E+00  0.00000000000E+00 -0.75030230092E+03  0.75030230092E+03  0.25500000920E-02 0.  1.
    10030    2    1    2    0    0  0.00000000000E+00  0.00000000000E+00  0.11409760313E+04  0.26415806331E+04  0.23824613192E+04 0.  0.
        5    1    3    3  502    0  0.38562442927E+03 -0.10253293916E+04  0.10893619901E+04  0.15449071808E+04  0.46999998093E+01 0. -1.
       -5    1    3    3    0  502 -0.38562442927E+03  0.10253293916E+04  0.51614041219E+02  0.10966734523E+04  0.46999998093E+01 0.  1.
</event>
<event>
 5   0  0.3934906E-05  0.2353446E+04  0.7818609E-02  0.8457141E-01
        1   -1    0    0  501    0  0.00000000000E+00  0.00000000000E+00  0.17267617076E+04  0.17267617076E+04  0.50400001928E-02 0. -1.
       -1   -1    0    0    0  501  0.00000000000E+00  0.00000000000E+00 -0.80189233902E+03  0.80189233904E+03  0.50400001928E-02 0.  1.
    10030    2    1    2    0    0  0.00000000000E+00  0.00000000000E+00  0.92486936862E+03  0.25286540467E+04  0.23534459711E+04 0.  0.
        2    1    3    3  502    0  0.14683832190E+03 -0.29075264681E+03 -0.75248862286E+03  0.81996202470E+03  0.25500000920E-02 0.  1.
       -2    1    3    3    0  502 -0.14683832190E+03  0.29075264681E+03  0.16773579915E+04  0.17086920220E+04  0.25500000920E-02 0. -1.
</event>
<event>
 5   0  0.3934906E-05  0.2420158E+04  0.7818609E-02  0.8431995E-01
        1   -1    0    0  501    0  0.00000000000E+00  0.00000000000E+00  0.71030227372E+03  0.71030227374E+03  0.50400001928E-02 0. -1.
       -1   -1    0    0    0  501  0.00000000000E+00  0.00000000000E+00 -0.20615050584E+04  0.20615050584E+04  0.50400001928E-02 0.  1.
    10030    2    1    2    0    0  0.00000000000E+00  0.00000000000E+00 -0.13512027847E+04  0.27718073322E+04  0.24201584496E+04 0.  0.
        2    1    3    3  502    0 -0.10447866606E+04 -0.37014122902E+03 -0.11956088331E+03  0.11148446082E+04  0.25500000920E-02 0. -1.
       -2    1    3    3    0  502  0.10447866606E+04  0.37014122902E+03 -0.12316419014E+04  0.16569627240E+04  0.25500000920E-02 0.  1.
</event>
<event>
 5   0  0.4208577E-05  0.2330861E+04  0.7818609E-02  0.8465852E-01
       -1   -1    0    0    0  501  0.00000000000E+00  0.00000000000E+00  0.21771390348E+04  0.21771390348E+04  0.50400001928E-02 0.  1.
        1   -1    0    0  501    0  0.00000000000E+00  0.00000000000E+00 -0.62385919811E+03  0.62385919813E+03  0.50400001928E-02 0. -1.
    10030    2    1    2    0    0  0.00000000000E+00  0.00000000000E+00  0.15532798367E+04  0.28009982329E+04  0.23308609675E+04 0.  0.
        1    1    3    3  502    0 -0.26483282357E+03 -0.99371439001E+03  0.11775748583E+03  0.10351190940E+04  0.50400001928E-02 0.  1.
       -1    1    3    3    0  502  0.26483282357E+03  0.99371439001E+03  0.14355223508E+04  0.17658791389E+04  0.50400001928E-02 0. -1.
</event>
<event>
 5   0  0.3934906E-05  0.2408547E+04  0.7818609E-02  0.8436311E-01
        1   -1    0    0  501    0  0.00000000000E+00  0.00000000000E+00  0.15430879806E+04  0.15430879806E+04  0.50400001928E-02 0.  1.
       -1   -1    0    0    0  501  0.00000000000E+00  0.00000000000E+00 -0.93985225712E+03  0.93985225714E+03  0.50400001928E-02 0. -1.
    10030    2    1    2    0    0  0.00000000000E+00  0.00000000000E+00  0.60323572347E+03  0.24829402377E+04  0.24085470488E+04 0.  0.
        2    1    3    3  502    0 -0.27874813614E+03  0.10108299432E+04  0.91219295221E+03  0.13898106632E+04  0.25500000920E-02 0. -1.
       -2    1    3    3    0  502  0.27874813614E+03 -0.10108299432E+04 -0.30895722874E+03  0.10931295745E+04  0.25500000920E-02 0.  1.
</event>
<event>
 5   0  0.9144244E-05  0.1492665E+04  0.7818609E-02  0.8889345E-01
        2   -1    0    0  501    0  0.00000000000E+00  0.00000000000E+00  0.42806079546E+03  0.42806079546E+03  0.25500000920E-02 0.  1.
       -2   -1    0    0    0  501  0.00000000000E+00  0.00000000000E+00 -0.13012450548E+04  0.13012450548E+04  0.25500000920E-02 0. -1.
    10030    2    1    2    0    0  0.00000000000E+00  0.00000000000E+00 -0.87318425933E+03  0.17293058503E+04  0.14926647222E+04 0.  0.
        1    1    3    3  502    0 -0.15258790816E+03 -0.59661269056E+03  0.51895652270E+02  0.61799913511E+03  0.50400001928E-02 0.  1.
       -1    1    3    3    0  502  0.15258790816E+03  0.59661269056E+03 -0.92507991160E+03  0.11113067151E+04  0.50400001928E-02 0. -1.
</event>
<event>
 5   0  0.9144244E-05  0.2405966E+04  0.7818609E-02  0.8437273E-01
       -2   -1    0    0    0  501  0.00000000000E+00  0.00000000000E+00  0.86653672980E+03  0.86653672980E+03  0.25500000920E-02 0. -1.
        2   -1    0    0  501    0  0.00000000000E+00  0.00000000000E+00 -0.16700599218E+04  0.16700599218E+04  0.25500000920E-02 0.  1.
    10030    2    1    2    0    0  0.00000000000E+00  0.00000000000E+00 -0.80352319202E+03  0.25365966516E+04  0.24059661371E+04 0.  0.
        1    1    3    3  502    0  0.62151907019E+03 -0.81238254181E+03 -0.10693197328E+04  0.14797621565E+04  0.50400001928E-02 0.  1.
       -1    1    3    3    0  502 -0.62151907019E+03  0.81238254181E+03  0.26579654083E+03  0.10568344951E+04  0.50400001928E-02 0. -1.
</event>
<event>
 5   0  0.3234750E-05  0.2424392E+04  0.7818609E-02  0.8430428E-01
       -3   -1    0    0    0  501  0.00000000000E+00  0.00000000000E+00  0.69519510311E+03  0.69519511045E+03  0.10100000352E+00 0.  1.
        3   -1    0    0  501    0  0.00000000000E+00  0.00000000000E+00 -0.21136779031E+04  0.21136779056E+04  0.10100000352E+00 0. -1.
    10030    2    1    2    0    0  0.00000000000E+00  0.00000000000E+00 -0.14184828000E+04  0.28088730160E+04  0.24243915043E+04 0.  0.
        5    1    3    3  502    0  0.12344941504E+03  0.12023271119E+04 -0.81647322492E+03  0.14585886531E+04  0.46999998093E+01 0.  1.
       -5    1    3    3    0  502 -0.12344941504E+03 -0.12023271119E+04 -0.60200957511E+03  0.13502843629E+04  0.46999998093E+01 0. -1.
</event>
<event>
 5   0  0.4260395E-05  0.2368240E+04  0.7818609E-02  0.8451491E-01
        1   -1    0    0  501    0  0.00000000000E+00  0.00000000000E+00  0.66259520265E+03  0.66259520267E+03  0.50400001928E-02 0.  1.
       -1   -1    0    0    0  501  0.00000000000E+00  0.00000000000E+00 -0.21161334259E+04  0.21161334259E+04  0.50400001928E-02 0. -1.
    10030    2    1    2    0    0  0.00000000000E+00  0.00000000000E+00 -0.14535382232E+04  0.27787286285E+04  0.23682397313E+04 0.  0.
        4    1    3    3  502    0 -0.44050162205E+03 -0.10810329253E+04 -0.95985882499E+03  0.15112923084E+04  0.12699999809E+01 0. -1.
       -4    1    3    3    0  502  0.44050162205E+03  0.10810329253E+04 -0.49367939822E+03  0.12674363202E+04  0.12699999809E+01 0.  1.
</event>
<event>
 5   0  0.9491680E-05  0.2144017E+04  0.7818609E-02  0.8542097E-01
        2   -1    0    0  501    0  0.00000000000E+00  0.00000000000E+00  0.17580626246E+04  0.17580626246E+04  0.25500000920E-02 0.  1.
       -2   -1    0    0    0  501  0.00000000000E+00  0.00000000000E+00 -0.65367558312E+03  0.65367558313E+03  0.25500000920E-02 0. -1.
    10030    2    1    2    0    0  0.00000000000E+00  0.00000000000E+00  0.11043870415E+04  0.24117382077E+04  0.21440173612E+04 0.  0.
        5    1    3    3  502    0  0.10444501623E+04 -0.11535368238E+02  0.28088945222E+03  0.10816331082E+04  0.46999998093E+01 0. -1.
       -5    1    3    3    0  502 -0.10444501623E+04  0.11535368238E+02  0.82349758924E+03  0.13301050995E+04  0.46999998093E+01 0.  1.
</event>
<event>
 5   0  0.4018942E-05  0.2391702E+04  0.7818609E-02  0.8442617E-01
        1   -1    0    0  501    0  0.00000000000E+00  0.00000000000E+00  0.18075683605E+04  0.18075683605E+04  0.50400001928E-02 0. -1.
       -1   -1    0    0    0  501  0.00000000000E+00  0.00000000000E+00 -0.79115079533E+03  0.79115079534E+03  0.50400001928E-02 0.  1.
    10030    2    1    2    0    0  0.00000000000E+00  0.00000000000E+00  0.10164175652E+04  0.25987191559E+04  0.23917016085E+04 0.  0.
        5    1    3    3  502    0  0.77717816942E+03  0.54827119177E+03  0.12958160643E+04  0.16074105167E+04  0.46999998093E+01 0. -1.
       -5    1    3    3    0  502 -0.77717816942E+03 -0.54827119177E+03 -0.27939849911E+03  0.99130863915E+03  0.46999998093E+01 0.  1.
</event>
<event>
 5   0  0.3934906E-05  0.1596093E+04  0.7818609E-02  0.8822952E-01
        1   -1    0    0  501    0  0.00000000000E+00  0.00000000000E+00  0.70635323497E+03  0.70635323499E+03  0.50400001928E-02 0. -1.
       -1   -1    0    0    0  501  0.00000000000E+00  0.00000000000E+00 -0.90164320228E+03  0.90164320230E+03  0.50400001928E-02 0.  1.
    10030    2    1    2    0    0  0.00000000000E+00  0.00000000000E+00 -0.19528996731E+03  0.16079964373E+04  0.15960934719E+04 0.  0.
        2    1    3    3  502    0 -0.51250182739E+03  0.43304291643E+03  0.33765865034E+03  0.75113091715E+03  0.25500000920E-02 0. -1.
       -2    1    3    3    0  502  0.51250182739E+03 -0.43304291643E+03 -0.53294861765E+03  0.85686552014E+03  0.25500000920E-02 0.  1.
</event>
<event>
 5   0  0.9491680E-05  0.2382537E+04  0.7818609E-02  0.8446070E-01
       -2   -1    0    0    0  501  0.00000000000E+00  0.00000000000E+00  0.64100719541E+03  0.64100719541E+03  0.25500000920E-02 0. -1.
        2   -1    0    0  501    0  0.00000000000E+00  0.00000000000E+00 -0.22138920010E+04  0.22138920010E+04  0.25500000920E-02 0.  1.
    10030    2    1    2    0    0  0.00000000000E+00  0.00000000000E+00 -0.15728848056E+04  0.28548991964E+04  0.23825370532E+04 0.  0.
        5    1    3    3  502    0  0.57718974979E+03 -0.90731988116E+03 -0.14006266965E+04  0.17658297219E+04  0.46999998093E+01 0. -1.
       -5    1    3    3    0  502 -0.57718974979E+03  0.90731988116E+03 -0.17225810908E+03  0.10890694744E+04  0.46999998093E+01 0.  1.
</event>
<event>
 5   0  0.9144244E-05  0.2199669E+04  0.7818609E-02  0.8518566E-01
        2   -1    0    0  501    0  0.00000000000E+00  0.00000000000E+00  0.79054098677E+03  0.79054098678E+03  0.25500000920E-02 0.  1.
       -2   -1    0    0    0  501  0.00000000000E+00  0.00000000000E+00 -0.15301364190E+04  0.15301364190E+04  0.25500000920E-02 0. -1.
    10030    2    1    2    0    0  0.00000000000E+00  0.00000000000E+00 -0.73959543226E+03  0.23206774058E+04  0.21996686611E+04 0.  0.
        1    1    3    3  502    0 -0.14125771255E+03 -0.10907602729E+03  0.77516244248E+03  0.79544209930E+03  0.50400001928E-02 0.  1.
       -1    1    3    3    0  502  0.14125771255E+03  0.10907602729E+03 -0.15147578747E+04  0.15252353065E+04  0.50400001928E-02 0. -1.
</event>
<event>
 5   0  0.3934906E-05  0.2491080E+04  0.7818609E-02  0.8406170E-01
        1   -1    0    0  501    0  0.00000000000E+00  0.00000000000E+00  0.77252695311E+03  0.77252695313E+03  0.50400001928E-02 0.  1.
       -1   -1    0    0    0  501  0.00000000000E+00  0.00000000000E+00 -0.20081754141E+04  0.20081754141E+04  0.50400001928E-02 0. -1.
    10030    2    1    2    0    0  0.00000000000E+00  0.00000000000E+00 -0.12356484610E+04  0.27807023672E+04  0.24910797932E+04 0.  0.
        2    1    3    3  502    0  0.30746244010E+03  0.62342718389E+03  0.53586297991E+03  0.87769228031E+03  0.25500000920E-02 0.  1.
       -2    1    3    3    0  502 -0.30746244010E+03 -0.62342718389E+03 -0.17715114409E+04  0.19030100869E+04  0.25500000920E-02 0. -1.
</event>
<event>
 5   0  0.3234750E-05  0.2363029E+04  0.7818609E-02  0.8453476E-01
        3   -1    0    0  501    0  0.00000000000E+00  0.00000000000E+00  0.77980337256E+03  0.77980337910E+03  0.10100000352E+00 0.  1.
       -3   -1    0    0    0  501  0.00000000000E+00  0.00000000000E+00 -0.17901641746E+04  0.17901641775E+04  0.10100000352E+00 0. -1.
    10030    2    1    2    0    0  0.00000000000E+00  0.00000000000E+00 -0.10103608021E+04  0.25699675566E+04  0.23630286269E+04 0.  0.
        2    1    3    3  502    0  0.92204944490E+01  0.88500654894E+03 -0.13564486965E+04  0.16196526404E+04  0.25500000920E-02 0. -1.
       -2    1    3    3    0  502 -0.92204944490E+01 -0.88500654894E+03  0.34608789448E+03  0.95031491617E+03  0.25500000920E-02 0.  1.
</event>
<event>
 5   0  0.4061631E-05  0.2399968E+04  0.7818609E-02  0.8439516E-01
        1   -1    0    0  501    0  0.00000000000E+00  0.00000000000E+00  0.27380753005E+04  0.27380753005E+04  0.50400001928E-02 0.  1.
       -1   -1    0    0    0  501  0.00000000000E+00  0.00000000000E+00 -0.52590266997E+03  0.52590266999E+03  0.50400001928E-02 0. -1.
    10030    2    1    2    0    0  0.00000000000E+00  0.00000000000E+00  0.22121726305E+04  0.32639779705E+04  0.23999675924E+04 0.  0.
        3    1    3    3  502    0 -0.81454784794E+03  0.59035117369E+03  0.21638830932E+03  0.10289930104E+04  0.10100000352E+00 0.  1.
       -3    1    3    3    0  502  0.81454784794E+03 -0.59035117369E+03  0.19957843212E+04  0.22349849601E+04  0.10100000352E+00 0. -1.
</event>
<event>
 5   0  0.4061631E-05  0.2402930E+04  0.7818609E-02  0.8438408E-01
       -1   -1    0    0    0  501  0.00000000000E+00  0.00000000000E+00  0.91371291088E+03  0.91371291090E+03  0.50400001928E-02 0.  1.
        1   -1    0    0  501    0  0.00000000000E+00  0.00000000000E+00 -0.15798371347E+04  0.15798371347E+04  0.50400001928E-02 0. -1.
    10030    2    1    2    0    0  0.00000000000E+00  0.00000000000E+00 -0.66612422377E+03  0.24935500456E+04  0.24029295346E+04 0.  0.
        3    1    3    3  502    0 -0.40029527429E+03  0.39986030496E+03 -0.14329360503E+04  0.15405941401E+04  0.10100000352E+00 0. -1.
       -3    1    3    3    0  502  0.40029527429E+03 -0.39986030496E+03  0.76681182657E+03  0.95295590541E+03  0.10100000352E+00 0.  1.
</event>
<event>
 5   0  0.4018942E-05  0.2216983E+04  0.7818609E-02  0.8511392E-01
        1   -1    0    0  501    0  0.00000000000E+00  0.00000000000E+00  0.78780548562E+03  0.78780548564E+03  0.50400001928E-02 0.  1.
       -1   -1    0    0    0  501  0.00000000000E+00  0.00000000000E+00 -0.15597173123E+04  0.15597173123E+04  0.50400001928E-02 0. -1.
    10030    2    1    2    0    0  0.00000000000E+00  0.00000000000E+00 -0.77191182664E+03  0.23475227979E+04  0.22169834051E+04 0.  0.
        5    1    3    3  502    0 -0.56879187127E+03  0.18971890649E+02 -0.13932008783E+04  0.15049634224E+04  0.46999998093E+01 0. -1.
       -5    1    3    3    0  502  0.56879187127E+03 -0.18971890649E+02  0.62128905170E+03  0.84255937548E+03  0.46999998093E+01 0.  1.
</event>
<event>
 5   0  0.4260395E-05  0.2421007E+04  0.7818609E-02  0.8431681E-01
       -1   -1    0    0    0  501  0.00000000000E+00  0.00000000000E+00  0.69122800685E+03  0.69122800687E+03  0.50400001928E-02 0. -1.
        1   -1    0    0  501    0  0.00000000000E+00  0.00000000000E+00 -0.21198774565E+04  0.21198774565E+04  0.50400001928E-02 0.  1.
    10030    2    1    2    0    0  0.00000000000E+00  0.00000000000E+00 -0.14286494497E+04  0.28111054634E+04  0.24210069550E+04 0.  0.
        4    1    3    3  502    0  0.29471891684E+03  0.22548924287E+03  0.62355402306E+03  0.72562102448E+03  0.12699999809E+01 0. -1.
       -4    1    3    3    0  502 -0.29471891684E+03 -0.22548924287E+03 -0.20522034727E+04  0.20854844389E+04  0.12699999809E+01 0.  1.
</event>
<event>
 5   0  0.4018942E-05  0.2425592E+04  0.7818609E-02  0.8429984E-01
       -1   -1    0    0    0  501  0.00000000000E+00  0.00000000000E+00  0.12267139993E+04  0.12267139993E+04  0.50400001928E-02 0.  1.
        1   -1    0    0  501    0  0.00000000000E+00  0.00000000000E+00 -0.11990361797E+04  0.11990361797E+04  0.50400001928E-02 0. -1.
    10030    2    1    2    0    0  0.00000000000E+00  0.00000000000E+00  0.27677819582E+02  0.24257501790E+04  0.24255922719E+04 0.  0.
        5    1    3    3  502    0 -0.96705160272E+03  0.70764968333E+03  0.20065444519E+03  0.12150066555E+04  0.46999998093E+01 0.  1.
       -5    1    3    3    0  502  0.96705160272E+03 -0.70764968333E+03 -0.17297662561E+03  0.12107435235E+04  0.46999998093E+01 0. -1.
</event>
<event>
 5   0  0.9519092E-05  0.2440688E+04  0.7818609E-02  0.8424426E-01
        2   -1    0    0  501    0  0.00000000000E+00  0.00000000000E+00  0.16468689274E+04  0.16468689274E+04  0.25500000920E-02 0. -1.
       -2   -1    0    0    0  501  0.00000000000E+00  0.00000000000E+00 -0.90428572642E+03  0.90428572642E+03  0.25500000920E-02 0.  1.
    10030    2    1    2    0    0  0.00000000000E+00  0.00000000000E+00  0.74258320098E+03  0.25511546538E+04  0.24406884802E+04 0.  0.
        4    1    3    3  502    0 -0.90453326088E+03  0.55507131020E+03  0.10010154656E+04  0.14588756475E+04  0.12699999809E+01 0. -1.
       -4    1    3    3    0  502  0.90453326088E+03 -0.55507131020E+03 -0.25843226463E+03  0.10922790064E+04  0.12699999809E+01 0.  1.
</event>
<event>
 5   0  0.4018942E-05  0.2417780E+04  0.7818609E-02  0.8432877E-01
        1   -1    0    0  501    0  0.00000000000E+00  0.00000000000E+00  0.86504299246E+03  0.86504299248E+03  0.50400001928E-02 0. -1.
       -1   -1    0    0    0  501  0.00000000000E+00  0.00000000000E+00 -0.16894134265E+04  0.16894134265E+04  0.50400001928E-02 0.  1.
    10030    2    1    2    0    0  0.00000000000E+00  0.00000000000E+00 -0.82437043401E+03  0.25544564190E+04  0.24177801769E+04 0.  0.
        5    1    3    3  502    0  0.78031838535E+03 -0.19682673476E+03  0.54089330558E+03  0.96965210465E+03  0.46999998093E+01 0. -1.
       -5    1    3    3    0  502 -0.78031838535E+03  0.19682673476E+03 -0.13652637396E+04  0.15848043143E+04  0.46999998093E+01 0.  1.
</event>
<event>
 5   0  0.9182865E-05  0.2323820E+04  0.7818609E-02  0.8468588E-01
       -2   -1    0    0    0  501  0.00000000000E+00  0.00000000000E+00  0.12362496821E+04  0.12362496821E+04  0.25500000920E-02 0.  1.
        2   -1    0    0  501    0  0.00000000000E+00  0.00000000000E+00 -0.10920408452E+04  0.10920408452E+04  0.25500000920E-02 0. -1.
    10030    2    1    2    0    0  0.00000000000E+00  0.00000000000E+00  0.14420883687E+03  0.23282905273E+04  0.23238202578E+04 0.  0.
        3    1    3    3  502    0  0.22835818211E+03 -0.83024390700E+03  0.85372223617E+03  0.12125568321E+04  0.10100000352E+00 0.  1.
       -3    1    3    3    0  502 -0.22835818211E+03  0.83024390700E+03 -0.70951339930E+03  0.11157336951E+04  0.10100000352E+00 0. -1.
</event>
<event>
 5   0  0.9182865E-05  0.2413148E+04  0.7818609E-02  0.8434598E-01
        2   -1    0    0  501    0  0.00000000000E+00  0.00000000000E+00  0.24965543526E+04  0.24965543526E+04  0.25500000920E-02 0.  1.
       -2   -1    0    0    0  501  0.00000000000E+00  0.00000000000E+00 -0.58313185331E+03  0.58313185332E+03  0.25500000920E-02 0. -1.
    10030    2    1    2    0    0  0.00000000000E+00  0.00000000000E+00  0.19134224993E+04  0.30796862059E+04  0.24131476263E+04 0.  0.
        3    1    3    3  502    0  0.80945893665E+03  0.39051259671E+03 -0.70695499077E+02  0.90151079977E+03  0.10100000352E+00 0. -1.
       -3    1    3    3    0  502 -0.80945893665E+03 -0.39051259671E+03  0.19841179984E+04  0.21781754062E+04  0.10100000352E+00 0.  1.
</event>
<event>
 5   0  0.3934906E-05  0.2368005E+04  0.7818609E-02  0.8451580E-01
       -1   -1    0    0    0  501  0.00000000000E+00  0.00000000000E+00  0.74679527633E+03  0.74679527635E+03  0.50400001928E-02 0.  1.
        1   -1    0    0  501    0  0.00000000000E+00  0.00000000000E+00 -0.18771710093E+04  0.18771710093E+04  0.50400001928E-02 0. -1.
    10030    2    1    2    0    0  0.00000000000E+00  0.00000000000E+00 -0.11303757330E+04  0.26239662857E+04  0.23680054414E+04 0.  0.
        2    1    3    3  502    0  0.22167649539E+03 -0.41762798731E+03  0.63764454553E+03  0.79381620722E+03  0.25500000920E-02 0.  1.
       -2    1    3    3    0  502 -0.22167649539E+03  0.41762798731E+03 -0.17680202785E+04  0.18301500785E+04  0.25500000920E-02 0. -1.
</event>
<event>
 5   0  0.9491680E-05  0.2633554E+04  0.7818609E-02  0.8356892E-01
       -2   -1    0    0    0  501  0.00000000000E+00  0.00000000000E+00  0.96936536279E+03  0.96936536280E+03  0.25500000920E-02 0.  1.
        2   -1    0    0  501    0  0.00000000000E+00  0.00000000000E+00 -0.17886982921E+04  0.17886982922E+04  0.25500000920E-02 0. -1.
    10030    2    1    2    0    0  0.00000000000E+00  0.00000000000E+00 -0.81933292935E+03  0.27580636549E+04  0.26335543806E+04 0.  0.
        5    1    3    3  502    0  0.59695834304E+03  0.11540742868E+04 -0.63338563519E+03  0.14454916726E+04  0.46999998093E+01 0. -1.
       -5    1    3    3    0  502 -0.59695834304E+03 -0.11540742868E+04 -0.18594729417E+03  0.13125719824E+04  0.46999998093E+01 0.  1.
</event>
<event>
 5   0  0.4018942E-05  0.2345322E+04  0.7818609E-02  0.8460263E-01
       -1   -1    0    0    0  501  0.00000000000E+00  0.00000000000E+00  0.22932708349E+04  0.22932708349E+04  0.50400001928E-02 0.  1.
        1   -1    0    0  501    0  0.00000000000E+00  0.00000000000E+00 -0.59963848921E+03  0.59963848923E+03  0.50400001928E-02 0. -1.
    10030    2    1    2    0    0  0.00000000000E+00  0.00000000000E+00  0.16936323457E+04  0.28929093241E+04  0.23453216912E+04 0.  0.
        5    1    3    3  502    0 -0.48622134025E+03 -0.13598402668E+03 -0.45869873983E+03  0.68215062203E+03  0.46999998093E+01 0. -1.
       -5    1    3    3    0  502  0.48622134025E+03  0.13598402668E+03  0.21523310855E+04  0.22107587021E+04  0.46999998093E+01 0.  1.
</event>
<event>
 5   0  0.3934906E-05  0.1618402E+04  0.7818609E-02  0.8809322E-01
       -1   -1    0    0    0  501  0.00000000000E+00  0.00000000000E+00  0.14616805513E+04  0.14616805513E+04  0.50400001928E-02 0.  1.
        1   -1    0    0  501    0  0.00000000000E+00  0.00000000000E+00 -0.44798152473E+03  0.44798152476E+03  0.50400001928E-02 0. -1.
    10030    2    1    2    0    0  0.00000000000E+00  0.00000000000E+00  0.10136990266E+04  0.19096620761E+04  0.16184015349E+04 0.  0.
        2    1    3    3  502    0  0.35556252118E+03  0.72651004483E+03  0.47881861939E+03  0.93995149980E+03  0.25500000920E-02 0. -1.
       -2    1    3    3    0  502 -0.35556252118E+03 -0.72651004483E+03  0.53488040718E+03  0.96971057625E+03  0.25500000920E-02 0.  1.
</event>
<event>
 5   0  0.9491680E-05  0.2372063E+04  0.7818609E-02  0.8450037E-01
       -2   -1    0    0    0  501  0.00000000000E+00  0.00000000000E+00  0.96561051747E+03  0.96561051747E+03  0.25500000920E-02 0.  1.
        2   -1    0    0  501    0  0.00000000000E+00  0.00000000000E+00 -0.14567681258E+04  0.14567681258E+04  0.25500000920E-02 0. -1.
    10030    2    1    2    0    0  0.00000000000E+00  0.00000000000E+00 -0.49115760833E+03  0.24223786433E+04  0.23720629197E+04 0.  0.
        5    1    3    3  502    0  0.93181577117E+03  0.16274174198E+03 -0.97621500993E+03  0.13593319468E+04  0.46999998093E+01 0. -1.
       -5    1    3    3    0  502 -0.93181577117E+03 -0.16274174198E+03  0.48505740161E+03  0.10630466965E+04  0.46999998093E+01 0.  1.
</event>
<event>
 5   0  0.9144244E-05  0.2283221E+04  0.7818609E-02  0.8484566E-01
        2   -1    0    0  501    0  0.00000000000E+00  0.00000000000E+00  0.83059770654E+03  0.83059770654E+03  0.25500000920E-02 0. -1.
       -2   -1    0    0    0  501  0.00000000000E+00  0.00000000000E+00 -0.15690800136E+04  0.15690800136E+04  0.25500000920E-02 0.  1.
    10030    2    1    2    0    0  0.00000000000E+00  0.00000000000E+00 -0.73848230703E+03  0.23996777201E+04  0.22832207608E+04 0.  0.
        1    1    3    3  502    0 -0.98819199321E+03 -0.56651977457E+03 -0.28915625225E+03  0.11751933495E+04  0.50400001928E-02 0.  1.
       -1    1    3    3    0  502  0.98819199321E+03  0.56651977457E+03 -0.44932605479E+03  0.12244843706E+04  0.50400001928E-02 0. -1.
</event>
<event>
 5   0  0.3934906E-05  0.1841269E+04  0.7818609E-02  0.8684656E-01
       -1   -1    0    0    0  501  0.00000000000E+00  0.00000000000E+00  0.11351110648E+04  0.11351110648E+04  0.50400001928E-02 0. -1.
        1   -1    0    0  501    0  0.00000000000E+00  0.00000000000E+00 -0.74668270354E+03  0.74668270356E+03  0.50400001928E-02 0.  1.
    10030    2    1    2    0    0  0.00000000000E+00  0.00000000000E+00  0.38842836122E+03  0.18817937683E+04  0.18412689089E+04 0.  0.
        2    1    3    3  502    0 -0.71984376493E+03 -0.43791560115E+03  0.57335435896E+03  0.10191566811E+04  0.25500000920E-02 0. -1.
       -2    1    3    3    0  502  0.71984376493E+03  0.43791560115E+03 -0.18492599775E+03  0.86263708724E+03  0.25500000920E-02 0.  1.
</event>
<event>
 5   0  0.9144244E-05  0.2326216E+04  0.7818609E-02  0.8467656E-01
        2   -1    0    0  501    0  0.00000000000E+00  0.00000000000E+00  0.12120311323E+04  0.12120311323E+04  0.25500000920E-02 0.  1.
       -2   -1    0    0    0  501  0.00000000000E+00  0.00000000000E+00 -0.11161595962E+04  0.11161595962E+04  0.25500000920E-02 0. -1.
    10030    2    1    2    0    0  0.00000000000E+00  0.00000000000E+00  0.95871536024E+02  0.23281907285E+04  0.23262159652E+04 0.  0.
        1    1    3    3  502    0  0.56748217250E+03  0.65965129698E+03  0.82037091961E+03  0.11959031296E+04  0.50400001928E-02 0.  1.
       -1    1    3    3    0  502 -0.56748217250E+03 -0.65965129698E+03 -0.72449938359E+03  0.11322875989E+04  0.50400001928E-02 0. -1.
</event>
<event>
 5   0  0.4260395E-05  0.2411995E+04  0.7818609E-02  0.8435026E-01
        1   -1    0    0  501    0  0.00000000000E+00  0.00000000000E+00  0.19440622844E+04  0.19440622844E+04  0.50400001928E-02 0. -1.
       -1   -1    0    0    0  501  0.00000000000E+00  0.00000000000E+00 -0.74813952885E+03  0.74813952887E+03  0.50400001928E-02 0.  1.
    10030    2    1    2    0    0  0.00000000000E+00  0.00000000000E+00  0.11959227556E+04  0.26922018133E+04  0.24119948935E+04 0.  0.
        4    1    3    3  502    0  0.89252825873E+03  0.76955842053E+03  0.88384395869E+03  0.14730949092E+04  0.12699999809E+01 0. -1.
       -4    1    3    3    0  502 -0.89252825873E+03 -0.76955842053E+03  0.31207879686E+03  0.12191069041E+04  0.12699999809E+01 0.  1.
</event>
<event>
 5   0  0.9182865E-05  0.2336730E+04  0.7818609E-02  0.8463578E-01
       -2   -1    0    0    0  501  0.00000000000E+00  0.00000000000E+00  0.11806432174E+04  0.11806432174E+04  0.25500000920E-02 0.  1.
        2   -1    0    0  501    0  0.00000000000E+00  0.00000000000E+00 -0.11562146301E+04  0.11562146301E+04  0.25500000920E-02 0. -1.
    10030    2    1    2    0    0  0.00000000000E+00  0.00000000000E+00  0.24428587309E+02  0.23368578475E+04  0.23367301606E+04 0.  0.
        3    1    3    3  502    0  0.84887785520E+03 -0.80065548215E+03  0.70819002075E+02  0.11690415542E+04  0.10100000352E+00 0. -1.
       -3    1    3    3    0  502 -0.84887785520E+03  0.80065548215E+03 -0.46390414765E+02  0.11678162933E+04  0.10100000352E+00 0.  1.
</event>
<event>
 5   0  0.4260395E-05  0.2400226E+04  0.7818609E-02  0.8439419E-01
        1   -1    0    0  501    0  0.00000000000E+00  0.00000000000E+00  0.27090369185E+04  0.27090369185E+04  0.50400001928E-02 0. -1.
       -1   -1    0    0    0  501  0.00000000000E+00  0.00000000000E+00 -0.53165452896E+03  0.53165452898E+03  0.50400001928E-02 0.  1.
    10030    2    1    2    0    0  0.00000000000E+00  0.00000000000E+00  0.21773823896E+04  0.32406914475E+04  0.24002264451E+04 0.  0.
        4    1    3    3  502    0 -0.98136721282E+03  0.19210586667E+03  0.19280704908E+03  0.10184117249E+04  0.12699999809E+01 0.  1.
       -4    1    3    3    0  502  0.98136721282E+03 -0.19210586667E+03  0.19845753405E+04  0.22222797226E+04  0.12699999809E+01 0. -1.
</event>
<event>
 5   0  0.9182865E-05  0.2374007E+04  0.7818609E-02  0.8449300E-01
       -2   -1    0    0    0  501  0.00000000000E+00  0.00000000000E+00  0.46361011508E+03  0.46361011509E+03  0.25500000920E-02 0. -1.
        2   -1    0    0  501    0  0.00000000000E+00  0.00000000000E+00 -0.30391416836E+04  0.30391416836E+04  0.25500000920E-02 0.  1.
    10030    2    1    2    0    0  0.00000000000E+00  0.00000000000E+00 -0.25755315685E+04  0.35027517987E+04  0.23740065928E+04 0.  0.
        3    1    3    3  502    0  0.78961005539E+03 -0.76118651788E+03 -0.61795266463E+03  0.12588703112E+04  0.10100000352E+00 0. -1.
       -3    1    3    3    0  502 -0.78961005539E+03  0.76118651788E+03 -0.19575789039E+04  0.22438814874E+04  0.10100000352E+00 0.  1.
</event>
<event>
 5   0  0.9519092E-05  0.1249002E+04  0.7818609E-02  0.9071014E-01
       -2   -1    0    0    0  501  0.00000000000E+00  0.00000000000E+00  0.65608151798E+03  0.65608151798E+03  0.25500000920E-02 0. -1.
        2   -1    0    0  501    0  0.00000000000E+00  0.00000000000E+00 -0.59444104861E+03  0.59444104862E+03  0.25500000920E-02 0.  1.
    10030    2    1    2    0    0  0.00000000000E+00  0.00000000000E+00  0.61640469364E+02  0.12505225666E+04  0.12490024588E+04 0.  0.
        4    1    3    3  502    0  0.42762718576E+03  0.31915147717E+03 -0.29403959773E+03  0.60924836752E+03  0.12699999809E+01 0.  1.
       -4    1    3    3    0  502 -0.42762718576E+03 -0.31915147717E+03  0.35568006709E+03  0.64127419909E+03  0.12699999809E+01 0. -1.
</event>
<event>
 5   0  0.9750757E-05  0.2453851E+04  0.7818609E-02  0.8419613E-01
       -2   -1    0    0    0  501  0.00000000000E+00  0.00000000000E+00  0.32130970238E+04  0.32130970238E+04  0.25500000920E-02 0.  1.
        2   -1    0    0  501    0  0.00000000000E+00  0.00000000000E+00 -0.46850314772E+03  0.46850314773E+03  0.25500000920E-02 0. -1.
    10030    2    1    2    0    0  0.00000000000E+00  0.00000000000E+00  0.27445938760E+04  0.36816001715E+04  0.24538509079E+04 0.  0.
        2    1    3    3  502    0 -0.55594989996E+03  0.92948080271E+03  0.22372131101E+04  0.24855859176E+04  0.25500000920E-02 0.  1.
       -2    1    3    3    0  502  0.55594989996E+03 -0.92948080271E+03  0.50738076599E+03  0.11960142539E+04  0.25500000920E-02 0. -1.
</event>
<event>
 5   0  0.9750757E-05  0.1228874E+04  0.7818609E-02  0.9087952E-01
       -2   -1    0    0    0  501  0.00000000000E+00  0.00000000000E+00  0.20949535706E+03  0.20949535708E+03  0.25500000920E-02 0.  1.
        2   -1    0    0  501    0  0.00000000000E+00  0.00000000000E+00 -0.18021069688E+04  0.18021069689E+04  0.25500000920E-02 0. -1.
    10030    2    1    2    0    0  0.00000000000E+00  0.00000000000E+00 -0.15926116118E+04  0.20116023259E+04  0.12288743515E+04 0.  0.
        2    1    3    3  502    0  0.54499440009E+03  0.24850230157E+03 -0.10205182851E+04  0.11833130863E+04  0.25500000920E-02 0. -1.
       -2    1    3    3    0  502 -0.54499440009E+03 -0.24850230157E+03 -0.57209332667E+03  0.82828923960E+03  0.25500000920E-02 0.  1.
</event>
<event>
 5   0  0.4260395E-05  0.2520887E+04  0.7818609E-02  0.8395582E-01
        1   -1    0    0  501    0  0.00000000000E+00  0.00000000000E+00  0.23745079942E+04  0.23745079942E+04  0.50400001928E-02 0. -1.
       -1   -1    0    0    0  501  0.00000000000E+00  0.00000000000E+00 -0.66907222332E+03  0.66907222334E+03  0.50400001928E-02 0.  1.
    10030    2    1    2    0    0  0.00000000000E+00  0.00000000000E+00  0.17054357709E+04  0.30435802175E+04  0.25208866242E+04 0.  0.
        4    1    3    3  502    0  0.20959088212E+03  0.65391894570E+03 -0.42340503885E+03  0.80672905318E+03  0.12699999809E+01 0.  1.
       -4    1    3    3    0  502 -0.20959088212E+03 -0.65391894570E+03  0.21288408097E+04  0.22368511643E+04  0.12699999809E+01 0. -1.
</event>
<event>
 5   0  0.9750757E-05  0.2234345E+04  0.7818609E-02  0.8504267E-01
        2   -1    0    0  501    0  0.00000000000E+00  0.00000000000E+00  0.14257874622E+04  0.14257874622E+04  0.25500000920E-02 0. -1.
       -2   -1    0    0    0  501  0.00000000000E+00  0.00000000000E+00 -0.87535808776E+03  0.87535808777E+03  0.25500000920E-02 0.  1.
    10030    2    1    2    0    0  0.00000000000E+00  0.00000000000E+00  0.55042937441E+03  0.23011455499E+04  0.22343451716E+04 0.  0.
        2    1    3    3  502    0 -0.83150015457E+03 -0.53935668893E+03  0.80616277935E+03  0.12775744878E+04  0.25500000920E-02 0. -1.
       -2    1    3    3    0  502  0.83150015457E+03  0.53935668893E+03 -0.25573340493E+03  0.10235710622E+04  0.25500000920E-02 0.  1.
</event>
<event>
 5   0  0.9491680E-05  0.2371729E+04  0.7818609E-02  0.8450164E-01
        2   -1    0    0  501    0  0.00000000000E+00  0.00000000000E+00  0.29340218489E+04  0.29340218489E+04  0.25500000920E-02 0. -1.
       -2   -1    0    0    0  501  0.00000000000E+00  0.00000000000E+00 -0.47929931153E+03  0.47929931154E+03  0.25500000920E-02 0.  1.
    10030    2    1    2    0    0  0.00000000000E+00  0.00000000000E+00  0.24547225373E+04  0.34133211604E+04  0.23717290336E+04 0.  0.
        5    1    3    3  502    0 -0.81781128059E+03 -0.84736945126E+03  0.10268962871E+04  0.15624942726E+04  0.46999998093E+01 0.  1.
       -5    1    3    3    0  502  0.81781128059E+03  0.84736945126E+03  0.14278262502E+04  0.18508268878E+04  0.46999998093E+01 0. -1.
</event>
<event>
 5   0  0.9491680E-05  0.2420779E+04  0.7818609E-02  0.8431765E-01
       -2   -1    0    0    0  501  0.00000000000E+00  0.00000000000E+00  0.11700072147E+04  0.11700072147E+04  0.25500000920E-02 0. -1.
        2   -1    0    0  501    0  0.00000000000E+00  0.00000000000E+00 -0.12521650991E+04  0.12521650991E+04  0.25500000920E-02 0.  1.
    10030    2    1    2    0    0  0.00000000000E+00  0.00000000000E+00 -0.82157884395E+02  0.24221723138E+04  0.24207785524E+04 0.  0.
        5    1    3    3  502    0  0.49471016989E+03  0.10139145968E+04  0.39764716582E+03  0.11962049659E+04  0.46999998093E+01 0. -1.
       -5    1    3    3    0  502 -0.49471016989E+03 -0.10139145968E+04 -0.47980505022E+03  0.12259673479E+04  0.46999998093E+01 0.  1.
</event>
<event>
 5   0  0.9182865E-05  0.2410503E+04  0.7818609E-02  0.8435582E-01
        2   -1    0    0  501    0  0.00000000000E+00  0.00000000000E+00  0.19822017935E+04  0.19822017935E+04  0.25500000920E-02 0. -1.
       -2   -1    0    0    0  501  0.00000000000E+00  0.00000000000E+00 -0.73283689875E+03  0.73283689876E+03  0.25500000920E-02 0.  1.
    10030    2    1    2    0    0  0.00000000000E+00  0.00000000000E+00  0.12493648947E+04  0.27150386922E+04  0.24105025327E+04 0.  0.
        3    1    3    3  502    0  0.17923640106E+03  0.74471488927E+03  0.16727842482E+04  0.18398187696E+04  0.10100000352E+00 0. -1.
       -3    1    3    3    0  502 -0.17923640106E+03 -0.74471488927E+03 -0.42341935352E+03  0.87521992259E+03  0.10100000352E+00 0.  1.
</event>
<event>
 5   0  0.4018942E-05  0.2378166E+04  0.7818609E-02  0.8447723E-01
        1   -1    0    0  501    0  0.00000000000E+00  0.00000000000E+00  0.10376706778E+04  0.10376706778E+04  0.50400001928E-02 0. -1.
       -1   -1    0    0    0  501  0.00000000000E+00  0.00000000000E+00 -0.13625888109E+04  0.13625888109E+04  0.50400001928E-02 0.  1.
    10030    2    1    2    0    0  0.00000000000E+00  0.00000000000E+00 -0.32491813310E+03  0.24002594888E+04  0.23781660624E+04 0.  0.
        5    1    3    3  502    0  0.38933893225E+03  0.11043937268E+04  0.45919765231E+02  0.11719219355E+04  0.46999998093E+01 0. -1.
       -5    1    3    3    0  502 -0.38933893225E+03 -0.11043937268E+04 -0.37083789833E+03  0.12283375533E+04  0.46999998093E+01 0.  1.
</event>
<event>
 5   0  0.4208577E-05  0.2319936E+04  0.7818609E-02  0.8470102E-01
       -1   -1    0    0    0  501  0.00000000000E+00  0.00000000000E+00  0.14090163784E+04  0.14090163784E+04  0.50400001928E-02 0.  1.
        1   -1    0    0  501    0  0.00000000000E+00  0.00000000000E+00 -0.95494000357E+03  0.95494000358E+03  0.50400001928E-02 0. -1.
    10030    2    1    2    0    0  0.00000000000E+00  0.00000000000E+00  0.45407637486E+03  0.23639563820E+04  0.23199362969E+04 0.  0.
        1    1    3    3  502    0 -0.16644082665E+03  0.11048442121E+03 -0.93727885840E+03  0.95833241338E+03  0.50400001928E-02 0. -1.
       -1    1    3    3    0  502  0.16644082665E+03 -0.11048442121E+03  0.13913552333E+04  0.14056239686E+04  0.50400001928E-02 0.  1.
</event>
<event>
 5   0  0.9182865E-05  0.2527822E+04  0.7818609E-02  0.8393140E-01
        2   -1    0    0  501    0  0.00000000000E+00  0.00000000000E+00  0.12239868964E+04  0.12239868964E+04  0.25500000920E-02 0. -1.
       -2   -1    0    0    0  501  0.00000000000E+00  0.00000000000E+00 -0.13051377722E+04  0.13051377722E+04  0.25500000920E-02 0.  1.
    10030    2    1    2    0    0  0.00000000000E+00  0.00000000000E+00 -0.81150875800E+02  0.25291246687E+04  0.25278224078E+04 0.  0.
        3    1    3    3  502    0 -0.66442136446E+03  0.30954395331E+03 -0.10707652072E+04  0.12976175661E+04  0.10100000352E+00 0.  1.
       -3    1    3    3    0  502  0.66442136446E+03 -0.30954395331E+03  0.98961433144E+03  0.12315071026E+04  0.10100000352E+00 0. -1.
</event>
<event>
 5   0  0.3934906E-05  0.2344373E+04  0.7818609E-02  0.8460628E-01
       -1   -1    0    0    0  501  0.00000000000E+00  0.00000000000E+00  0.13310467387E+04  0.13310467387E+04  0.50400001928E-02 0.  1.
        1   -1    0    0  501    0  0.00000000000E+00  0.00000000000E+00 -0.10322864561E+04  0.10322864561E+04  0.50400001928E-02 0. -1.
    10030    2    1    2    0    0  0.00000000000E+00  0.00000000000E+00  0.29876028259E+03  0.23633331947E+04  0.23443732815E+04 0.  0.
        2    1    3    3  502    0 -0.55045170160E+03 -0.29011399246E+03  0.11508216639E+04  0.13082636227E+04  0.25500000920E-02 0.  1.
       -2    1    3    3    0  502  0.55045170160E+03  0.29011399246E+03 -0.85206138127E+03  0.10550695721E+04  0.25500000920E-02 0. -1.
</event>
<event>
 5   0  0.9519092E-05  0.2131691E+04  0.7818609E-02  0.8547410E-01
        2   -1    0    0  501    0  0.00000000000E+00  0.00000000000E+00  0.21610924342E+04  0.21610924342E+04  0.25500000920E-02 0. -1.
       -2   -1    0    0    0  501  0.00000000000E+00  0.00000000000E+00 -0.52567255054E+03  0.52567255055E+03  0.25500000920E-02 0.  1.
    10030    2    1    2    0    0  0.00000000000E+00  0.00000000000E+00  0.16354198836E+04  0.26867649847E+04  0.21316913208E+04 0.  0.
        4    1    3    3  502    0  0.57939374914E+03  0.50370236124E+03 -0.11413791906E+03  0.77617154207E+03  0.12699999809E+01 0.  1.
       -4    1    3    3    0  502 -0.57939374914E+03 -0.50370236124E+03  0.17495578027E+04  0.19105934426E+04  0.12699999809E+01 0. -1.
</event>
<event>
 5   0  0.4260395E-05  0.2276257E+04  0.7818609E-02  0.8487342E-01
        1   -1    0    0  501    0  0.00000000000E+00  0.00000000000E+00  0.20031840629E+04  0.20031840629E+04  0.50400001928E-02 0.  1.
       -1   -1    0    0    0  501  0.00000000000E+00  0.00000000000E+00 -0.64663849772E+03  0.64663849774E+03  0.50400001928E-02 0. -1.
    10030    2    1    2    0    0  0.00000000000E+00  0.00000000000E+00  0.13565455652E+04  0.26498225607E+04  0.22762565173E+04 0.  0.
        4    1    3    3  502    0  0.13464105747E+02 -0.12304482970E+03 -0.63877879438E+03  0.65066218063E+03  0.12699999809E+01 0. -1.
       -4    1    3    3    0  502 -0.13464105747E+02  0.12304482970E+03  0.19953243596E+04  0.19991603800E+04  0.12699999809E+01 0.  1.
</event>
<event>
 5   0  0.9519092E-05  0.1464346E+04  0.7818609E-02  0.8908515E-01
        2   -1    0    0  501    0  0.00000000000E+00  0.00000000000E+00  0.85413989797E+03  0.85413989797E+03  0.25500000920E-02 0.  1.
       -2   -1    0    0    0  501  0.00000000000E+00  0.00000000000E+00 -0.62762233652E+03  0.62762233653E+03  0.25500000920E-02 0. -1.
    10030    2    1    2    0    0  0.00000000000E+00  0.00000000000E+00  0.22651756144E+03  0.14817622345E+04  0.14643459680E+04 0.  0.
        4    1    3    3  502    0  0.30001554107E+03  0.50534036777E+03  0.55514175930E+03  0.80843193777E+03  0.12699999809E+01 0.  1.
       -4    1    3    3    0  502 -0.30001554107E+03 -0.50534036777E+03 -0.32862419786E+03  0.67333029673E+03  0.12699999809E+01 0. -1.
</event>
<event>
 5   0  0.9144244E-05  0.2396352E+04  0.7818609E-02  0.8440871E-01
        2   -1    0    0  501    0  0.00000000000E+00  0.00000000000E+00  0.85449767472E+03  0.85449767472E+03  0.25500000920E-02 0. -1.
       -2   -1    0    0    0  501  0.00000000000E+00  0.00000000000E+00 -0.16800816432E+04  0.16800816432E+04  0.25500000920E-02 0.  1.
    10030    2    1    2    0    0  0.00000000000E+00  0.00000000000E+00 -0.82558396848E+03  0.25345793179E+04  0.23963521089E+04 0.  0.
        1    1    3    3  502    0 -0.51202642489E+03  0.89416188426E+03  0.23397823783E+03  0.10566183563E+04  0.50400001928E-02 0. -1.
       -1    1    3    3    0  502  0.51202642489E+03 -0.89416188426E+03 -0.10595622063E+04  0.14779609616E+04  0.50400001928E-02 0.  1.
</event>
<event>
 5   0  0.9750757E-05  0.2435954E+04  0.7818609E-02  0.8426164E-01
        2   -1    0    0  501    0  0.00000000000E+00  0.00000000000E+00  0.20584401199E+04  0.20584401199E+04  0.25500000920E-02 0.  1.
       -2   -1    0    0    0  501  0.00000000000E+00  0.00000000000E+00 -0.72067591567E+03  0.72067591567E+03  0.25500000920E-02 0. -1.
    10030    2    1    2    0    0  0.00000000000E+00  0.00000000000E+00  0.13377642043E+04  0.27791160356E+04  0.24359542018E+04 0.  0.
        2    1    3    3  502    0 -0.13478705329E+03 -0.69605524263E+03 -0.46099058288E+03  0.84567887997E+03  0.25500000920E-02 0. -1.
       -2    1    3    3    0  502  0.13478705329E+03  0.69605524263E+03  0.17987547871E+04  0.19334371556E+04  0.25500000920E-02 0.  1.
</event>
<event>
 5   0  0.4061631E-05  0.2388148E+04  0.7818609E-02  0.8443954E-01
        1   -1    0    0  501    0  0.00000000000E+00  0.00000000000E+00  0.18364116354E+04  0.18364116354E+04  0.50400001928E-02 0. -1.
       -1   -1    0    0    0  501  0.00000000000E+00  0.00000000000E+00 -0.77641239685E+03  0.77641239687E+03  0.50400001928E-02 0.  1.
    10030    2    1    2    0    0  0.00000000000E+00  0.00000000000E+00  0.10599992385E+04  0.26128240323E+04  0.23881480352E+04 0.  0.
        3    1    3    3  502    0  0.48675181922E+03  0.38611412918E+03  0.16456396652E+04  0.17590171608E+04  0.10100000352E+00 0. -1.
       -3    1    3    3    0  502 -0.48675181922E+03 -0.38611412918E+03 -0.58564042661E+03  0.85380687146E+03  0.10100000352E+00 0.  1.
</event>
<event>
 5   0  0.4208577E-05  0.2395820E+04  0.7818609E-02  0.8441070E-01
        1   -1    0    0  501    0  0.00000000000E+00  0.00000000000E+00  0.10708664202E+04  0.10708664202E+04  0.50400001928E-02 0. -1.
       -1   -1    0    0    0  501  0.00000000000E+00  0.00000000000E+00 -0.13400260874E+04  0.13400260874E+04  0.50400001928E-02 0.  1.
    10030    2    1    2    0    0  0.00000000000E+00  0.00000000000E+00 -0.26915966722E+03  0.24108925077E+04  0.23958204768E+04 0.  0.
        1    1    3    3  502    0  0.10516199087E+04  0.53344753732E+03 -0.34690062678E+03  0.12291504189E+04  0.50400001928E-02 0.  1.
       -1    1    3    3    0  502 -0.10516199087E+04 -0.53344753732E+03  0.77740959561E+02  0.11817420887E+04  0.50400001928E-02 0. -1.
</event>
<event>
 5   0  0.3934906E-05  0.2376999E+04  0.7818609E-02  0.8448165E-01
        1   -1    0    0  501    0  0.00000000000E+00  0.00000000000E+00  0.73328992810E+03  0.73328992812E+03  0.50400001928E-02 0.  1.
       -1   -1    0    0    0  501  0.00000000000E+00  0.00000000000E+00 -0.19262921420E+04  0.19262921420E+04  0.50400001928E-02 0. -1.
    10030    2    1    2    0    0  0.00000000000E+00  0.00000000000E+00 -0.11930022139E+04  0.26595820702E+04  0.23769986339E+04 0.  0.
        2    1    3    3  502    0  0.10656735316E+04 -0.28758068892E+03 -0.10347129709E+03  0.11086338611E+04  0.25500000920E-02 0.  1.
       -2    1    3    3    0  502 -0.10656735316E+04  0.28758068892E+03 -0.10895309168E+04  0.15509482091E+04  0.25500000920E-02 0. -1.
</event>
<event>
 5   0  0.9750757E-05  0.2129401E+04  0.7818609E-02  0.8548402E-01
       -2   -1    0    0    0  501  0.00000000000E+00  0.00000000000E+00  0.10687661508E+04  0.10687661508E+04  0.25500000920E-02 0. -1.
        2   -1    0    0  501    0  0.00000000000E+00  0.00000000000E+00 -0.10606501442E+04  0.10606501442E+04  0.25500000920E-02 0.  1.
    10030    2    1    2    0    0  0.00000000000E+00  0.00000000000E+00  0.81160065805E+01  0.21294162950E+04  0.21294008283E+04 0.  0.
        2    1    3    3  502    0 -0.58232206094E+03  0.40986574629E+02 -0.88634617848E+03  0.10613144822E+04  0.25500000920E-02 0.  1.
       -2    1    3    3    0  502  0.58232206094E+03 -0.40986574629E+02  0.89446218506E+03  0.10681018128E+04  0.25500000920E-02 0. -1.
</event>
<event>
 5   0  0.9491680E-05  0.2417473E+04  0.7818609E-02  0.8432991E-01
        2   -1    0    0  501    0  0.00000000000E+00  0.00000000000E+00  0.12043811685E+04  0.12043811685E+04  0.25500000920E-02 0.  1.
       -2   -1    0    0    0  501  0.00000000000E+00  0.00000000000E+00 -0.12131078145E+04  0.12131078145E+04  0.25500000920E-02 0. -1.
    10030    2    1    2    0    0  0.00000000000E+00  0.00000000000E+00 -0.87266459935E+01  0.24174889829E+04  0.24174732322E+04 0.  0.
        5    1    3    3  502    0  0.88757293394E+02 -0.11791798948E+04 -0.25472276942E+03  0.12096482384E+04  0.46999998093E+01 0. -1.
       -5    1    3    3    0  502 -0.88757293394E+02  0.11791798948E+04  0.24599612343E+03  0.12078407445E+04  0.46999998093E+01 0.  1.
</event>
<event>
 5   0  0.4208577E-05  0.2453065E+04  0.7818609E-02  0.8419900E-01
        1   -1    0    0  501    0  0.00000000000E+00  0.00000000000E+00  0.16779499853E+04  0.16779499853E+04  0.50400001928E-02 0.  1.
       -1   -1    0    0    0  501  0.00000000000E+00  0.00000000000E+00 -0.89655913862E+03  0.89655913863E+03  0.50400001928E-02 0. -1.
    10030    2    1    2    0    0  0.00000000000E+00  0.00000000000E+00  0.78139084669E+03  0.25745091239E+04  0.24530645271E+04 0.  0.
        1    1    3    3  502    0 -0.11150623234E+04 -0.29795361276E+03  0.82626125010E+03  0.14194534138E+04  0.50400001928E-02 0.  1.
       -1    1    3    3    0  502  0.11150623234E+04  0.29795361276E+03 -0.44870403417E+02  0.11550557102E+04  0.50400001928E-02 0. -1.
</event>
<event>
 5   0  0.9144244E-05  0.1595694E+04  0.7818609E-02  0.8823197E-01
       -2   -1    0    0    0  501  0.00000000000E+00  0.00000000000E+00  0.44747574109E+03  0.44747574110E+03  0.25500000920E-02 0. -1.
        2   -1    0    0  501    0  0.00000000000E+00  0.00000000000E+00 -0.14225578244E+04  0.14225578244E+04  0.25500000920E-02 0.  1.
    10030    2    1    2    0    0  0.00000000000E+00  0.00000000000E+00 -0.97508208330E+03  0.18700335655E+04  0.15956943526E+04 0.  0.
        1    1    3    3  502    0  0.16823173568E+03  0.14636436181E+03 -0.13852962783E+04  0.14031287261E+04  0.50400001928E-02 0.  1.
       -1    1    3    3    0  502 -0.16823173568E+03 -0.14636436181E+03  0.41021419497E+03  0.46690483943E+03  0.50400001928E-02 0. -1.
</event>
<event>
 5   0  0.4208577E-05  0.2425552E+04  0.7818609E-02  0.8429999E-01
        1   -1    0    0  501    0  0.00000000000E+00  0.00000000000E+00  0.22599001385E+04  0.22599001385E+04  0.50400001928E-02 0. -1.
       -1   -1    0    0    0  501  0.00000000000E+00  0.00000000000E+00 -0.65083678179E+03  0.65083678181E+03  0.50400001928E-02 0.  1.
    10030    2    1    2    0    0  0.00000000000E+00  0.00000000000E+00  0.16090633567E+04  0.29107369203E+04  0.24255524182E+04 0.  0.
        1    1    3    3  502    0  0.16551572577E+03 -0.49126076982E+03  0.21202454503E+04  0.21826986436E+04  0.50400001928E-02 0. -1.
       -1    1    3    3    0  502 -0.16551572577E+03  0.49126076982E+03 -0.51118209360E+03  0.72803827666E+03  0.50400001928E-02 0.  1.
</event>
<event>
 5   0  0.9491680E-05  0.2425398E+04  0.7818609E-02  0.8430056E-01
        2   -1    0    0  501    0  0.00000000000E+00  0.00000000000E+00  0.14867251944E+04  0.14867251944E+04  0.25500000920E-02 0. -1.
       -2   -1    0    0    0  501  0.00000000000E+00  0.00000000000E+00 -0.98918006060E+03  0.98918006060E+03  0.25500000920E-02 0.  1.
    10030    2    1    2    0    0  0.00000000000E+00  0.00000000000E+00  0.49754513382E+03  0.24759052550E+04  0.24253980440E+04 0.  0.
        5    1    3    3  502    0  0.67007514098E+03  0.74567020665E+03 -0.44777982666E+03  0.10979770557E+04  0.46999998093E+01 0.  1.
       -5    1    3    3    0  502 -0.67007514098E+03 -0.74567020665E+03  0.94532496048E+03  0.13779281993E+04  0.46999998093E+01 0. -1.
</event>
<event>
 5   0  0.9144244E-05  0.1864004E+04  0.7818609E-02  0.8672984E-01
        2   -1    0    0  501    0  0.00000000000E+00  0.00000000000E+00  0.14232486773E+04  0.14232486773E+04  0.25500000920E-02 0.  1.
       -2   -1    0    0    0  501  0.00000000000E+00  0.00000000000E+00 -0.61031337907E+03  0.61031337907E+03  0.25500000920E-02 0. -1.
    10030    2    1    2    0    0  0.00000000000E+00  0.00000000000E+00  0.81293529824E+03  0.20335620564E+04  0.18640039802E+04 0.  0.
        1    1    3    3  502    0 -0.43381117589E+03 -0.82331746666E+03  0.46192387558E+03  0.10389501692E+04  0.50400001928E-02 0. -1.
       -1    1    3    3    0  502  0.43381117589E+03  0.82331746666E+03  0.35101142266E+03  0.99461188717E+03  0.50400001928E-02 0.  1.
</event>
<event>
 5   0  0.9491680E-05  0.2359056E+04  0.7818609E-02  0.8454993E-01
        2   -1    0    0  501    0  0.00000000000E+00  0.00000000000E+00  0.12860949316E+04  0.12860949316E+04  0.25500000920E-02 0. -1.
       -2   -1    0    0    0  501  0.00000000000E+00  0.00000000000E+00 -0.10817911556E+04  0.10817911556E+04  0.25500000920E-02 0.  1.
    10030    2    1    2    0    0  0.00000000000E+00  0.00000000000E+00  0.20430377602E+03  0.23678860872E+04  0.23590558469E+04 0.  0.
        5    1    3    3  502    0 -0.53821911783E+03  0.36983610912E+03  0.10880736689E+04  0.12690094426E+04  0.46999998093E+01 0. -1.
       -5    1    3    3    0  502  0.53821911783E+03 -0.36983610912E+03 -0.88376989289E+03  0.10988766446E+04  0.46999998093E+01 0.  1.
</event>
<event>
 5   0  0.9491680E-05  0.1564733E+04  0.7818609E-02  0.8842512E-01
       -2   -1    0    0    0  501  0.00000000000E+00  0.00000000000E+00  0.45297023044E+03  0.45297023045E+03  0.25500000920E-02 0.  1.
        2   -1    0    0  501    0  0.00000000000E+00  0.00000000000E+00 -0.13512969734E+04  0.13512969734E+04  0.25500000920E-02 0. -1.
    10030    2    1    2    0    0  0.00000000000E+00  0.00000000000E+00 -0.89832674297E+03  0.18042672039E+04  0.15647329503E+04 0.  0.
        5    1    3    3  502    0 -0.44915034665E+03  0.33051757199E+03 -0.10818870192E+04  0.12171604297E+04  0.46999998093E+01 0. -1.
       -5    1    3    3    0  502  0.44915034665E+03 -0.33051757199E+03  0.18356027623E+03  0.58710677418E+03  0.46999998093E+01 0.  1.
</event>
<event>
 5   0  0.3934906E-05  0.2317518E+04  0.7818609E-02  0.8471046E-01
        1   -1    0    0  501    0  0.00000000000E+00  0.00000000000E+00  0.15792915478E+04  0.15792915478E+04  0.50400001928E-02 0.  1.
       -1   -1    0    0    0  501  0.00000000000E+00  0.00000000000E+00 -0.85020524687E+03  0.85020524688E+03  0.50400001928E-02 0. -1.
    10030    2    1    2    0    0  0.00000000000E+00  0.00000000000E+00  0.72908630097E+03  0.24294967947E+04  0.23175176032E+04 0.  0.
        2    1    3    3  502    0  0.47197561989E+03  0.10333860731E+04  0.12531923994E+03  0.11429578618E+04  0.25500000920E-02 0. -1.
       -2    1    3    3    0  502 -0.47197561989E+03 -0.10333860731E+04  0.60376706102E+03  0.12865389329E+04  0.25500000920E-02 0.  1.
</event>
<event>
 5   0  0.9182865E-05  0.2484612E+04  0.7818609E-02  0.8408488E-01
       -2   -1    0    0    0  501  0.00000000000E+00  0.00000000000E+00  0.86768302331E+03  0.86768302332E+03  0.25500000920E-02 0. -1.
        2   -1    0    0  501    0  0.00000000000E+00  0.00000000000E+00 -0.17786730232E+04  0.17786730232E+04  0.25500000920E-02 0.  1.
    10030    2    1    2    0    0  0.00000000000E+00  0.00000000000E+00 -0.91098999988E+03  0.26463560465E+04  0.24846121518E+04 0.  0.
        3    1    3    3  502    0  0.16475425365E+03 -0.94467683872E+02  0.85213001221E+03  0.87303704119E+03  0.10100000352E+00 0. -1.
       -3    1    3    3    0  502 -0.16475425365E+03  0.94467683872E+02 -0.17631200121E+04  0.17733190053E+04  0.10100000352E+00 0.  1.
</event>
<event>
 5   0  0.3934906E-05  0.2368410E+04  0.7818609E-02  0.8451426E-01
        1   -1    0    0  501    0  0.00000000000E+00  0.00000000000E+00  0.18075301827E+04  0.18075301827E+04  0.50400001928E-02 0. -1.
       -1   -1    0    0    0  501  0.00000000000E+00  0.00000000000E+00 -0.77583321511E+03  0.77583321512E+03  0.50400001928E-02 0.  1.
    10030    2    1    2    0    0  0.00000000000E+00  0.00000000000E+00  0.10316969675E+04  0.25833633978E+04  0.23684103978E+04 0.  0.
        2    1    3    3  502    0  0.20130419159E+03 -0.60702952397E+03 -0.57126813512E+03  0.85752871831E+03  0.25500000920E-02 0.  1.
       -2    1    3    3    0  502 -0.20130419159E+03  0.60702952397E+03  0.16029651027E+04  0.17258346795E+04  0.25500000920E-02 0. -1.
</event>
<event>
 5   0  0.9519092E-05  0.2380779E+04  0.7818609E-02  0.8446735E-01
        2   -1    0    0  501    0  0.00000000000E+00  0.00000000000E+00  0.12786819105E+04  0.12786819105E+04  0.25500000920E-02 0.  1.
       -2   -1    0    0    0  501  0.00000000000E+00  0.00000000000E+00 -0.11081933396E+04  0.11081933396E+04  0.25500000920E-02 0. -1.
    10030    2    1    2    0    0  0.00000000000E+00  0.00000000000E+00  0.17048857087E+03  0.23868752500E+04  0.23807786765E+04 0.  0.
        4    1    3    3  502    0  0.98644996342E+03  0.33621436766E+03  0.66195774367E+03  0.12346308350E+04  0.12699999809E+01 0.  1.
       -4    1    3    3    0  502 -0.98644996342E+03 -0.33621436766E+03 -0.49146917280E+03  0.11522444151E+04  0.12699999809E+01 0. -1.
</event>
<event>
 5   0  0.4061631E-05  0.2003464E+04  0.7818609E-02  0.8605003E-01
        1   -1    0    0  501    0  0.00000000000E+00  0.00000000000E+00  0.17681351179E+04  0.17681351179E+04  0.50400001928E-02 0. -1.
       -1   -1    0    0    0  501  0.00000000000E+00  0.00000000000E+00 -0.56752873011E+03  0.56752873014E+03  0.50400001928E-02 0.  1.
    10030    2    1    2    0    0  0.00000000000E+00  0.00000000000E+00  0.12006063878E+04  0.23356638480E+04  0.20034644775E+04 0.  0.
        3    1    3    3  502    0  0.69066981550E+03 -0.67188963024E+03  0.91958898073E+03  0.13319550942E+04  0.10100000352E+00 0.  1.
       -3    1    3    3    0  502 -0.69066981550E+03  0.67188963024E+03  0.28101740704E+03  0.10037087538E+04  0.10100000352E+00 0. -1.
</event>
<event>
 5   0  0.9182865E-05  0.2180372E+04  0.7818609E-02  0.8526642E-01
        2   -1    0    0  501    0  0.00000000000E+00  0.00000000000E+00  0.13827962503E+04  0.13827962503E+04  0.25500000920E-02 0.  1.
       -2   -1    0    0    0  501  0.00000000000E+00  0.00000000000E+00 -0.85949457728E+03  0.85949457728E+03  0.25500000920E-02 0. -1.
    10030    2    1    2    0    0  0.00000000000E+00  0.00000000000E+00  0.52330167303E+03  0.22422908276E+04  0.21803723339E+04 0.  0.
        3    1    3    3  502    0 -0.31637752303E+03  0.85710358757E+03 -0.35003823634E+03  0.97839055290E+03  0.10100000352E+00 0. -1.
       -3    1    3    3    0  502  0.31637752303E+03 -0.85710358757E+03  0.87333990937E+03  0.12639002747E+04  0.10100000352E+00 0.  1.
</event>
<event>
 5   0  0.4260395E-05  0.2404662E+04  0.7818609E-02  0.8437760E-01
       -1   -1    0    0    0  501  0.00000000000E+00  0.00000000000E+00  0.64767358246E+03  0.64767358248E+03  0.50400001928E-02 0.  1.
        1   -1    0    0  501    0  0.00000000000E+00  0.00000000000E+00 -0.22319874141E+04  0.22319874141E+04  0.50400001928E-02 0. -1.
    10030    2    1    2    0    0  0.00000000000E+00  0.00000000000E+00 -0.15843138317E+04  0.28796609966E+04  0.24046615434E+04 0.  0.
        4    1    3    3  502    0  0.10401849605E+04 -0.26190906075E+03 -0.14426019556E+04  0.17976882720E+04  0.12699999809E+01 0.  1.
       -4    1    3    3    0  502 -0.10401849605E+04  0.26190906075E+03 -0.14171187609E+03  0.10819727246E+04  0.12699999809E+01 0. -1.
</event>
<event>
 5   0  0.9144244E-05  0.2368877E+04  0.7818609E-02  0.8451248E-01
       -2   -1    0    0    0  501  0.00000000000E+00  0.00000000000E+00  0.66633924630E+03  0.66633924631E+03  0.25500000920E-02 0. -1.
        2   -1    0    0  501    0  0.00000000000E+00  0.00000000000E+00 -0.21053760111E+04  0.21053760111E+04  0.25500000920E-02 0.  1.
    10030    2    1    2    0    0  0.00000000000E+00  0.00000000000E+00 -0.14390367648E+04  0.27717152574E+04  0.23688770879E+04 0.  0.
        1    1    3    3  502    0  0.82350849426E+03  0.59948945753E+03 -0.14267394369E+04  0.17530371561E+04  0.50400001928E-02 0.  1.
       -1    1    3    3    0  502 -0.82350849426E+03 -0.59948945753E+03 -0.12297327897E+02  0.10186781013E+04  0.50400001928E-02 0. -1.
</event>
<event>
 5   0  0.4018942E-05  0.2494945E+04  0.7818609E-02  0.8404789E-01
        1   -1    0    0  501    0  0.00000000000E+00  0.00000000000E+00  0.14588715923E+04  0.14588715923E+04  0.50400001928E-02 0. -1.
       -1   -1    0    0    0  501  0.00000000000E+00  0.00000000000E+00 -0.10667060370E+04  0.10667060370E+04  0.50400001928E-02 0.  1.
    10030    2    1    2    0    0  0.00000000000E+00  0.00000000000E+00  0.39216555529E+03  0.25255776293E+04  0.24949445964E+04 0.  0.
        5    1    3    3  502    0  0.75441762143E+03 -0.32516287118E+03  0.11463785447E+04  0.14103484315E+04  0.46999998093E+01 0. -1.
       -5    1    3    3    0  502 -0.75441762143E+03  0.32516287118E+03 -0.75421298944E+03  0.11152291979E+04  0.46999998093E+01 0.  1.
</event>
<event>
 5   0  0.4260395E-05  0.2405413E+04  0.7818609E-02  0.8437480E-01
       -1   -1    0    0    0  501  0.00000000000E+00  0.00000000000E+00  0.99512395399E+03  0.99512395400E+03  0.50400001928E-02 0. -1.
        1   -1    0    0  501    0  0.00000000000E+00  0.00000000000E+00 -0.14535904802E+04  0.14535904802E+04  0.50400001928E-02 0.  1.
    10030    2    1    2    0    0  0.00000000000E+00  0.00000000000E+00 -0.45846652620E+03  0.24487144342E+04  0.24054128179E+04 0.  0.
        4    1    3    3  502    0 -0.11522055965E+04  0.83305246690E+02  0.11143032630E+03  0.11605756465E+04  0.12699999809E+01 0. -1.
       -4    1    3    3    0  502  0.11522055965E+04 -0.83305246690E+02 -0.56989685249E+03  0.12881387876E+04  0.12699999809E+01 0.  1.
</event>
<event>
 5   0  0.9182865E-05  0.2387208E+04  0.7818609E-02  0.8444308E-01
       -2   -1    0    0    0  501  0.00000000000E+00  0.00000000000E+00  0.99132533250E+03  0.99132533251E+03  0.25500000920E-02 0. -1.
        2   -1    0    0  501    0  0.00000000000E+00  0.00000000000E+00 -0.14371569414E+04  0.14371569414E+04  0.25500000920E-02 0.  1.
    10030    2    1    2    0    0  0.00000000000E+00  0.00000000000E+00 -0.44583160888E+03  0.24284822739E+04  0.23872076431E+04 0.  0.
        3    1    3    3  502    0  0.64366381333E+03 -0.10050502226E+04 -0.23935119174E+03  0.12172584187E+04  0.10100000352E+00 0.  1.
       -3    1    3    3    0  502 -0.64366381333E+03  0.10050502226E+04 -0.20648041714E+03  0.12112238552E+04  0.10100000352E+00 0. -1.
</event>
<event>
 5   0  0.4018942E-05  0.2363677E+04  0.7818609E-02  0.8453229E-01
       -1   -1    0    0    0  501  0.00000000000E+00  0.00000000000E+00  0.67772791560E+03  0.67772791562E+03  0.50400001928E-02 0.  1.
        1   -1    0    0  501    0  0.00000000000E+00  0.00000000000E+00 -0.20609197038E+04  0.20609197038E+04  0.50400001928E-02 0. -1.
    10030    2    1    2    0    0  0.00000000000E+00  0.00000000000E+00 -0.13831917882E+04  0.27386476194E+04  0.23636774865E+04 0.  0.
        5    1    3    3  502    0  0.62071821411E+03  0.35082850132E+03 -0.17836389014E+04  0.19208752066E+04  0.46999998093E+01 0. -1.
       -5    1    3    3    0  502 -0.62071821411E+03 -0.35082850132E+03  0.40044711323E+03  0.81777241282E+03  0.46999998093E+01 0.  1.
</event>
<event>
 5   0  0.4061631E-05  0.2345978E+04  0.7818609E-02  0.8460010E-01
       -1   -1    0    0    0  501  0.00000000000E+00  0.00000000000E+00  0.11197809900E+04  0.11197809901E+04  0.50400001928E-02 0. -1.
        1   -1    0    0  501    0  0.00000000000E+00  0.00000000000E+00 -0.12287256897E+04  0.12287256897E+04  0.50400001928E-02 0.  1.
    10030    2    1    2    0    0  0.00000000000E+00  0.00000000000E+00 -0.10894469967E+03  0.23485066798E+04  0.23459784051E+04 0.  0.
        3    1    3    3  502    0 -0.71893913709E+03 -0.52455287924E+03 -0.81941262277E+03  0.12097380967E+04  0.10100000352E+00 0.  1.
       -3    1    3    3    0  502  0.71893913709E+03  0.52455287924E+03  0.71046792309E+03  0.11387685831E+04  0.10100000352E+00 0. -1.
</event>
<event>
 5   0  0.3934906E-05  0.1326776E+04  0.7818609E-02  0.9008597E-01
        1   -1    0    0  501    0  0.00000000000E+00  0.00000000000E+00  0.71440577296E+03  0.71440577298E+03  0.50400001928E-02 0. -1.
       -1   -1    0    0    0  501  0.00000000000E+00  0.00000000000E+00 -0.61601349099E+03  0.61601349101E+03  0.50400001928E-02 0.  1.
    10030    2    1    2    0    0  0.00000000000E+00  0.00000000000E+00  0.98392281972E+02  0.13304192640E+04  0.13267759332E+04 0.  0.
        2    1    3    3  502    0  0.56329700714E+01  0.31953483000E+03 -0.53373432188E+03  0.62209851655E+03  0.25500000920E-02 0.  1.
       -2    1    3    3    0  502 -0.56329700714E+01 -0.31953483000E+03  0.63212660386E+03  0.70832074743E+03  0.25500000920E-02 0. -1.
</event>
<event>
 5   0  0.9750757E-05  0.2283690E+04  0.7818609E-02  0.8484380E-01
        2   -1    0    0  501    0  0.00000000000E+00  0.00000000000E+00  0.22243785757E+04  0.22243785757E+04  0.25500000920E-02 0.  1.
       -2   -1    0    0    0  501  0.00000000000E+00  0.00000000000E+00 -0.58614547701E+03  0.58614547702E+03  0.25500000920E-02 0. -1.
    10030    2    1    2    0    0  0.00000000000E+00  0.00000000000E+00  0.16382330987E+04  0.28105240528E+04  0.22836895072E+04 0.  0.
        2    1    3    3  502    0 -0.49836060386E+02 -0.10764137574E+04  0.35428008452E+03  0.11343123857E+04  0.25500000920E-02 0. -1.
       -2    1    3    3    0  502  0.49836060386E+02  0.10764137574E+04  0.12839530142E+04  0.16762116671E+04  0.25500000920E-02 0.  1.
</event>
<event>
 5   0  0.3934906E-05  0.2081029E+04  0.7818609E-02  0.8569647E-01
        1   -1    0    0  501    0  0.00000000000E+00  0.00000000000E+00  0.10498179946E+04  0.10498179946E+04  0.50400001928E-02 0. -1.
       -1   -1    0    0    0  501  0.00000000000E+00  0.00000000000E+00 -0.10312930850E+04  0.10312930850E+04  0.50400001928E-02 0.  1.
    10030    2    1    2    0    0  0.00000000000E+00  0.00000000000E+00  0.18524909558E+02  0.20811110796E+04  0.20810286286E+04 0.  0.
        2    1    3    3  502    0  0.33560681708E+03  0.96679373500E+03  0.19728047959E+03  0.10422291731E+04  0.25500000920E-02 0. -1.
       -2    1    3    3    0  502 -0.33560681708E+03 -0.96679373500E+03 -0.17875557003E+03  0.10388819064E+04  0.25500000920E-02 0.  1.
</event>
<event>
 5   0  0.3934906E-05  0.1670986E+04  0.7818609E-02  0.8778088E-01
       -1   -1    0    0    0  501  0.00000000000E+00  0.00000000000E+00  0.83883168887E+03  0.83883168888E+03  0.50400001928E-02 0.  1.
        1   -1    0    0  501    0  0.00000000000E+00  0.00000000000E+00 -0.83216712625E+03  0.83216712626E+03  0.50400001928E-02 0. -1.
    10030    2    1    2    0    0  0.00000000000E+00  0.00000000000E+00  0.66645626208E+01  0.16709988151E+04  0.16709855247E+04 0.  0.
        2    1    3    3  502    0 -0.82532558781E+02 -0.72488921422E+03  0.41048679349E+03  0.83712329067E+03  0.25500000920E-02 0.  1.
       -2    1    3    3    0  502  0.82532558781E+02  0.72488921422E+03 -0.40382223087E+03  0.83387552447E+03  0.25500000920E-02 0. -1.
</event>
<event>
 5   0  0.4061631E-05  0.2326284E+04  0.7818609E-02  0.8467629E-01
       -1   -1    0    0    0  501  0.00000000000E+00  0.00000000000E+00  0.10016924534E+04  0.10016924534E+04  0.50400001928E-02 0. -1.
        1   -1    0    0  501    0  0.00000000000E+00  0.00000000000E+00 -0.13506138761E+04  0.13506138761E+04  0.50400001928E-02 0.  1.
    10030    2    1    2    0    0  0.00000000000E+00  0.00000000000E+00 -0.34892142272E+03  0.23523063295E+04  0.23262843568E+04 0.  0.
        3    1    3    3  502    0  0.99473897553E+03 -0.50814709431E+03 -0.50240414251E+03  0.12247975472E+04  0.10100000352E+00 0.  1.
       -3    1    3    3    0  502 -0.99473897553E+03  0.50814709431E+03  0.15348271979E+03  0.11275087824E+04  0.10100000352E+00 0. -1.
</event>
<event>
 5   0  0.9144244E-05  0.2048786E+04  0.7818609E-02  0.8584145E-01
       -2   -1    0    0    0  501  0.00000000000E+00  0.00000000000E+00  0.92303154880E+03  0.92303154880E+03  0.25500000920E-02 0.  1.
        2   -1    0    0  501    0  0.00000000000E+00  0.00000000000E+00 -0.11368851198E+04  0.11368851198E+04  0.25500000920E-02 0. -1.
    10030    2    1    2    0    0  0.00000000000E+00  0.00000000000E+00 -0.21385357100E+03  0.20599166686E+04  0.20487858189E+04 0.  0.
        1    1    3    3  502    0  0.62521593997E+02  0.22139273264E+03 -0.11105770524E+04  0.11341539054E+04  0.50400001928E-02 0. -1.
       -1    1    3    3    0  502 -0.62521593997E+02 -0.22139273264E+03  0.89672348136E+03  0.92576276325E+03  0.50400001928E-02 0.  1.
</event>
<event>
 5   0  0.9519092E-05  0.2384453E+04  0.7818609E-02  0.8445347E-01
       -2   -1    0    0    0  501  0.00000000000E+00  0.00000000000E+00  0.10178879100E+04  0.10178879100E+04  0.25500000920E-02 0. -1.
        2   -1    0    0  501    0  0.00000000000E+00  0.00000000000E+00 -0.13964247999E+04  0.13964247999E+04  0.25500000920E-02 0.  1.
    10030    2    1    2    0    0  0.00000000000E+00  0.00000000000E+00 -0.37853688990E+03  0.24143127099E+04  0.23844529108E+04 0.  0.
        4    1    3    3  502    0  0.55824168447E+03 -0.95031982836E+03 -0.64956081387E+03  0.12793249854E+04  0.12699999809E+01 0.  1.
       -4    1    3    3    0  502 -0.55824168447E+03  0.95031982836E+03  0.27102392397E+03  0.11349877245E+04  0.12699999809E+01 0. -1.
</event>
<event>
 5   0  0.4208577E-05  0.1726928E+04  0.7818609E-02  0.8746154E-01
        1   -1    0    0  501    0  0.00000000000E+00  0.00000000000E+00  0.12595006886E+04  0.12595006886E+04  0.50400001928E-02 0.  1.
       -1   -1    0    0    0  501  0.00000000000E+00  0.00000000000E+00 -0.59195687392E+03  0.59195687394E+03  0.50400001928E-02 0. -1.
    10030    2    1    2    0    0  0.00000000000E+00  0.00000000000E+00  0.66754381465E+03  0.18514575625E+04  0.17269280128E+04 0.  0.
        1    1    3    3  502    0 -0.37259872141E+03 -0.32169862147E+03 -0.42678469416E+03  0.65150977387E+03  0.50400001928E-02 0. -1.
       -1    1    3    3    0  502  0.37259872141E+03  0.32169862147E+03  0.10943285088E+04  0.11999477886E+04  0.50400001928E-02 0.  1.
</event>
<event>
 5   0  0.9144244E-05  0.2338742E+04  0.7818609E-02  0.8462801E-01
       -2   -1    0    0    0  501  0.00000000000E+00  0.00000000000E+00  0.72295569079E+03  0.72295569080E+03  0.25500000920E-02 0. -1.
        2   -1    0    0  501    0  0.00000000000E+00  0.00000000000E+00 -0.18914413420E+04  0.18914413420E+04  0.25500000920E-02 0.  1.
    10030    2    1    2    0    0  0.00000000000E+00  0.00000000000E+00 -0.11684856512E+04  0.26143970328E+04  0.23387417831E+04 0.  0.
        1    1    3    3  502    0 -0.56594869188E+03 -0.62409491994E+03 -0.14907724917E+04  0.17123653269E+04  0.50400001928E-02 0.  1.
       -1    1    3    3    0  502  0.56594869188E+03  0.62409491994E+03  0.32228684041E+03  0.90203170591E+03  0.50400001928E-02 0. -1.
</event>
<event>
 5   0  0.9519092E-05  0.2639892E+04  0.7818609E-02  0.8354776E-01
       -2   -1    0    0    0  501  0.00000000000E+00  0.00000000000E+00  0.10280730861E+04  0.10280730861E+04  0.25500000920E-02 0. -1.
        2   -1    0    0  501    0  0.00000000000E+00  0.00000000000E+00 -0.16946829208E+04  0.16946829208E+04  0.25500000920E-02 0.  1.
    10030    2    1    2    0    0  0.00000000000E+00  0.00000000000E+00 -0.66660983465E+03  0.27227560069E+04  0.26398923466E+04 0.  0.
        4    1    3    3  502    0  0.60220104024E+03 -0.90746906190E+03 -0.11024404897E+04  0.15496847542E+04  0.12699999809E+01 0.  1.
       -4    1    3    3    0  502 -0.60220104024E+03  0.90746906190E+03  0.43583065502E+03  0.11730712527E+04  0.12699999809E+01 0. -1.
</event>
<event>
 5   0  0.9491680E-05  0.1414600E+04  0.7818609E-02  0.8943318E-01
        2   -1    0    0  501    0  0.00000000000E+00  0.00000000000E+00  0.10720673698E+04  0.10720673698E+04  0.25500000920E-02 0. -1.
       -2   -1    0    0    0  501  0.00000000000E+00  0.00000000000E+00 -0.46664334193E+03  0.46664334193E+03  0.25500000920E-02 0.  1.
    10030    2    1    2    0    0  0.00000000000E+00  0.00000000000E+00  0.60542402786E+03  0.15387107117E+04  0.14145997317E+04 0.  0.
        5    1    3    3  502    0 -0.13129904893E+03  0.69326431722E+03  0.24946674942E+03  0.74840537334E+03  0.46999998093E+01 0.  1.
       -5    1    3    3    0  502  0.13129904893E+03 -0.69326431722E+03  0.35595727844E+03  0.79030533837E+03  0.46999998093E+01 0. -1.
</event>
<event>
 5   0  0.9144244E-05  0.2375990E+04  0.7818609E-02  0.8448547E-01
        2   -1    0    0  501    0  0.00000000000E+00  0.00000000000E+00  0.86066206017E+03  0.86066206017E+03  0.25500000920E-02 0.  1.
       -2   -1    0    0    0  501  0.00000000000E+00  0.00000000000E+00 -0.16398219972E+04  0.16398219972E+04  0.25500000920E-02 0. -1.
    10030    2    1    2    0    0  0.00000000000E+00  0.00000000000E+00 -0.77915993706E+03  0.25004840574E+04  0.23759903859E+04 0.  0.
        1    1    3    3  502    0  0.88055749962E+03  0.77669342677E+03 -0.57988163421E+03  0.13095407207E+04  0.50400001928E-02 0.  1.
       -1    1    3    3    0  502 -0.88055749962E+03 -0.77669342677E+03 -0.19927830285E+03  0.11909433367E+04  0.50400001928E-02 0. -1.
</event>
<event>
 5   0  0.9491680E-05  0.2354998E+04  0.7818609E-02  0.8456546E-01
        2   -1    0    0  501    0  0.00000000000E+00  0.00000000000E+00  0.15450190851E+04  0.15450190851E+04  0.25500000920E-02 0.  1.
       -2   -1    0    0    0  501  0.00000000000E+00  0.00000000000E+00 -0.89740231957E+03  0.89740231958E+03  0.25500000920E-02 0. -1.
    10030    2    1    2    0    0  0.00000000000E+00  0.00000000000E+00  0.64761676557E+03  0.24424214047E+04  0.23549978436E+04 0.  0.
        5    1    3    3  502    0  0.50814243553E+03  0.40445644047E+03 -0.69483810773E+03  0.95111294438E+03  0.46999998093E+01 0. -1.
       -5    1    3    3    0  502 -0.50814243553E+03 -0.40445644047E+03  0.13424548733E+04  0.14913084603E+04  0.46999998093E+01 0.  1.
</event>
<event>
 5   0  0.9144244E-05  0.1184934E+04  0.7818609E-02  0.9126147E-01
        2   -1    0    0  501    0  0.00000000000E+00  0.00000000000E+00  0.20993068229E+04  0.20993068229E+04  0.25500000920E-02 0. -1.
       -2   -1    0    0    0  501  0.00000000000E+00  0.00000000000E+00 -0.16720610911E+03  0.16720610913E+03  0.25500000920E-02 0.  1.
    10030    2    1    2    0    0  0.00000000000E+00  0.00000000000E+00  0.19321007138E+04  0.22665129320E+04  0.11849336280E+04 0.  0.
        1    1    3    3  502    0 -0.28076379281E+03  0.49232387339E+03  0.12962789912E+04  0.14147615795E+04  0.50400001928E-02 0.  1.
       -1    1    3    3    0  502  0.28076379281E+03 -0.49232387339E+03  0.63582172256E+03  0.85175135255E+03  0.50400001928E-02 0. -1.
</event>
<event>
 5   0  0.4260395E-05  0.2293485E+04  0.7818609E-02  0.8480494E-01
        1   -1    0    0  501    0  0.00000000000E+00  0.00000000000E+00  0.17001752967E+04  0.17001752967E+04  0.50400001928E-02 0.  1.
       -1   -1    0    0    0  501  0.00000000000E+00  0.00000000000E+00 -0.77346071697E+03  0.77346071699E+03  0.50400001928E-02 0. -1.
    10030    2    1    2    0    0  0.00000000000E+00  0.00000000000E+00  0.92671457977E+03  0.24736360137E+04  0.22934853861E+04 0.  0.
        4    1    3    3  502    0 -0.49142995390E+03  0.95639384987E+03  0.89318924272E+03  0.13978487872E+04  0.12699999809E+01 0.  1.
       -4    1    3    3    0  502  0.49142995390E+03 -0.95639384987E+03  0.33525337043E+02  0.10757872265E+04  0.12699999809E+01 0. -1.
</event>
<event>
 5   0  0.4061631E-05  0.2471497E+04  0.7818609E-02  0.8413211E-01
        1   -1    0    0  501    0  0.00000000000E+00  0.00000000000E+00  0.17575082797E+04  0.17575082797E+04  0.50400001928E-02 0.  1.
       -1   -1    0    0    0  501  0.00000000000E+00  0.00000000000E+00 -0.86888598636E+03  0.86888598638E+03  0.50400001928E-02 0. -1.
    10030    2    1    2    0    0  0.00000000000E+00  0.00000000000E+00  0.88862229330E+03  0.26263942660E+04  0.24714969675E+04 0.  0.
        3    1    3    3  502    0 -0.89431679097E+03 -0.27563945596E+03  0.13019187102E+04  0.16033627071E+04  0.10100000352E+00 0.  1.
       -3    1    3    3    0  502  0.89431679097E+03  0.27563945596E+03 -0.41329641687E+03  0.10230315590E+04  0.10100000352E+00 0. -1.
</event>
<event>
 5   0  0.9144244E-05  0.2315614E+04  0.7818609E-02  0.8471790E-01
        2   -1    0    0  501    0  0.00000000000E+00  0.00000000000E+00  0.17372909069E+04  0.17372909069E+04  0.25500000920E-02 0. -1.
       -2   -1    0    0    0  501  0.00000000000E+00  0.00000000000E+00 -0.77161370066E+03  0.77161370067E+03  0.25500000920E-02 0.  1.
    10030    2    1    2    0    0  0.00000000000E+00  0.00000000000E+00  0.96567720621E+03  0.25089046075E+04  0.23156143598E+04 0.  0.
        1    1    3    3  502    0 -0.83731641424E+03  0.40507386569E+03 -0.26415569555E+03  0.96693425099E+03  0.50400001928E-02 0.  1.
       -1    1    3    3    0  502  0.83731641424E+03 -0.40507386569E+03  0.12298329018E+04  0.15419703566E+04  0.50400001928E-02 0. -1.
</event>
<event>
 5   0  0.3934906E-05  0.2396613E+04  0.7818609E-02  0.8440773E-01
        1   -1    0    0  501    0  0.00000000000E+00  0.00000000000E+00  0.15272508262E+04  0.15272508262E+04  0.50400001928E-02 0.  1.
       -1   -1    0    0    0  501  0.00000000000E+00  0.00000000000E+00 -0.94021125596E+03  0.94021125597E+03  0.50400001928E-02 0. -1.
    10030    2    1    2    0    0  0.00000000000E+00  0.00000000000E+00  0.58703957025E+03  0.24674620822E+04  0.23966129579E+04 0.  0.
        2    1    3    3  502    0  0.11187595778E+04  0.37138270883E+03  0.51527110462E+03  0.12864884067E+04  0.25500000920E-02 0.  1.
       -2    1    3    3    0  502 -0.11187595778E+04 -0.37138270883E+03  0.71768465627E+02  0.11809736754E+04  0.25500000920E-02 0. -1.
</event>
<event>
 5   0  0.9750757E-05  0.2204425E+04  0.7818609E-02  0.8516588E-01
        2   -1    0    0  501    0  0.00000000000E+00  0.00000000000E+00  0.11437654459E+04  0.11437654459E+04  0.25500000920E-02 0. -1.
       -2   -1    0    0    0  501  0.00000000000E+00  0.00000000000E+00 -0.10621694281E+04  0.10621694281E+04  0.25500000920E-02 0.  1.
    10030    2    1    2    0    0  0.00000000000E+00  0.00000000000E+00  0.81596017737E+02  0.22059348740E+04  0.22044252671E+04 0.  0.
        2    1    3    3  502    0 -0.77920319689E+03  0.47905677374E+03  0.65621483327E+03  0.11257312832E+04  0.25500000920E-02 0. -1.
       -2    1    3    3    0  502  0.77920319689E+03 -0.47905677374E+03 -0.57461881553E+03  0.10802035908E+04  0.25500000920E-02 0.  1.
</event>
<event>
 5   0  0.4260395E-05  0.2453460E+04  0.7818609E-02  0.8419756E-01
        1   -1    0    0  501    0  0.00000000000E+00  0.00000000000E+00  0.16944807179E+04  0.16944807179E+04  0.50400001928E-02 0.  1.
       -1   -1    0    0    0  501  0.00000000000E+00  0.00000000000E+00 -0.88809856178E+03  0.88809856179E+03  0.50400001928E-02 0. -1.
    10030    2    1    2    0    0  0.00000000000E+00  0.00000000000E+00  0.80638215609E+03  0.25825792797E+04  0.24534595073E+04 0.  0.
        4    1    3    3  502    0 -0.30084044835E+03 -0.49445086555E+03  0.15417224138E+04  0.16467836068E+04  0.12699999809E+01 0.  1.
       -4    1    3    3    0  502  0.30084044835E+03  0.49445086555E+03 -0.73534025767E+03  0.93579567281E+03  0.12699999809E+01 0. -1.
</event>
<event>
 5   0  0.9491680E-05  0.2410530E+04  0.7818609E-02  0.8435572E-01
       -2   -1    0    0    0  501  0.00000000000E+00  0.00000000000E+00  0.17943543378E+04  0.17943543378E+04  0.25500000920E-02 0. -1.
        2   -1    0    0  501    0  0.00000000000E+00  0.00000000000E+00 -0.80957469087E+03  0.80957469087E+03  0.25500000920E-02 0.  1.
    10030    2    1    2    0    0  0.00000000000E+00  0.00000000000E+00  0.98477964697E+03  0.26039290287E+04  0.24105301146E+04 0.  0.
        5    1    3    3  502    0 -0.33928820382E+03  0.28638258280E+03  0.17027837102E+04  0.17597232518E+04  0.46999998093E+01 0. -1.
       -5    1    3    3    0  502  0.33928820382E+03 -0.28638258280E+03 -0.71800406326E+03  0.84420577695E+03  0.46999998093E+01 0.  1.
</event>
<event>
 5   0  0.4208577E-05  0.2463159E+04  0.7818609E-02  0.8416229E-01
        1   -1    0    0  501    0  0.00000000000E+00  0.00000000000E+00  0.15683996682E+04  0.15683996682E+04  0.50400001928E-02 0. -1.
       -1   -1    0    0    0  501  0.00000000000E+00  0.00000000000E+00 -0.96709304538E+03  0.96709304539E+03  0.50400001928E-02 0.  1.
    10030    2    1    2    0    0  0.00000000000E+00  0.00000000000E+00  0.60130662284E+03  0.25354927136E+04  0.24631592815E+04 0.  0.
        1    1    3    3  502    0 -0.10027616530E+04 -0.69461779323E+03  0.12607451677E+03  0.12263439955E+04  0.50400001928E-02 0. -1.
       -1    1    3    3    0  502  0.10027616530E+04  0.69461779323E+03  0.47523210608E+03  0.13091487181E+04  0.50400001928E-02 0.  1.
</event>
<event>
 5   0  0.9144244E-05  0.2465576E+04  0.7818609E-02  0.8415353E-01
        2   -1    0    0  501    0  0.00000000000E+00  0.00000000000E+00  0.15204319277E+04  0.15204319277E+04  0.25500000920E-02 0.  1.
       -2   -1    0    0    0  501  0.00000000000E+00  0.00000000000E+00 -0.99956210548E+03  0.99956210548E+03  0.25500000920E-02 0. -1.
    10030    2    1    2    0    0  0.00000000000E+00  0.00000000000E+00  0.52086982221E+03  0.25199940332E+04  0.24655759075E+04 0.  0.
        1    1    3    3  502    0 -0.49347980643E+03  0.48708635781E+02  0.14140047949E+04  0.14984339860E+04  0.50400001928E-02 0.  1.
       -1    1    3    3    0  502  0.49347980643E+03 -0.48708635781E+02 -0.89313497265E+03  0.10215600472E+04  0.50400001928E-02 0. -1.
</event>
<event>
 5   0  0.3934906E-05  0.2361414E+04  0.7818609E-02  0.8454093E-01
       -1   -1    0    0    0  501  0.00000000000E+00  0.00000000000E+00  0.14619521171E+04  0.14619521172E+04  0.50400001928E-02 0.  1.
        1   -1    0    0  501    0  0.00000000000E+00  0.00000000000E+00 -0.95356647033E+03  0.95356647034E+03  0.50400001928E-02 0. -1.
    10030    2    1    2    0    0  0.00000000000E+00  0.00000000000E+00  0.50838564682E+03  0.24155185875E+04  0.23614135768E+04 0.  0.
        2    1    3    3  502    0  0.61023516753E+03  0.74217119416E+03 -0.44772429064E+03  0.10600292834E+04  0.25500000920E-02 0. -1.
       -2    1    3    3    0  502 -0.61023516753E+03 -0.74217119416E+03  0.95610993746E+03  0.13554893041E+04  0.25500000920E-02 0.  1.
</event>
<event>
 5   0  0.3934906E-05  0.1488422E+04  0.7818609E-02  0.8892189E-01
       -1   -1    0    0    0  501  0.00000000000E+00  0.00000000000E+00  0.56901522988E+03  0.56901522990E+03  0.50400001928E-02 0.  1.
        1   -1    0    0  501    0  0.00000000000E+00  0.00000000000E+00 -0.97334820618E+03  0.97334820620E+03  0.50400001928E-02 0. -1.
    10030    2    1    2    0    0  0.00000000000E+00  0.00000000000E+00 -0.40433297631E+03  0.15423634361E+04  0.14884219204E+04 0.  0.
        2    1    3    3  502    0  0.36509585862E+03 -0.51325212862E+03 -0.61292481562E+03  0.87886265316E+03  0.25500000920E-02 0. -1.
       -2    1    3    3    0  502 -0.36509585862E+03  0.51325212862E+03  0.20859183931E+03  0.66350078293E+03  0.25500000920E-02 0.  1.
</event>
<event>
 5   0  0.4018942E-05  0.1483793E+04  0.7818609E-02  0.8895302E-01
       -1   -1    0    0    0  501  0.00000000000E+00  0.00000000000E+00  0.40893843858E+03  0.40893843861E+03  0.50400001928E-02 0. -1.
        1   -1    0    0  501    0  0.00000000000E+00  0.00000000000E+00 -0.13459499736E+04  0.13459499736E+04  0.50400001928E-02 0.  1.
    10030    2    1    2    0    0  0.00000000000E+00  0.00000000000E+00 -0.93701153506E+03  0.17548884123E+04  0.14837933558E+04 0.  0.
        5    1    3    3  502    0  0.11983211836E+03  0.27708021794E+03 -0.12700052075E+04  0.13053997476E+04  0.46999998093E+01 0.  1.
       -5    1    3    3    0  502 -0.11983211836E+03 -0.27708021794E+03  0.33299367249E+03  0.44948866468E+03  0.46999998093E+01 0. -1.
</event>
<event>
 5   0  0.4018942E-05  0.2082196E+04  0.7818609E-02  0.8569127E-01
       -1   -1    0    0    0  501  0.00000000000E+00  0.00000000000E+00  0.10888005118E+04  0.10888005118E+04  0.50400001928E-02 0.  1.
        1   -1    0    0  501    0  0.00000000000E+00  0.00000000000E+00 -0.99548531722E+03  0.99548531724E+03  0.50400001928E-02 0. -1.
    10030    2    1    2    0    0  0.00000000000E+00  0.00000000000E+00  0.93315194529E+02  0.20842858290E+04  0.20821958821E+04 0.  0.
        5    1    3    3  502    0 -0.24123899722E+03 -0.20924856539E+03 -0.94523638878E+03  0.99773500318E+03  0.46999998093E+01 0. -1.
       -5    1    3    3    0  502  0.24123899722E+03  0.20924856539E+03  0.10385515833E+04  0.10865508258E+04  0.46999998093E+01 0.  1.
</event>
<event>
 5   0  0.4260395E-05  0.2369821E+04  0.7818609E-02  0.8450889E-01
        1   -1    0    0  501    0  0.00000000000E+00  0.00000000000E+00  0.12649676954E+04  0.12649676954E+04  0.50400001928E-02 0.  1.
       -1   -1    0    0    0  501  0.00000000000E+00  0.00000000000E+00 -0.11099196651E+04  0.11099196651E+04  0.50400001928E-02 0. -1.
    10030    2    1    2    0    0  0.00000000000E+00  0.00000000000E+00  0.15504803030E+03  0.23748873605E+04  0.23698206859E+04 0.  0.
        4    1    3    3  502    0 -0.73810508568E+03 -0.51514852477E+02 -0.84995890458E+03  0.11268915875E+04  0.12699999809E+01 0. -1.
       -4    1    3    3    0  502  0.73810508568E+03  0.51514852477E+02  0.10050069349E+04  0.12479957731E+04  0.12699999809E+01 0.  1.
</event>
<event>
 5   0  0.9519092E-05  0.2465611E+04  0.7818609E-02  0.8415340E-01
        2   -1    0    0  501    0  0.00000000000E+00  0.00000000000E+00  0.18068220042E+04  0.18068220042E+04  0.25500000920E-02 0.  1.
       -2   -1    0    0    0  501  0.00000000000E+00  0.00000000000E+00 -0.84115082949E+03  0.84115082950E+03  0.25500000920E-02 0. -1.
    10030    2    1    2    0    0  0.00000000000E+00  0.00000000000E+00  0.96567117471E+03  0.26479728337E+04  0.24656113462E+04 0.  0.
        4    1    3    3  502    0  0.10285986654E+03  0.10100321976E+04 -0.26821868171E+03  0.10500895517E+04  0.12699999809E+01 0.  1.
       -4    1    3    3    0  502 -0.10285986654E+03 -0.10100321976E+04  0.12338898564E+04  0.15978832821E+04  0.12699999809E+01 0. -1.
</event>
<event>
 5   0  0.9144244E-05  0.2439535E+04  0.7818609E-02  0.8424849E-01
       -2   -1    0    0    0  501  0.00000000000E+00  0.00000000000E+00  0.12679761554E+04  0.12679761554E+04  0.25500000920E-02 0.  1.
        2   -1    0    0  501    0  0.00000000000E+00  0.00000000000E+00 -0.11733920594E+04  0.11733920594E+04  0.25500000920E-02 0. -1.
    10030    2    1    2    0    0  0.00000000000E+00  0.00000000000E+00  0.94584096007E+02  0.24413682147E+04  0.24395353264E+04 0.  0.
        1    1    3    3  502    0  0.12166244828E+04 -0.43949280209E+02 -0.28438321395E+02  0.12177501425E+04  0.50400001928E-02 0. -1.
       -1    1    3    3    0  502 -0.12166244828E+04  0.43949280209E+02  0.12302241740E+03  0.12236180722E+04  0.50400001928E-02 0.  1.
</event>
<event>
 5   0  0.9491680E-05  0.2379224E+04  0.7818609E-02  0.8447323E-01
        2   -1    0    0  501    0  0.00000000000E+00  0.00000000000E+00  0.14384182916E+04  0.14384182916E+04  0.25500000920E-02 0.  1.
       -2   -1    0    0    0  501  0.00000000000E+00  0.00000000000E+00 -0.98384245322E+03  0.98384245323E+03  0.25500000920E-02 0. -1.
    10030    2    1    2    0    0  0.00000000000E+00  0.00000000000E+00  0.45457583837E+03  0.24222607448E+04  0.23792242272E+04 0.  0.
        5    1    3    3  502    0 -0.41424571920E+03  0.67373393834E+03 -0.67740152935E+03  0.10413509771E+04  0.46999998093E+01 0. -1.
       -5    1    3    3    0  502  0.41424571920E+03 -0.67373393834E+03  0.11319773677E+04  0.13809097677E+04  0.46999998093E+01 0.  1.
</event>
<event>
 5   0  0.9750757E-05  0.2323938E+04  0.7818609E-02  0.8468542E-01
       -2   -1    0    0    0  501  0.00000000000E+00  0.00000000000E+00  0.17364511124E+04  0.17364511124E+04  0.25500000920E-02 0.  1.
        2   -1    0    0  501    0  0.00000000000E+00  0.00000000000E+00 -0.77754688216E+03  0.77754688217E+03  0.25500000920E-02 0. -1.
    10030    2    1    2    0    0  0.00000000000E+00  0.00000000000E+00  0.95890423023E+03  0.25139979946E+04  0.23239381648E+04 0.  0.
        2    1    3    3  502    0  0.10617450765E+04 -0.35846302392E+03  0.14712476614E+03  0.11302407018E+04  0.25500000920E-02 0. -1.
       -2    1    3    3    0  502 -0.10617450765E+04  0.35846302392E+03  0.81177946409E+03  0.13837572928E+04  0.25500000920E-02 0.  1.
</event>
<event>
 5   0  0.3934906E-05  0.2279032E+04  0.7818609E-02  0.8486235E-01
       -1   -1    0    0    0  501  0.00000000000E+00  0.00000000000E+00  0.85319291793E+03  0.85319291795E+03  0.50400001928E-02 0.  1.
        1   -1    0    0  501    0  0.00000000000E+00  0.00000000000E+00 -0.15219264681E+04  0.15219264681E+04  0.50400001928E-02 0. -1.
    10030    2    1    2    0    0  0.00000000000E+00  0.00000000000E+00 -0.66873355019E+03  0.23751193861E+04  0.22790321492E+04 0.  0.
        2    1    3    3  502    0  0.11546048008E+03 -0.10780306095E+04  0.31156790901E+02  0.10846436572E+04  0.25500000920E-02 0. -1.
       -2    1    3    3    0  502 -0.11546048008E+03  0.10780306095E+04 -0.69989034109E+03  0.12904757289E+04  0.25500000920E-02 0.  1.
</event>
<event>
 5   0  0.4208577E-05  0.2403598E+04  0.7818609E-02  0.8438158E-01
       -1   -1    0    0    0  501  0.00000000000E+00  0.00000000000E+00  0.87236379896E+03  0.87236379897E+03  0.50400001928E-02 0. -1.
        1   -1    0    0  501    0  0.00000000000E+00  0.00000000000E+00 -0.16556398252E+04  0.16556398252E+04  0.50400001928E-02 0.  1.
    10030    2    1    2    0    0  0.00000000000E+00  0.00000000000E+00 -0.78327602625E+03  0.25280036242E+04  0.24035975101E+04 0.  0.
        1    1    3    3  502    0  0.95297715818E+03 -0.70218851557E+03 -0.60995342688E+03  0.13316446066E+04  0.50400001928E-02 0.  1.
       -1    1    3    3    0  502 -0.95297715818E+03  0.70218851557E+03 -0.17332259937E+03  0.11963590176E+04  0.50400001928E-02 0. -1.
</event>
<event>
 5   0  0.9491680E-05  0.2388715E+04  0.7818609E-02  0.8443741E-01
       -2   -1    0    0    0  501  0.00000000000E+00  0.00000000000E+00  0.58120677252E+03  0.58120677253E+03  0.25500000920E-02 0. -1.
        2   -1    0    0  501    0  0.00000000000E+00  0.00000000000E+00 -0.24543577447E+04  0.24543577447E+04  0.25500000920E-02 0.  1.
    10030    2    1    2    0    0  0.00000000000E+00  0.00000000000E+00 -0.18731509722E+04  0.30355645173E+04  0.23887145861E+04 0.  0.
        5    1    3    3  502    0  0.52771004352E+03  0.11572826286E+03 -0.22901927789E+04  0.23530567302E+04  0.46999998093E+01 0.  1.
       -5    1    3    3    0  502 -0.52771004352E+03 -0.11572826286E+03  0.41704180672E+03  0.68250778707E+03  0.46999998093E+01 0. -1.
</event>
<event>
 5   0  0.9144244E-05  0.2366378E+04  0.7818609E-02  0.8452199E-01
       -2   -1    0    0    0  501  0.00000000000E+00  0.00000000000E+00  0.12625927226E+04  0.12625927226E+04  0.25500000920E-02 0. -1.
        2   -1    0    0  501    0  0.00000000000E+00  0.00000000000E+00 -0.11087792614E+04  0.11087792614E+04  0.25500000920E-02 0.  1.
    10030    2    1    2    0    0  0.00000000000E+00  0.00000000000E+00  0.15381346115E+03  0.23713719840E+04  0.23663783522E+04 0.  0.
        1    1    3    3  502    0  0.22047022222E+03  0.33724807070E+02  0.12413364720E+04  0.12612139859E+04  0.50400001928E-02 0. -1.
       -1    1    3    3    0  502 -0.22047022222E+03 -0.33724807070E+02 -0.10875230109E+04  0.11101579981E+04  0.50400001928E-02 0.  1.
</event>
<event>
 5   0  0.4018942E-05  0.1925372E+04  0.7818609E-02  0.8642329E-01
        1   -1    0    0  501    0  0.00000000000E+00  0.00000000000E+00  0.14278738330E+04  0.14278738330E+04  0.50400001928E-02 0. -1.
       -1   -1    0    0    0  501  0.00000000000E+00  0.00000000000E+00 -0.64905172286E+03  0.64905172288E+03  0.50400001928E-02 0.  1.
    10030    2    1    2    0    0  0.00000000000E+00  0.00000000000E+00  0.77882211009E+03  0.20769255558E+04  0.19253716227E+04 0.  0.
        5    1    3    3  502    0  0.18413401502E+03  0.61127868453E+03 -0.38784338945E+03  0.74700170709E+03  0.46999998093E+01 0.  1.
       -5    1    3    3    0  502 -0.18413401502E+03 -0.61127868453E+03  0.11666654995E+04  0.13299238488E+04  0.46999998093E+01 0. -1.
</event>
<event>
 5   0  0.4061631E-05  0.2364797E+04  0.7818609E-02  0.8452802E-01
       -1   -1    0    0    0  501  0.00000000000E+00  0.00000000000E+00  0.11991082027E+04  0.11991082028E+04  0.50400001928E-02 0. -1.
        1   -1    0    0  501    0  0.00000000000E+00  0.00000000000E+00 -0.11659216624E+04  0.11659216625E+04  0.50400001928E-02 0.  1.
    10030    2    1    2    0    0  0.00000000000E+00  0.00000000000E+00  0.33186540309E+02  0.23650298652E+04  0.23647970139E+04 0.  0.
        3    1    3    3  502    0 -0.22479735014E+03  0.30318540009E+03  0.11372440922E+04  0.11982401140E+04  0.10100000352E+00 0. -1.
       -3    1    3    3    0  502  0.22479735014E+03 -0.30318540009E+03 -0.11040575519E+04  0.11667897512E+04  0.10100000352E+00 0.  1.
</event>
<event>
 5   0  0.9491680E-05  0.1289488E+04  0.7818609E-02  0.9037943E-01
       -2   -1    0    0    0  501  0.00000000000E+00  0.00000000000E+00  0.36600674609E+03  0.36600674610E+03  0.25500000920E-02 0.  1.
        2   -1    0    0  501    0  0.00000000000E+00  0.00000000000E+00 -0.11357575148E+04  0.11357575148E+04  0.25500000920E-02 0. -1.
    10030    2    1    2    0    0  0.00000000000E+00  0.00000000000E+00 -0.76975076869E+03  0.15017642609E+04  0.12894881346E+04 0.  0.
        5    1    3    3  502    0  0.10829987255E+03  0.41713112101E+03 -0.94334166327E+03  0.10371320158E+04  0.46999998093E+01 0. -1.
       -5    1    3    3    0  502 -0.10829987255E+03 -0.41713112101E+03  0.17359089458E+03  0.46463224510E+03  0.46999998093E+01 0.  1.
</event>
<event>
 5   0  0.4061631E-05  0.2416898E+04  0.7818609E-02  0.8433204E-01
       -1   -1    0    0    0  501  0.00000000000E+00  0.00000000000E+00  0.87632915109E+03  0.87632915110E+03  0.50400001928E-02 0. -1.
        1   -1    0    0  501    0  0.00000000000E+00  0.00000000000E+00 -0.16664389144E+04  0.16664389144E+04  0.50400001928E-02 0.  1.
    10030    2    1    2    0    0  0.00000000000E+00  0.00000000000E+00 -0.79010976327E+03  0.25427680655E+04  0.24168980112E+04 0.  0.
        3    1    3    3  502    0  0.52808685746E+03 -0.62077380247E+02  0.74664234918E+03  0.91662649861E+03  0.10100000352E+00 0. -1.
       -3    1    3    3    0  502 -0.52808685746E+03  0.62077380247E+02 -0.15367521124E+04  0.16261415669E+04  0.10100000352E+00 0.  1.
</event>
<event>
 5   0  0.9491680E-05  0.2262613E+04  0.7818609E-02  0.8492810E-01
       -2   -1    0    0    0  501  0.00000000000E+00  0.00000000000E+00  0.62547410484E+03  0.62547410484E+03  0.25500000920E-02 0.  1.
        2   -1    0    0  501    0  0.00000000000E+00  0.00000000000E+00 -0.20462147841E+04  0.20462147841E+04  0.25500000920E-02 0. -1.
    10030    2    1    2    0    0  0.00000000000E+00  0.00000000000E+00 -0.14207406793E+04  0.26716888889E+04  0.22626129677E+04 0.  0.
        5    1    3    3  502    0  0.20773221911E+02 -0.81352505308E+03 -0.16383136099E+04  0.18293026302E+04  0.46999998093E+01 0. -1.
       -5    1    3    3    0  502 -0.20773221911E+02  0.81352505308E+03  0.21757293059E+03  0.84238625871E+03  0.46999998093E+01 0.  1.
</event>
<event>
 5   0  0.3934906E-05  0.2457094E+04  0.7818609E-02  0.8418432E-01
        1   -1    0    0  501    0  0.00000000000E+00  0.00000000000E+00  0.10412953633E+04  0.10412953633E+04  0.50400001928E-02 0. -1.
       -1   -1    0    0    0  501  0.00000000000E+00  0.00000000000E+00 -0.14494715871E+04  0.14494715871E+04  0.50400001928E-02 0.  1.
    10030    2    1    2    0    0  0.00000000000E+00  0.00000000000E+00 -0.40817622379E+03  0.24907669504E+04  0.24570942537E+04 0.  0.
        2    1    3    3  502    0  0.16118572248E+02 -0.97625501877E+03 -0.95995701111E+03  0.13692520342E+04  0.25500000920E-02 0.  1.
       -2    1    3    3    0  502 -0.16118572248E+02  0.97625501877E+03  0.55178078732E+03  0.11215149162E+04  0.25500000920E-02 0. -1.
</event>
<event>
 5   0  0.9144244E-05  0.2392114E+04  0.7818609E-02  0.8442462E-01
        2   -1    0    0  501    0  0.00000000000E+00  0.00000000000E+00  0.18017308177E+04  0.18017308177E+04  0.25500000920E-02 0.  1.
       -2   -1    0    0    0  501  0.00000000000E+00  0.00000000000E+00 -0.79398785018E+03  0.79398785018E+03  0.25500000920E-02 0. -1.
    10030    2    1    2    0    0  0.00000000000E+00  0.00000000000E+00  0.10077429675E+04  0.25957186678E+04  0.23921140261E+04 0.  0.
        1    1    3    3  502    0  0.10940768934E+04 -0.94890979436E+01  0.10281719018E+04  0.15014099212E+04  0.50400001928E-02 0.  1.
       -1    1    3    3    0  502 -0.10940768934E+04  0.94890979436E+01 -0.20428934337E+02  0.10943087467E+04  0.50400001928E-02 0. -1.
</event>
<event>
 5   0  0.3934906E-05  0.2379187E+04  0.7818609E-02  0.8447337E-01
        1   -1    0    0  501    0  0.00000000000E+00  0.00000000000E+00  0.15749308331E+04  0.15749308331E+04  0.50400001928E-02 0.  1.
       -1   -1    0    0    0  501  0.00000000000E+00  0.00000000000E+00 -0.89853603647E+03  0.89853603648E+03  0.50400001928E-02 0. -1.
    10030    2    1    2    0    0  0.00000000000E+00  0.00000000000E+00  0.67639479663E+03  0.24734668696E+04  0.23791865068E+04 0.  0.
        2    1    3    3  502    0 -0.26874253353E+03 -0.99743065993E+03  0.95152599084E+03  0.14044544072E+04  0.25500000920E-02 0.  1.
       -2    1    3    3    0  502  0.26874253353E+03  0.99743065993E+03 -0.27513119420E+03  0.10690124624E+04  0.25500000920E-02 0. -1.
</event>
<event>
 5   0  0.9519092E-05  0.2008733E+04  0.7818609E-02  0.8602548E-01
        2   -1    0    0  501    0  0.00000000000E+00  0.00000000000E+00  0.85676651270E+03  0.85676651270E+03  0.25500000920E-02 0.  1.
       -2   -1    0    0    0  501  0.00000000000E+00  0.00000000000E+00 -0.11773948278E+04  0.11773948278E+04  0.25500000920E-02 0. -1.
    10030    2    1    2    0    0  0.00000000000E+00  0.00000000000E+00 -0.32062831507E+03  0.20341613405E+04  0.20087333926E+04 0.  0.
        4    1    3    3  502    0 -0.89382771490E+03 -0.20233200344E+03  0.25584375167E+03  0.95148508223E+03  0.12699999809E+01 0.  1.
       -4    1    3    3    0  502  0.89382771490E+03  0.20233200344E+03 -0.57647206674E+03  0.10826762582E+04  0.12699999809E+01 0. -1.
</event>
<event>
 5   0  0.4260395E-05  0.1907374E+04  0.7818609E-02  0.8651195E-01
       -1   -1    0    0    0  501  0.00000000000E+00  0.00000000000E+00  0.45733503487E+03  0.45733503490E+03  0.50400001928E-02 0.  1.
        1   -1    0    0  501    0  0.00000000000E+00  0.00000000000E+00 -0.19887366079E+04  0.19887366079E+04  0.50400001928E-02 0. -1.
    10030    2    1    2    0    0  0.00000000000E+00  0.00000000000E+00 -0.15314015731E+04  0.24460716428E+04  0.19073740336E+04 0.  0.
        4    1    3    3  502    0  0.21914331791E+03 -0.47502351337E+03 -0.17883091505E+04  0.18632558501E+04  0.12699999809E+01 0. -1.
       -4    1    3    3    0  502 -0.21914331791E+03  0.47502351337E+03  0.25690757747E+03  0.58281579277E+03  0.12699999809E+01 0.  1.
</event>
<event>
 5   0  0.3934906E-05  0.2382876E+04  0.7818609E-02  0.8445942E-01
        1   -1    0    0  501    0  0.00000000000E+00  0.00000000000E+00  0.10211526295E+04  0.10211526296E+04  0.50400001928E-02 0. -1.
       -1   -1    0    0    0  501  0.00000000000E+00  0.00000000000E+00 -0.13901197935E+04  0.13901197935E+04  0.50400001928E-02 0.  1.
    10030    2    1    2    0    0  0.00000000000E+00  0.00000000000E+00 -0.36896716397E+03  0.24112724231E+04  0.23828759788E+04 0.  0.
        2    1    3    3  502    0  0.13796191139E+02 -0.31394354465E+03  0.97846102633E+03  0.10276851970E+04  0.25500000920E-02 0. -1.
       -2    1    3    3    0  502 -0.13796191139E+02  0.31394354465E+03 -0.13474281903E+04  0.13835872261E+04  0.25500000920E-02 0.  1.
</event>
<event>
 5   0  0.4018942E-05  0.2466270E+04  0.7818609E-02  0.8415101E-01
        1   -1    0    0  501    0  0.00000000000E+00  0.00000000000E+00  0.11927798948E+04  0.11927798948E+04  0.50400001928E-02 0.  1.
       -1   -1    0    0    0  501  0.00000000000E+00  0.00000000000E+00 -0.12748554291E+04  0.12748554291E+04  0.50400001928E-02 0. -1.
    10030    2    1    2    0    0  0.00000000000E+00  0.00000000000E+00 -0.82075534335E+02  0.24676353239E+04  0.24662699970E+04 0.  0.
        5    1    3    3  502    0  0.33835538732E+03  0.11695200432E+04 -0.23694793794E+03  0.12403337917E+04  0.46999998093E+01 0. -1.
       -5    1    3    3    0  502 -0.33835538732E+03 -0.11695200432E+04  0.15487240361E+03  0.12273015322E+04  0.46999998093E+01 0.  1.
</event>
<event>
 5   0  0.3934906E-05  0.2362976E+04  0.7818609E-02  0.8453496E-01
        1   -1    0    0  501    0  0.00000000000E+00  0.00000000000E+00  0.11358951857E+04  0.11358951857E+04  0.50400001928E-02 0.  1.
       -1   -1    0    0    0  501  0.00000000000E+00  0.00000000000E+00 -0.12289106259E+04  0.12289106259E+04  0.50400001928E-02 0. -1.
    10030    2    1    2    0    0  0.00000000000E+00  0.00000000000E+00 -0.93015440186E+02  0.23648058116E+04  0.23629758048E+04 0.  0.
        2    1    3    3  502    0 -0.92815647505E+03 -0.55753139974E+03 -0.51973538697E+03  0.12010164763E+04  0.25500000920E-02 0. -1.
       -2    1    3    3    0  502  0.92815647505E+03  0.55753139974E+03  0.42671994678E+03  0.11637893353E+04  0.25500000920E-02 0.  1.
</event>
<event>
 5   0  0.4061631E-05  0.1211052E+04  0.7818609E-02  0.9103237E-01
       -1   -1    0    0    0  501  0.00000000000E+00  0.00000000000E+00  0.21976166503E+03  0.21976166509E+03  0.50400001928E-02 0. -1.
        1   -1    0    0  501    0  0.00000000000E+00  0.00000000000E+00 -0.16684530316E+04  0.16684530316E+04  0.50400001928E-02 0.  1.
    10030    2    1    2    0    0  0.00000000000E+00  0.00000000000E+00 -0.14486913666E+04  0.18882146967E+04  0.12110524618E+04 0.  0.
        3    1    3    3  502    0  0.31278925663E+03 -0.37825584823E+03 -0.17145671525E+03  0.51991539811E+03  0.10100000352E+00 0. -1.
       -3    1    3    3    0  502 -0.31278925663E+03  0.37825584823E+03 -0.12772346513E+04  0.13682992986E+04  0.10100000352E+00 0.  1.
</event>
<event>
 5   0  0.4018942E-05  0.2402862E+04  0.7818609E-02  0.8438433E-01
        1   -1    0    0  501    0  0.00000000000E+00  0.00000000000E+00  0.76193372756E+03  0.76193372758E+03  0.50400001928E-02 0.  1.
       -1   -1    0    0    0  501  0.00000000000E+00  0.00000000000E+00 -0.18944382389E+04  0.18944382389E+04  0.50400001928E-02 0. -1.
    10030    2    1    2    0    0  0.00000000000E+00  0.00000000000E+00 -0.11325045113E+04  0.26563719665E+04  0.24028619511E+04 0.  0.
        5    1    3    3  502    0  0.93846645055E+03 -0.64969640366E+03 -0.98076383837E+03  0.15049068052E+04  0.46999998093E+01 0. -1.
       -5    1    3    3    0  502 -0.93846645055E+03  0.64969640366E+03 -0.15174067295E+03  0.11514651612E+04  0.46999998093E+01 0.  1.
</event>
<event>
 5   0  0.4018942E-05  0.2372755E+04  0.7818609E-02  0.8449775E-01
        1   -1    0    0  501    0  0.00000000000E+00  0.00000000000E+00  0.78893099338E+03  0.78893099339E+03  0.50400001928E-02 0. -1.
       -1   -1    0    0    0  501  0.00000000000E+00  0.00000000000E+00 -0.17840491898E+04  0.17840491898E+04  0.50400001928E-02 0.  1.
    10030    2    1    2    0    0  0.00000000000E+00  0.00000000000E+00 -0.99511819643E+03  0.25729801832E+04  0.23727551071E+04 0.  0.
        5    1    3    3  502    0 -0.11637145886E+04 -0.14500905964E+03 -0.69217627526E+03  0.13617596547E+04  0.46999998093E+01 0.  1.
       -5    1    3    3    0  502  0.11637145886E+04  0.14500905964E+03 -0.30294192117E+03  0.12112205285E+04  0.46999998093E+01 0. -1.
</event>
<event>
 5   0  0.4018942E-05  0.2402934E+04  0.7818609E-02  0.8438406E-01
       -1   -1    0    0    0  501  0.00000000000E+00  0.00000000000E+00  0.11008526369E+04  0.11008526369E+04  0.50400001928E-02 0. -1.
        1   -1    0    0  501    0  0.00000000000E+00  0.00000000000E+00 -0.13112770342E+04  0.13112770342E+04  0.50400001928E-02 0.  1.
    10030    2    1    2    0    0  0.00000000000E+00  0.00000000000E+00 -0.21042439731E+03  0.24121296711E+04  0.24029338574E+04 0.  0.
        5    1    3    3  502    0 -0.48862750633E+03  0.98774016637E+03  0.37527730350E+03  0.11641488825E+04  0.46999998093E+01 0. -1.
       -5    1    3    3    0  502  0.48862750633E+03 -0.98774016637E+03 -0.58570170081E+03  0.12479807885E+04  0.46999998093E+01 0.  1.
</event>
<event>
 5   0  0.9519092E-05  0.2394741E+04  0.7818609E-02  0.8441475E-01
        2   -1    0    0  501    0  0.00000000000E+00  0.00000000000E+00  0.13560751367E+04  0.13560751367E+04  0.25500000920E-02 0. -1.
       -2   -1    0    0    0  501  0.00000000000E+00  0.00000000000E+00 -0.10572391407E+04  0.10572391407E+04  0.25500000920E-02 0.  1.
    10030    2    1    2    0    0  0.00000000000E+00  0.00000000000E+00  0.29883599594E+03  0.24133142774E+04  0.23947406642E+04 0.  0.
        4    1    3    3  502    0 -0.29563007990E+03 -0.10099846183E+04 -0.42617569615E+03  0.11353824952E+04  0.12699999809E+01 0.  1.
       -4    1    3    3    0  502  0.29563007990E+03  0.10099846183E+04  0.72501169209E+03  0.12779317822E+04  0.12699999809E+01 0. -1.
</event>
<event>
 5   0  0.4260395E-05  0.2343470E+04  0.7818609E-02  0.8460976E-01
        1   -1    0    0  501    0  0.00000000000E+00  0.00000000000E+00  0.10762479318E+04  0.10762479318E+04  0.50400001928E-02 0. -1.
       -1   -1    0    0    0  501  0.00000000000E+00  0.00000000000E+00 -0.12756938203E+04  0.12756938203E+04  0.50400001928E-02 0.  1.
    10030    2    1    2    0    0  0.00000000000E+00  0.00000000000E+00 -0.19944588858E+03  0.23519417521E+04  0.23434699364E+04 0.  0.
        4    1    3    3  502    0  0.89727033295E+03 -0.46505691291E+03  0.49537022218E+03  0.11255066648E+04  0.12699999809E+01 0. -1.
       -4    1    3    3    0  502 -0.89727033295E+03  0.46505691291E+03 -0.69481611076E+03  0.12264350873E+04  0.12699999809E+01 0.  1.
</event>
<event>
 5   0  0.9182865E-05  0.2644903E+04  0.7818609E-02  0.8353107E-01
       -2   -1    0    0    0  501  0.00000000000E+00  0.00000000000E+00  0.76954632075E+03  0.76954632076E+03  0.25500000920E-02 0.  1.
        2   -1    0    0  501    0  0.00000000000E+00  0.00000000000E+00 -0.22726084795E+04  0.22726084795E+04  0.25500000920E-02 0. -1.
    10030    2    1    2    0    0  0.00000000000E+00  0.00000000000E+00 -0.15030621588E+04  0.30421548003E+04  0.26449026401E+04 0.  0.
        3    1    3    3  502    0 -0.37104061317E+03  0.78887810503E+03  0.39224999733E+03  0.95596018317E+03  0.10100000352E+00 0.  1.
       -3    1    3    3    0  502  0.37104061317E+03 -0.78887810503E+03 -0.18953121561E+04  0.20861946171E+04  0.10100000352E+00 0. -1.
</event>
<event>
 5   0  0.9144244E-05  0.2401754E+04  0.7818609E-02  0.8438847E-01
       -2   -1    0    0    0  501  0.00000000000E+00  0.00000000000E+00  0.54297570689E+03  0.54297570690E+03  0.25500000920E-02 0. -1.
        2   -1    0    0  501    0  0.00000000000E+00  0.00000000000E+00 -0.26559298554E+04  0.26559298554E+04  0.25500000920E-02 0.  1.
    10030    2    1    2    0    0  0.00000000000E+00  0.00000000000E+00 -0.21129541485E+04  0.31989055623E+04  0.24017538514E+04 0.  0.
        1    1    3    3  502    0 -0.22697769939E+03  0.22170411120E+03  0.48613791174E+03  0.58051843916E+03  0.50400001928E-02 0. -1.
       -1    1    3    3    0  502  0.22697769939E+03 -0.22170411120E+03 -0.25990920603E+04  0.26183871232E+04  0.50400001928E-02 0.  1.
</event>
<event>
 5   0  0.4260395E-05  0.2395412E+04  0.7818609E-02  0.8441223E-01
       -1   -1    0    0    0  501  0.00000000000E+00  0.00000000000E+00  0.14772993376E+04  0.14772993376E+04  0.50400001928E-02 0.  1.
        1   -1    0    0  501    0  0.00000000000E+00  0.00000000000E+00 -0.97102833491E+03  0.97102833492E+03  0.50400001928E-02 0. -1.
    10030    2    1    2    0    0  0.00000000000E+00  0.00000000000E+00  0.50627100273E+03  0.24483276726E+04  0.23954118777E+04 0.  0.
        4    1    3    3  502    0 -0.71083393906E+03  0.36006219883E+01  0.12383798553E+04  0.14278950005E+04  0.12699999809E+01 0.  1.
       -4    1    3    3    0  502  0.71083393906E+03 -0.36006219883E+01 -0.73210885257E+03  0.10204326721E+04  0.12699999809E+01 0. -1.
</event>
<event>
 5   0  0.9144244E-05  0.2358954E+04  0.7818609E-02  0.8455032E-01
       -2   -1    0    0    0  501  0.00000000000E+00  0.00000000000E+00  0.10474550638E+04  0.10474550639E+04  0.25500000920E-02 0.  1.
        2   -1    0    0  501    0  0.00000000000E+00  0.00000000000E+00 -0.13281392499E+04  0.13281392499E+04  0.25500000920E-02 0. -1.
    10030    2    1    2    0    0  0.00000000000E+00  0.00000000000E+00 -0.28068418604E+03  0.23755943137E+04  0.23589541605E+04 0.  0.
        1    1    3    3  502    0 -0.63574277287E+02 -0.20679905731E+02 -0.13262297194E+04  0.13279136327E+04  0.50400001928E-02 0. -1.
       -1    1    3    3    0  502  0.63574277287E+02  0.20679905731E+02  0.10455455333E+04  0.10476806811E+04  0.50400001928E-02 0.  1.
</event>
<event>
 5   0  0.9182865E-05  0.2019494E+04  0.7818609E-02  0.8597560E-01
        2   -1    0    0  501    0  0.00000000000E+00  0.00000000000E+00  0.84996054782E+03  0.84996054782E+03  0.25500000920E-02 0. -1.
       -2   -1    0    0    0  501  0.00000000000E+00  0.00000000000E+00 -0.11995723534E+04  0.11995723534E+04  0.25500000920E-02 0.  1.
    10030    2    1    2    0    0  0.00000000000E+00  0.00000000000E+00 -0.34961180562E+03  0.20495329013E+04  0.20194941690E+04 0.  0.
        3    1    3    3  502    0  0.53675710505E+03  0.85201674151E+03 -0.25040176172E+03  0.10376616838E+04  0.10100000352E+00 0.  1.
       -3    1    3    3    0  502 -0.53675710505E+03 -0.85201674151E+03 -0.99210043902E+02  0.10118712174E+04  0.10100000352E+00 0. -1.
</event>
<event>
 5   0  0.3934906E-05  0.2413422E+04  0.7818609E-02  0.8434496E-01
        1   -1    0    0  501    0  0.00000000000E+00  0.00000000000E+00  0.14524436141E+04  0.14524436141E+04  0.50400001928E-02 0. -1.
       -1   -1    0    0    0  501  0.00000000000E+00  0.00000000000E+00 -0.10025525397E+04  0.10025525397E+04  0.50400001928E-02 0.  1.
    10030    2    1    2    0    0  0.00000000000E+00  0.00000000000E+00  0.44989107438E+03  0.24549961539E+04  0.24134216657E+04 0.  0.
        2    1    3    3  502    0  0.17427349779E+03 -0.25231505222E+03 -0.96225695340E+03  0.10099369198E+04  0.25500000920E-02 0.  1.
       -2    1    3    3    0  502 -0.17427349779E+03  0.25231505222E+03  0.14121480278E+04  0.14450592341E+04  0.25500000920E-02 0. -1.
</event>
<event>
 5   0  0.9182865E-05  0.2394006E+04  0.7818609E-02  0.8441751E-01
        2   -1    0    0  501    0  0.00000000000E+00  0.00000000000E+00  0.84507722439E+03  0.84507722440E+03  0.25500000920E-02 0.  1.
       -2   -1    0    0    0  501  0.00000000000E+00  0.00000000000E+00 -0.16954853701E+04  0.16954853701E+04  0.25500000920E-02 0. -1.
    10030    2    1    2    0    0  0.00000000000E+00  0.00000000000E+00 -0.85040814567E+03  0.25405625945E+04  0.23940059069E+04 0.  0.
        3    1    3    3  502    0 -0.27943181414E+03 -0.59558135568E+03  0.63602300691E+03  0.91505440576E+03  0.10100000352E+00 0.  1.
       -3    1    3    3    0  502  0.27943181414E+03  0.59558135568E+03 -0.14864311526E+04  0.16255081887E+04  0.10100000352E+00 0. -1.
</event>
<event>
 5   0  0.4208577E-05  0.1634698E+04  0.7818609E-02  0.8799511E-01
       -1   -1    0    0    0  501  0.00000000000E+00  0.00000000000E+00  0.40460712297E+03  0.40460712300E+03  0.50400001928E-02 0. -1.
        1   -1    0    0  501    0  0.00000000000E+00  0.00000000000E+00 -0.16511318779E+04  0.16511318779E+04  0.50400001928E-02 0.  1.
    10030    2    1    2    0    0  0.00000000000E+00  0.00000000000E+00 -0.12465247549E+04  0.20557390009E+04  0.16346984050E+04 0.  0.
        1    1    3    3  502    0 -0.12321761960E+03 -0.10090573572E+03 -0.16314302516E+04  0.16391855341E+04  0.50400001928E-02 0.  1.
       -1    1    3    3    0  502  0.12321761960E+03  0.10090573572E+03  0.38490549670E+03  0.41655346680E+03  0.50400001928E-02 0. -1.
</event>
<event>
 5   0  0.3934906E-05  0.2411851E+04  0.7818609E-02  0.8435080E-01
        1   -1    0    0  501    0  0.00000000000E+00  0.00000000000E+00  0.10278613314E+04  0.10278613314E+04  0.50400001928E-02 0. -1.
       -1   -1    0    0    0  501  0.00000000000E+00  0.00000000000E+00 -0.14148373891E+04  0.14148373891E+04  0.50400001928E-02 0.  1.
    10030    2    1    2    0    0  0.00000000000E+00  0.00000000000E+00 -0.38697605768E+03  0.24426987205E+04  0.24118512745E+04 0.  0.
        2    1    3    3  502    0 -0.10859681754E+04 -0.11871622507E+03  0.32376534513E+03  0.11394052917E+04  0.25500000920E-02 0. -1.
       -2    1    3    3    0  502  0.10859681754E+04  0.11871622507E+03 -0.71074140282E+03  0.13032934289E+04  0.25500000920E-02 0.  1.
</event>
<event>
 5   0  0.4208577E-05  0.2454296E+04  0.7818609E-02  0.8419451E-01
       -1   -1    0    0    0  501  0.00000000000E+00  0.00000000000E+00  0.69166211141E+03  0.69166211143E+03  0.50400001928E-02 0.  1.
        1   -1    0    0  501    0  0.00000000000E+00  0.00000000000E+00 -0.21772084640E+04  0.21772084640E+04  0.50400001928E-02 0. -1.
    10030    2    1    2    0    0  0.00000000000E+00  0.00000000000E+00 -0.14855463526E+04  0.28688705754E+04  0.24542963173E+04 0.  0.
        1    1    3    3  502    0  0.44022300749E+03 -0.49294583727E+03  0.46585654330E+03  0.80858778977E+03  0.50400001928E-02 0.  1.
       -1    1    3    3    0  502 -0.44022300749E+03  0.49294583727E+03 -0.19514028959E+04  0.20602827856E+04  0.50400001928E-02 0. -1.
</event>
<event>
 5   0  0.9144244E-05  0.2405553E+04  0.7818609E-02  0.8437427E-01
        2   -1    0    0  501    0  0.00000000000E+00  0.00000000000E+00  0.25851248857E+04  0.25851248857E+04  0.25500000920E-02 0. -1.
       -2   -1    0    0    0  501  0.00000000000E+00  0.00000000000E+00 -0.55961392991E+03  0.55961392991E+03  0.25500000920E-02 0.  1.
    10030    2    1    2    0    0  0.00000000000E+00  0.00000000000E+00  0.20255109558E+04  0.31447388156E+04  0.24055534886E+04 0.  0.
        1    1    3    3  502    0 -0.38015368162E+03 -0.60787380261E+03 -0.24973361086E+03  0.75920633425E+03  0.50400001928E-02 0.  1.
       -1    1    3    3    0  502  0.38015368162E+03  0.60787380261E+03  0.22752445667E+04  0.23855324814E+04  0.50400001928E-02 0. -1.
</event>
<event>
 5   0  0.4208577E-05  0.2207186E+04  0.7818609E-02  0.8515443E-01
       -1   -1    0    0    0  501  0.00000000000E+00  0.00000000000E+00  0.75994535900E+03  0.75994535901E+03  0.50400001928E-02 0. -1.
        1   -1    0    0  501    0  0.00000000000E+00  0.00000000000E+00 -0.16026383409E+04  0.16026383409E+04  0.50400001928E-02 0.  1.
    10030    2    1    2    0    0  0.00000000000E+00  0.00000000000E+00 -0.84269298187E+03  0.23625836999E+04  0.22071860541E+04 0.  0.
        1    1    3    3  502    0 -0.27224611862E+03  0.61724019719E+03 -0.13562302878E+04  0.15147488252E+04  0.50400001928E-02 0.  1.
       -1    1    3    3    0  502  0.27224611862E+03 -0.61724019719E+03  0.51353730588E+03  0.84783487465E+03  0.50400001928E-02 0. -1.
</event>
<event>
 5   0  0.4260395E-05  0.2411218E+04  0.7818609E-02  0.8435316E-01
       -1   -1    0    0    0  501  0.00000000000E+00  0.00000000000E+00  0.11121525245E+04  0.11121525245E+04  0.50400001928E-02 0. -1.
        1   -1    0    0  501    0  0.00000000000E+00  0.00000000000E+00 -0.13069189412E+04  0.13069189412E+04  0.50400001928E-02 0.  1.
    10030    2    1    2    0    0  0.00000000000E+00  0.00000000000E+00 -0.19476641676E+03  0.24190714657E+04  0.24112181152E+04 0.  0.
        4    1    3    3  502    0 -0.82596846375E+03 -0.62246511946E+03 -0.71892084948E+03  0.12595775200E+04  0.12699999809E+01 0.  1.
       -4    1    3    3    0  502  0.82596846375E+03  0.62246511946E+03  0.52415443271E+03  0.11594939458E+04  0.12699999809E+01 0. -1.
</event>
<event>
 5   0  0.9750757E-05  0.2505514E+04  0.7818609E-02  0.8401024E-01
        2   -1    0    0  501    0  0.00000000000E+00  0.00000000000E+00  0.18330291143E+04  0.18330291143E+04  0.25500000920E-02 0.  1.
       -2   -1    0    0    0  501  0.00000000000E+00  0.00000000000E+00 -0.85617873409E+03  0.85617873410E+03  0.25500000920E-02 0. -1.
    10030    2    1    2    0    0  0.00000000000E+00  0.00000000000E+00  0.97685038025E+03  0.26892078484E+04  0.25055143557E+04 0.  0.
        2    1    3    3  502    0 -0.32605020554E+03  0.16153025328E+03 -0.79821118851E+03  0.87723535082E+03  0.25500000920E-02 0. -1.
       -2    1    3    3    0  502  0.32605020554E+03 -0.16153025328E+03  0.17750615688E+04  0.18119724976E+04  0.25500000920E-02 0.  1.
</event>
<event>
 5   0  0.9750757E-05  0.2254791E+04  0.7818609E-02  0.8495963E-01
        2   -1    0    0  501    0  0.00000000000E+00  0.00000000000E+00  0.14253259225E+04  0.14253259225E+04  0.25500000920E-02 0.  1.
       -2   -1    0    0    0  501  0.00000000000E+00  0.00000000000E+00 -0.89173997032E+03  0.89173997032E+03  0.25500000920E-02 0. -1.
    10030    2    1    2    0    0  0.00000000000E+00  0.00000000000E+00  0.53358595219E+03  0.23170658928E+04  0.22547905409E+04 0.  0.
        2    1    3    3  502    0 -0.67547531807E+02  0.22066322641E+03  0.14007953245E+04  0.14196768892E+04  0.25500000920E-02 0.  1.
       -2    1    3    3    0  502  0.67547531807E+02 -0.22066322641E+03 -0.86720937228E+03  0.89738900368E+03  0.25500000920E-02 0. -1.
</event>
<event>
 5   0  0.3234750E-05  0.2364050E+04  0.7818609E-02  0.8453087E-01
       -4   -1    0    0    0  501  0.00000000000E+00  0.00000000000E+00  0.11703997092E+04  0.11704003983E+04  0.12699999809E+01 0. -1.
        4   -1    0    0  501    0  0.00000000000E+00  0.00000000000E+00 -0.11937646673E+04  0.11937653429E+04  0.12699999809E+01 0.  1.
    10030    2    1    2    0    0  0.00000000000E+00  0.00000000000E+00 -0.23364958119E+02  0.23641657412E+04  0.23640502809E+04 0.  0.
        3    1    3    3  502    0  0.10112066793E+04  0.14434583953E+03  0.58316482379E+03  0.11762040178E+04  0.10100000352E+00 0. -1.
       -3    1    3    3    0  502 -0.10112066793E+04 -0.14434583953E+03 -0.60652978190E+03  0.11879617234E+04  0.10100000352E+00 0.  1.
</event>
<event>
 5   0  0.9144244E-05  0.2354410E+04  0.7818609E-02  0.8456772E-01
        2   -1    0    0  501    0  0.00000000000E+00  0.00000000000E+00  0.22033218399E+04  0.22033218399E+04  0.25500000920E-02 0.  1.
       -2   -1    0    0    0  501  0.00000000000E+00  0.00000000000E+00 -0.62896473818E+03  0.62896473818E+03  0.25500000920E-02 0. -1.
    10030    2    1    2    0    0  0.00000000000E+00  0.00000000000E+00  0.15743571017E+04  0.28322865781E+04  0.23544101122E+04 0.  0.
        1    1    3    3  502    0 -0.96086728388E+03 -0.33551479806E+03  0.75516217663E+02  0.10205580905E+04  0.50400001928E-02 0. -1.
       -1    1    3    3    0  502  0.96086728388E+03  0.33551479806E+03  0.14988408840E+04  0.18117284876E+04  0.50400001928E-02 0.  1.
</event>
<event>
 5   0  0.4061631E-05  0.2358170E+04  0.7818609E-02  0.8455332E-01
       -1   -1    0    0    0  501  0.00000000000E+00  0.00000000000E+00  0.16746457713E+04  0.16746457713E+04  0.50400001928E-02 0.  1.
        1   -1    0    0  501    0  0.00000000000E+00  0.00000000000E+00 -0.83017050766E+03  0.83017050768E+03  0.50400001928E-02 0. -1.
    10030    2    1    2    0    0  0.00000000000E+00  0.00000000000E+00  0.84447526361E+03  0.25048162790E+04  0.23581700788E+04 0.  0.
        3    1    3    3  502    0 -0.34530843203E+03  0.67577042983E+03 -0.53628657503E+03  0.92925071311E+03  0.10100000352E+00 0. -1.
       -3    1    3    3    0  502  0.34530843203E+03 -0.67577042983E+03  0.13807618386E+04  0.15755655658E+04  0.10100000352E+00 0.  1.
</event>
<event>
 5   0  0.9519092E-05  0.2332890E+04  0.7818609E-02  0.8465065E-01
        2   -1    0    0  501    0  0.00000000000E+00  0.00000000000E+00  0.12399955847E+04  0.12399955847E+04  0.25500000920E-02 0. -1.
       -2   -1    0    0    0  501  0.00000000000E+00  0.00000000000E+00 -0.10972568367E+04  0.10972568367E+04  0.25500000920E-02 0.  1.
    10030    2    1    2    0    0  0.00000000000E+00  0.00000000000E+00  0.14273874800E+03  0.23372524213E+04  0.23328897383E+04 0.  0.
        4    1    3    3  502    0  0.27652337576E+03 -0.25207569288E+03 -0.10354974339E+04  0.11010285559E+04  0.12699999809E+01 0.  1.
       -4    1    3    3    0  502 -0.27652337576E+03  0.25207569288E+03  0.11782361819E+04  0.12362238655E+04  0.12699999809E+01 0. -1.
</event>
<event>
 5   0  0.9491680E-05  0.2451825E+04  0.7818609E-02  0.8420352E-01
       -2   -1    0    0    0  501  0.00000000000E+00  0.00000000000E+00  0.86266570829E+03  0.86266570829E+03  0.25500000920E-02 0.  1.
        2   -1    0    0  501    0  0.00000000000E+00  0.00000000000E+00 -0.17421138553E+04  0.17421138553E+04  0.25500000920E-02 0. -1.
    10030    2    1    2    0    0  0.00000000000E+00  0.00000000000E+00 -0.87944814697E+03  0.26047795636E+04  0.24518253469E+04 0.  0.
        5    1    3    3  502    0 -0.66537727530E+03  0.36176760173E+03  0.58438145438E+03  0.95662243878E+03  0.46999998093E+01 0.  1.
       -5    1    3    3    0  502  0.66537727530E+03 -0.36176760173E+03 -0.14638296014E+04  0.16481571248E+04  0.46999998093E+01 0. -1.
</event>
<event>
 5   0  0.9182865E-05  0.2324695E+04  0.7818609E-02  0.8468247E-01
        2   -1    0    0  501    0  0.00000000000E+00  0.00000000000E+00  0.12889170729E+04  0.12889170729E+04  0.25500000920E-02 0.  1.
       -2   -1    0    0    0  501  0.00000000000E+00  0.00000000000E+00 -0.10482070971E+04  0.10482070971E+04  0.25500000920E-02 0. -1.
    10030    2    1    2    0    0  0.00000000000E+00  0.00000000000E+00  0.24070997585E+03  0.23371241700E+04  0.23246952690E+04 0.  0.
        3    1    3    3  502    0  0.66715389100E+02 -0.11400181127E+04 -0.97505638747E+02  0.11461237281E+04  0.10100000352E+00 0. -1.
       -3    1    3    3    0  502 -0.66715389100E+02  0.11400181127E+04  0.33821561460E+03  0.11910004419E+04  0.10100000352E+00 0.  1.
</event>
<event>
 5   0  0.4208577E-05  0.2398776E+04  0.7818609E-02  0.8439962E-01
        1   -1    0    0  501    0  0.00000000000E+00  0.00000000000E+00  0.18400639279E+04  0.18400639279E+04  0.50400001928E-02 0. -1.
       -1   -1    0    0    0  501  0.00000000000E+00  0.00000000000E+00 -0.78178373801E+03  0.78178373803E+03  0.50400001928E-02 0.  1.
    10030    2    1    2    0    0  0.00000000000E+00  0.00000000000E+00  0.10582801899E+04  0.26218476660E+04  0.23987764012E+04 0.  0.
        1    1    3    3  502    0  0.56587516555E+03 -0.69587922197E+03 -0.34119421708E+03  0.95962288861E+03  0.50400001928E-02 0.  1.
       -1    1    3    3    0  502 -0.56587516555E+03  0.69587922197E+03  0.13994744070E+04  0.16622247774E+04  0.50400001928E-02 0. -1.
</event>
<event>
 5   0  0.3934906E-05  0.2357470E+04  0.7818609E-02  0.8455600E-01
        1   -1    0    0  501    0  0.00000000000E+00  0.00000000000E+00  0.99845159791E+03  0.99845159793E+03  0.50400001928E-02 0.  1.
       -1   -1    0    0    0  501  0.00000000000E+00  0.00000000000E+00 -0.13915704618E+04  0.13915704618E+04  0.50400001928E-02 0. -1.
    10030    2    1    2    0    0  0.00000000000E+00  0.00000000000E+00 -0.39311886385E+03  0.23900220597E+04  0.23574696191E+04 0.  0.
        2    1    3    3  502    0 -0.10580250498E+03  0.96776967740E+03 -0.87029844056E+03  0.13058298872E+04  0.25500000920E-02 0. -1.
       -2    1    3    3    0  502  0.10580250498E+03 -0.96776967740E+03  0.47717957671E+03  0.10841921725E+04  0.25500000920E-02 0.  1.
</event>
<event>
 5   0  0.3934906E-05  0.1831573E+04  0.7818609E-02  0.8689687E-01
        1   -1    0    0  501    0  0.00000000000E+00  0.00000000000E+00  0.14868775845E+04  0.14868775845E+04  0.50400001928E-02 0. -1.
       -1   -1    0    0    0  501  0.00000000000E+00  0.00000000000E+00 -0.56404424056E+03  0.56404424058E+03  0.50400001928E-02 0.  1.
    10030    2    1    2    0    0  0.00000000000E+00  0.00000000000E+00  0.92283334398E+03  0.20509218251E+04  0.18315728083E+04 0.  0.
        2    1    3    3  502    0 -0.74196354737E+02 -0.88316834055E+03  0.20320741208E+03  0.90927700353E+03  0.25500000920E-02 0.  1.
       -2    1    3    3    0  502  0.74196354737E+02  0.88316834055E+03  0.71962593189E+03  0.11416448216E+04  0.25500000920E-02 0. -1.
</event>
<event>
 5   0  0.9750757E-05  0.2392335E+04  0.7818609E-02  0.8442379E-01
        2   -1    0    0  501    0  0.00000000000E+00  0.00000000000E+00  0.16709472281E+04  0.16709472281E+04  0.25500000920E-02 0. -1.
       -2   -1    0    0    0  501  0.00000000000E+00  0.00000000000E+00 -0.85629102101E+03  0.85629102102E+03  0.25500000920E-02 0.  1.
    10030    2    1    2    0    0  0.00000000000E+00  0.00000000000E+00  0.81465620711E+03  0.25272382491E+04  0.23923353511E+04 0.  0.
        2    1    3    3  502    0 -0.10597173699E+04 -0.53626916010E+03  0.55758664054E+03  0.13120550209E+04  0.25500000920E-02 0.  1.
       -2    1    3    3    0  502  0.10597173699E+04  0.53626916010E+03  0.25706956656E+03  0.12151832282E+04  0.25500000920E-02 0. -1.
</event>
<event>
 5   0  0.9519092E-05  0.2399648E+04  0.7818609E-02  0.8439635E-01
        2   -1    0    0  501    0  0.00000000000E+00  0.00000000000E+00  0.10819796614E+04  0.10819796614E+04  0.25500000920E-02 0.  1.
       -2   -1    0    0    0  501  0.00000000000E+00  0.00000000000E+00 -0.13305030626E+04  0.13305030626E+04  0.25500000920E-02 0. -1.
    10030    2    1    2    0    0  0.00000000000E+00  0.00000000000E+00 -0.24852340123E+03  0.24124827240E+04  0.23996476851E+04 0.  0.
        4    1    3    3  502    0  0.91777169324E+03 -0.30261512803E+03  0.59066413415E+03  0.11325928346E+04  0.12699999809E+01 0.  1.
       -4    1    3    3    0  502 -0.91777169324E+03  0.30261512803E+03 -0.83918753538E+03  0.12798898894E+04  0.12699999809E+01 0. -1.
</event>
<event>
 5   0  0.9491680E-05  0.2485024E+04  0.7818609E-02  0.8408340E-01
       -2   -1    0    0    0  501  0.00000000000E+00  0.00000000000E+00  0.89339735204E+03  0.89339735204E+03  0.25500000920E-02 0.  1.
        2   -1    0    0  501    0  0.00000000000E+00  0.00000000000E+00 -0.17280504606E+04  0.17280504606E+04  0.25500000920E-02 0. -1.
    10030    2    1    2    0    0  0.00000000000E+00  0.00000000000E+00 -0.83465310860E+03  0.26214478127E+04  0.24850237067E+04 0.  0.
        5    1    3    3  502    0 -0.96064287021E+03 -0.73649088622E+03 -0.71299950838E+03  0.14048643844E+04  0.46999998093E+01 0. -1.
       -5    1    3    3    0  502  0.96064287021E+03  0.73649088622E+03 -0.12165360022E+03  0.12165834283E+04  0.46999998093E+01 0.  1.
</event>
<event>
 5   0  0.4208577E-05  0.2240307E+04  0.7818609E-02  0.8501836E-01
        1   -1    0    0  501    0  0.00000000000E+00  0.00000000000E+00  0.91164301501E+03  0.91164301503E+03  0.50400001928E-02 0.  1.
       -1   -1    0    0    0  501  0.00000000000E+00  0.00000000000E+00 -0.13763538093E+04  0.13763538094E+04  0.50400001928E-02 0. -1.
    10030    2    1    2    0    0  0.00000000000E+00  0.00000000000E+00 -0.46471079433E+03  0.22879968244E+04  0.22403065295E+04 0.  0.
        1    1    3    3  502    0  0.89033349340E+03  0.63176673427E+03  0.23823712382E+02  0.10919663481E+04  0.50400001928E-02 0.  1.
       -1    1    3    3    0  502 -0.89033349340E+03 -0.63176673427E+03 -0.48853450671E+03  0.11960304763E+04  0.50400001928E-02 0. -1.
</event>
<event>
 5   0  0.4260395E-05  0.2346848E+04  0.7818609E-02  0.8459675E-01
        1   -1    0    0  501    0  0.00000000000E+00  0.00000000000E+00  0.18291227411E+04  0.18291227411E+04  0.50400001928E-02 0. -1.
       -1   -1    0    0    0  501  0.00000000000E+00  0.00000000000E+00 -0.75277810201E+03  0.75277810203E+03  0.50400001928E-02 0.  1.
    10030    2    1    2    0    0  0.00000000000E+00  0.00000000000E+00  0.10763446391E+04  0.25819008432E+04  0.23468477117E+04 0.  0.
        4    1    3    3  502    0 -0.18544982441E+03 -0.72397650513E+02  0.18104071064E+04  0.18213205542E+04  0.12699999809E+01 0. -1.
       -4    1    3    3    0  502  0.18544982441E+03  0.72397650513E+02 -0.73406246731E+03  0.76058028898E+03  0.12699999809E+01 0.  1.
</event>
<event>
 5   0  0.9750757E-05  0.2500851E+04  0.7818609E-02  0.8402683E-01
       -2   -1    0    0    0  501  0.00000000000E+00  0.00000000000E+00  0.16330787488E+04  0.16330787488E+04  0.25500000920E-02 0. -1.
        2   -1    0    0  501    0  0.00000000000E+00  0.00000000000E+00 -0.95743302014E+03  0.95743302015E+03  0.25500000920E-02 0.  1.
    10030    2    1    2    0    0  0.00000000000E+00  0.00000000000E+00  0.67564572864E+03  0.25905117689E+04  0.25008506701E+04 0.  0.
        2    1    3    3  502    0 -0.15752394744E+03  0.76526889057E+02  0.16203122548E+04  0.16297490488E+04  0.25500000920E-02 0. -1.
       -2    1    3    3    0  502  0.15752394744E+03 -0.76526889057E+02 -0.94466652619E+03  0.96076272017E+03  0.25500000920E-02 0.  1.
</event>
<event>
 5   0  0.9144244E-05  0.2335371E+04  0.7818609E-02  0.8464104E-01
       -2   -1    0    0    0  501  0.00000000000E+00  0.00000000000E+00  0.12133339960E+04  0.12133339960E+04  0.25500000920E-02 0. -1.
        2   -1    0    0  501    0  0.00000000000E+00  0.00000000000E+00 -0.11237539674E+04  0.11237539674E+04  0.25500000920E-02 0.  1.
    10030    2    1    2    0    0  0.00000000000E+00  0.00000000000E+00  0.89580028562E+02  0.23370879634E+04  0.23353705417E+04 0.  0.
        1    1    3    3  502    0 -0.40228512115E+03  0.10398762154E+04  0.39190678159E+03  0.11818488852E+04  0.50400001928E-02 0. -1.
       -1    1    3    3    0  502  0.40228512115E+03 -0.10398762154E+04 -0.30232675303E+03  0.11552390781E+04  0.50400001928E-02 0.  1.
</event>
<event>
 5   0  0.9144244E-05  0.2408989E+04  0.7818609E-02  0.8436146E-01
        2   -1    0    0  501    0  0.00000000000E+00  0.00000000000E+00  0.14188339773E+04  0.14188339773E+04  0.25500000920E-02 0. -1.
       -2   -1    0    0    0  501  0.00000000000E+00  0.00000000000E+00 -0.10225344075E+04  0.10225344075E+04  0.25500000920E-02 0.  1.
    10030    2    1    2    0    0  0.00000000000E+00  0.00000000000E+00  0.39629956972E+03  0.24413683848E+04  0.24089886346E+04 0.  0.
        1    1    3    3  502    0  0.63376034272E+03  0.20424491939E+03  0.12153532145E+04  0.13858035918E+04  0.50400001928E-02 0. -1.
       -1    1    3    3    0  502 -0.63376034272E+03 -0.20424491939E+03 -0.81905364479E+03  0.10555647930E+04  0.50400001928E-02 0.  1.
</event>
<event>
 5   0  0.3934906E-05  0.1393447E+04  0.7818609E-02  0.8958576E-01
       -1   -1    0    0    0  501  0.00000000000E+00  0.00000000000E+00  0.37871152608E+03  0.37871152611E+03  0.50400001928E-02 0. -1.
        1   -1    0    0  501    0  0.00000000000E+00  0.00000000000E+00 -0.12817770358E+04  0.12817770358E+04  0.50400001928E-02 0.  1.
    10030    2    1    2    0    0  0.00000000000E+00  0.00000000000E+00 -0.90306550967E+03  0.16604885619E+04  0.13934471462E+04 0.  0.
        2    1    3    3  502    0  0.42453866745E+03  0.23747058386E+03  0.14285405191E+03  0.50698386416E+03  0.25500000920E-02 0. -1.
       -2    1    3    3    0  502 -0.42453866745E+03 -0.23747058386E+03 -0.10459195616E+04  0.11535046977E+04  0.25500000920E-02 0.  1.
</event>
<event>
 5   0  0.9491680E-05  0.2301297E+04  0.7818609E-02  0.8477410E-01
       -2   -1    0    0    0  501  0.00000000000E+00  0.00000000000E+00  0.64303055513E+03  0.64303055513E+03  0.25500000920E-02 0. -1.
        2   -1    0    0  501    0  0.00000000000E+00  0.00000000000E+00 -0.20589877164E+04  0.20589877165E+04  0.25500000920E-02 0.  1.
    10030    2    1    2    0    0  0.00000000000E+00  0.00000000000E+00 -0.14159571613E+04  0.27020182716E+04  0.23012970380E+04 0.  0.
        5    1    3    3  502    0  0.43935172900E+03 -0.11921011497E+03  0.53278628371E+03  0.70080261657E+03  0.46999998093E+01 0. -1.
       -5    1    3    3    0  502 -0.43935172900E+03  0.11921011497E+03 -0.19487434450E+04  0.20012156550E+04  0.46999998093E+01 0.  1.
</event>
<event>
 5   0  0.4260395E-05  0.2428225E+04  0.7818609E-02  0.8429012E-01
       -1   -1    0    0    0  501  0.00000000000E+00  0.00000000000E+00  0.10761409918E+04  0.10761409918E+04  0.50400001928E-02 0. -1.
        1   -1    0    0  501    0  0.00000000000E+00  0.00000000000E+00 -0.13697730770E+04  0.13697730770E+04  0.50400001928E-02 0.  1.
    10030    2    1    2    0    0  0.00000000000E+00  0.00000000000E+00 -0.29363208518E+03  0.24459140688E+04  0.24282248311E+04 0.  0.
        4    1    3    3  502    0 -0.23477935374E+03 -0.65363927251E+03  0.85628071892E+03  0.11025352267E+04  0.12699999809E+01 0. -1.
       -4    1    3    3    0  502  0.23477935374E+03  0.65363927251E+03 -0.11499128041E+04  0.13433788421E+04  0.12699999809E+01 0.  1.
</event>
<event>
 5   0  0.4208577E-05  0.2468055E+04  0.7818609E-02  0.8414455E-01
       -1   -1    0    0    0  501  0.00000000000E+00  0.00000000000E+00  0.13760715877E+04  0.13760715877E+04  0.50400001928E-02 0.  1.
        1   -1    0    0  501    0  0.00000000000E+00  0.00000000000E+00 -0.11066454067E+04  0.11066454067E+04  0.50400001928E-02 0. -1.
    10030    2    1    2    0    0  0.00000000000E+00  0.00000000000E+00  0.26942618107E+03  0.24827169944E+04  0.24680545390E+04 0.  0.
        1    1    3    3  502    0  0.86355387968E+03  0.55259045520E+03 -0.55620193691E+03  0.11663799162E+04  0.50400001928E-02 0. -1.
       -1    1    3    3    0  502 -0.86355387968E+03 -0.55259045520E+03  0.82562811798E+03  0.13163370782E+04  0.50400001928E-02 0.  1.
</event>
<event>
 5   0  0.4208577E-05  0.2453995E+04  0.7818609E-02  0.8419561E-01
       -1   -1    0    0    0  501  0.00000000000E+00  0.00000000000E+00  0.13663829406E+04  0.13663829406E+04  0.50400001928E-02 0.  1.
        1   -1    0    0  501    0  0.00000000000E+00  0.00000000000E+00 -0.11018307911E+04  0.11018307911E+04  0.50400001928E-02 0. -1.
    10030    2    1    2    0    0  0.00000000000E+00  0.00000000000E+00  0.26455214954E+03  0.24682137318E+04  0.24539949441E+04 0.  0.
        1    1    3    3  502    0 -0.54401890080E+03 -0.10746191102E+04 -0.10308835010E+03  0.12088796484E+04  0.50400001928E-02 0.  1.
       -1    1    3    3    0  502  0.54401890080E+03  0.10746191102E+04  0.36764049964E+03  0.12593340833E+04  0.50400001928E-02 0. -1.
</event>
<event>
 5   0  0.3934906E-05  0.2422359E+04  0.7818609E-02  0.8431180E-01
        1   -1    0    0  501    0  0.00000000000E+00  0.00000000000E+00  0.17898410630E+04  0.17898410630E+04  0.50400001928E-02 0.  1.
       -1   -1    0    0    0  501  0.00000000000E+00  0.00000000000E+00 -0.81960110173E+03  0.81960110175E+03  0.50400001928E-02 0. -1.
    10030    2    1    2    0    0  0.00000000000E+00  0.00000000000E+00  0.97023996124E+03  0.26094421647E+04  0.24223589389E+04 0.  0.
        2    1    3    3  502    0 -0.25239484382E+03 -0.86999490090E+03  0.13511778125E+04  0.16267377680E+04  0.25500000920E-02 0.  1.
       -2    1    3    3    0  502  0.25239484382E+03  0.86999490090E+03 -0.38093785130E+03  0.98270439672E+03  0.25500000920E-02 0. -1.
</event>
<event>
 5   0  0.4061631E-05  0.2438373E+04  0.7818609E-02  0.8425275E-01
       -1   -1    0    0    0  501  0.00000000000E+00  0.00000000000E+00  0.80348187868E+03  0.80348187870E+03  0.50400001928E-02 0.  1.
        1   -1    0    0  501    0  0.00000000000E+00  0.00000000000E+00 -0.18499680777E+04  0.18499680777E+04  0.50400001928E-02 0. -1.
    10030    2    1    2    0    0  0.00000000000E+00  0.00000000000E+00 -0.10464861990E+04  0.26534499564E+04  0.24383730860E+04 0.  0.
        3    1    3    3  502    0  0.19909443670E+03 -0.11610302265E+04 -0.18121757163E+03  0.11918345523E+04  0.10100000352E+00 0. -1.
       -3    1    3    3    0  502 -0.19909443670E+03  0.11610302265E+04 -0.86526862739E+03  0.14616154041E+04  0.10100000352E+00 0.  1.
</event>
<event>
 5   0  0.9182865E-05  0.2333949E+04  0.7818609E-02  0.8464655E-01
        2   -1    0    0  501    0  0.00000000000E+00  0.00000000000E+00  0.10924969801E+04  0.10924969801E+04  0.25500000920E-02 0.  1.
       -2   -1    0    0    0  501  0.00000000000E+00  0.00000000000E+00 -0.12465290713E+04  0.12465290713E+04  0.25500000920E-02 0. -1.
    10030    2    1    2    0    0  0.00000000000E+00  0.00000000000E+00 -0.15403209121E+03  0.23390260514E+04  0.23339487963E+04 0.  0.
        3    1    3    3  502    0 -0.82096006451E+03 -0.61994732188E+03  0.47510813356E+03  0.11331539429E+04  0.10100000352E+00 0. -1.
       -3    1    3    3    0  502  0.82096006451E+03  0.61994732188E+03 -0.62914022477E+03  0.12058721085E+04  0.10100000352E+00 0.  1.
</event>
<event>
 5   0  0.4061631E-05  0.2436723E+04  0.7818609E-02  0.8425882E-01
        1   -1    0    0  501    0  0.00000000000E+00  0.00000000000E+00  0.19526450248E+04  0.19526450248E+04  0.50400001928E-02 0.  1.
       -1   -1    0    0    0  501  0.00000000000E+00  0.00000000000E+00 -0.76020200932E+03  0.76020200933E+03  0.50400001928E-02 0. -1.
    10030    2    1    2    0    0  0.00000000000E+00  0.00000000000E+00  0.11924430154E+04  0.27128470341E+04  0.24367229398E+04 0.  0.
        3    1    3    3  502    0 -0.69091938629E+03  0.19473635838E+03 -0.49976781316E+03  0.87467692601E+03  0.10100000352E+00 0. -1.
       -3    1    3    3    0  502  0.69091938629E+03 -0.19473635838E+03  0.16922108286E+04  0.18381701081E+04  0.10100000352E+00 0.  1.
</event>
<event>
 5   0  0.9519092E-05  0.2403568E+04  0.7818609E-02  0.8438169E-01
        2   -1    0    0  501    0  0.00000000000E+00  0.00000000000E+00  0.15263610379E+04  0.15263610379E+04  0.25500000920E-02 0. -1.
       -2   -1    0    0    0  501  0.00000000000E+00  0.00000000000E+00 -0.94622774256E+03  0.94622774256E+03  0.25500000920E-02 0.  1.
    10030    2    1    2    0    0  0.00000000000E+00  0.00000000000E+00  0.58013329532E+03  0.24725887804E+04  0.24035683133E+04 0.  0.
        4    1    3    3  502    0  0.11923825860E+04 -0.85779045909E+01  0.44414662703E+03  0.12724455395E+04  0.12699999809E+01 0. -1.
       -4    1    3    3    0  502 -0.11923825860E+04  0.85779045909E+01  0.13598666829E+03  0.12001432409E+04  0.12699999809E+01 0.  1.
</event>
<event>
 5   0  0.9182865E-05  0.2308419E+04  0.7818609E-02  0.8474609E-01
       -2   -1    0    0    0  501  0.00000000000E+00  0.00000000000E+00  0.60837567641E+03  0.60837567641E+03  0.25500000920E-02 0. -1.
        2   -1    0    0  501    0  0.00000000000E+00  0.00000000000E+00 -0.21897650164E+04  0.21897650164E+04  0.25500000920E-02 0.  1.
    10030    2    1    2    0    0  0.00000000000E+00  0.00000000000E+00 -0.15813893400E+04  0.27981406929E+04  0.23084191760E+04 0.  0.
        3    1    3    3  502    0  0.64756207304E+03  0.34119627887E+03 -0.18724614687E+04  0.20104386340E+04  0.10100000352E+00 0.  1.
       -3    1    3    3    0  502 -0.64756207304E+03 -0.34119627887E+03  0.29107212870E+03  0.78770205881E+03  0.10100000352E+00 0. -1.
</event>
<event>
 5   0  0.9750757E-05  0.2378064E+04  0.7818609E-02  0.8447762E-01
       -2   -1    0    0    0  501  0.00000000000E+00  0.00000000000E+00  0.14351039697E+04  0.14351039697E+04  0.25500000920E-02 0.  1.
        2   -1    0    0  501    0  0.00000000000E+00  0.00000000000E+00 -0.98515332290E+03  0.98515332290E+03  0.25500000920E-02 0. -1.
    10030    2    1    2    0    0  0.00000000000E+00  0.00000000000E+00  0.44995064682E+03  0.24202572926E+04  0.23780642922E+04 0.  0.
        2    1    3    3  502    0 -0.43292996219E+03  0.47456908476E+03 -0.79335395845E+03  0.10208107914E+04  0.25500000920E-02 0. -1.
       -2    1    3    3    0  502  0.43292996219E+03 -0.47456908476E+03  0.12433046053E+04  0.13994465012E+04  0.25500000920E-02 0.  1.
</event>
<event>
 5   0  0.4018942E-05  0.2404546E+04  0.7818609E-02  0.8437804E-01
        1   -1    0    0  501    0  0.00000000000E+00  0.00000000000E+00  0.10706017505E+04  0.10706017506E+04  0.50400001928E-02 0.  1.
       -1   -1    0    0    0  501  0.00000000000E+00  0.00000000000E+00 -0.13501380578E+04  0.13501380578E+04  0.50400001928E-02 0. -1.
    10030    2    1    2    0    0  0.00000000000E+00  0.00000000000E+00 -0.27953630726E+03  0.24207398084E+04  0.24045458350E+04 0.  0.
        5    1    3    3  502    0 -0.76920228834E+03  0.91949773211E+03 -0.23142989127E+03  0.12209545955E+04  0.46999998093E+01 0. -1.
       -5    1    3    3    0  502  0.76920228834E+03 -0.91949773211E+03 -0.48106415990E+02  0.11997852129E+04  0.46999998093E+01 0.  1.
</event>
<event>
 5   0  0.4208577E-05  0.2384404E+04  0.7818609E-02  0.8445366E-01
       -1   -1    0    0    0  501  0.00000000000E+00  0.00000000000E+00  0.44541071617E+03  0.44541071619E+03  0.50400001928E-02 0. -1.
        1   -1    0    0  501    0  0.00000000000E+00  0.00000000000E+00 -0.31910889820E+04  0.31910889820E+04  0.50400001928E-02 0.  1.
    10030    2    1    2    0    0  0.00000000000E+00  0.00000000000E+00 -0.27456782658E+04  0.36364996982E+04  0.23844036813E+04 0.  0.
        1    1    3    3  502    0  0.10621534593E+04 -0.23928262900E+03 -0.21136124087E+04  0.23775583193E+04  0.50400001928E-02 0.  1.
       -1    1    3    3    0  502 -0.10621534593E+04  0.23928262900E+03 -0.63206585715E+03  0.12589413789E+04  0.50400001928E-02 0. -1.
</event>
<event>
 5   0  0.9144244E-05  0.1326464E+04  0.7818609E-02  0.9008838E-01
        2   -1    0    0  501    0  0.00000000000E+00  0.00000000000E+00  0.70141720443E+03  0.70141720443E+03  0.25500000920E-02 0. -1.
       -2   -1    0    0    0  501  0.00000000000E+00  0.00000000000E+00 -0.62712606320E+03  0.62712606320E+03  0.25500000920E-02 0.  1.
    10030    2    1    2    0    0  0.00000000000E+00  0.00000000000E+00  0.74291141229E+02  0.13285432676E+04  0.13264644889E+04 0.  0.
        1    1    3    3  502    0 -0.59316439220E+03  0.24766399147E+03 -0.12649824707E+03  0.65512079450E+03  0.50400001928E-02 0.  1.
       -1    1    3    3    0  502  0.59316439220E+03 -0.24766399147E+03  0.20078938830E+03  0.67342247314E+03  0.50400001928E-02 0. -1.
</event>
<event>
 5   0  0.9519092E-05  0.2402642E+04  0.7818609E-02  0.8438515E-01
       -2   -1    0    0    0  501  0.00000000000E+00  0.00000000000E+00  0.97019655405E+03  0.97019655405E+03  0.25500000920E-02 0.  1.
        2   -1    0    0  501    0  0.00000000000E+00  0.00000000000E+00 -0.14875054772E+04  0.14875054772E+04  0.25500000920E-02 0. -1.
    10030    2    1    2    0    0  0.00000000000E+00  0.00000000000E+00 -0.51730892317E+03  0.24577020313E+04  0.24026424521E+04 0.  0.
        4    1    3    3  502    0  0.35047583504E+03  0.10151794741E+03  0.91214095282E+03  0.98241637573E+03  0.12699999809E+01 0.  1.
       -4    1    3    3    0  502 -0.35047583504E+03 -0.10151794741E+03 -0.14294498760E+04  0.14752856555E+04  0.12699999809E+01 0. -1.
</event>
<event>
 5   0  0.3234750E-05  0.2396937E+04  0.7818609E-02  0.8440651E-01
       -4   -1    0    0    0  501  0.00000000000E+00  0.00000000000E+00  0.60007728435E+03  0.60007862826E+03  0.12699999809E+01 0. -1.
        4   -1    0    0  501    0  0.00000000000E+00  0.00000000000E+00 -0.23935656948E+04  0.23935660317E+04  0.12699999809E+01 0.  1.
    10030    2    1    2    0    0  0.00000000000E+00  0.00000000000E+00 -0.17934884104E+04  0.29936446599E+04  0.23969371439E+04 0.  0.
        2    1    3    3  502    0 -0.45989213784E+03  0.27022803729E+03 -0.22371388882E+04  0.22998509464E+04  0.25500000920E-02 0.  1.
       -2    1    3    3    0  502  0.45989213784E+03 -0.27022803729E+03  0.44365047775E+03  0.69379371357E+03  0.25500000920E-02 0. -1.
</event>
<event>
 5   0  0.9182865E-05  0.2404803E+04  0.7818609E-02  0.8437708E-01
       -2   -1    0    0    0  501  0.00000000000E+00  0.00000000000E+00  0.10477129885E+04  0.10477129885E+04  0.25500000920E-02 0. -1.
        2   -1    0    0  501    0  0.00000000000E+00  0.00000000000E+00 -0.13799283576E+04  0.13799283576E+04  0.25500000920E-02 0.  1.
    10030    2    1    2    0    0  0.00000000000E+00  0.00000000000E+00 -0.33221536912E+03  0.24276413461E+04  0.24048025811E+04 0.  0.
        3    1    3    3  502    0 -0.19327075293E+02  0.54370609251E+03 -0.12485687460E+04  0.13619521924E+04  0.10100000352E+00 0.  1.
       -3    1    3    3    0  502  0.19327075293E+02 -0.54370609251E+03  0.91635337684E+03  0.10656891537E+04  0.10100000352E+00 0. -1.
</event>
<event>
 5   0  0.9519092E-05  0.2360764E+04  0.7818609E-02  0.8454341E-01
       -2   -1    0    0    0  501  0.00000000000E+00  0.00000000000E+00  0.14051333138E+04  0.14051333138E+04  0.25500000920E-02 0. -1.
        2   -1    0    0  501    0  0.00000000000E+00  0.00000000000E+00 -0.99157997264E+03  0.99157997264E+03  0.25500000920E-02 0.  1.
    10030    2    1    2    0    0  0.00000000000E+00  0.00000000000E+00  0.41355334118E+03  0.23967132865E+04  0.23607643278E+04 0.  0.
        4    1    3    3  502    0 -0.36135536525E+03  0.36767234733E+03 -0.87124970504E+03  0.10123429836E+04  0.12699999809E+01 0.  1.
       -4    1    3    3    0  502  0.36135536525E+03 -0.36767234733E+03  0.12848030462E+04  0.13843703029E+04  0.12699999809E+01 0. -1.
</event>
<event>
 5   0  0.4018942E-05  0.2253788E+04  0.7818609E-02  0.8496368E-01
       -1   -1    0    0    0  501  0.00000000000E+00  0.00000000000E+00  0.10886276651E+04  0.10886276651E+04  0.50400001928E-02 0. -1.
        1   -1    0    0  501    0  0.00000000000E+00  0.00000000000E+00 -0.11665051579E+04  0.11665051579E+04  0.50400001928E-02 0.  1.
    10030    2    1    2    0    0  0.00000000000E+00  0.00000000000E+00 -0.77877492847E+02  0.22551328231E+04  0.22537877331E+04 0.  0.
        5    1    3    3  502    0  0.32477676294E+03  0.14085813914E+03  0.10315346554E+04  0.10905992831E+04  0.46999998093E+01 0. -1.
       -5    1    3    3    0  502 -0.32477676294E+03 -0.14085813914E+03 -0.11094121482E+04  0.11645335400E+04  0.46999998093E+01 0.  1.
</event>
<event>
 5   0  0.3934906E-05  0.2374658E+04  0.7818609E-02  0.8449053E-01
       -1   -1    0    0    0  501  0.00000000000E+00  0.00000000000E+00  0.69996688716E+03  0.69996688718E+03  0.50400001928E-02 0. -1.
        1   -1    0    0  501    0  0.00000000000E+00  0.00000000000E+00 -0.20140237655E+04  0.20140237655E+04  0.50400001928E-02 0.  1.
    10030    2    1    2    0    0  0.00000000000E+00  0.00000000000E+00 -0.13140568783E+04  0.27139906527E+04  0.23746578245E+04 0.  0.
        2    1    3    3  502    0 -0.34033631324E+03 -0.25809911628E+03 -0.19231742861E+04  0.19700363689E+04  0.25500000920E-02 0.  1.
       -2    1    3    3    0  502  0.34033631324E+03  0.25809911628E+03  0.60911740777E+03  0.74395428381E+03  0.25500000920E-02 0. -1.
</event>
<event>
 5   0  0.9519092E-05  0.2425616E+04  0.7818609E-02  0.8429975E-01
       -2   -1    0    0    0  501  0.00000000000E+00  0.00000000000E+00  0.64277482451E+03  0.64277482451E+03  0.25500000920E-02 0.  1.
        2   -1    0    0  501    0  0.00000000000E+00  0.00000000000E+00 -0.22883649857E+04  0.22883649857E+04  0.25500000920E-02 0. -1.
    10030    2    1    2    0    0  0.00000000000E+00  0.00000000000E+00 -0.16455901612E+04  0.29311398102E+04  0.24256161296E+04 0.  0.
        4    1    3    3  502    0  0.18713493441E+03 -0.11894258412E+04 -0.64706181523E+03  0.13669103558E+04  0.12699999809E+01 0.  1.
       -4    1    3    3    0  502 -0.18713493441E+03  0.11894258412E+04 -0.99852834597E+03  0.15642294544E+04  0.12699999809E+01 0. -1.
</event>
<event>
 5   0  0.9182865E-05  0.2089754E+04  0.7818609E-02  0.8565770E-01
       -2   -1    0    0    0  501  0.00000000000E+00  0.00000000000E+00  0.92605746564E+03  0.92605746564E+03  0.25500000920E-02 0.  1.
        2   -1    0    0  501    0  0.00000000000E+00  0.00000000000E+00 -0.11789418645E+04  0.11789418645E+04  0.25500000920E-02 0. -1.
    10030    2    1    2    0    0  0.00000000000E+00  0.00000000000E+00 -0.25288439885E+03  0.21049993301E+04  0.20897539713E+04 0.  0.
        3    1    3    3  502    0 -0.71925883292E+03  0.38672488981E+03 -0.78302451041E+03  0.11313782759E+04  0.10100000352E+00 0. -1.
       -3    1    3    3    0  502  0.71925883292E+03 -0.38672488981E+03  0.53014011155E+03  0.97362105421E+03  0.10100000352E+00 0.  1.
</event>
<event>
 5   0  0.3234750E-05  0.2420134E+04  0.7818609E-02  0.8432004E-01
       -3   -1    0    0    0  501  0.00000000000E+00  0.00000000000E+00  0.13360905242E+04  0.13360905280E+04  0.10100000352E+00 0. -1.
        3   -1    0    0  501    0  0.00000000000E+00  0.00000000000E+00 -0.10959299818E+04  0.10959299865E+04  0.10100000352E+00 0.  1.
    10030    2    1    2    0    0  0.00000000000E+00  0.00000000000E+00  0.24016054242E+03  0.24320205145E+04  0.24201336114E+04 0.  0.
        3    1    3    3  502    0  0.10060592077E+04  0.62466640409E+03 -0.12993565027E+03  0.11913213375E+04  0.10100000352E+00 0. -1.
       -3    1    3    3    0  502 -0.10060592077E+04 -0.62466640409E+03  0.37009619268E+03  0.12406991770E+04  0.10100000352E+00 0.  1.
</event>
<event>
 5   0  0.9750757E-05  0.2437460E+04  0.7818609E-02  0.8425611E-01
       -2   -1    0    0    0  501  0.00000000000E+00  0.00000000000E+00  0.10530784453E+04  0.10530784453E+04  0.25500000920E-02 0. -1.
        2   -1    0    0  501    0  0.00000000000E+00  0.00000000000E+00 -0.14104394309E+04  0.14104394309E+04  0.25500000920E-02 0.  1.
    10030    2    1    2    0    0  0.00000000000E+00  0.00000000000E+00 -0.35736098561E+03  0.24635178763E+04  0.24374604515E+04 0.  0.
        2    1    3    3  502    0 -0.44543006680E+03  0.12955824682E+03  0.96035910287E+03  0.10665284292E+04  0.25500000920E-02 0. -1.
       -2    1    3    3    0  502  0.44543006680E+03 -0.12955824682E+03 -0.13177200885E+04  0.13969894471E+04  0.25500000920E-02 0.  1.
</event>
<event>
 5   0  0.9519092E-05  0.2369994E+04  0.7818609E-02  0.8450824E-01
        2   -1    0    0  501    0  0.00000000000E+00  0.00000000000E+00  0.12449271155E+04  0.12449271155E+04  0.25500000920E-02 0.  1.
       -2   -1    0    0    0  501  0.00000000000E+00  0.00000000000E+00 -0.11279516098E+04  0.11279516099E+04  0.25500000920E-02 0. -1.
    10030    2    1    2    0    0  0.00000000000E+00  0.00000000000E+00  0.11697550563E+03  0.23728787253E+04  0.23699937081E+04 0.  0.
        4    1    3    3  502    0 -0.39956205158E+03  0.51806243307E+03  0.10477073853E+04  0.12352047991E+04  0.12699999809E+01 0.  1.
       -4    1    3    3    0  502  0.39956205158E+03 -0.51806243307E+03 -0.93073187969E+03  0.11376739262E+04  0.12699999809E+01 0. -1.
</event>
<event>
 5   0  0.4208577E-05  0.2390396E+04  0.7818609E-02  0.8443108E-01
       -1   -1    0    0    0  501  0.00000000000E+00  0.00000000000E+00  0.57555985625E+03  0.57555985627E+03  0.50400001928E-02 0. -1.
        1   -1    0    0  501    0  0.00000000000E+00  0.00000000000E+00 -0.24819279684E+04  0.24819279684E+04  0.50400001928E-02 0.  1.
    10030    2    1    2    0    0  0.00000000000E+00  0.00000000000E+00 -0.19063681121E+04  0.30574878246E+04  0.23903958708E+04 0.  0.
        1    1    3    3  502    0 -0.22291544906E+03 -0.26053424628E+03  0.51129931399E+03  0.61562681832E+03  0.50400001928E-02 0. -1.
       -1    1    3    3    0  502  0.22291544906E+03  0.26053424628E+03 -0.24176674261E+04  0.24418610063E+04  0.50400001928E-02 0.  1.
</event>
<event>
 5   0  0.9750757E-05  0.2422793E+04  0.7818609E-02  0.8431019E-01
       -2   -1    0    0    0  501  0.00000000000E+00  0.00000000000E+00  0.61912855256E+03  0.61912855256E+03  0.25500000920E-02 0.  1.
        2   -1    0    0  501    0  0.00000000000E+00  0.00000000000E+00 -0.23702365576E+04  0.23702365576E+04  0.25500000920E-02 0. -1.
    10030    2    1    2    0    0  0.00000000000E+00  0.00000000000E+00 -0.17511080050E+04  0.29893651102E+04  0.24227927102E+04 0.  0.
        2    1    3    3  502    0  0.32532185552E+02 -0.63495681207E+03 -0.21478288359E+04  0.22399547327E+04  0.25500000920E-02 0. -1.
       -2    1    3    3    0  502 -0.32532185552E+02  0.63495681207E+03  0.39672083081E+03  0.74941037750E+03  0.25500000920E-02 0.  1.
</event>
<event>
 5   0  0.4018942E-05  0.2373149E+04  0.7818609E-02  0.8449625E-01
       -1   -1    0    0    0  501  0.00000000000E+00  0.00000000000E+00  0.13409473156E+04  0.13409473156E+04  0.50400001928E-02 0. -1.
        1   -1    0    0  501    0  0.00000000000E+00  0.00000000000E+00 -0.10499738459E+04  0.10499738459E+04  0.50400001928E-02 0.  1.
    10030    2    1    2    0    0  0.00000000000E+00  0.00000000000E+00  0.29097346973E+03  0.23909211616E+04  0.23731494771E+04 0.  0.
        5    1    3    3  502    0 -0.42182952105E+03  0.30472255822E+02  0.12624226659E+04  0.13313909195E+04  0.46999998093E+01 0. -1.
       -5    1    3    3    0  502  0.42182952105E+03 -0.30472255822E+02 -0.97144919613E+03  0.10595302421E+04  0.46999998093E+01 0.  1.
</event>
<event>
 5   0  0.4061631E-05  0.2271512E+04  0.7818609E-02  0.8489239E-01
       -1   -1    0    0    0  501  0.00000000000E+00  0.00000000000E+00  0.62021513694E+03  0.62021513696E+03  0.50400001928E-02 0.  1.
        1   -1    0    0  501    0  0.00000000000E+00  0.00000000000E+00 -0.20798294984E+04  0.20798294984E+04  0.50400001928E-02 0. -1.
    10030    2    1    2    0    0  0.00000000000E+00  0.00000000000E+00 -0.14596143614E+04  0.27000446353E+04  0.22715120402E+04 0.  0.
        3    1    3    3  502    0 -0.10328942558E+04 -0.25708233141E+03 -0.12007605050E+04  0.16046144924E+04  0.10100000352E+00 0. -1.
       -3    1    3    3    0  502  0.10328942558E+04  0.25708233141E+03 -0.25885385640E+03  0.10954301429E+04  0.10100000352E+00 0.  1.
</event>
<event>
 5   0  0.9491680E-05  0.2421676E+04  0.7818609E-02  0.8431433E-01
        2   -1    0    0  501    0  0.00000000000E+00  0.00000000000E+00  0.11552796457E+04  0.11552796457E+04  0.25500000920E-02 0. -1.
       -2   -1    0    0    0  501  0.00000000000E+00  0.00000000000E+00 -0.12690682291E+04  0.12690682291E+04  0.25500000920E-02 0.  1.
    10030    2    1    2    0    0  0.00000000000E+00  0.00000000000E+00 -0.11378858339E+03  0.24243478748E+04  0.24216760263E+04 0.  0.
        5    1    3    3  502    0  0.58353400882E+02 -0.11246299908E+04 -0.50225461478E+03  0.12330772578E+04  0.46999998093E+01 0.  1.
       -5    1    3    3    0  502 -0.58353400882E+02  0.11246299908E+04  0.38846603139E+03  0.11912706171E+04  0.46999998093E+01 0. -1.
</event>
<event>
 5   0  0.4018942E-05  0.2114838E+04  0.7818609E-02  0.8554735E-01
        1   -1    0    0  501    0  0.00000000000E+00  0.00000000000E+00  0.21044009899E+04  0.21044009899E+04  0.50400001928E-02 0.  1.
       -1   -1    0    0    0  501  0.00000000000E+00  0.00000000000E+00 -0.53133145283E+03  0.53133145286E+03  0.50400001928E-02 0. -1.
    10030    2    1    2    0    0  0.00000000000E+00  0.00000000000E+00  0.15730695371E+04  0.26357324428E+04  0.21148375213E+04 0.  0.
        5    1    3    3  502    0 -0.24888431890E+03  0.58446029524E+03  0.18400680410E+04  0.19466406259E+04  0.46999998093E+01 0.  1.
       -5    1    3    3    0  502  0.24888431890E+03 -0.58446029524E+03 -0.26699850396E+03  0.68909181683E+03  0.46999998093E+01 0. -1.
</event>
<event>
 5   0  0.9182865E-05  0.2367193E+04  0.7818609E-02  0.8451889E-01
        2   -1    0    0  501    0  0.00000000000E+00  0.00000000000E+00  0.23263773020E+04  0.23263773020E+04  0.25500000920E-02 0.  1.
       -2   -1    0    0    0  501  0.00000000000E+00  0.00000000000E+00 -0.60218104238E+03  0.60218104239E+03  0.25500000920E-02 0. -1.
    10030    2    1    2    0    0  0.00000000000E+00  0.00000000000E+00  0.17241962597E+04  0.29285583444E+04  0.23671926907E+04 0.  0.
        3    1    3    3  502    0  0.30830524945E+03  0.11415126097E+04  0.79666813688E+03  0.14257570955E+04  0.10100000352E+00 0.  1.
       -3    1    3    3    0  502 -0.30830524945E+03 -0.11415126097E+04  0.92752812278E+03  0.15028012489E+04  0.10100000352E+00 0. -1.
</event>
<event>
 5   0  0.4208577E-05  0.2473514E+04  0.7818609E-02  0.8412482E-01
        1   -1    0    0  501    0  0.00000000000E+00  0.00000000000E+00  0.13932626171E+04  0.13932626171E+04  0.50400001928E-02 0.  1.
       -1   -1    0    0    0  501  0.00000000000E+00  0.00000000000E+00 -0.10978318611E+04  0.10978318612E+04  0.50400001928E-02 0. -1.
    10030    2    1    2    0    0  0.00000000000E+00  0.00000000000E+00  0.29543075599E+03  0.24910944783E+04  0.24735141738E+04 0.  0.
        1    1    3    3  502    0  0.48247198642E+03 -0.27930482117E+03 -0.96411374039E+03  0.11136901298E+04  0.50400001928E-02 0. -1.
       -1    1    3    3    0  502 -0.48247198642E+03  0.27930482117E+03  0.12595444964E+04  0.13774043485E+04  0.50400001928E-02 0.  1.
</event>
<event>
 5   0  0.4018942E-05  0.1683928E+04  0.7818609E-02  0.8770584E-01
       -1   -1    0    0    0  501  0.00000000000E+00  0.00000000000E+00  0.36728622277E+03  0.36728622281E+03  0.50400001928E-02 0. -1.
        1   -1    0    0  501    0  0.00000000000E+00  0.00000000000E+00 -0.19301110518E+04  0.19301110518E+04  0.50400001928E-02 0.  1.
    10030    2    1    2    0    0  0.00000000000E+00  0.00000000000E+00 -0.15628248290E+04  0.22973972746E+04  0.16839277868E+04 0.  0.
        5    1    3    3  502    0 -0.59847140320E+03  0.57437880835E+03 -0.58463922085E+03  0.10148419308E+04  0.46999998093E+01 0. -1.
       -5    1    3    3    0  502  0.59847140320E+03 -0.57437880835E+03 -0.97818560815E+03  0.12825553438E+04  0.46999998093E+01 0.  1.
</event>
<event>
 5   0  0.9182865E-05  0.2290520E+04  0.7818609E-02  0.8481668E-01
        2   -1    0    0  501    0  0.00000000000E+00  0.00000000000E+00  0.10328513244E+04  0.10328513244E+04  0.25500000920E-02 0. -1.
       -2   -1    0    0    0  501  0.00000000000E+00  0.00000000000E+00 -0.12699024284E+04  0.12699024284E+04  0.25500000920E-02 0.  1.
    10030    2    1    2    0    0  0.00000000000E+00  0.00000000000E+00 -0.23705110407E+03  0.23027537528E+04  0.22905199453E+04 0.  0.
        3    1    3    3  502    0  0.79676691351E+03  0.31206673126E+02 -0.94499235566E+03  0.12364553908E+04  0.10100000352E+00 0.  1.
       -3    1    3    3    0  502 -0.79676691351E+03 -0.31206673126E+02  0.70794125159E+03  0.10662983620E+04  0.10100000352E+00 0. -1.
</event>
<event>
 5   0  0.9491680E-05  0.2395819E+04  0.7818609E-02  0.8441071E-01
        2   -1    0    0  501    0  0.00000000000E+00  0.00000000000E+00  0.20163264568E+04  0.20163264568E+04  0.25500000920E-02 0. -1.
       -2   -1    0    0    0  501  0.00000000000E+00  0.00000000000E+00 -0.71168379085E+03  0.71168379085E+03  0.25500000920E-02 0.  1.
    10030    2    1    2    0    0  0.00000000000E+00  0.00000000000E+00  0.13046426660E+04  0.27280102477E+04  0.23958187380E+04 0.  0.
        5    1    3    3  502    0 -0.29745105226E+03  0.52730164928E+03 -0.52465365348E+03  0.80112901828E+03  0.46999998093E+01 0.  1.
       -5    1    3    3    0  502  0.29745105226E+03 -0.52730164928E+03  0.18292963195E+04  0.19268812294E+04  0.46999998093E+01 0. -1.
</event>
<event>
 5   0  0.9491680E-05  0.2420322E+04  0.7818609E-02  0.8431934E-01
        2   -1    0    0  501    0  0.00000000000E+00  0.00000000000E+00  0.17350694805E+04  0.17350694805E+04  0.25500000920E-02 0. -1.
       -2   -1    0    0    0  501  0.00000000000E+00  0.00000000000E+00 -0.84405272273E+03  0.84405272273E+03  0.25500000920E-02 0.  1.
    10030    2    1    2    0    0  0.00000000000E+00  0.00000000000E+00  0.89101675774E+03  0.25791222032E+04  0.24203223910E+04 0.  0.
        5    1    3    3  502    0 -0.11630566159E+04  0.31385166372E+03  0.56823637999E+03  0.13319602968E+04  0.46999998093E+01 0.  1.
       -5    1    3    3    0  502  0.11630566159E+04 -0.31385166372E+03  0.32278037776E+03  0.12471619064E+04  0.46999998093E+01 0. -1.
</event>
<event>
 5   0  0.4260395E-05  0.2512672E+04  0.7818609E-02  0.8398485E-01
       -1   -1    0    0    0  501  0.00000000000E+00  0.00000000000E+00  0.11289634732E+04  0.11289634732E+04  0.50400001928E-02 0. -1.
        1   -1    0    0  501    0  0.00000000000E+00  0.00000000000E+00 -0.13980785543E+04  0.13980785543E+04  0.50400001928E-02 0.  1.
    10030    2    1    2    0    0  0.00000000000E+00  0.00000000000E+00 -0.26911508111E+03  0.25270420275E+04  0.25126715826E+04 0.  0.
        4    1    3    3  502    0 -0.39851881099E+03  0.95356382630E+03  0.58386449706E+03  0.11870133013E+04  0.12699999809E+01 0. -1.
       -4    1    3    3    0  502  0.39851881099E+03 -0.95356382630E+03 -0.85297957818E+03  0.13400287263E+04  0.12699999809E+01 0.  1.
</event>
<event>
 5   0  0.3234750E-05  0.1204266E+04  0.7818609E-02  0.9109131E-01
        3   -1    0    0  501    0  0.00000000000E+00  0.00000000000E+00  0.93221844642E+03  0.93221845189E+03  0.10100000352E+00 0.  1.
       -3   -1    0    0    0  501  0.00000000000E+00  0.00000000000E+00 -0.38892593886E+03  0.38892595198E+03  0.10100000352E+00 0. -1.
    10030    2    1    2    0    0  0.00000000000E+00  0.00000000000E+00  0.54329250756E+03  0.13211444039E+04  0.12042656630E+04 0.  0.
        4    1    3    3  502    0  0.48706408330E+03  0.25831597240E+03  0.53722344130E+03  0.76978516589E+03  0.12699999809E+01 0.  1.
       -4    1    3    3    0  502 -0.48706408330E+03 -0.25831597240E+03  0.60690662567E+01  0.55135923798E+03  0.12699999809E+01 0. -1.
</event>
<event>
 5   0  0.4260395E-05  0.2421228E+04  0.7818609E-02  0.8431599E-01
       -1   -1    0    0    0  501  0.00000000000E+00  0.00000000000E+00  0.58504376902E+03  0.58504376904E+03  0.50400001928E-02 0.  1.
        1   -1    0    0  501    0  0.00000000000E+00  0.00000000000E+00 -0.25050872758E+04  0.25050872758E+04  0.50400001928E-02 0. -1.
    10030    2    1    2    0    0  0.00000000000E+00  0.00000000000E+00 -0.19200435068E+04  0.30901310448E+04  0.24212275412E+04 0.  0.
        4    1    3    3  502    0 -0.67936989054E+03 -0.93995188242E+03 -0.14031106331E+04  0.18203774474E+04  0.12699999809E+01 0. -1.
       -4    1    3    3    0  502  0.67936989054E+03  0.93995188242E+03 -0.51693287370E+03  0.12697535974E+04  0.12699999809E+01 0.  1.
</event>
<event>
 5   0  0.4061631E-05  0.2446260E+04  0.7818609E-02  0.8422385E-01
        1   -1    0    0  501    0  0.00000000000E+00  0.00000000000E+00  0.19317127683E+04  0.19317127683E+04  0.50400001928E-02 0.  1.
       -1   -1    0    0    0  501  0.00000000000E+00  0.00000000000E+00 -0.77446689527E+03  0.77446689529E+03  0.50400001928E-02 0. -1.
    10030    2    1    2    0    0  0.00000000000E+00  0.00000000000E+00  0.11572458730E+04  0.27061796636E+04  0.24462604851E+04 0.  0.
        3    1    3    3  502    0  0.11776422870E+04  0.11262930464E+03  0.92231106069E+03  0.15000614718E+04  0.10100000352E+00 0.  1.
       -3    1    3    3    0  502 -0.11776422870E+04 -0.11262930464E+03  0.23493481233E+03  0.12061181918E+04  0.10100000352E+00 0. -1.
</event>
<event>
 5   0  0.4208577E-05  0.2220725E+04  0.7818609E-02  0.8509851E-01
       -1   -1    0    0    0  501  0.00000000000E+00  0.00000000000E+00  0.10210062483E+04  0.10210062483E+04  0.50400001928E-02 0.  1.
        1   -1    0    0  501    0  0.00000000000E+00  0.00000000000E+00 -0.12075385471E+04  0.12075385472E+04  0.50400001928E-02 0. -1.
    10030    2    1    2    0    0  0.00000000000E+00  0.00000000000E+00 -0.18653229881E+03  0.22285447955E+04  0.22207245680E+04 0.  0.
        1    1    3    3  502    0  0.10338026652E+04  0.18149813475E+03  0.27024539847E+03  0.10838459756E+04  0.50400001928E-02 0. -1.
       -1    1    3    3    0  502 -0.10338026652E+04 -0.18149813475E+03 -0.45677769728E+03  0.11446988199E+04  0.50400001928E-02 0.  1.
</event>
<event>
 5   0  0.9182865E-05  0.2368318E+04  0.7818609E-02  0.8451461E-01
       -2   -1    0    0    0  501  0.00000000000E+00  0.00000000000E+00  0.69578753161E+03  0.69578753162E+03  0.25500000920E-02 0.  1.
        2   -1    0    0  501    0  0.00000000000E+00  0.00000000000E+00 -0.20153164220E+04  0.20153164220E+04  0.25500000920E-02 0. -1.
    10030    2    1    2    0    0  0.00000000000E+00  0.00000000000E+00 -0.13195288904E+04  0.27111039536E+04  0.23683175790E+04 0.  0.
        3    1    3    3  502    0  0.44906845992E+03 -0.89261816040E+03 -0.13871935304E+04  0.17096009952E+04  0.10100000352E+00 0. -1.
       -3    1    3    3    0  502 -0.44906845992E+03  0.89261816040E+03  0.67664639972E+02  0.10015029584E+04  0.10100000352E+00 0.  1.
</event>
<event>
 5   0  0.9491680E-05  0.2355250E+04  0.7818609E-02  0.8456450E-01
        2   -1    0    0  501    0  0.00000000000E+00  0.00000000000E+00  0.18582858406E+04  0.18582858406E+04  0.25500000920E-02 0.  1.
       -2   -1    0    0    0  501  0.00000000000E+00  0.00000000000E+00 -0.74627939922E+03  0.74627939922E+03  0.25500000920E-02 0. -1.
    10030    2    1    2    0    0  0.00000000000E+00  0.00000000000E+00  0.11120064414E+04  0.26045652399E+04  0.23552498303E+04 0.  0.
        5    1    3    3  502    0  0.90995444590E+03  0.30750343991E+02  0.13819339327E+04  0.16549097140E+04  0.46999998093E+01 0.  1.
       -5    1    3    3    0  502 -0.90995444590E+03 -0.30750343991E+02 -0.26992749124E+03  0.94965552586E+03  0.46999998093E+01 0. -1.
</event>
<event>
 5   0  0.9491680E-05  0.2402394E+04  0.7818609E-02  0.8438608E-01
       -2   -1    0    0    0  501  0.00000000000E+00  0.00000000000E+00  0.22028674845E+04  0.22028674845E+04  0.25500000920E-02 0.  1.
        2   -1    0    0  501    0  0.00000000000E+00  0.00000000000E+00 -0.65499800890E+03  0.65499800890E+03  0.25500000920E-02 0. -1.
    10030    2    1    2    0    0  0.00000000000E+00  0.00000000000E+00  0.15478694756E+04  0.28578654934E+04  0.24023936532E+04 0.  0.
        5    1    3    3  502    0 -0.10283782746E+02  0.29101544496E+03  0.21602322667E+04  0.21797755117E+04  0.46999998093E+01 0.  1.
       -5    1    3    3    0  502  0.10283782746E+02 -0.29101544496E+03 -0.61236279108E+03  0.67808998170E+03  0.46999998093E+01 0. -1.
</event>
<event>
 5   0  0.4208577E-05  0.2429915E+04  0.7818609E-02  0.8428388E-01
       -1   -1    0    0    0  501  0.00000000000E+00  0.00000000000E+00  0.15138508827E+04  0.15138508827E+04  0.50400001928E-02 0.  1.
        1   -1    0    0  501    0  0.00000000000E+00  0.00000000000E+00 -0.97507745597E+03  0.97507745598E+03  0.50400001928E-02 0. -1.
    10030    2    1    2    0    0  0.00000000000E+00  0.00000000000E+00  0.53877342670E+03  0.24889283387E+04  0.24299151157E+04 0.  0.
        1    1    3    3  502    0 -0.41445772862E+03 -0.80523913212E+03 -0.56018172706E+03  0.10648891191E+04  0.50400001928E-02 0. -1.
       -1    1    3    3    0  502  0.41445772862E+03  0.80523913212E+03  0.10989551538E+04  0.14240392195E+04  0.50400001928E-02 0.  1.
</event>
<event>
 5   0  0.9144244E-05  0.2390385E+04  0.7818609E-02  0.8443112E-01
        2   -1    0    0  501    0  0.00000000000E+00  0.00000000000E+00  0.11920779768E+04  0.11920779768E+04  0.25500000920E-02 0.  1.
       -2   -1    0    0    0  501  0.00000000000E+00  0.00000000000E+00 -0.11983148468E+04  0.11983148468E+04  0.25500000920E-02 0. -1.
    10030    2    1    2    0    0  0.00000000000E+00  0.00000000000E+00 -0.62368699720E+01  0.23903928236E+04  0.23903846871E+04 0.  0.
        1    1    3    3  502    0  0.10981156009E+04 -0.47119445644E+03 -0.27667437948E+02  0.11952604636E+04  0.50400001928E-02 0.  1.
       -1    1    3    3    0  502 -0.10981156009E+04  0.47119445644E+03  0.21430567976E+02  0.11951323600E+04  0.50400001928E-02 0. -1.
</event>
<event>
 5   0  0.9144244E-05  0.2354162E+04  0.7818609E-02  0.8456867E-01
        2   -1    0    0  501    0  0.00000000000E+00  0.00000000000E+00  0.23641205080E+04  0.23641205080E+04  0.25500000920E-02 0.  1.
       -2   -1    0    0    0  501  0.00000000000E+00  0.00000000000E+00 -0.58606142571E+03  0.58606142571E+03  0.25500000920E-02 0. -1.
    10030    2    1    2    0    0  0.00000000000E+00  0.00000000000E+00  0.17780590823E+04  0.29501819337E+04  0.23541621316E+04 0.  0.
        1    1    3    3  502    0 -0.21805975903E+03 -0.84595838965E+03  0.18776299083E+04  0.20709151909E+04  0.50400001928E-02 0.  1.
       -1    1    3    3    0  502  0.21805975903E+03  0.84595838965E+03 -0.99570825993E+02  0.87926674277E+03  0.50400001928E-02 0. -1.
</event>
<event>
 5   0  0.4061631E-05  0.1658699E+04  0.7818609E-02  0.8785277E-01
        1   -1    0    0  501    0  0.00000000000E+00  0.00000000000E+00  0.94113019409E+03  0.94113019411E+03  0.50400001928E-02 0.  1.
       -1   -1    0    0    0  501  0.00000000000E+00  0.00000000000E+00 -0.73084537029E+03  0.73084537031E+03  0.50400001928E-02 0. -1.
    10030    2    1    2    0    0  0.00000000000E+00  0.00000000000E+00  0.21028482380E+03  0.16719755644E+04  0.16586990628E+04 0.  0.
        3    1    3    3  502    0  0.31773197317E+02 -0.58117871323E+03 -0.49038454000E+03  0.76108819467E+03  0.10100000352E+00 0. -1.
       -3    1    3    3    0  502 -0.31773197317E+02  0.58117871323E+03  0.70066936381E+03  0.91088736975E+03  0.10100000352E+00 0.  1.
</event>
<event>
 5   0  0.9519092E-05  0.2460094E+04  0.7818609E-02  0.8417342E-01
        2   -1    0    0  501    0  0.00000000000E+00  0.00000000000E+00  0.22046563064E+04  0.22046563064E+04  0.25500000920E-02 0. -1.
       -2   -1    0    0    0  501  0.00000000000E+00  0.00000000000E+00 -0.68628190483E+03  0.68628190483E+03  0.25500000920E-02 0.  1.
    10030    2    1    2    0    0  0.00000000000E+00  0.00000000000E+00  0.15183744016E+04  0.28909382113E+04  0.24600940872E+04 0.  0.
        4    1    3    3  502    0  0.11280335951E+04  0.45003789568E+03  0.98832376125E+03  0.15658158797E+04  0.12699999809E+01 0. -1.
       -4    1    3    3    0  502 -0.11280335951E+04 -0.45003789568E+03  0.53005064035E+03  0.13251223315E+04  0.12699999809E+01 0.  1.
</event>
<event>
 5   0  0.3934906E-05  0.2379556E+04  0.7818609E-02  0.8447197E-01
       -1   -1    0    0    0  501  0.00000000000E+00  0.00000000000E+00  0.63972757642E+03  0.63972757644E+03  0.50400001928E-02 0. -1.
        1   -1    0    0  501    0  0.00000000000E+00  0.00000000000E+00 -0.22127733036E+04  0.22127733036E+04  0.50400001928E-02 0.  1.
    10030    2    1    2    0    0  0.00000000000E+00  0.00000000000E+00 -0.15730457272E+04  0.28525008801E+04  0.23795563475E+04 0.  0.
        2    1    3    3  502    0  0.58902263646E+03  0.96412990685E+03 -0.33946993072E+03  0.11797177533E+04  0.25500000920E-02 0. -1.
       -2    1    3    3    0  502 -0.58902263646E+03 -0.96412990685E+03 -0.12335757965E+04  0.16727831268E+04  0.25500000920E-02 0.  1.
</event>
<event>
 5   0  0.9750757E-05  0.1568704E+04  0.7818609E-02  0.8840008E-01
        2   -1    0    0  501    0  0.00000000000E+00  0.00000000000E+00  0.66481013069E+03  0.66481013069E+03  0.25500000920E-02 0.  1.
       -2   -1    0    0    0  501  0.00000000000E+00  0.00000000000E+00 -0.92538929651E+03  0.92538929651E+03  0.25500000920E-02 0. -1.
    10030    2    1    2    0    0  0.00000000000E+00  0.00000000000E+00 -0.26057916582E+03  0.15901994272E+04  0.15687041520E+04 0.  0.
        2    1    3    3  502    0  0.64945612308E+03  0.41361836848E+03 -0.28178562099E+03  0.81992472017E+03  0.25500000920E-02 0.  1.
       -2    1    3    3    0  502 -0.64945612308E+03 -0.41361836848E+03  0.21206455173E+02  0.77027470703E+03  0.25500000920E-02 0. -1.
</event>
<event>
 5   0  0.4208577E-05  0.2431854E+04  0.7818609E-02  0.8427673E-01
       -1   -1    0    0    0  501  0.00000000000E+00  0.00000000000E+00  0.13330043780E+04  0.13330043781E+04  0.50400001928E-02 0.  1.
        1   -1    0    0  501    0  0.00000000000E+00  0.00000000000E+00 -0.11091328320E+04  0.11091328320E+04  0.50400001928E-02 0. -1.
    10030    2    1    2    0    0  0.00000000000E+00  0.00000000000E+00  0.22387154603E+03  0.24421372101E+04  0.24318543714E+04 0.  0.
        1    1    3    3  502    0 -0.58189447943E+03  0.95527392839E+03  0.59074262241E+03  0.12649609913E+04  0.50400001928E-02 0.  1.
       -1    1    3    3    0  502  0.58189447943E+03 -0.95527392839E+03 -0.36687107637E+03  0.11771762188E+04  0.50400001928E-02 0. -1.
</event>
<event>
 5   0  0.9750757E-05  0.2377760E+04  0.7818609E-02  0.8447877E-01
        2   -1    0    0  501    0  0.00000000000E+00  0.00000000000E+00  0.13720163908E+04  0.13720163908E+04  0.25500000920E-02 0. -1.
       -2   -1    0    0    0  501  0.00000000000E+00  0.00000000000E+00 -0.10301882464E+04  0.10301882464E+04  0.25500000920E-02 0.  1.
    10030    2    1    2    0    0  0.00000000000E+00  0.00000000000E+00  0.34182814445E+03  0.24022046373E+04  0.23777595839E+04 0.  0.
        2    1    3    3  502    0 -0.77029130498E+03 -0.64552986276E+03  0.81256375236E+03  0.12924075789E+04  0.25500000920E-02 0. -1.
       -2    1    3    3    0  502  0.77029130498E+03  0.64552986276E+03 -0.47073560791E+03  0.11097970584E+04  0.25500000920E-02 0.  1.
</event>
<event>
 5   0  0.9491680E-05  0.2303645E+04  0.7818609E-02  0.8476485E-01
       -2   -1    0    0    0  501  0.00000000000E+00  0.00000000000E+00  0.10483631428E+04  0.10483631428E+04  0.25500000920E-02 0. -1.
        2   -1    0    0  501    0  0.00000000000E+00  0.00000000000E+00 -0.12654920285E+04  0.12654920285E+04  0.25500000920E-02 0.  1.
    10030    2    1    2    0    0  0.00000000000E+00  0.00000000000E+00 -0.21712888572E+03  0.23138551713E+04  0.23036451117E+04 0.  0.
        5    1    3    3  502    0 -0.85597150288E+03  0.24375211012E+03  0.62581957330E+03  0.10880140317E+04  0.46999998093E+01 0. -1.
       -5    1    3    3    0  502  0.85597150288E+03 -0.24375211012E+03 -0.84294845902E+03  0.12258411396E+04  0.46999998093E+01 0.  1.
</event>
<event>
 5   0  0.9491680E-05  0.2340656E+04  0.7818609E-02  0.8462061E-01
        2   -1    0    0  501    0  0.00000000000E+00  0.00000000000E+00  0.14881353491E+04  0.14881353491E+04  0.25500000920E-02 0. -1.
       -2   -1    0    0    0  501  0.00000000000E+00  0.00000000000E+00 -0.92039217835E+03  0.92039217836E+03  0.25500000920E-02 0.  1.
    10030    2    1    2    0    0  0.00000000000E+00  0.00000000000E+00  0.56774317074E+03  0.24085275275E+04  0.23406564341E+04 0.  0.
        5    1    3    3  502    0  0.80428702900E+03  0.26735805671E+03  0.11142967681E+04  0.14000133331E+04  0.46999998093E+01 0. -1.
       -5    1    3    3    0  502 -0.80428702900E+03 -0.26735805671E+03 -0.54655359732E+03  0.10085141944E+04  0.46999998093E+01 0.  1.
</event>
<event>
 5   0  0.3234750E-05  0.2573005E+04  0.7818609E-02  0.8377429E-01
       -4   -1    0    0    0  501  0.00000000000E+00  0.00000000000E+00  0.10630645642E+04  0.10630653228E+04  0.12699999809E+01 0. -1.
        4   -1    0    0  501    0  0.00000000000E+00  0.00000000000E+00 -0.15569017093E+04  0.15569022273E+04  0.12699999809E+01 0.  1.
    10030    2    1    2    0    0  0.00000000000E+00  0.00000000000E+00 -0.49383714511E+03  0.26199675501E+04  0.25730050209E+04 0.  0.
        1    1    3    3  502    0  0.43609498517E+02  0.10513901792E+04 -0.10005389983E+04  0.14520335342E+04  0.50400001928E-02 0.  1.
       -1    1    3    3    0  502 -0.43609498517E+02 -0.10513901792E+04  0.50670185317E+03  0.11679340159E+04  0.50400001928E-02 0. -1.
</event>
<event>
 5   0  0.4061631E-05  0.2435351E+04  0.7818609E-02  0.8426386E-01
        1   -1    0    0  501    0  0.00000000000E+00  0.00000000000E+00  0.89637490367E+03  0.89637490368E+03  0.50400001928E-02 0. -1.
       -1   -1    0    0    0  501  0.00000000000E+00  0.00000000000E+00 -0.16541446270E+04  0.16541446270E+04  0.50400001928E-02 0.  1.
    10030    2    1    2    0    0  0.00000000000E+00  0.00000000000E+00 -0.75776972333E+03  0.25505195307E+04  0.24353510882E+04 0.  0.
        3    1    3    3  502    0  0.10267814888E+04  0.63141980573E+03 -0.55956147915E+03  0.13289395231E+04  0.10100000352E+00 0.  1.
       -3    1    3    3    0  502 -0.10267814888E+04 -0.63141980573E+03 -0.19820824418E+03  0.12215800076E+04  0.10100000352E+00 0. -1.
</event>
<event>
 5   0  0.4061631E-05  0.2454952E+04  0.7818609E-02  0.8419212E-01
       -1   -1    0    0    0  501  0.00000000000E+00  0.00000000000E+00  0.65879124962E+03  0.65879124964E+03  0.50400001928E-02 0.  1.
        1   -1    0    0  501    0  0.00000000000E+00  0.00000000000E+00 -0.22870637708E+04  0.22870637708E+04  0.50400001928E-02 0. -1.
    10030    2    1    2    0    0  0.00000000000E+00  0.00000000000E+00 -0.16282725212E+04  0.29458550205E+04  0.24549522192E+04 0.  0.
        3    1    3    3  502    0  0.29742430591E+03 -0.92098279981E+03  0.91838418011E+02  0.97216502741E+03  0.10100000352E+00 0. -1.
       -3    1    3    3    0  502 -0.29742430591E+03  0.92098279981E+03 -0.17201109392E+04  0.19736899931E+04  0.10100000352E+00 0.  1.
</event>
<event>
 5   0  0.4018942E-05  0.1823434E+04  0.7818609E-02  0.8693936E-01
        1   -1    0    0  501    0  0.00000000000E+00  0.00000000000E+00  0.18358771329E+04  0.18358771329E+04  0.50400001928E-02 0. -1.
       -1   -1    0    0    0  501  0.00000000000E+00  0.00000000000E+00 -0.45276895678E+03  0.45276895681E+03  0.50400001928E-02 0.  1.
    10030    2    1    2    0    0  0.00000000000E+00  0.00000000000E+00  0.13831081762E+04  0.22886460898E+04  0.18234343139E+04 0.  0.
        5    1    3    3  502    0  0.49350194845E+03 -0.59806146168E+03  0.12934726067E+04  0.15080832733E+04  0.46999998093E+01 0. -1.
       -5    1    3    3    0  502 -0.49350194845E+03  0.59806146168E+03  0.89635569474E+02  0.78056281642E+03  0.46999998093E+01 0.  1.
</event>
<event>
 5   0  0.9144244E-05  0.2361022E+04  0.7818609E-02  0.8454242E-01
        2   -1    0    0  501    0  0.00000000000E+00  0.00000000000E+00  0.20397829582E+04  0.20397829582E+04  0.25500000920E-02 0.  1.
       -2   -1    0    0    0  501  0.00000000000E+00  0.00000000000E+00 -0.68321294035E+03  0.68321294035E+03  0.25500000920E-02 0. -1.
    10030    2    1    2    0    0  0.00000000000E+00  0.00000000000E+00  0.13565700179E+04  0.27229958986E+04  0.23610219081E+04 0.  0.
        1    1    3    3  502    0 -0.50825049084E+03  0.53419039864E+03  0.17415415959E+04  0.18912020182E+04  0.50400001928E-02 0.  1.
       -1    1    3    3    0  502  0.50825049084E+03 -0.53419039864E+03 -0.38497157805E+03  0.83179388034E+03  0.50400001928E-02 0. -1.
</event>
<event>
 5   0  0.4018942E-05  0.2459925E+04  0.7818609E-02  0.8417403E-01
        1   -1    0    0  501    0  0.00000000000E+00  0.00000000000E+00  0.12023907355E+04  0.12023907356E+04  0.50400001928E-02 0. -1.
       -1   -1    0    0    0  501  0.00000000000E+00  0.00000000000E+00 -0.12581668640E+04  0.12581668640E+04  0.50400001928E-02 0.  1.
    10030    2    1    2    0    0  0.00000000000E+00  0.00000000000E+00 -0.55776128466E+02  0.24605575996E+04  0.24599253493E+04 0.  0.
        5    1    3    3  502    0 -0.45446876715E+03  0.11147818904E+04  0.22417981587E+03  0.12245649037E+04  0.46999998093E+01 0.  1.
       -5    1    3    3    0  502  0.45446876715E+03 -0.11147818904E+04 -0.27995594433E+03  0.12359926959E+04  0.46999998093E+01 0. -1.
</event>
<event>
 5   0  0.9144244E-05  0.1643972E+04  0.7818609E-02  0.8793981E-01
        2   -1    0    0  501    0  0.00000000000E+00  0.00000000000E+00  0.20267599643E+04  0.20267599643E+04  0.25500000920E-02 0. -1.
       -2   -1    0    0    0  501  0.00000000000E+00  0.00000000000E+00 -0.33336999323E+03  0.33336999324E+03  0.25500000920E-02 0.  1.
    10030    2    1    2    0    0  0.00000000000E+00  0.00000000000E+00  0.16933899711E+04  0.23601299575E+04  0.16439719652E+04 0.  0.
        1    1    3    3  502    0 -0.11464633453E+03  0.14122960539E+03  0.19975011955E+04  0.20057668382E+04  0.50400001928E-02 0. -1.
       -1    1    3    3    0  502  0.11464633453E+03 -0.14122960539E+03 -0.30411122442E+03  0.35436311927E+03  0.50400001928E-02 0.  1.
</event>
<event>
 5   0  0.9182865E-05  0.2392168E+04  0.7818609E-02  0.8442442E-01
        2   -1    0    0  501    0  0.00000000000E+00  0.00000000000E+00  0.12027934964E+04  0.12027934964E+04  0.25500000920E-02 0. -1.
       -2   -1    0    0    0  501  0.00000000000E+00  0.00000000000E+00 -0.11894116184E+04  0.11894116184E+04  0.25500000920E-02 0.  1.
    10030    2    1    2    0    0  0.00000000000E+00  0.00000000000E+00  0.13381878017E+02  0.23922051148E+04  0.23921676857E+04 0.  0.
        3    1    3    3  502    0 -0.57471900711E+03  0.34116126276E+03  0.99863569291E+03  0.12016514477E+04  0.10100000352E+00 0. -1.
       -3    1    3    3    0  502  0.57471900711E+03 -0.34116126276E+03 -0.98525381489E+03  0.11905536671E+04  0.10100000352E+00 0.  1.
</event>
<event>
 5   0  0.9750757E-05  0.1893558E+04  0.7818609E-02  0.8658070E-01
       -2   -1    0    0    0  501  0.00000000000E+00  0.00000000000E+00  0.92205486819E+03  0.92205486819E+03  0.25500000920E-02 0.  1.
        2   -1    0    0  501    0  0.00000000000E+00  0.00000000000E+00 -0.97216590301E+03  0.97216590301E+03  0.25500000920E-02 0. -1.
    10030    2    1    2    0    0  0.00000000000E+00  0.00000000000E+00 -0.50111034822E+02  0.18942207712E+04  0.18935578191E+04 0.  0.
        2    1    3    3  502    0  0.49821732885E+03  0.80484940110E+03 -0.44740779292E+02  0.94763115322E+03  0.25500000920E-02 0. -1.
       -2    1    3    3    0  502 -0.49821732885E+03 -0.80484940110E+03 -0.53702555307E+01  0.94658961798E+03  0.25500000920E-02 0.  1.
</event>
<event>
 5   0  0.3934906E-05  0.2369862E+04  0.7818609E-02  0.8450874E-01
        1   -1    0    0  501    0  0.00000000000E+00  0.00000000000E+00  0.13898176316E+04  0.13898176316E+04  0.50400001928E-02 0.  1.
       -1   -1    0    0    0  501  0.00000000000E+00  0.00000000000E+00 -0.10102488604E+04  0.10102488604E+04  0.50400001928E-02 0. -1.
    10030    2    1    2    0    0  0.00000000000E+00  0.00000000000E+00  0.37956877122E+03  0.24000664920E+04  0.23698621719E+04 0.  0.
        2    1    3    3  502    0 -0.53138496044E+03  0.28300261146E+03 -0.84381186623E+03  0.10365707501E+04  0.25500000920E-02 0. -1.
       -2    1    3    3    0  502  0.53138496044E+03 -0.28300261146E+03  0.12233806374E+04  0.13634957420E+04  0.25500000920E-02 0.  1.
</event>
<event>
 5   0  0.9491680E-05  0.2348157E+04  0.7818609E-02  0.8459172E-01
        2   -1    0    0  501    0  0.00000000000E+00  0.00000000000E+00  0.16826486088E+04  0.16826486088E+04  0.25500000920E-02 0.  1.
       -2   -1    0    0    0  501  0.00000000000E+00  0.00000000000E+00 -0.81922065594E+03  0.81922065594E+03  0.25500000920E-02 0. -1.
    10030    2    1    2    0    0  0.00000000000E+00  0.00000000000E+00  0.86342795282E+03  0.25018692647E+04  0.23481571472E+04 0.  0.
        5    1    3    3  502    0 -0.92829185404E+03  0.64841784768E+03  0.76229355924E+03  0.13650219895E+04  0.46999998093E+01 0. -1.
       -5    1    3    3    0  502  0.92829185404E+03 -0.64841784768E+03  0.10113439358E+03  0.11368472752E+04  0.46999998093E+01 0.  1.
</event>
<event>
 5   0  0.9491680E-05  0.2395666E+04  0.7818609E-02  0.8441128E-01
        2   -1    0    0  501    0  0.00000000000E+00  0.00000000000E+00  0.16473006436E+04  0.16473006436E+04  0.25500000920E-02 0. -1.
       -2   -1    0    0    0  501  0.00000000000E+00  0.00000000000E+00 -0.87100303572E+03  0.87100303572E+03  0.25500000920E-02 0.  1.
    10030    2    1    2    0    0  0.00000000000E+00  0.00000000000E+00  0.77629760787E+03  0.25183036793E+04  0.23956659711E+04 0.  0.
        5    1    3    3  502    0 -0.53024418783E+03  0.49528554167E+03  0.13899928098E+04  0.15679823876E+04  0.46999998093E+01 0. -1.
       -5    1    3    3    0  502  0.53024418783E+03 -0.49528554167E+03 -0.61369520197E+03  0.95032129169E+03  0.46999998093E+01 0.  1.
</event>
<event>
 5   0  0.9144244E-05  0.1859754E+04  0.7818609E-02  0.8675153E-01
       -2   -1    0    0    0  501  0.00000000000E+00  0.00000000000E+00  0.97680096593E+03  0.97680096593E+03  0.25500000920E-02 0. -1.
        2   -1    0    0  501    0  0.00000000000E+00  0.00000000000E+00 -0.88520734813E+03  0.88520734814E+03  0.25500000920E-02 0.  1.
    10030    2    1    2    0    0  0.00000000000E+00  0.00000000000E+00  0.91593617795E+02  0.18620083141E+04  0.18597541695E+04 0.  0.
        1    1    3    3  502    0 -0.88357841158E+03  0.28497006975E+03 -0.67324156115E+01  0.92842020417E+03  0.50400001928E-02 0. -1.
       -1    1    3    3    0  502  0.88357841158E+03 -0.28497006975E+03  0.98326033407E+02  0.93358810990E+03  0.50400001928E-02 0.  1.
</event>
<event>
 5   0  0.9519092E-05  0.2421269E+04  0.7818609E-02  0.8431583E-01
       -2   -1    0    0    0  501  0.00000000000E+00  0.00000000000E+00  0.91511500835E+03  0.91511500835E+03  0.25500000920E-02 0.  1.
        2   -1    0    0  501    0  0.00000000000E+00  0.00000000000E+00 -0.16015865621E+04  0.16015865621E+04  0.25500000920E-02 0. -1.
    10030    2    1    2    0    0  0.00000000000E+00  0.00000000000E+00 -0.68647155375E+03  0.25167015705E+04  0.24212690062E+04 0.  0.
        4    1    3    3  502    0 -0.80326429173E+03 -0.56972152840E+03  0.38866108555E+03  0.10587139343E+04  0.12699999809E+01 0.  1.
       -4    1    3    3    0  502  0.80326429173E+03  0.56972152840E+03 -0.10751326393E+04  0.14579876362E+04  0.12699999809E+01 0. -1.
</event>
<event>
 5   0  0.3934906E-05  0.2402251E+04  0.7818609E-02  0.8438661E-01
       -1   -1    0    0    0  501  0.00000000000E+00  0.00000000000E+00  0.76378689003E+03  0.76378689004E+03  0.50400001928E-02 0. -1.
        1   -1    0    0  501    0  0.00000000000E+00  0.00000000000E+00 -0.18888801377E+04  0.18888801377E+04  0.50400001928E-02 0.  1.
    10030    2    1    2    0    0  0.00000000000E+00  0.00000000000E+00 -0.11250932477E+04  0.26526670278E+04  0.24022505165E+04 0.  0.
        2    1    3    3  502    0  0.62171435008E+03  0.93536044406E+03 -0.92401220893E+02  0.11269276281E+04  0.25500000920E-02 0. -1.
       -2    1    3    3    0  502 -0.62171435008E+03 -0.93536044406E+03 -0.10326920268E+04  0.15257393996E+04  0.25500000920E-02 0.  1.
</event>
<event>
 5   0  0.3934906E-05  0.2198278E+04  0.7818609E-02  0.8519145E-01
        1   -1    0    0  501    0  0.00000000000E+00  0.00000000000E+00  0.12757979519E+04  0.12757979519E+04  0.50400001928E-02 0.  1.
       -1   -1    0    0    0  501  0.00000000000E+00  0.00000000000E+00 -0.94694203915E+03  0.94694203916E+03  0.50400001928E-02 0. -1.
    10030    2    1    2    0    0  0.00000000000E+00  0.00000000000E+00  0.32885591275E+03  0.22227399911E+04  0.21982781572E+04 0.  0.
        2    1    3    3  502    0  0.14050654063E+03 -0.68416348589E+03 -0.69371212893E+03  0.98440757881E+03  0.25500000920E-02 0. -1.
       -2    1    3    3    0  502 -0.14050654063E+03  0.68416348589E+03  0.10225680417E+04  0.12383324123E+04  0.25500000920E-02 0.  1.
</event>
<event>
 5   0  0.9491680E-05  0.2408692E+04  0.7818609E-02  0.8436257E-01
        2   -1    0    0  501    0  0.00000000000E+00  0.00000000000E+00  0.20397119604E+04  0.20397119604E+04  0.25500000920E-02 0.  1.
       -2   -1    0    0    0  501  0.00000000000E+00  0.00000000000E+00 -0.71110501367E+03  0.71110501367E+03  0.25500000920E-02 0. -1.
    10030    2    1    2    0    0  0.00000000000E+00  0.00000000000E+00  0.13286069468E+04  0.27508169741E+04  0.24086920945E+04 0.  0.
        5    1    3    3  502    0  0.17459860600E+03 -0.10022930738E+04 -0.71714059660E+02  0.10199220928E+04  0.46999998093E+01 0. -1.
       -5    1    3    3    0  502 -0.17459860600E+03  0.10022930738E+04  0.14003210064E+04  0.17308948813E+04  0.46999998093E+01 0.  1.
</event>
<event>
 5   0  0.9182865E-05  0.2372213E+04  0.7818609E-02  0.8449981E-01
       -2   -1    0    0    0  501  0.00000000000E+00  0.00000000000E+00  0.99704885682E+03  0.99704885682E+03  0.25500000920E-02 0. -1.
        2   -1    0    0  501    0  0.00000000000E+00  0.00000000000E+00 -0.14110123950E+04  0.14110123950E+04  0.25500000920E-02 0.  1.
    10030    2    1    2    0    0  0.00000000000E+00  0.00000000000E+00 -0.41396353819E+03  0.24080612518E+04  0.23722127185E+04 0.  0.
        3    1    3    3  502    0 -0.16749662136E+03 -0.97426526718E+03  0.45836218659E+03  0.10896530793E+04  0.10100000352E+00 0. -1.
       -3    1    3    3    0  502  0.16749662136E+03  0.97426526718E+03 -0.87232572478E+03  0.13184081725E+04  0.10100000352E+00 0.  1.
</event>
<event>
 5   0  0.3934906E-05  0.2284132E+04  0.7818609E-02  0.8484204E-01
       -1   -1    0    0    0  501  0.00000000000E+00  0.00000000000E+00  0.11885967453E+04  0.11885967453E+04  0.50400001928E-02 0. -1.
        1   -1    0    0  501    0  0.00000000000E+00  0.00000000000E+00 -0.10973570523E+04  0.10973570523E+04  0.50400001928E-02 0.  1.
    10030    2    1    2    0    0  0.00000000000E+00  0.00000000000E+00  0.91239693051E+02  0.22859537976E+04  0.22841322385E+04 0.  0.
        2    1    3    3  502    0 -0.70217744458E+03  0.27886815092E+03  0.90274572887E+03  0.11771875213E+04  0.25500000920E-02 0. -1.
       -2    1    3    3    0  502  0.70217744458E+03 -0.27886815092E+03 -0.81150603582E+03  0.11087662763E+04  0.25500000920E-02 0.  1.
</event>
<event>
 5   0  0.9519092E-05  0.2479879E+04  0.7818609E-02  0.8410189E-01
        2   -1    0    0  501    0  0.00000000000E+00  0.00000000000E+00  0.15368102708E+04  0.15368102708E+04  0.25500000920E-02 0.  1.
       -2   -1    0    0    0  501  0.00000000000E+00  0.00000000000E+00 -0.10004160340E+04  0.10004160340E+04  0.25500000920E-02 0. -1.
    10030    2    1    2    0    0  0.00000000000E+00  0.00000000000E+00  0.53639423678E+03  0.25372263049E+04  0.24798787359E+04 0.  0.
        4    1    3    3  502    0 -0.38975289620E+03 -0.99334259302E+03  0.91431599850E+03  0.14052089472E+04  0.12699999809E+01 0.  1.
       -4    1    3    3    0  502  0.38975289620E+03  0.99334259302E+03 -0.37792176172E+03  0.11320173577E+04  0.12699999809E+01 0. -1.
</event>
<event>
 5   0  0.4260395E-05  0.2213920E+04  0.7818609E-02  0.8512657E-01
       -1   -1    0    0    0  501  0.00000000000E+00  0.00000000000E+00  0.85094973050E+03  0.85094973051E+03  0.50400001928E-02 0.  1.
        1   -1    0    0  501    0  0.00000000000E+00  0.00000000000E+00 -0.14399911285E+04  0.14399911286E+04  0.50400001928E-02 0. -1.
    10030    2    1    2    0    0  0.00000000000E+00  0.00000000000E+00 -0.58904139805E+03  0.22909408591E+04  0.22139196578E+04 0.  0.
        4    1    3    3  502    0 -0.92397788262E+03 -0.60202832741E+03 -0.19534695894E+03  0.11199711076E+04  0.12699999809E+01 0.  1.
       -4    1    3    3    0  502  0.92397788262E+03  0.60202832741E+03 -0.39369443911E+03  0.11709697515E+04  0.12699999809E+01 0. -1.
</event>
<event>
 5   0  0.4061631E-05  0.2395387E+04  0.7818609E-02  0.8441233E-01
        1   -1    0    0  501    0  0.00000000000E+00  0.00000000000E+00  0.15010938863E+04  0.15010938863E+04  0.50400001928E-02 0.  1.
       -1   -1    0    0    0  501  0.00000000000E+00  0.00000000000E+00 -0.95561646332E+03  0.95561646333E+03  0.50400001928E-02 0. -1.
    10030    2    1    2    0    0  0.00000000000E+00  0.00000000000E+00  0.54547742294E+03  0.24567103496E+04  0.23953872595E+04 0.  0.
        3    1    3    3  502    0  0.92158768238E+03  0.18170234958E+03  0.10348160686E+04  0.13975635607E+04  0.10100000352E+00 0.  1.
       -3    1    3    3    0  502 -0.92158768238E+03 -0.18170234958E+03 -0.48933864564E+03  0.10591467889E+04  0.10100000352E+00 0. -1.
</event>
<event>
 5   0  0.9182865E-05  0.2330874E+04  0.7818609E-02  0.8465846E-01
        2   -1    0    0  501    0  0.00000000000E+00  0.00000000000E+00  0.10942614785E+04  0.10942614785E+04  0.25500000920E-02 0.  1.
       -2   -1    0    0    0  501  0.00000000000E+00  0.00000000000E+00 -0.12412420636E+04  0.12412420636E+04  0.25500000920E-02 0. -1.
    10030    2    1    2    0    0  0.00000000000E+00  0.00000000000E+00 -0.14698058507E+03  0.23355035421E+04  0.23308739783E+04 0.  0.
        3    1    3    3  502    0 -0.79743655814E+03 -0.65292240503E+02  0.77558598682E+03  0.11143167297E+04  0.10100000352E+00 0.  1.
       -3    1    3    3    0  502  0.79743655814E+03  0.65292240503E+02 -0.92256657189E+03  0.12211868124E+04  0.10100000352E+00 0. -1.
</event>
<event>
 5   0  0.3934906E-05  0.2433333E+04  0.7818609E-02  0.8427129E-01
        1   -1    0    0  501    0  0.00000000000E+00  0.00000000000E+00  0.15434575254E+04  0.15434575254E+04  0.50400001928E-02 0. -1.
       -1   -1    0    0    0  501  0.00000000000E+00  0.00000000000E+00 -0.95906594813E+03  0.95906594814E+03  0.50400001928E-02 0.  1.
    10030    2    1    2    0    0  0.00000000000E+00  0.00000000000E+00  0.58439157729E+03  0.25025234736E+04  0.24333331503E+04 0.  0.
        2    1    3    3  502    0 -0.10144247544E+04 -0.65195185991E+03  0.45859489875E+03  0.12901194096E+04  0.25500000920E-02 0. -1.
       -2    1    3    3    0  502  0.10144247544E+04  0.65195185991E+03  0.12579667854E+03  0.12124040639E+04  0.25500000920E-02 0.  1.
</event>
<event>
 5   0  0.9144244E-05  0.2397054E+04  0.7818609E-02  0.8440607E-01
        2   -1    0    0  501    0  0.00000000000E+00  0.00000000000E+00  0.15935016140E+04  0.15935016140E+04  0.25500000920E-02 0. -1.
       -2   -1    0    0    0  501  0.00000000000E+00  0.00000000000E+00 -0.90145344740E+03  0.90145344740E+03  0.25500000920E-02 0.  1.
    10030    2    1    2    0    0  0.00000000000E+00  0.00000000000E+00  0.69204816663E+03  0.24949550614E+04  0.23970544620E+04 0.  0.
        1    1    3    3  502    0  0.20556390459E+03 -0.39707776961E+03 -0.81139051230E+03  0.92643501524E+03  0.50400001928E-02 0.  1.
       -1    1    3    3    0  502 -0.20556390459E+03  0.39707776961E+03  0.15034386789E+04  0.15685200462E+04  0.50400001928E-02 0. -1.
</event>
<event>
 5   0  0.9182865E-05  0.2374322E+04  0.7818609E-02  0.8449180E-01
       -2   -1    0    0    0  501  0.00000000000E+00  0.00000000000E+00  0.10411297024E+04  0.10411297024E+04  0.25500000920E-02 0. -1.
        2   -1    0    0  501    0  0.00000000000E+00  0.00000000000E+00 -0.13536754973E+04  0.13536754973E+04  0.25500000920E-02 0.  1.
    10030    2    1    2    0    0  0.00000000000E+00  0.00000000000E+00 -0.31254579488E+03  0.23948051998E+04  0.23743224446E+04 0.  0.
        3    1    3    3  502    0 -0.28816848743E+03  0.81597400918E+03 -0.97599368944E+03  0.13043842811E+04  0.10100000352E+00 0.  1.
       -3    1    3    3    0  502  0.28816848743E+03 -0.81597400918E+03  0.66344789456E+03  0.10904209186E+04  0.10100000352E+00 0. -1.
</event>
<event>
 5   0  0.4208577E-05  0.2636082E+04  0.7818609E-02  0.8356047E-01
       -1   -1    0    0    0  501  0.00000000000E+00  0.00000000000E+00  0.67558078136E+03  0.67558078138E+03  0.50400001928E-02 0.  1.
        1   -1    0    0  501    0  0.00000000000E+00  0.00000000000E+00 -0.25714649989E+04  0.25714649989E+04  0.50400001928E-02 0. -1.
    10030    2    1    2    0    0  0.00000000000E+00  0.00000000000E+00 -0.18958842176E+04  0.32470457803E+04  0.26360821939E+04 0.  0.
        1    1    3    3  502    0 -0.31345251385E+03  0.12797573995E+04 -0.99062702519E+03  0.16484457477E+04  0.50400001928E-02 0.  1.
       -1    1    3    3    0  502  0.31345251385E+03 -0.12797573995E+04 -0.90525719237E+03  0.15986000326E+04  0.50400001928E-02 0. -1.
</event>
<event>
 5   0  0.4208577E-05  0.2354777E+04  0.7818609E-02  0.8456631E-01
        1   -1    0    0  501    0  0.00000000000E+00  0.00000000000E+00  0.15195544097E+04  0.15195544097E+04  0.50400001928E-02 0.  1.
       -1   -1    0    0    0  501  0.00000000000E+00  0.00000000000E+00 -0.91226956590E+03  0.91226956591E+03  0.50400001928E-02 0. -1.
    10030    2    1    2    0    0  0.00000000000E+00  0.00000000000E+00  0.60728484378E+03  0.24318239756E+04  0.23547766278E+04 0.  0.
        1    1    3    3  502    0  0.16162753377E+03  0.90707515312E+03  0.10606579037E+04  0.14049569323E+04  0.50400001928E-02 0.  1.
       -1    1    3    3    0  502 -0.16162753377E+03 -0.90707515312E+03 -0.45337305989E+03  0.10268670433E+04  0.50400001928E-02 0. -1.
</event>
<event>
 5   0  0.9144244E-05  0.2655678E+04  0.7818609E-02  0.8349531E-01
        2   -1    0    0  501    0  0.00000000000E+00  0.00000000000E+00  0.18923002698E+04  0.18923002698E+04  0.25500000920E-02 0.  1.
       -2   -1    0    0    0  501  0.00000000000E+00  0.00000000000E+00 -0.93175285476E+03  0.93175285477E+03  0.25500000920E-02 0. -1.
    10030    2    1    2    0    0  0.00000000000E+00  0.00000000000E+00  0.96054741505E+03  0.28240531246E+04  0.26556778257E+04 0.  0.
        1    1    3    3  502    0 -0.11567202491E+04  0.54074494111E+03  0.86772193683E+03  0.15438096339E+04  0.50400001928E-02 0.  1.
       -1    1    3    3    0  502  0.11567202491E+04 -0.54074494111E+03  0.92825478224E+02  0.12802434907E+04  0.50400001928E-02 0. -1.
</event>
<event>
 5   0  0.3934906E-05  0.2335342E+04  0.7818609E-02  0.8464115E-01
       -1   -1    0    0    0  501  0.00000000000E+00  0.00000000000E+00  0.11873599218E+04  0.11873599218E+04  0.50400001928E-02 0. -1.
        1   -1    0    0  501    0  0.00000000000E+00  0.00000000000E+00 -0.11483088969E+04  0.11483088969E+04  0.50400001928E-02 0.  1.
    10030    2    1    2    0    0  0.00000000000E+00  0.00000000000E+00  0.39051024829E+02  0.23356688187E+04  0.23353423407E+04 0.  0.
        2    1    3    3  502    0 -0.95395795864E+03 -0.18825086347E+03 -0.62707997970E+03  0.11570235414E+04  0.25500000920E-02 0.  1.
       -2    1    3    3    0  502  0.95395795864E+03  0.18825086347E+03  0.66613100453E+03  0.11786452773E+04  0.25500000920E-02 0. -1.
</event>
<event>
 5   0  0.4208577E-05  0.2472724E+04  0.7818609E-02  0.8412767E-01
        1   -1    0    0  501    0  0.00000000000E+00  0.00000000000E+00  0.12910701541E+04  0.12910701541E+04  0.50400001928E-02 0. -1.
       -1   -1    0    0    0  501  0.00000000000E+00  0.00000000000E+00 -0.11839725300E+04  0.11839725300E+04  0.50400001928E-02 0.  1.
    10030    2    1    2    0    0  0.00000000000E+00  0.00000000000E+00  0.10709762409E+03  0.24750426841E+04  0.24727244867E+04 0.  0.
        1    1    3    3  502    0 -0.75889600064E+02  0.98281421517E+03 -0.69341389459E+03  0.12051995031E+04  0.50400001928E-02 0.  1.
       -1    1    3    3    0  502  0.75889600064E+02 -0.98281421517E+03  0.80051151868E+03  0.12698431811E+04  0.50400001928E-02 0. -1.
</event>
<event>
 5   0  0.9182865E-05  0.2365410E+04  0.7818609E-02  0.8452568E-01
       -2   -1    0    0    0  501  0.00000000000E+00  0.00000000000E+00  0.12409073840E+04  0.12409073840E+04  0.25500000920E-02 0.  1.
        2   -1    0    0  501    0  0.00000000000E+00  0.00000000000E+00 -0.11272320638E+04  0.11272320638E+04  0.25500000920E-02 0. -1.
    10030    2    1    2    0    0  0.00000000000E+00  0.00000000000E+00  0.11367532028E+03  0.23681394478E+04  0.23654095556E+04 0.  0.
        3    1    3    3  502    0 -0.25000460855E+03  0.95148886287E+03 -0.60039328892E+03  0.11525213543E+04  0.10100000352E+00 0.  1.
       -3    1    3    3    0  502  0.25000460855E+03 -0.95148886287E+03  0.71406860920E+03  0.12156180935E+04  0.10100000352E+00 0. -1.
</event>
<event>
 5   0  0.4260395E-05  0.1752712E+04  0.7818609E-02  0.8731859E-01
       -1   -1    0    0    0  501  0.00000000000E+00  0.00000000000E+00  0.42969151436E+03  0.42969151439E+03  0.50400001928E-02 0. -1.
        1   -1    0    0  501    0  0.00000000000E+00  0.00000000000E+00 -0.17873277610E+04  0.17873277610E+04  0.50400001928E-02 0.  1.
    10030    2    1    2    0    0  0.00000000000E+00  0.00000000000E+00 -0.13576362466E+04  0.22170192754E+04  0.17527116960E+04 0.  0.
        4    1    3    3  502    0  0.89910240813E+02  0.34607857074E+03  0.33322200401E+03  0.48876655510E+03  0.12699999809E+01 0. -1.
       -4    1    3    3    0  502 -0.89910240813E+02 -0.34607857074E+03 -0.16908582506E+04  0.17282527203E+04  0.12699999809E+01 0.  1.
</event>
<event>
 5   0  0.4208577E-05  0.2342166E+04  0.7818609E-02  0.8461479E-01
        1   -1    0    0  501    0  0.00000000000E+00  0.00000000000E+00  0.21107173426E+04  0.21107173426E+04  0.50400001928E-02 0.  1.
       -1   -1    0    0    0  501  0.00000000000E+00  0.00000000000E+00 -0.64974865125E+03  0.64974865127E+03  0.50400001928E-02 0. -1.
    10030    2    1    2    0    0  0.00000000000E+00  0.00000000000E+00  0.14609686914E+04  0.27604659939E+04  0.23421663020E+04 0.  0.
        1    1    3    3  502    0 -0.10524108060E+04  0.27081203329E+03  0.21603315831E+03  0.11079611850E+04  0.50400001928E-02 0. -1.
       -1    1    3    3    0  502  0.10524108060E+04 -0.27081203329E+03  0.12449355331E+04  0.16525048089E+04  0.50400001928E-02 0.  1.
</event>
<event>
 5   0  0.4208577E-05  0.2373156E+04  0.7818609E-02  0.8449622E-01
       -1   -1    0    0    0  501  0.00000000000E+00  0.00000000000E+00  0.60801793187E+03  0.60801793189E+03  0.50400001928E-02 0. -1.
        1   -1    0    0  501    0  0.00000000000E+00  0.00000000000E+00 -0.23156673509E+04  0.23156673509E+04  0.50400001928E-02 0.  1.
    10030    2    1    2    0    0  0.00000000000E+00  0.00000000000E+00 -0.17076494190E+04  0.29236852828E+04  0.23731559355E+04 0.  0.
        1    1    3    3  502    0 -0.16602933289E+02 -0.41454700236E+03 -0.22233999344E+04  0.22617763247E+04  0.50400001928E-02 0.  1.
       -1    1    3    3    0  502  0.16602933289E+02  0.41454700236E+03  0.51575051543E+03  0.66190895805E+03  0.50400001928E-02 0. -1.
</event>
<event>
 5   0  0.9750757E-05  0.2459237E+04  0.7818609E-02  0.8417653E-01
        2   -1    0    0  501    0  0.00000000000E+00  0.00000000000E+00  0.14659502465E+04  0.14659502466E+04  0.25500000920E-02 0.  1.
       -2   -1    0    0    0  501  0.00000000000E+00  0.00000000000E+00 -0.10313868452E+04  0.10313868452E+04  0.25500000920E-02 0. -1.
    10030    2    1    2    0    0  0.00000000000E+00  0.00000000000E+00  0.43456340135E+03  0.24973370918E+04  0.24592371175E+04 0.  0.
        2    1    3    3  502    0 -0.92831480463E+03 -0.62137688065E+03 -0.30457103946E+03  0.11578605799E+04  0.25500000920E-02 0. -1.
       -2    1    3    3    0  502  0.92831480463E+03  0.62137688065E+03  0.73913444081E+03  0.13394765119E+04  0.25500000920E-02 0.  1.
</event>
<event>
 5   0  0.9519092E-05  0.2327680E+04  0.7818609E-02  0.8467087E-01
       -2   -1    0    0    0  501  0.00000000000E+00  0.00000000000E+00  0.18013989805E+04  0.18013989805E+04  0.25500000920E-02 0. -1.
        2   -1    0    0  501    0  0.00000000000E+00  0.00000000000E+00 -0.75192859742E+03  0.75192859743E+03  0.25500000920E-02 0.  1.
    10030    2    1    2    0    0  0.00000000000E+00  0.00000000000E+00  0.10494703831E+04  0.25533275779E+04  0.23276798825E+04 0.  0.
        4    1    3    3  502    0 -0.11535413594E+04 -0.14401232155E+03  0.58605193277E+03  0.13018662363E+04  0.12699999809E+01 0. -1.
       -4    1    3    3    0  502  0.11535413594E+04  0.14401232155E+03  0.46341845029E+03  0.12514613416E+04  0.12699999809E+01 0.  1.
</event>
<event>
 5   0  0.9182865E-05  0.2266493E+04  0.7818609E-02  0.8491251E-01
       -2   -1    0    0    0  501  0.00000000000E+00  0.00000000000E+00  0.98487318637E+03  0.98487318638E+03  0.25500000920E-02 0. -1.
        2   -1    0    0  501    0  0.00000000000E+00  0.00000000000E+00 -0.13039729908E+04  0.13039729908E+04  0.25500000920E-02 0.  1.
    10030    2    1    2    0    0  0.00000000000E+00  0.00000000000E+00 -0.31909980442E+03  0.22888461772E+04  0.22664933571E+04 0.  0.
        3    1    3    3  502    0 -0.39514086671E+03  0.47049266979E+03 -0.11211744636E+04  0.12784881090E+04  0.10100000352E+00 0.  1.
       -3    1    3    3    0  502  0.39514086671E+03 -0.47049266979E+03  0.80207465915E+03  0.10103580682E+04  0.10100000352E+00 0. -1.
</event>
<event>
 5   0  0.4061631E-05  0.2373158E+04  0.7818609E-02  0.8449622E-01
       -1   -1    0    0    0  501  0.00000000000E+00  0.00000000000E+00  0.13025965489E+04  0.13025965489E+04  0.50400001928E-02 0. -1.
        1   -1    0    0  501    0  0.00000000000E+00  0.00000000000E+00 -0.10808945932E+04  0.10808945932E+04  0.50400001928E-02 0.  1.
    10030    2    1    2    0    0  0.00000000000E+00  0.00000000000E+00  0.22170195569E+03  0.23834911421E+04  0.23731578682E+04 0.  0.
        3    1    3    3  502    0 -0.68208899480E+03  0.91668188651E+03 -0.21057137301E+03  0.11618482651E+04  0.10100000352E+00 0.  1.
       -3    1    3    3    0  502  0.68208899480E+03 -0.91668188651E+03  0.43227332870E+03  0.12216428769E+04  0.10100000352E+00 0. -1.
</event>
<event>
 5   0  0.9491680E-05  0.2428607E+04  0.7818609E-02  0.8428871E-01
        2   -1    0    0  501    0  0.00000000000E+00  0.00000000000E+00  0.10419135487E+04  0.10419135487E+04  0.25500000920E-02 0. -1.
       -2   -1    0    0    0  501  0.00000000000E+00  0.00000000000E+00 -0.14152159167E+04  0.14152159167E+04  0.25500000920E-02 0.  1.
    10030    2    1    2    0    0  0.00000000000E+00  0.00000000000E+00 -0.37330236801E+03  0.24571294653E+04  0.24286067099E+04 0.  0.
        5    1    3    3  502    0  0.17991180961E+03 -0.72234157082E+03  0.78397249821E+03  0.10811015550E+04  0.46999998093E+01 0. -1.
       -5    1    3    3    0  502 -0.17991180961E+03  0.72234157082E+03 -0.11572748662E+04  0.13760279104E+04  0.46999998093E+01 0.  1.
</event>
<event>
 5   0  0.9750757E-05  0.2355259E+04  0.7818609E-02  0.8456446E-01
       -2   -1    0    0    0  501  0.00000000000E+00  0.00000000000E+00  0.96717932818E+03  0.96717932819E+03  0.25500000920E-02 0. -1.
        2   -1    0    0  501    0  0.00000000000E+00  0.00000000000E+00 -0.14338722748E+04  0.14338722748E+04  0.25500000920E-02 0.  1.
    10030    2    1    2    0    0  0.00000000000E+00  0.00000000000E+00 -0.46669294665E+03  0.24010516030E+04  0.23552593263E+04 0.  0.
        2    1    3    3  502    0  0.86553383441E+03 -0.76356953962E+03 -0.47160911635E+03  0.12468369657E+04  0.25500000920E-02 0.  1.
       -2    1    3    3    0  502 -0.86553383441E+03  0.76356953962E+03  0.49161697012E+01  0.11542146373E+04  0.25500000920E-02 0. -1.
</event>
<event>
 5   0  0.4061631E-05  0.2467181E+04  0.7818609E-02  0.8414772E-01
       -1   -1    0    0    0  501  0.00000000000E+00  0.00000000000E+00  0.17585529819E+04  0.17585529819E+04  0.50400001928E-02 0. -1.
        1   -1    0    0  501    0  0.00000000000E+00  0.00000000000E+00 -0.86533974386E+03  0.86533974387E+03  0.50400001928E-02 0.  1.
    10030    2    1    2    0    0  0.00000000000E+00  0.00000000000E+00  0.89321323802E+03  0.26238927258E+04  0.24671812150E+04 0.  0.
        3    1    3    3  502    0  0.11348903517E+04 -0.19237774632E+02  0.96040774968E+03  0.14868521306E+04  0.10100000352E+00 0. -1.
       -3    1    3    3    0  502 -0.11348903517E+04  0.19237774632E+02 -0.67194511666E+02  0.11370405952E+04  0.10100000352E+00 0.  1.
</event>
<event>
 5   0  0.9491680E-05  0.2453692E+04  0.7818609E-02  0.8419671E-01
       -2   -1    0    0    0  501  0.00000000000E+00  0.00000000000E+00  0.93572855620E+03  0.93572855620E+03  0.25500000920E-02 0.  1.
        2   -1    0    0  501    0  0.00000000000E+00  0.00000000000E+00 -0.16085337484E+04  0.16085337484E+04  0.25500000920E-02 0. -1.
    10030    2    1    2    0    0  0.00000000000E+00  0.00000000000E+00 -0.67280519222E+03  0.25442623046E+04  0.24536918812E+04 0.  0.
        5    1    3    3  502    0  0.89628604808E+03  0.73901720500E+03  0.72690046996E+02  0.11639506185E+04  0.46999998093E+01 0.  1.
       -5    1    3    3    0  502 -0.89628604808E+03 -0.73901720500E+03 -0.74549523921E+03  0.13803116862E+04  0.46999998093E+01 0. -1.
</event>
<event>
 5   0  0.3234750E-05  0.2362296E+04  0.7818609E-02  0.8453756E-01
       -3   -1    0    0    0  501  0.00000000000E+00  0.00000000000E+00  0.70776696187E+03  0.70776696908E+03  0.10100000352E+00 0. -1.
        3   -1    0    0  501    0  0.00000000000E+00  0.00000000000E+00 -0.19711442922E+04  0.19711442948E+04  0.10100000352E+00 0.  1.
    10030    2    1    2    0    0  0.00000000000E+00  0.00000000000E+00 -0.12633773303E+04  0.26789112638E+04  0.23622961882E+04 0.  0.
        1    1    3    3  502    0 -0.10942435570E+04  0.10534586839E+03 -0.14176195278E+03  0.11084056863E+04  0.50400001928E-02 0. -1.
       -1    1    3    3    0  502  0.10942435570E+04 -0.10534586839E+03 -0.11216153775E+04  0.15705055776E+04  0.50400001928E-02 0.  1.
</event>
<event>
 5   0  0.9491680E-05  0.2041853E+04  0.7818609E-02  0.8587299E-01
        2   -1    0    0  501    0  0.00000000000E+00  0.00000000000E+00  0.20361579353E+04  0.20361579353E+04  0.25500000920E-02 0.  1.
       -2   -1    0    0    0  501  0.00000000000E+00  0.00000000000E+00 -0.51189106735E+03  0.51189106736E+03  0.25500000920E-02 0. -1.
    10030    2    1    2    0    0  0.00000000000E+00  0.00000000000E+00  0.15242668679E+04  0.25480490026E+04  0.20418531375E+04 0.  0.
        5    1    3    3  502    0 -0.89541750663E+03  0.23649698731E+03  0.22601752871E+03  0.95331492670E+03  0.46999998093E+01 0. -1.
       -5    1    3    3    0  502  0.89541750663E+03 -0.23649698731E+03  0.12982493392E+04  0.15947340759E+04  0.46999998093E+01 0.  1.
</event>
<event>
 5   0  0.9144244E-05  0.1188944E+04  0.7818609E-02  0.9122589E-01
        2   -1    0    0  501    0  0.00000000000E+00  0.00000000000E+00  0.12156073370E+04  0.12156073370E+04  0.25500000920E-02 0.  1.
       -2   -1    0    0    0  501  0.00000000000E+00  0.00000000000E+00 -0.29071648697E+03  0.29071648698E+03  0.25500000920E-02 0. -1.
    10030    2    1    2    0    0  0.00000000000E+00  0.00000000000E+00  0.92489084999E+03  0.15063238239E+04  0.11889442284E+04 0.  0.
        1    1    3    3  502    0  0.38952982999E+03 -0.39893619189E+03  0.72367383004E+03  0.91355754387E+03  0.50400001928E-02 0.  1.
       -1    1    3    3    0  502 -0.38952982999E+03  0.39893619189E+03  0.20121701994E+03  0.59276628007E+03  0.50400001928E-02 0. -1.
</event>
<event>
 5   0  0.9519092E-05  0.2401287E+04  0.7818609E-02  0.8439022E-01
        2   -1    0    0  501    0  0.00000000000E+00  0.00000000000E+00  0.14859233492E+04  0.14859233492E+04  0.25500000920E-02 0. -1.
       -2   -1    0    0    0  501  0.00000000000E+00  0.00000000000E+00 -0.97013395466E+03  0.97013395466E+03  0.25500000920E-02 0.  1.
    10030    2    1    2    0    0  0.00000000000E+00  0.00000000000E+00  0.51578939459E+03  0.24560573039E+04  0.24012869009E+04 0.  0.
        4    1    3    3  502    0 -0.20733950453E+03 -0.65251822869E+03 -0.75089417018E+03  0.10161758591E+04  0.12699999809E+01 0.  1.
       -4    1    3    3    0  502  0.20733950453E+03  0.65251822869E+03  0.12666835648E+04  0.14398814448E+04  0.12699999809E+01 0. -1.
</event>
<event>
 5   0  0.4061631E-05  0.2428694E+04  0.7818609E-02  0.8428839E-01
        1   -1    0    0  501    0  0.00000000000E+00  0.00000000000E+00  0.74086464104E+03  0.74086464106E+03  0.50400001928E-02 0. -1.
       -1   -1    0    0    0  501  0.00000000000E+00  0.00000000000E+00 -0.19904286994E+04  0.19904286994E+04  0.50400001928E-02 0.  1.
    10030    2    1    2    0    0  0.00000000000E+00  0.00000000000E+00 -0.12495640584E+04  0.27312933405E+04  0.24286936768E+04 0.  0.
        3    1    3    3  502    0 -0.41353317742E+03 -0.10652724370E+04 -0.10868561457E+04  0.15770451311E+04  0.10100000352E+00 0.  1.
       -3    1    3    3    0  502  0.41353317742E+03  0.10652724370E+04 -0.16270791264E+03  0.11542482094E+04  0.10100000352E+00 0. -1.
</event>
<event>
 5   0  0.4260395E-05  0.2244830E+04  0.7818609E-02  0.8499997E-01
       -1   -1    0    0    0  501  0.00000000000E+00  0.00000000000E+00  0.71115880499E+03  0.71115880501E+03  0.50400001928E-02 0. -1.
        1   -1    0    0  501    0  0.00000000000E+00  0.00000000000E+00 -0.17714969618E+04  0.17714969619E+04  0.50400001928E-02 0.  1.
    10030    2    1    2    0    0  0.00000000000E+00  0.00000000000E+00 -0.10603381569E+04  0.24826557669E+04  0.22448302051E+04 0.  0.
        4    1    3    3  502    0  0.22054146222E+03  0.47098974754E+03  0.56986644187E+03  0.77150453876E+03  0.12699999809E+01 0. -1.
       -4    1    3    3    0  502 -0.22054146222E+03 -0.47098974754E+03 -0.16302045987E+04  0.17111512281E+04  0.12699999809E+01 0.  1.
</event>
<event>
 5   0  0.9144244E-05  0.2369162E+04  0.7818609E-02  0.8451140E-01
       -2   -1    0    0    0  501  0.00000000000E+00  0.00000000000E+00  0.11384161392E+04  0.11384161392E+04  0.25500000920E-02 0.  1.
        2   -1    0    0  501    0  0.00000000000E+00  0.00000000000E+00 -0.12326184071E+04  0.12326184071E+04  0.25500000920E-02 0. -1.
    10030    2    1    2    0    0  0.00000000000E+00  0.00000000000E+00 -0.94202267835E+02  0.23710345463E+04  0.23691624580E+04 0.  0.
        1    1    3    3  502    0 -0.10859134555E+04 -0.33276713693E+03  0.28975165441E+03  0.11721339605E+04  0.50400001928E-02 0.  1.
       -1    1    3    3    0  502  0.10859134555E+04  0.33276713693E+03 -0.38395392225E+03  0.11989005858E+04  0.50400001928E-02 0. -1.
</event>
<event>
 5   0  0.4208577E-05  0.2413218E+04  0.7818609E-02  0.8434572E-01
       -1   -1    0    0    0  501  0.00000000000E+00  0.00000000000E+00  0.14512895384E+04  0.14512895384E+04  0.50400001928E-02 0. -1.
        1   -1    0    0  501    0  0.00000000000E+00  0.00000000000E+00 -0.10031801108E+04  0.10031801108E+04  0.50400001928E-02 0.  1.
    10030    2    1    2    0    0  0.00000000000E+00  0.00000000000E+00  0.44810942761E+03  0.24544696492E+04  0.24132176031E+04 0.  0.
        1    1    3    3  502    0  0.45246305154E+03  0.27181364980E+03 -0.87952733987E+03  0.10257552412E+04  0.50400001928E-02 0.  1.
       -1    1    3    3    0  502 -0.45246305154E+03 -0.27181364980E+03  0.13276367675E+04  0.14287144080E+04  0.50400001928E-02 0. -1.
</event>
<event>
 5   0  0.9519092E-05  0.2408344E+04  0.7818609E-02  0.8436386E-01
        2   -1    0    0  501    0  0.00000000000E+00  0.00000000000E+00  0.21361264629E+04  0.21361264629E+04  0.25500000920E-02 0.  1.
       -2   -1    0    0    0  501  0.00000000000E+00  0.00000000000E+00 -0.67881308541E+03  0.67881308542E+03  0.25500000920E-02 0. -1.
    10030    2    1    2    0    0  0.00000000000E+00  0.00000000000E+00  0.14573133775E+04  0.28149395483E+04  0.24083443235E+04 0.  0.
        4    1    3    3  502    0  0.43967091064E+03 -0.85995424574E+03  0.15692357414E+04  0.18426432751E+04  0.12699999809E+01 0.  1.
       -4    1    3    3    0  502 -0.43967091064E+03  0.85995424574E+03 -0.11192236390E+03  0.97229627319E+03  0.12699999809E+01 0. -1.
</event>
<event>
 5   0  0.9491680E-05  0.2397829E+04  0.7818609E-02  0.8440317E-01
        2   -1    0    0  501    0  0.00000000000E+00  0.00000000000E+00  0.14522184286E+04  0.14522184286E+04  0.25500000920E-02 0. -1.
       -2   -1    0    0    0  501  0.00000000000E+00  0.00000000000E+00 -0.98979343214E+03  0.98979343214E+03  0.25500000920E-02 0.  1.
    10030    2    1    2    0    0  0.00000000000E+00  0.00000000000E+00  0.46242499644E+03  0.24420118607E+04  0.23978292372E+04 0.  0.
        5    1    3    3  502    0 -0.34614792424E+03 -0.85698906669E+02  0.13969485254E+04  0.14417523923E+04  0.46999998093E+01 0. -1.
       -5    1    3    3    0  502  0.34614792424E+03  0.85698906669E+02 -0.93452352895E+03  0.10002594684E+04  0.46999998093E+01 0.  1.
</event>
<event>
 5   0  0.9491680E-05  0.2377632E+04  0.7818609E-02  0.8447926E-01
        2   -1    0    0  501    0  0.00000000000E+00  0.00000000000E+00  0.25168418193E+04  0.25168418193E+04  0.25500000920E-02 0. -1.
       -2   -1    0    0    0  501  0.00000000000E+00  0.00000000000E+00 -0.56153041450E+03  0.56153041450E+03  0.25500000920E-02 0.  1.
    10030    2    1    2    0    0  0.00000000000E+00  0.00000000000E+00  0.19553114048E+04  0.30783722338E+04  0.23776317882E+04 0.  0.
        5    1    3    3  502    0  0.18314595618E+03  0.90364158998E+03  0.60528059260E+01  0.92204625202E+03  0.46999998093E+01 0.  1.
       -5    1    3    3    0  502 -0.18314595618E+03 -0.90364158998E+03  0.19492585989E+04  0.21563259818E+04  0.46999998093E+01 0. -1.
</event>
<event>
 5   0  0.4260395E-05  0.2447979E+04  0.7818609E-02  0.8421756E-01
       -1   -1    0    0    0  501  0.00000000000E+00  0.00000000000E+00  0.12938085945E+04  0.12938085946E+04  0.50400001928E-02 0. -1.
        1   -1    0    0  501    0  0.00000000000E+00  0.00000000000E+00 -0.11579379516E+04  0.11579379517E+04  0.50400001928E-02 0.  1.
    10030    2    1    2    0    0  0.00000000000E+00  0.00000000000E+00  0.13587064289E+03  0.24517465462E+04  0.24479788184E+04 0.  0.
        4    1    3    3  502    0  0.66308154678E+03 -0.47772031439E+03 -0.84465018721E+03  0.11752997014E+04  0.12699999809E+01 0.  1.
       -4    1    3    3    0  502 -0.66308154678E+03  0.47772031439E+03  0.98052083010E+03  0.12764468448E+04  0.12699999809E+01 0. -1.
</event>
<event>
 5   0  0.4260395E-05  0.2316785E+04  0.7818609E-02  0.8471332E-01
       -1   -1    0    0    0  501  0.00000000000E+00  0.00000000000E+00  0.10941481288E+04  0.10941481288E+04  0.50400001928E-02 0.  1.
        1   -1    0    0  501    0  0.00000000000E+00  0.00000000000E+00 -0.12264093770E+04  0.12264093770E+04  0.50400001928E-02 0. -1.
    10030    2    1    2    0    0  0.00000000000E+00  0.00000000000E+00 -0.13226124820E+03  0.23205575057E+04  0.23167852942E+04 0.  0.
        4    1    3    3  502    0  0.10004724384E+04  0.31917317920E+03 -0.55585952004E+03  0.11881910778E+04  0.12699999809E+01 0. -1.
       -4    1    3    3    0  502 -0.10004724384E+04 -0.31917317920E+03  0.42359827184E+03  0.11323664280E+04  0.12699999809E+01 0.  1.
</event>
<event>
 5   0  0.4208577E-05  0.2521107E+04  0.7818609E-02  0.8395505E-01
       -1   -1    0    0    0  501  0.00000000000E+00  0.00000000000E+00  0.10705315545E+04  0.10705315545E+04  0.50400001928E-02 0. -1.
        1   -1    0    0  501    0  0.00000000000E+00  0.00000000000E+00 -0.14843043150E+04  0.14843043150E+04  0.50400001928E-02 0.  1.
    10030    2    1    2    0    0  0.00000000000E+00  0.00000000000E+00 -0.41377276047E+03  0.25548358695E+04  0.25211065870E+04 0.  0.
        1    1    3    3  502    0  0.59331592943E+03  0.11072553198E+04 -0.10081282392E+03  0.12602386127E+04  0.50400001928E-02 0. -1.
       -1    1    3    3    0  502 -0.59331592943E+03 -0.11072553198E+04 -0.31295993655E+03  0.12945972568E+04  0.50400001928E-02 0.  1.
</event>
<event>
 5   0  0.9491680E-05  0.2404080E+04  0.7818609E-02  0.8437977E-01
       -2   -1    0    0    0  501  0.00000000000E+00  0.00000000000E+00  0.88827592099E+03  0.88827592099E+03  0.25500000920E-02 0. -1.
        2   -1    0    0  501    0  0.00000000000E+00  0.00000000000E+00 -0.16266350312E+04  0.16266350312E+04  0.25500000920E-02 0.  1.
    10030    2    1    2    0    0  0.00000000000E+00  0.00000000000E+00 -0.73835911017E+03  0.25149109522E+04  0.24040804732E+04 0.  0.
        5    1    3    3  502    0  0.63800179763E+03  0.65217020329E+03  0.44952822408E+03  0.10170889745E+04  0.46999998093E+01 0. -1.
       -5    1    3    3    0  502 -0.63800179763E+03 -0.65217020329E+03 -0.11878873342E+04  0.14978219776E+04  0.46999998093E+01 0.  1.
</event>
<event>
 5   0  0.9144244E-05  0.2575896E+04  0.7818609E-02  0.8376435E-01
       -2   -1    0    0    0  501  0.00000000000E+00  0.00000000000E+00  0.92190284393E+03  0.92190284393E+03  0.25500000920E-02 0. -1.
        2   -1    0    0  501    0  0.00000000000E+00  0.00000000000E+00 -0.17993325468E+04  0.17993325468E+04  0.25500000920E-02 0.  1.
    10030    2    1    2    0    0  0.00000000000E+00  0.00000000000E+00 -0.87742970285E+03  0.27212353907E+04  0.25758957992E+04 0.  0.
        1    1    3    3  502    0  0.20838389162E+03  0.51673082424E+03  0.78799879876E+03  0.96507859674E+03  0.50400001928E-02 0. -1.
       -1    1    3    3    0  502 -0.20838389162E+03 -0.51673082424E+03 -0.16654285016E+04  0.17561567940E+04  0.50400001928E-02 0.  1.
</event>
<event>
 5   0  0.9144244E-05  0.2310346E+04  0.7818609E-02  0.8473853E-01
       -2   -1    0    0    0  501  0.00000000000E+00  0.00000000000E+00  0.89594019534E+03  0.89594019534E+03  0.25500000920E-02 0. -1.
        2   -1    0    0  501    0  0.00000000000E+00  0.00000000000E+00 -0.14894123586E+04  0.14894123586E+04  0.25500000920E-02 0.  1.
    10030    2    1    2    0    0  0.00000000000E+00  0.00000000000E+00 -0.59347216328E+03  0.23853525540E+04  0.23103457746E+04 0.  0.
        1    1    3    3  502    0 -0.41457130362E+03  0.94748018846E+03 -0.82806612251E+03  0.13248703999E+04  0.50400001928E-02 0.  1.
       -1    1    3    3    0  502  0.41457130362E+03 -0.94748018846E+03  0.23459395923E+03  0.10604821540E+04  0.50400001928E-02 0. -1.
</event>
<event>
 5   0  0.9144244E-05  0.2419119E+04  0.7818609E-02  0.8432380E-01
       -2   -1    0    0    0  501  0.00000000000E+00  0.00000000000E+00  0.13355894875E+04  0.13355894875E+04  0.25500000920E-02 0.  1.
        2   -1    0    0  501    0  0.00000000000E+00  0.00000000000E+00 -0.10954223548E+04  0.10954223548E+04  0.25500000920E-02 0. -1.
    10030    2    1    2    0    0  0.00000000000E+00  0.00000000000E+00  0.24016713268E+03  0.24310118424E+04  0.24191193286E+04 0.  0.
        1    1    3    3  502    0 -0.59803729772E+03 -0.48425214736E+03  0.10578839263E+04  0.13081541015E+04  0.50400001928E-02 0.  1.
       -1    1    3    3    0  502  0.59803729772E+03  0.48425214736E+03 -0.81771679361E+03  0.11228577409E+04  0.50400001928E-02 0. -1.
</event>
<event>
 5   0  0.3934906E-05  0.2383940E+04  0.7818609E-02  0.8445541E-01
        1   -1    0    0  501    0  0.00000000000E+00  0.00000000000E+00  0.10833728812E+04  0.10833728812E+04  0.50400001928E-02 0. -1.
       -1   -1    0    0    0  501  0.00000000000E+00  0.00000000000E+00 -0.13114530751E+04  0.13114530751E+04  0.50400001928E-02 0.  1.
    10030    2    1    2    0    0  0.00000000000E+00  0.00000000000E+00 -0.22808019386E+03  0.23948259564E+04  0.23839401810E+04 0.  0.
        2    1    3    3  502    0 -0.43218663666E+03 -0.93841410789E+03  0.48313749095E+03  0.11405385403E+04  0.25500000920E-02 0. -1.
       -2    1    3    3    0  502  0.43218663666E+03  0.93841410789E+03 -0.71121768481E+03  0.12542874160E+04  0.25500000920E-02 0.  1.
</event>
<event>
 5   0  0.4018942E-05  0.2320192E+04  0.7818609E-02  0.8470002E-01
       -1   -1    0    0    0  501  0.00000000000E+00  0.00000000000E+00  0.80815186749E+03  0.80815186750E+03  0.50400001928E-02 0.  1.
        1   -1    0    0  501    0  0.00000000000E+00  0.00000000000E+00 -0.16653098511E+04  0.16653098511E+04  0.50400001928E-02 0. -1.
    10030    2    1    2    0    0  0.00000000000E+00  0.00000000000E+00 -0.85715798365E+03  0.24734617186E+04  0.23201924629E+04 0.  0.
        5    1    3    3  502    0 -0.10304798978E+03 -0.96013498444E+03 -0.11139504592E+04  0.14742407511E+04  0.46999998093E+01 0. -1.
       -5    1    3    3    0  502  0.10304798978E+03  0.96013498444E+03  0.25679247556E+03  0.99922096758E+03  0.46999998093E+01 0.  1.
</event>
<event>
 5   0  0.9491680E-05  0.2361266E+04  0.7818609E-02  0.8454149E-01
        2   -1    0    0  501    0  0.00000000000E+00  0.00000000000E+00  0.12532608695E+04  0.12532608695E+04  0.25500000920E-02 0.  1.
       -2   -1    0    0    0  501  0.00000000000E+00  0.00000000000E+00 -0.11122136232E+04  0.11122136232E+04  0.25500000920E-02 0. -1.
    10030    2    1    2    0    0  0.00000000000E+00  0.00000000000E+00  0.14104724630E+03  0.23654744928E+04  0.23612656035E+04 0.  0.
        5    1    3    3  502    0 -0.17995491178E+03  0.51006936924E+03  0.11218308207E+04  0.12454240290E+04  0.46999998093E+01 0.  1.
       -5    1    3    3    0  502  0.17995491178E+03 -0.51006936924E+03 -0.98078357437E+03  0.11200504638E+04  0.46999998093E+01 0. -1.
</event>
<event>
 5   0  0.4260395E-05  0.2447808E+04  0.7818609E-02  0.8421819E-01
        1   -1    0    0  501    0  0.00000000000E+00  0.00000000000E+00  0.15532485562E+04  0.15532485562E+04  0.50400001928E-02 0.  1.
       -1   -1    0    0    0  501  0.00000000000E+00  0.00000000000E+00 -0.96439257093E+03  0.96439257094E+03  0.50400001928E-02 0. -1.
    10030    2    1    2    0    0  0.00000000000E+00  0.00000000000E+00  0.58885598526E+03  0.25176411271E+04  0.24478083000E+04 0.  0.
        4    1    3    3  502    0  0.10580068757E+04 -0.78057249411E+02 -0.33328492144E+03  0.11120035679E+04  0.12699999809E+01 0. -1.
       -4    1    3    3    0  502 -0.10580068757E+04  0.78057249411E+02  0.92214090670E+03  0.14056375592E+04  0.12699999809E+01 0.  1.
</event>
<event>
 5   0  0.9750757E-05  0.1867609E+04  0.7818609E-02  0.8671150E-01
        2   -1    0    0  501    0  0.00000000000E+00  0.00000000000E+00  0.13935268980E+04  0.13935268980E+04  0.25500000920E-02 0.  1.
       -2   -1    0    0    0  501  0.00000000000E+00  0.00000000000E+00 -0.62574356921E+03  0.62574356922E+03  0.25500000920E-02 0. -1.
    10030    2    1    2    0    0  0.00000000000E+00  0.00000000000E+00  0.76778332874E+03  0.20192704672E+04  0.18676086259E+04 0.  0.
        2    1    3    3  502    0  0.33249352037E+03 -0.50748428233E+03 -0.38361128043E+03  0.71780906401E+03  0.25500000920E-02 0. -1.
       -2    1    3    3    0  502 -0.33249352037E+03  0.50748428233E+03  0.11513946092E+04  0.13014614032E+04  0.25500000920E-02 0.  1.
</event>
<event>
 5   0  0.4208577E-05  0.2352848E+04  0.7818609E-02  0.8457371E-01
        1   -1    0    0  501    0  0.00000000000E+00  0.00000000000E+00  0.83830767681E+03  0.83830767682E+03  0.50400001928E-02 0.  1.
       -1   -1    0    0    0  501  0.00000000000E+00  0.00000000000E+00 -0.16509133661E+04  0.16509133661E+04  0.50400001928E-02 0. -1.
    10030    2    1    2    0    0  0.00000000000E+00  0.00000000000E+00 -0.81260568931E+03  0.24892210430E+04  0.23528479327E+04 0.  0.
        1    1    3    3  502    0  0.11441102839E+04  0.10529297647E+03 -0.13887009907E+03  0.11573071576E+04  0.50400001928E-02 0. -1.
       -1    1    3    3    0  502 -0.11441102839E+04 -0.10529297647E+03 -0.67373559025E+03  0.13319138854E+04  0.50400001928E-02 0.  1.
</event>
<event>
 5   0  0.9182865E-05  0.2422639E+04  0.7818609E-02  0.8431076E-01
       -2   -1    0    0    0  501  0.00000000000E+00  0.00000000000E+00  0.94768949194E+03  0.94768949194E+03  0.25500000920E-02 0. -1.
        2   -1    0    0  501    0  0.00000000000E+00  0.00000000000E+00 -0.15482871803E+04  0.15482871803E+04  0.25500000920E-02 0.  1.
    10030    2    1    2    0    0  0.00000000000E+00  0.00000000000E+00 -0.60059768833E+03  0.24959766722E+04  0.24226394625E+04 0.  0.
        3    1    3    3  502    0 -0.82905862168E+03 -0.88313793898E+03 -0.30541542736E+03  0.12492195207E+04  0.10100000352E+00 0.  1.
       -3    1    3    3    0  502  0.82905862168E+03  0.88313793898E+03 -0.29518226098E+03  0.12467571515E+04  0.10100000352E+00 0. -1.
</event>
<event>
 5   0  0.9491680E-05  0.2300291E+04  0.7818609E-02  0.8477806E-01
        2   -1    0    0  501    0  0.00000000000E+00  0.00000000000E+00  0.12086518519E+04  0.12086518519E+04  0.25500000920E-02 0. -1.
       -2   -1    0    0    0  501  0.00000000000E+00  0.00000000000E+00 -0.10944714102E+04  0.10944714102E+04  0.25500000920E-02 0.  1.
    10030    2    1    2    0    0  0.00000000000E+00  0.00000000000E+00  0.11418044174E+03  0.23031232621E+04  0.23002911962E+04 0.  0.
        5    1    3    3  502    0 -0.98410123156E+03  0.43187419998E+03  0.46728016432E+03  0.11718973507E+04  0.46999998093E+01 0. -1.
       -5    1    3    3    0  502  0.98410123156E+03 -0.43187419998E+03 -0.35309972257E+03  0.11312259114E+04  0.46999998093E+01 0.  1.
</event>
<event>
 5   0  0.4208577E-05  0.2417522E+04  0.7818609E-02  0.8432973E-01
        1   -1    0    0  501    0  0.00000000000E+00  0.00000000000E+00  0.12475923541E+04  0.12475923541E+04  0.50400001928E-02 0.  1.
       -1   -1    0    0    0  501  0.00000000000E+00  0.00000000000E+00 -0.11711379884E+04  0.11711379884E+04  0.50400001928E-02 0. -1.
    10030    2    1    2    0    0  0.00000000000E+00  0.00000000000E+00  0.76454365682E+02  0.24187303425E+04  0.24175217061E+04 0.  0.
        1    1    3    3  502    0 -0.68412837284E+02  0.11390994034E+04 -0.36056340271E+03  0.11967596812E+04  0.50400001928E-02 0. -1.
       -1    1    3    3    0  502  0.68412837284E+02 -0.11390994034E+04  0.43701776839E+03  0.12219706613E+04  0.50400001928E-02 0.  1.
</event>
<event>
 5   0  0.4260395E-05  0.2390520E+04  0.7818609E-02  0.8443061E-01
       -1   -1    0    0    0  501  0.00000000000E+00  0.00000000000E+00  0.48170935220E+03  0.48170935223E+03  0.50400001928E-02 0. -1.
        1   -1    0    0  501    0  0.00000000000E+00  0.00000000000E+00 -0.29657843627E+04  0.29657843627E+04  0.50400001928E-02 0.  1.
    10030    2    1    2    0    0  0.00000000000E+00  0.00000000000E+00 -0.24840750105E+04  0.34474937149E+04  0.23905196625E+04 0.  0.
        4    1    3    3  502    0 -0.42118088143E+03 -0.98598137757E+03 -0.48016073521E+03  0.11747802162E+04  0.12699999809E+01 0.  1.
       -4    1    3    3    0  502  0.42118088143E+03  0.98598137757E+03 -0.20039142752E+04  0.22727134987E+04  0.12699999809E+01 0. -1.
</event>
<event>
 5   0  0.3234750E-05  0.1956707E+04  0.7818609E-02  0.8627133E-01
        3   -1    0    0  501    0  0.00000000000E+00  0.00000000000E+00  0.55648063633E+03  0.55648064550E+03  0.10100000352E+00 0.  1.
       -3   -1    0    0    0  501  0.00000000000E+00  0.00000000000E+00 -0.17200514626E+04  0.17200514655E+04  0.10100000352E+00 0. -1.
    10030    2    1    2    0    0  0.00000000000E+00  0.00000000000E+00 -0.11635708262E+04  0.22765321110E+04  0.19567067703E+04 0.  0.
        4    1    3    3  502    0  0.68435789405E+03  0.59038481832E+03 -0.14603654138E+03  0.91554805727E+03  0.12699999809E+01 0.  1.
       -4    1    3    3    0  502 -0.68435789405E+03 -0.59038481832E+03 -0.10175342848E+04  0.13609840538E+04  0.12699999809E+01 0. -1.
</event>
<event>
 5   0  0.4018942E-05  0.2117424E+04  0.7818609E-02  0.8553606E-01
       -1   -1    0    0    0  501  0.00000000000E+00  0.00000000000E+00  0.11294780700E+04  0.11294780700E+04  0.50400001928E-02 0.  1.
        1   -1    0    0  501    0  0.00000000000E+00  0.00000000000E+00 -0.99238010747E+03  0.99238010748E+03  0.50400001928E-02 0. -1.
    10030    2    1    2    0    0  0.00000000000E+00  0.00000000000E+00  0.13709796253E+03  0.21218581775E+04  0.21174244435E+04 0.  0.
        5    1    3    3  502    0 -0.33438616772E+03  0.28439959281E+02  0.10747563485E+04  0.11259423782E+04  0.46999998093E+01 0.  1.
       -5    1    3    3    0  502  0.33438616772E+03 -0.28439959281E+02 -0.93765838597E+03  0.99591579927E+03  0.46999998093E+01 0. -1.
</event>
<event>
 5   0  0.9491680E-05  0.2410293E+04  0.7818609E-02  0.8435660E-01
        2   -1    0    0  501    0  0.00000000000E+00  0.00000000000E+00  0.16747087879E+04  0.16747087879E+04  0.25500000920E-02 0. -1.
       -2   -1    0    0    0  501  0.00000000000E+00  0.00000000000E+00 -0.86724228944E+03  0.86724228944E+03  0.25500000920E-02 0.  1.
    10030    2    1    2    0    0  0.00000000000E+00  0.00000000000E+00  0.80746649850E+03  0.25419510774E+04  0.24102931634E+04 0.  0.
        5    1    3    3  502    0  0.11242975779E+04 -0.37543995364E+03  0.17423214316E+03  0.11980730914E+04  0.46999998093E+01 0. -1.
       -5    1    3    3    0  502 -0.11242975779E+04  0.37543995364E+03  0.63323435534E+03  0.13438779860E+04  0.46999998093E+01 0.  1.
</event>
<event>
 5   0  0.9491680E-05  0.2369212E+04  0.7818609E-02  0.8451121E-01
       -2   -1    0    0    0  501  0.00000000000E+00  0.00000000000E+00  0.80790886463E+03  0.80790886464E+03  0.25500000920E-02 0.  1.
        2   -1    0    0  501    0  0.00000000000E+00  0.00000000000E+00 -0.17369420812E+04  0.17369420812E+04  0.25500000920E-02 0. -1.
    10030    2    1    2    0    0  0.00000000000E+00  0.00000000000E+00 -0.92903321661E+03  0.25448509459E+04  0.23692116029E+04 0.  0.
        5    1    3    3  502    0  0.53392126619E+03 -0.77791410063E+01  0.67129391682E+03  0.85778205057E+03  0.46999998093E+01 0.  1.
       -5    1    3    3    0  502 -0.53392126619E+03  0.77791410063E+01 -0.16003271334E+04  0.16870688953E+04  0.46999998093E+01 0. -1.
</event>
<event>
 5   0  0.9182865E-05  0.2196289E+04  0.7818609E-02  0.8519974E-01
        2   -1    0    0  501    0  0.00000000000E+00  0.00000000000E+00  0.16356762990E+04  0.16356762990E+04  0.25500000920E-02 0. -1.
       -2   -1    0    0    0  501  0.00000000000E+00  0.00000000000E+00 -0.73726162379E+03  0.73726162379E+03  0.25500000920E-02 0.  1.
    10030    2    1    2    0    0  0.00000000000E+00  0.00000000000E+00  0.89841467517E+03  0.23729379227E+04  0.21962890194E+04 0.  0.
        3    1    3    3  502    0  0.19302659325E+03 -0.30324209495E+03 -0.67189567060E+03  0.76200973499E+03  0.10100000352E+00 0.  1.
       -3    1    3    3    0  502 -0.19302659325E+03  0.30324209495E+03  0.15703103458E+04  0.16109281877E+04  0.10100000352E+00 0. -1.
</event>
<event>
 5   0  0.9491680E-05  0.2369457E+04  0.7818609E-02  0.8451028E-01
        2   -1    0    0  501    0  0.00000000000E+00  0.00000000000E+00  0.21049505048E+04  0.21049505048E+04  0.25500000920E-02 0.  1.
       -2   -1    0    0    0  501  0.00000000000E+00  0.00000000000E+00 -0.66680035843E+03  0.66680035843E+03  0.25500000920E-02 0. -1.
    10030    2    1    2    0    0  0.00000000000E+00  0.00000000000E+00  0.14381501464E+04  0.27717508633E+04  0.23694571118E+04 0.  0.
        5    1    3    3  502    0 -0.51490528762E+03  0.80442987181E+03 -0.10087928140E+03  0.96043406504E+03  0.46999998093E+01 0. -1.
       -5    1    3    3    0  502  0.51490528762E+03 -0.80442987181E+03  0.15390294278E+04  0.18113167982E+04  0.46999998093E+01 0.  1.
</event>
<event>
 5   0  0.3934906E-05  0.2132337E+04  0.7818609E-02  0.8547131E-01
       -1   -1    0    0    0  501  0.00000000000E+00  0.00000000000E+00  0.15492857058E+04  0.15492857058E+04  0.50400001928E-02 0. -1.
        1   -1    0    0  501    0  0.00000000000E+00  0.00000000000E+00 -0.73370306055E+03  0.73370306057E+03  0.50400001928E-02 0.  1.
    10030    2    1    2    0    0  0.00000000000E+00  0.00000000000E+00  0.81558264523E+03  0.22829887664E+04  0.21323373692E+04 0.  0.
        2    1    3    3  502    0 -0.43509865636E+03 -0.39935815076E+03  0.13581517352E+04  0.14810043583E+04  0.25500000920E-02 0. -1.
       -2    1    3    3    0  502  0.43509865636E+03  0.39935815076E+03 -0.54256909000E+03  0.80198440807E+03  0.25500000920E-02 0.  1.
</event>
<event>
 5   0  0.9182865E-05  0.2371977E+04  0.7818609E-02  0.8450070E-01
        2   -1    0    0  501    0  0.00000000000E+00  0.00000000000E+00  0.20361076966E+04  0.20361076966E+04  0.25500000920E-02 0. -1.
       -2   -1    0    0    0  501  0.00000000000E+00  0.00000000000E+00 -0.69081244152E+03  0.69081244152E+03  0.25500000920E-02 0.  1.
    10030    2    1    2    0    0  0.00000000000E+00  0.00000000000E+00  0.13452952551E+04  0.27269201381E+04  0.23719768372E+04 0.  0.
        3    1    3    3  502    0  0.10701380373E+04 -0.48712579257E+03  0.49424374417E+03  0.12754465279E+04  0.10100000352E+00 0. -1.
       -3    1    3    3    0  502 -0.10701380373E+04  0.48712579257E+03  0.85105151089E+03  0.14514736102E+04  0.10100000352E+00 0.  1.
</event>
<event>
 5   0  0.9519092E-05  0.2414935E+04  0.7818609E-02  0.8433933E-01
       -2   -1    0    0    0  501  0.00000000000E+00  0.00000000000E+00  0.76438430458E+03  0.76438430459E+03  0.25500000920E-02 0.  1.
        2   -1    0    0  501    0  0.00000000000E+00  0.00000000000E+00 -0.19073882037E+04  0.19073882037E+04  0.25500000920E-02 0. -1.
    10030    2    1    2    0    0  0.00000000000E+00  0.00000000000E+00 -0.11430038991E+04  0.26717725083E+04  0.24149348693E+04 0.  0.
        4    1    3    3  502    0  0.27245534140E+02  0.18995638740E+03  0.74740468075E+03  0.77164831235E+03  0.12699999809E+01 0.  1.
       -4    1    3    3    0  502 -0.27245534140E+02 -0.18995638740E+03 -0.18904085799E+04  0.19001241960E+04  0.12699999809E+01 0. -1.
</event>
<event>
 5   0  0.9182865E-05  0.2459963E+04  0.7818609E-02  0.8417389E-01
       -2   -1    0    0    0  501  0.00000000000E+00  0.00000000000E+00  0.15769106300E+04  0.15769106300E+04  0.25500000920E-02 0. -1.
        2   -1    0    0  501    0  0.00000000000E+00  0.00000000000E+00 -0.95937846330E+03  0.95937846331E+03  0.25500000920E-02 0.  1.
    10030    2    1    2    0    0  0.00000000000E+00  0.00000000000E+00  0.61753216668E+03  0.25362890933E+04  0.24599626802E+04 0.  0.
        3    1    3    3  502    0  0.51589287757E+03  0.10536127153E+04 -0.72308240800E+02  0.11753610963E+04  0.10100000352E+00 0.  1.
       -3    1    3    3    0  502 -0.51589287757E+03 -0.10536127153E+04  0.68984040748E+03  0.13609279970E+04  0.10100000352E+00 0. -1.
</event>
<event>
 5   0  0.3934906E-05  0.2362977E+04  0.7818609E-02  0.8453496E-01
        1   -1    0    0  501    0  0.00000000000E+00  0.00000000000E+00  0.77258092729E+03  0.77258092731E+03  0.50400001928E-02 0.  1.
       -1   -1    0    0    0  501  0.00000000000E+00  0.00000000000E+00 -0.18068206011E+04  0.18068206011E+04  0.50400001928E-02 0. -1.
    10030    2    1    2    0    0  0.00000000000E+00  0.00000000000E+00 -0.10342396738E+04  0.25794015284E+04  0.23629770506E+04 0.  0.
        2    1    3    3  502    0  0.11684110071E+04  0.42154672521E+02 -0.70286286255E+03  0.13641764921E+04  0.25500000920E-02 0.  1.
       -2    1    3    3    0  502 -0.11684110071E+04 -0.42154672521E+02 -0.33137681124E+03  0.12152250363E+04  0.25500000920E-02 0. -1.
</event>
<event>
 5   0  0.9750757E-05  0.2450469E+04  0.7818609E-02  0.8420847E-01
       -2   -1    0    0    0  501  0.00000000000E+00  0.00000000000E+00  0.11858849567E+04  0.11858849567E+04  0.25500000920E-02 0.  1.
        2   -1    0    0  501    0  0.00000000000E+00  0.00000000000E+00 -0.12658895260E+04  0.12658895260E+04  0.25500000920E-02 0. -1.
    10030    2    1    2    0    0  0.00000000000E+00  0.00000000000E+00 -0.80004569298E+02  0.24517744828E+04  0.24504688089E+04 0.  0.
        2    1    3    3  502    0  0.97278250112E+03  0.49591091347E+03  0.51614091200E+03  0.12077395703E+04  0.25500000920E-02 0.  1.
       -2    1    3    3    0  502 -0.97278250112E+03 -0.49591091347E+03 -0.59614548130E+03  0.12440349125E+04  0.25500000920E-02 0. -1.
</event>
<event>
 5   0  0.4260395E-05  0.2459146E+04  0.7818609E-02  0.8417686E-01
        1   -1    0    0  501    0  0.00000000000E+00  0.00000000000E+00  0.14179350162E+04  0.14179350162E+04  0.50400001928E-02 0. -1.
       -1   -1    0    0    0  501  0.00000000000E+00  0.00000000000E+00 -0.10662338890E+04  0.10662338890E+04  0.50400001928E-02 0.  1.
    10030    2    1    2    0    0  0.00000000000E+00  0.00000000000E+00  0.35170112715E+03  0.24841689052E+04  0.24591464915E+04 0.  0.
        4    1    3    3  502    0 -0.16800124931E+02 -0.80944806439E+03 -0.75896297610E+03  0.11097363764E+04  0.12699999809E+01 0.  1.
       -4    1    3    3    0  502  0.16800124931E+02  0.80944806439E+03  0.11106641032E+04  0.13744325288E+04  0.12699999809E+01 0. -1.
</event>
<event>
 5   0  0.4260395E-05  0.2624972E+04  0.7818609E-02  0.8359768E-01
       -1   -1    0    0    0  501  0.00000000000E+00  0.00000000000E+00  0.76876393554E+03  0.76876393556E+03  0.50400001928E-02 0.  1.
        1   -1    0    0  501    0  0.00000000000E+00  0.00000000000E+00 -0.22407643830E+04  0.22407643830E+04  0.50400001928E-02 0. -1.
    10030    2    1    2    0    0  0.00000000000E+00  0.00000000000E+00 -0.14720004474E+04  0.30095283185E+04  0.26249715013E+04 0.  0.
        4    1    3    3  502    0  0.84982128528E+03  0.38293337555E+03 -0.17953700642E+04  0.20229160801E+04  0.12699999809E+01 0. -1.
       -4    1    3    3    0  502 -0.84982128528E+03 -0.38293337555E+03  0.32336961674E+03  0.98661223840E+03  0.12699999809E+01 0.  1.
</event>
<event>
 5   0  0.9519092E-05  0.2401907E+04  0.7818609E-02  0.8438790E-01
       -2   -1    0    0    0  501  0.00000000000E+00  0.00000000000E+00  0.13046234272E+04  0.13046234272E+04  0.25500000920E-02 0. -1.
        2   -1    0    0  501    0  0.00000000000E+00  0.00000000000E+00 -0.11055219411E+04  0.11055219411E+04  0.25500000920E-02 0.  1.
    10030    2    1    2    0    0  0.00000000000E+00  0.00000000000E+00  0.19910148607E+03  0.24101453684E+04  0.24019074285E+04 0.  0.
        4    1    3    3  502    0 -0.30733463152E+02  0.82828339572E+03 -0.77250434606E+03  0.11330324386E+04  0.12699999809E+01 0.  1.
       -4    1    3    3    0  502  0.30733463152E+02 -0.82828339572E+03  0.97160583213E+03  0.12771129297E+04  0.12699999809E+01 0. -1.
</event>
<event>
 5   0  0.4061631E-05  0.1614165E+04  0.7818609E-02  0.8811893E-01
        1   -1    0    0  501    0  0.00000000000E+00  0.00000000000E+00  0.12035054291E+04  0.12035054291E+04  0.50400001928E-02 0. -1.
       -1   -1    0    0    0  501  0.00000000000E+00  0.00000000000E+00 -0.54123746723E+03  0.54123746725E+03  0.50400001928E-02 0.  1.
    10030    2    1    2    0    0  0.00000000000E+00  0.00000000000E+00  0.66226796189E+03  0.17447428964E+04  0.16141650848E+04 0.  0.
        3    1    3    3  502    0  0.60593790218E+03  0.48287302912E+02 -0.24274878411E+03  0.65453753698E+03  0.10100000352E+00 0.  1.
       -3    1    3    3    0  502 -0.60593790218E+03 -0.48287302912E+02  0.90501674600E+03  0.10902053594E+04  0.10100000352E+00 0. -1.
</event>
<event>
 5   0  0.3934906E-05  0.2369925E+04  0.7818609E-02  0.8450850E-01
        1   -1    0    0  501    0  0.00000000000E+00  0.00000000000E+00  0.13884763873E+04  0.13884763873E+04  0.50400001928E-02 0.  1.
       -1   -1    0    0    0  501  0.00000000000E+00  0.00000000000E+00 -0.10112785746E+04  0.10112785746E+04  0.50400001928E-02 0. -1.
    10030    2    1    2    0    0  0.00000000000E+00  0.00000000000E+00  0.37719781273E+03  0.23997549619E+04  0.23699252493E+04 0.  0.
        2    1    3    3  502    0 -0.22463246111E+03 -0.28202486829E+03  0.13315840770E+04  0.13795339514E+04  0.25500000920E-02 0.  1.
       -2    1    3    3    0  502  0.22463246111E+03  0.28202486829E+03 -0.95438626425E+03  0.10202210105E+04  0.25500000920E-02 0. -1.
</event>
<event>
 5   0  0.9182865E-05  0.2391497E+04  0.7818609E-02  0.8442694E-01
        2   -1    0    0  501    0  0.00000000000E+00  0.00000000000E+00  0.77637306356E+03  0.77637306356E+03  0.25500000920E-02 0.  1.
       -2   -1    0    0    0  501  0.00000000000E+00  0.00000000000E+00 -0.18416589067E+04  0.18416589067E+04  0.25500000920E-02 0. -1.
    10030    2    1    2    0    0  0.00000000000E+00  0.00000000000E+00 -0.10652858431E+04  0.26180319702E+04  0.23914969098E+04 0.  0.
        3    1    3    3  502    0  0.34410987911E+03  0.16766068652E+03  0.70748924903E+03  0.80440211487E+03  0.10100000352E+00 0.  1.
       -3    1    3    3    0  502 -0.34410987911E+03 -0.16766068652E+03 -0.17727750921E+04  0.18136298554E+04  0.10100000352E+00 0. -1.
</event>
<event>
 5   0  0.9182865E-05  0.2315023E+04  0.7818609E-02  0.8472021E-01
       -2   -1    0    0    0  501  0.00000000000E+00  0.00000000000E+00  0.92658258722E+03  0.92658258723E+03  0.25500000920E-02 0. -1.
        2   -1    0    0  501    0  0.00000000000E+00  0.00000000000E+00 -0.14459945590E+04  0.14459945590E+04  0.25500000920E-02 0.  1.
    10030    2    1    2    0    0  0.00000000000E+00  0.00000000000E+00 -0.51941197176E+03  0.23725771462E+04  0.23150234380E+04 0.  0.
        3    1    3    3  502    0 -0.47093210188E+03  0.86916568092E+03  0.35743337766E+03  0.10511825032E+04  0.10100000352E+00 0.  1.
       -3    1    3    3    0  502  0.47093210188E+03 -0.86916568092E+03 -0.87684534942E+03  0.13213946430E+04  0.10100000352E+00 0. -1.
</event>
<event>
 5   0  0.9519092E-05  0.2368933E+04  0.7818609E-02  0.8451227E-01
        2   -1    0    0  501    0  0.00000000000E+00  0.00000000000E+00  0.13014763342E+04  0.13014763342E+04  0.25500000920E-02 0.  1.
       -2   -1    0    0    0  501  0.00000000000E+00  0.00000000000E+00 -0.10779762244E+04  0.10779762244E+04  0.25500000920E-02 0. -1.
    10030    2    1    2    0    0  0.00000000000E+00  0.00000000000E+00  0.22350010978E+03  0.23794525586E+04  0.23689327089E+04 0.  0.
        4    1    3    3  502    0 -0.77076831356E+03 -0.64626722273E+03  0.73999849288E+03  0.12487371616E+04  0.12699999809E+01 0.  1.
       -4    1    3    3    0  502  0.77076831356E+03  0.64626722273E+03 -0.51649838310E+03  0.11307153970E+04  0.12699999809E+01 0. -1.
</event>
<event>
 5   0  0.4208577E-05  0.2416570E+04  0.7818609E-02  0.8433326E-01
       -1   -1    0    0    0  501  0.00000000000E+00  0.00000000000E+00  0.58867453899E+03  0.58867453901E+03  0.50400001928E-02 0. -1.
        1   -1    0    0  501    0  0.00000000000E+00  0.00000000000E+00 -0.24800681477E+04  0.24800681477E+04  0.50400001928E-02 0.  1.
    10030    2    1    2    0    0  0.00000000000E+00  0.00000000000E+00 -0.18913936088E+04  0.30687426868E+04  0.24165702751E+04 0.  0.
        1    1    3    3  502    0  0.18327808970E+03 -0.22854250781E+03  0.54289294851E+03  0.61689163522E+03  0.50400001928E-02 0. -1.
       -1    1    3    3    0  502 -0.18327808970E+03  0.22854250781E+03 -0.24342865573E+04  0.24518510515E+04  0.50400001928E-02 0.  1.
</event>
<event>
 5   0  0.9519092E-05  0.2462033E+04  0.7818609E-02  0.8416638E-01
       -2   -1    0    0    0  501  0.00000000000E+00  0.00000000000E+00  0.10713984687E+04  0.10713984687E+04  0.25500000920E-02 0. -1.
        2   -1    0    0  501    0  0.00000000000E+00  0.00000000000E+00 -0.14144150714E+04  0.14144150714E+04  0.25500000920E-02 0.  1.
    10030    2    1    2    0    0  0.00000000000E+00  0.00000000000E+00 -0.34301660275E+03  0.24858135401E+04  0.24620334211E+04 0.  0.
        4    1    3    3  502    0  0.29307689253E+03  0.21245231436E+03 -0.13594654353E+04  0.14068325890E+04  0.12699999809E+01 0.  1.
       -4    1    3    3    0  502 -0.29307689253E+03 -0.21245231436E+03  0.10164488326E+04  0.10789809511E+04  0.12699999809E+01 0. -1.
</event>
<event>
 5   0  0.4061631E-05  0.2392362E+04  0.7818609E-02  0.8442369E-01
        1   -1    0    0  501    0  0.00000000000E+00  0.00000000000E+00  0.31226172595E+04  0.31226172595E+04  0.50400001928E-02 0. -1.
       -1   -1    0    0    0  501  0.00000000000E+00  0.00000000000E+00 -0.45822102902E+03  0.45822102905E+03  0.50400001928E-02 0.  1.
    10030    2    1    2    0    0  0.00000000000E+00  0.00000000000E+00  0.26643962305E+04  0.35808382885E+04  0.23923619241E+04 0.  0.
        3    1    3    3  502    0 -0.94063109604E+03  0.18959942581E+03  0.24012320305E+04  0.25858557724E+04  0.10100000352E+00 0. -1.
       -3    1    3    3    0  502  0.94063109604E+03 -0.18959942581E+03  0.26316419998E+03  0.99498251616E+03  0.10100000352E+00 0.  1.
</event>
<event>
 5   0  0.9182865E-05  0.2601594E+04  0.7818609E-02  0.8367660E-01
        2   -1    0    0  501    0  0.00000000000E+00  0.00000000000E+00  0.11443085509E+04  0.11443085509E+04  0.25500000920E-02 0.  1.
       -2   -1    0    0    0  501  0.00000000000E+00  0.00000000000E+00 -0.14786853746E+04  0.14786853746E+04  0.25500000920E-02 0. -1.
    10030    2    1    2    0    0  0.00000000000E+00  0.00000000000E+00 -0.33437682369E+03  0.26229939255E+04  0.26015936026E+04 0.  0.
        3    1    3    3  502    0  0.44547545758E+03  0.12221240509E+04 -0.17329870334E+03  0.13122758970E+04  0.10100000352E+00 0. -1.
       -3    1    3    3    0  502 -0.44547545758E+03 -0.12221240509E+04 -0.16107812035E+03  0.13107180285E+04  0.10100000352E+00 0.  1.
</event>
<event>
 5   0  0.9182865E-05  0.2404908E+04  0.7818609E-02  0.8437668E-01
       -2   -1    0    0    0  501  0.00000000000E+00  0.00000000000E+00  0.79755329110E+03  0.79755329110E+03  0.25500000920E-02 0. -1.
        2   -1    0    0  501    0  0.00000000000E+00  0.00000000000E+00 -0.18129146219E+04  0.18129146219E+04  0.25500000920E-02 0.  1.
    10030    2    1    2    0    0  0.00000000000E+00  0.00000000000E+00 -0.10153613308E+04  0.26104679130E+04  0.24049083336E+04 0.  0.
        3    1    3    3  502    0  0.20284334824E+03  0.51043758213E+03 -0.16687858788E+04  0.17568546521E+04  0.10100000352E+00 0.  1.
       -3    1    3    3    0  502 -0.20284334824E+03 -0.51043758213E+03  0.65342454795E+03  0.85361326093E+03  0.10100000352E+00 0. -1.
</event>
<event>
 5   0  0.4208577E-05  0.2463360E+04  0.7818609E-02  0.8416156E-01
        1   -1    0    0  501    0  0.00000000000E+00  0.00000000000E+00  0.19054497075E+04  0.19054497075E+04  0.50400001928E-02 0. -1.
       -1   -1    0    0    0  501  0.00000000000E+00  0.00000000000E+00 -0.79615631994E+03  0.79615631996E+03  0.50400001928E-02 0.  1.
    10030    2    1    2    0    0  0.00000000000E+00  0.00000000000E+00  0.11092933876E+04  0.27016060275E+04  0.24633601661E+04 0.  0.
        1    1    3    3  502    0 -0.79021371417E+03  0.70831364697E+03 -0.13103305254E+03  0.10692593686E+04  0.50400001928E-02 0.  1.
       -1    1    3    3    0  502  0.79021371417E+03 -0.70831364697E+03  0.12403264401E+04  0.16323466588E+04  0.50400001928E-02 0. -1.
</event>
<event>
 5   0  0.4208577E-05  0.2362714E+04  0.7818609E-02  0.8453596E-01
        1   -1    0    0  501    0  0.00000000000E+00  0.00000000000E+00  0.86234246831E+03  0.86234246832E+03  0.50400001928E-02 0. -1.
       -1   -1    0    0    0  501  0.00000000000E+00  0.00000000000E+00 -0.16183882342E+04  0.16183882343E+04  0.50400001928E-02 0.  1.
    10030    2    1    2    0    0  0.00000000000E+00  0.00000000000E+00 -0.75604576594E+03  0.24807307026E+04  0.23627144598E+04 0.  0.
        1    1    3    3  502    0 -0.11222358520E+04  0.35298409302E+03 -0.26496996034E+03  0.12059105097E+04  0.50400001928E-02 0. -1.
       -1    1    3    3    0  502  0.11222358520E+04 -0.35298409302E+03 -0.49107580560E+03  0.12748201929E+04  0.50400001928E-02 0.  1.
</event>
<event>
 5   0  0.9144244E-05  0.2384062E+04  0.7818609E-02  0.8445495E-01
        2   -1    0    0  501    0  0.00000000000E+00  0.00000000000E+00  0.20982019892E+04  0.20982019892E+04  0.25500000920E-02 0.  1.
       -2   -1    0    0    0  501  0.00000000000E+00  0.00000000000E+00 -0.67721664606E+03  0.67721664607E+03  0.25500000920E-02 0. -1.
    10030    2    1    2    0    0  0.00000000000E+00  0.00000000000E+00  0.14209853431E+04  0.27754186352E+04  0.23840615041E+04 0.  0.
        1    1    3    3  502    0  0.31478420905E+03  0.83915259605E+03  0.16254265275E+04  0.18561458924E+04  0.50400001928E-02 0.  1.
       -1    1    3    3    0  502 -0.31478420905E+03 -0.83915259605E+03 -0.20444118440E+03  0.91927274279E+03  0.50400001928E-02 0. -1.
</event>
<event>
 5   0  0.4260395E-05  0.2360877E+04  0.7818609E-02  0.8454297E-01
        1   -1    0    0  501    0  0.00000000000E+00  0.00000000000E+00  0.85889158268E+03  0.85889158270E+03  0.50400001928E-02 0.  1.
       -1   -1    0    0    0  501  0.00000000000E+00  0.00000000000E+00 -0.16223648862E+04  0.16223648862E+04  0.50400001928E-02 0. -1.
    10030    2    1    2    0    0  0.00000000000E+00  0.00000000000E+00 -0.76347330348E+03  0.24812564689E+04  0.23608774172E+04 0.  0.
        4    1    3    3  502    0 -0.20211550573E+03 -0.11279539097E+04 -0.67956410658E+03  0.13322686246E+04  0.12699999809E+01 0. -1.
       -4    1    3    3    0  502  0.20211550573E+03  0.11279539097E+04 -0.83909196900E+02  0.11489878443E+04  0.12699999809E+01 0.  1.
</event>
<event>
 5   0  0.9491680E-05  0.2202569E+04  0.7818609E-02  0.8517360E-01
        2   -1    0    0  501    0  0.00000000000E+00  0.00000000000E+00  0.12010392526E+04  0.12010392526E+04  0.25500000920E-02 0. -1.
       -2   -1    0    0    0  501  0.00000000000E+00  0.00000000000E+00 -0.10098150116E+04  0.10098150116E+04  0.25500000920E-02 0.  1.
    10030    2    1    2    0    0  0.00000000000E+00  0.00000000000E+00  0.19122424100E+03  0.22108542642E+04  0.22025689245E+04 0.  0.
        5    1    3    3  502    0  0.14933669139E+03 -0.33967004118E+03 -0.94517218130E+03  0.10154061880E+04  0.46999998093E+01 0.  1.
       -5    1    3    3    0  502 -0.14933669139E+03  0.33967004118E+03  0.11363964223E+04  0.11954480762E+04  0.46999998093E+01 0. -1.
</event>
<event>
 5   0  0.3934906E-05  0.2285323E+04  0.7818609E-02  0.8483731E-01
       -1   -1    0    0    0  501  0.00000000000E+00  0.00000000000E+00  0.18641876733E+04  0.18641876733E+04  0.50400001928E-02 0. -1.
        1   -1    0    0  501    0  0.00000000000E+00  0.00000000000E+00 -0.70039908214E+03  0.70039908216E+03  0.50400001928E-02 0.  1.
    10030    2    1    2    0    0  0.00000000000E+00  0.00000000000E+00  0.11637885912E+04  0.25645867555E+04  0.22853230278E+04 0.  0.
        2    1    3    3  502    0  0.79291170132E+02  0.10892482170E+04  0.20478445706E+03  0.11111640031E+04  0.25500000920E-02 0. -1.
       -2    1    3    3    0  502 -0.79291170132E+02 -0.10892482170E+04  0.95900413413E+03  0.14534227524E+04  0.25500000920E-02 0.  1.
</event>
<event>
 5   0  0.4018942E-05  0.1771536E+04  0.7818609E-02  0.8721584E-01
        1   -1    0    0  501    0  0.00000000000E+00  0.00000000000E+00  0.45707184784E+03  0.45707184786E+03  0.50400001928E-02 0.  1.
       -1   -1    0    0    0  501  0.00000000000E+00  0.00000000000E+00 -0.17165466720E+04  0.17165466721E+04  0.50400001928E-02 0. -1.
    10030    2    1    2    0    0  0.00000000000E+00  0.00000000000E+00 -0.12594748242E+04  0.21736185199E+04  0.17715362365E+04 0.  0.
        5    1    3    3  502    0  0.10113364480E+03  0.45475567194E+03  0.29459586915E+03  0.55121642881E+03  0.46999998093E+01 0.  1.
       -5    1    3    3    0  502 -0.10113364480E+03 -0.45475567194E+03 -0.15540706934E+04  0.16224020911E+04  0.46999998093E+01 0. -1.
</event>
<event>
 5   0  0.4061631E-05  0.2409351E+04  0.7818609E-02  0.8436011E-01
       -1   -1    0    0    0  501  0.00000000000E+00  0.00000000000E+00  0.89032202035E+03  0.89032202037E+03  0.50400001928E-02 0. -1.
        1   -1    0    0  501    0  0.00000000000E+00  0.00000000000E+00 -0.16300203706E+04  0.16300203706E+04  0.50400001928E-02 0.  1.
    10030    2    1    2    0    0  0.00000000000E+00  0.00000000000E+00 -0.73969835029E+03  0.25203423910E+04  0.24093509745E+04 0.  0.
        3    1    3    3  502    0 -0.90911025658E+03  0.78691238825E+03 -0.29205629182E+03  0.12373396677E+04  0.10100000352E+00 0.  1.
       -3    1    3    3    0  502  0.90911025658E+03 -0.78691238825E+03 -0.44764205847E+03  0.12830027233E+04  0.10100000352E+00 0. -1.
</event>
<event>
 5   0  0.9491680E-05  0.2425284E+04  0.7818609E-02  0.8430098E-01
       -2   -1    0    0    0  501  0.00000000000E+00  0.00000000000E+00  0.10366191569E+04  0.10366191569E+04  0.25500000920E-02 0.  1.
        2   -1    0    0  501    0  0.00000000000E+00  0.00000000000E+00 -0.14185543703E+04  0.14185543703E+04  0.25500000920E-02 0. -1.
    10030    2    1    2    0    0  0.00000000000E+00  0.00000000000E+00 -0.38193521340E+03  0.24551735271E+04  0.24252840124E+04 0.  0.
        5    1    3    3  502    0 -0.26622989120E+03 -0.60955426003E+03 -0.12173882943E+04  0.13872602856E+04  0.46999998093E+01 0. -1.
       -5    1    3    3    0  502  0.26622989120E+03  0.60955426003E+03  0.83545308094E+03  0.10679132415E+04  0.46999998093E+01 0.  1.
</event>
<event>
 5   0  0.3934906E-05  0.2012402E+04  0.7818609E-02  0.8600844E-01
        1   -1    0    0  501    0  0.00000000000E+00  0.00000000000E+00  0.78876564885E+03  0.78876564886E+03  0.50400001928E-02 0.  1.
       -1   -1    0    0    0  501  0.00000000000E+00  0.00000000000E+00 -0.12835751953E+04  0.12835751953E+04  0.50400001928E-02 0. -1.
    10030    2    1    2    0    0  0.00000000000E+00  0.00000000000E+00 -0.49480954647E+03  0.20723408442E+04  0.20124015721E+04 0.  0.
        2    1    3    3  502    0  0.62172544203E+02  0.87553523824E+03  0.25919567088E+03  0.91521023512E+03  0.25500000920E-02 0.  1.
       -2    1    3    3    0  502 -0.62172544203E+02 -0.87553523824E+03 -0.75400521735E+03  0.11571306091E+04  0.25500000920E-02 0. -1.
</event>
<event>
 5   0  0.4061631E-05  0.2376969E+04  0.7818609E-02  0.8448177E-01
        1   -1    0    0  501    0  0.00000000000E+00  0.00000000000E+00  0.22384662294E+04  0.22384662294E+04  0.50400001928E-02 0.  1.
       -1   -1    0    0    0  501  0.00000000000E+00  0.00000000000E+00 -0.63101045061E+03  0.63101045063E+03  0.50400001928E-02 0. -1.
    10030    2    1    2    0    0  0.00000000000E+00  0.00000000000E+00  0.16074557788E+04  0.28694766801E+04  0.23769691493E+04 0.  0.
        3    1    3    3  502    0 -0.41635664039E+03 -0.27301731694E+03 -0.49904389203E+03  0.70493696436E+03  0.10100000352E+00 0. -1.
       -3    1    3    3    0  502  0.41635664039E+03  0.27301731694E+03  0.21064996709E+04  0.21645397157E+04  0.10100000352E+00 0.  1.
</event>
<event>
 5   0  0.9182865E-05  0.2403847E+04  0.7818609E-02  0.8438065E-01
        2   -1    0    0  501    0  0.00000000000E+00  0.00000000000E+00  0.10400475646E+04  0.10400475646E+04  0.25500000920E-02 0. -1.
       -2   -1    0    0    0  501  0.00000000000E+00  0.00000000000E+00 -0.13889938902E+04  0.13889938902E+04  0.25500000920E-02 0.  1.
    10030    2    1    2    0    0  0.00000000000E+00  0.00000000000E+00 -0.34894632555E+03  0.24290414548E+04  0.24038466779E+04 0.  0.
        3    1    3    3  502    0  0.18433573893E+03 -0.26852257662E+02 -0.13743184313E+04  0.13868856728E+04  0.10100000352E+00 0.  1.
       -3    1    3    3    0  502 -0.18433573893E+03  0.26852257662E+02  0.10253721058E+04  0.10421557820E+04  0.10100000352E+00 0. -1.
</event>
<event>
 5   0  0.9491680E-05  0.2257807E+04  0.7818609E-02  0.8494745E-01
       -2   -1    0    0    0  501  0.00000000000E+00  0.00000000000E+00  0.98364976129E+03  0.98364976130E+03  0.25500000920E-02 0.  1.
        2   -1    0    0  501    0  0.00000000000E+00  0.00000000000E+00 -0.12956070165E+04  0.12956070165E+04  0.25500000920E-02 0. -1.
    10030    2    1    2    0    0  0.00000000000E+00  0.00000000000E+00 -0.31195725525E+03  0.22792567778E+04  0.22578073723E+04 0.  0.
        5    1    3    3  502    0 -0.85255910814E+02  0.88486737837E+02  0.97686895401E+03  0.98457783664E+03  0.46999998093E+01 0.  1.
       -5    1    3    3    0  502  0.85255910814E+02 -0.88486737837E+02 -0.12888262093E+04  0.12946789412E+04  0.46999998093E+01 0. -1.
</event>
<event>
 5   0  0.9144244E-05  0.2382494E+04  0.7818609E-02  0.8446087E-01
        2   -1    0    0  501    0  0.00000000000E+00  0.00000000000E+00  0.13811713755E+04  0.13811713755E+04  0.25500000920E-02 0.  1.
       -2   -1    0    0    0  501  0.00000000000E+00  0.00000000000E+00 -0.10274392582E+04  0.10274392582E+04  0.25500000920E-02 0. -1.
    10030    2    1    2    0    0  0.00000000000E+00  0.00000000000E+00  0.35373211731E+03  0.24086106336E+04  0.23824942337E+04 0.  0.
        1    1    3    3  502    0 -0.71225763448E+03  0.46503284953E+03 -0.66624407404E+03  0.10804849167E+04  0.50400001928E-02 0. -1.
       -1    1    3    3    0  502  0.71225763448E+03 -0.46503284953E+03  0.10199761913E+04  0.13281257169E+04  0.50400001928E-02 0.  1.
</event>
<event>
 5   0  0.4260395E-05  0.2410696E+04  0.7818609E-02  0.8435510E-01
       -1   -1    0    0    0  501  0.00000000000E+00  0.00000000000E+00  0.94420537279E+03  0.94420537281E+03  0.50400001928E-02 0.  1.
        1   -1    0    0  501    0  0.00000000000E+00  0.00000000000E+00 -0.15387161580E+04  0.15387161581E+04  0.50400001928E-02 0. -1.
    10030    2    1    2    0    0  0.00000000000E+00  0.00000000000E+00 -0.59451078525E+03  0.24829215309E+04  0.24106962178E+04 0.  0.
        4    1    3    3  502    0 -0.36768411506E+03 -0.32032100823E+03 -0.14325806931E+04  0.15133030800E+04  0.12699999809E+01 0. -1.
       -4    1    3    3    0  502  0.36768411506E+03  0.32032100823E+03  0.83806990789E+03  0.96961845083E+03  0.12699999809E+01 0.  1.
</event>
<event>
 5   0  0.4018942E-05  0.2430034E+04  0.7818609E-02  0.8428344E-01
       -1   -1    0    0    0  501  0.00000000000E+00  0.00000000000E+00  0.10023747717E+04  0.10023747717E+04  0.50400001928E-02 0.  1.
        1   -1    0    0  501    0  0.00000000000E+00  0.00000000000E+00 -0.14727691570E+04  0.14727691570E+04  0.50400001928E-02 0. -1.
    10030    2    1    2    0    0  0.00000000000E+00  0.00000000000E+00 -0.47039438535E+03  0.24751439287E+04  0.24300342775E+04 0.  0.
        5    1    3    3  502    0  0.31947365333E+03  0.17728916676E+03 -0.14154786639E+04  0.14618812543E+04  0.46999998093E+01 0. -1.
       -5    1    3    3    0  502 -0.31947365333E+03 -0.17728916676E+03  0.94508427851E+03  0.10132626744E+04  0.46999998093E+01 0.  1.
</event>
<event>
 5   0  0.4061631E-05  0.2331269E+04  0.7818609E-02  0.8465693E-01
       -1   -1    0    0    0  501  0.00000000000E+00  0.00000000000E+00  0.60055152359E+03  0.60055152361E+03  0.50400001928E-02 0. -1.
        1   -1    0    0  501    0  0.00000000000E+00  0.00000000000E+00 -0.22624264860E+04  0.22624264860E+04  0.50400001928E-02 0.  1.
    10030    2    1    2    0    0  0.00000000000E+00  0.00000000000E+00 -0.16618749624E+04  0.28629780096E+04  0.23312689019E+04 0.  0.
        3    1    3    3  502    0 -0.11358547406E+04  0.25588780781E+03 -0.89886137081E+03  0.14709168352E+04  0.10100000352E+00 0. -1.
       -3    1    3    3    0  502  0.11358547406E+04 -0.25588780781E+03 -0.76301359159E+03  0.13920611744E+04  0.10100000352E+00 0.  1.
</event>
<event>
 5   0  0.9750757E-05  0.2193937E+04  0.7818609E-02  0.8520956E-01
       -2   -1    0    0    0  501  0.00000000000E+00  0.00000000000E+00  0.59715359424E+03  0.59715359424E+03  0.25500000920E-02 0. -1.
        2   -1    0    0  501    0  0.00000000000E+00  0.00000000000E+00 -0.20151268541E+04  0.20151268541E+04  0.25500000920E-02 0.  1.
    10030    2    1    2    0    0  0.00000000000E+00  0.00000000000E+00 -0.14179732599E+04  0.26122804484E+04  0.21939373225E+04 0.  0.
        2    1    3    3  502    0  0.90603287248E+03 -0.42054497481E+03 -0.12488613450E+04  0.15991898889E+04  0.25500000920E-02 0.  1.
       -2    1    3    3    0  502 -0.90603287248E+03  0.42054497481E+03 -0.16911191491E+03  0.10130905594E+04  0.25500000920E-02 0. -1.
</event>
<event>
 5   0  0.4061631E-05  0.1479249E+04  0.7818609E-02  0.8898371E-01
        1   -1    0    0  501    0  0.00000000000E+00  0.00000000000E+00  0.53550975284E+03  0.53550975287E+03  0.50400001928E-02 0. -1.
       -1   -1    0    0    0  501  0.00000000000E+00  0.00000000000E+00 -0.10215390084E+04  0.10215390084E+04  0.50400001928E-02 0.  1.
    10030    2    1    2    0    0  0.00000000000E+00  0.00000000000E+00 -0.48602925552E+03  0.15570487612E+04  0.14792485956E+04 0.  0.
        3    1    3    3  502    0 -0.17587251998E+03  0.20126708147E+03 -0.96892671840E+03  0.10051162008E+04  0.10100000352E+00 0.  1.
       -3    1    3    3    0  502  0.17587251998E+03 -0.20126708147E+03  0.48289746288E+03  0.55193256040E+03  0.10100000352E+00 0. -1.
</event>
<event>
 5   0  0.3934906E-05  0.2400293E+04  0.7818609E-02  0.8439394E-01
        1   -1    0    0  501    0  0.00000000000E+00  0.00000000000E+00  0.24704270306E+04  0.24704270306E+04  0.50400001928E-02 0. -1.
       -1   -1    0    0    0  501  0.00000000000E+00  0.00000000000E+00 -0.58303729499E+03  0.58303729501E+03  0.50400001928E-02 0.  1.
    10030    2    1    2    0    0  0.00000000000E+00  0.00000000000E+00  0.18873897356E+04  0.30534643256E+04  0.24002925600E+04 0.  0.
        2    1    3    3  502    0 -0.41504665768E+03 -0.33887623349E+03  0.23098199110E+04  0.23711534853E+04  0.25500000920E-02 0. -1.
       -2    1    3    3    0  502  0.41504665768E+03  0.33887623349E+03 -0.42243017540E+03  0.68231084028E+03  0.25500000920E-02 0.  1.
</event>
<event>
 5   0  0.4260395E-05  0.2360864E+04  0.7818609E-02  0.8454303E-01
       -1   -1    0    0    0  501  0.00000000000E+00  0.00000000000E+00  0.74719998060E+03  0.74719998062E+03  0.50400001928E-02 0.  1.
        1   -1    0    0  501    0  0.00000000000E+00  0.00000000000E+00 -0.18648550714E+04  0.18648550714E+04  0.50400001928E-02 0. -1.
    10030    2    1    2    0    0  0.00000000000E+00  0.00000000000E+00 -0.11176550908E+04  0.26120550520E+04  0.23608639717E+04 0.  0.
        4    1    3    3  502    0 -0.16751038736E+03 -0.96027994591E+03  0.17775497135E+03  0.99085606782E+03  0.12699999809E+01 0.  1.
       -4    1    3    3    0  502  0.16751038736E+03  0.96027994591E+03 -0.12954100622E+04  0.16211989842E+04  0.12699999809E+01 0. -1.
</event>
<event>
 5   0  0.9182865E-05  0.2414162E+04  0.7818609E-02  0.8434221E-01
       -2   -1    0    0    0  501  0.00000000000E+00  0.00000000000E+00  0.15399075544E+04  0.15399075544E+04  0.25500000920E-02 0. -1.
        2   -1    0    0  501    0  0.00000000000E+00  0.00000000000E+00 -0.94618924086E+03  0.94618924087E+03  0.25500000920E-02 0.  1.
    10030    2    1    2    0    0  0.00000000000E+00  0.00000000000E+00  0.59371831355E+03  0.24860967953E+04  0.24141615190E+04 0.  0.
        3    1    3    3  502    0  0.79625259582E+03 -0.77293934409E+03  0.78597545763E+03  0.13598569249E+04  0.10100000352E+00 0.  1.
       -3    1    3    3    0  502 -0.79625259582E+03  0.77293934409E+03 -0.19225714408E+03  0.11262398704E+04  0.10100000352E+00 0. -1.
</event>
<event>
 5   0  0.9182865E-05  0.2483894E+04  0.7818609E-02  0.8408746E-01
        2   -1    0    0  501    0  0.00000000000E+00  0.00000000000E+00  0.16034379317E+04  0.16034379317E+04  0.25500000920E-02 0.  1.
       -2   -1    0    0    0  501  0.00000000000E+00  0.00000000000E+00 -0.96195292441E+03  0.96195292442E+03  0.25500000920E-02 0. -1.
    10030    2    1    2    0    0  0.00000000000E+00  0.00000000000E+00  0.64148500724E+03  0.25653908561E+04  0.24838935625E+04 0.  0.
        3    1    3    3  502    0 -0.68045543067E+02  0.55678700525E+03  0.14651549613E+04  0.15688597885E+04  0.10100000352E+00 0.  1.
       -3    1    3    3    0  502  0.68045543067E+02 -0.55678700525E+03 -0.82366995408E+03  0.99653106756E+03  0.10100000352E+00 0. -1.
</event>
<event>
 5   0  0.3934906E-05  0.2374646E+04  0.7818609E-02  0.8449057E-01
       -1   -1    0    0    0  501  0.00000000000E+00  0.00000000000E+00  0.90511197986E+03  0.90511197987E+03  0.50400001928E-02 0. -1.
        1   -1    0    0  501    0  0.00000000000E+00  0.00000000000E+00 -0.15575263667E+04  0.15575263667E+04  0.50400001928E-02 0.  1.
    10030    2    1    2    0    0  0.00000000000E+00  0.00000000000E+00 -0.65241438686E+03  0.24626383466E+04  0.23746458881E+04 0.  0.
        2    1    3    3  502    0 -0.78083162040E+03  0.78827759988E+03  0.11213250367E+03  0.11151920428E+04  0.25500000920E-02 0. -1.
       -2    1    3    3    0  502  0.78083162040E+03 -0.78827759988E+03 -0.76454689053E+03  0.13474463038E+04  0.25500000920E-02 0.  1.
</event>
<event>
 5   0  0.4018942E-05  0.2390314E+04  0.7818609E-02  0.8443139E-01
       -1   -1    0    0    0  501  0.00000000000E+00  0.00000000000E+00  0.12137248496E+04  0.12137248496E+04  0.50400001928E-02 0. -1.
        1   -1    0    0  501    0  0.00000000000E+00  0.00000000000E+00 -0.11768733577E+04  0.11768733577E+04  0.50400001928E-02 0.  1.
    10030    2    1    2    0    0  0.00000000000E+00  0.00000000000E+00  0.36851491886E+02  0.23905982073E+04  0.23903141544E+04 0.  0.
        5    1    3    3  502    0  0.65880821867E+03  0.98119703244E+03  0.19621768919E+03  0.11980397978E+04  0.46999998093E+01 0.  1.
       -5    1    3    3    0  502 -0.65880821867E+03 -0.98119703244E+03 -0.15936619730E+03  0.11925584096E+04  0.46999998093E+01 0. -1.
</event>
<event>
 5   0  0.9491680E-05  0.1871330E+04  0.7818609E-02  0.8669260E-01
       -2   -1    0    0    0  501  0.00000000000E+00  0.00000000000E+00  0.75312172864E+03  0.75312172864E+03  0.25500000920E-02 0.  1.
        2   -1    0    0  501    0  0.00000000000E+00  0.00000000000E+00 -0.11624539026E+04  0.11624539026E+04  0.25500000920E-02 0. -1.
    10030    2    1    2    0    0  0.00000000000E+00  0.00000000000E+00 -0.40933217400E+03  0.19155756313E+04  0.18713303211E+04 0.  0.
        5    1    3    3  502    0  0.81748641598E+03  0.40507540052E+03 -0.41712354876E+03  0.10031870540E+04  0.46999998093E+01 0. -1.
       -5    1    3    3    0  502 -0.81748641598E+03 -0.40507540052E+03  0.77913747557E+01  0.91238857727E+03  0.46999998093E+01 0.  1.
</event>
<event>
 5   0  0.9144244E-05  0.2530409E+04  0.7818609E-02  0.8392232E-01
       -2   -1    0    0    0  501  0.00000000000E+00  0.00000000000E+00  0.97486635288E+03  0.97486635288E+03  0.25500000920E-02 0. -1.
        2   -1    0    0  501    0  0.00000000000E+00  0.00000000000E+00 -0.16420121764E+04  0.16420121764E+04  0.25500000920E-02 0.  1.
    10030    2    1    2    0    0  0.00000000000E+00  0.00000000000E+00 -0.66714582354E+03  0.26168785293E+04  0.25304089960E+04 0.  0.
        1    1    3    3  502    0 -0.10077089725E+04  0.28195478418E+03 -0.10690478725E+04  0.14959409171E+04  0.50400001928E-02 0.  1.
       -1    1    3    3    0  502  0.10077089725E+04 -0.28195478418E+03  0.40190204898E+03  0.11209376122E+04  0.50400001928E-02 0. -1.
</event>
<event>
 5   0  0.3234750E-05  0.2459601E+04  0.7818609E-02  0.8417521E-01
       -3   -1    0    0    0  501  0.00000000000E+00  0.00000000000E+00  0.18809151909E+04  0.18809151936E+04  0.10100000352E+00 0.  1.
        3   -1    0    0  501    0  0.00000000000E+00  0.00000000000E+00 -0.80408162809E+03  0.80408163443E+03  0.10100000352E+00 0. -1.
    10030    2    1    2    0    0  0.00000000000E+00  0.00000000000E+00  0.10768335628E+04  0.26849968280E+04  0.24596010743E+04 0.  0.
        4    1    3    3  502    0  0.12738832752E+03 -0.68320804406E+03 -0.56915684231E+03  0.89829958338E+03  0.12699999809E+01 0. -1.
       -4    1    3    3    0  502 -0.12738832752E+03  0.68320804406E+03  0.16459904051E+04  0.17866972447E+04  0.12699999809E+01 0.  1.
</event>
<event>
 5   0  0.4260395E-05  0.2414515E+04  0.7818609E-02  0.8434089E-01
       -1   -1    0    0    0  501  0.00000000000E+00  0.00000000000E+00  0.13517259077E+04  0.13517259077E+04  0.50400001928E-02 0. -1.
        1   -1    0    0  501    0  0.00000000000E+00  0.00000000000E+00 -0.10782295959E+04  0.10782295959E+04  0.50400001928E-02 0.  1.
    10030    2    1    2    0    0  0.00000000000E+00  0.00000000000E+00  0.27349631180E+03  0.24299555037E+04  0.24145151723E+04 0.  0.
        4    1    3    3  502    0 -0.97442395233E+03 -0.63883276728E+03  0.45477515824E+03  0.12507723218E+04  0.12699999809E+01 0. -1.
       -4    1    3    3    0  502  0.97442395233E+03  0.63883276728E+03 -0.18127884644E+03  0.11791831819E+04  0.12699999809E+01 0.  1.
</event>
<event>
 5   0  0.9519092E-05  0.2420976E+04  0.7818609E-02  0.8431692E-01
        2   -1    0    0  501    0  0.00000000000E+00  0.00000000000E+00  0.19581030775E+04  0.19581030775E+04  0.25500000920E-02 0.  1.
       -2   -1    0    0    0  501  0.00000000000E+00  0.00000000000E+00 -0.74831671215E+03  0.74831671216E+03  0.25500000920E-02 0. -1.
    10030    2    1    2    0    0  0.00000000000E+00  0.00000000000E+00  0.12097863654E+04  0.27064197897E+04  0.24209760487E+04 0.  0.
        4    1    3    3  502    0 -0.43804629844E+03  0.54798051280E+03  0.17076663245E+04  0.18461563018E+04  0.12699999809E+01 0.  1.
       -4    1    3    3    0  502  0.43804629844E+03 -0.54798051280E+03 -0.49787995912E+03  0.86026348788E+03  0.12699999809E+01 0. -1.
</event>
<event>
 5   0  0.9182865E-05  0.2622078E+04  0.7818609E-02  0.8360740E-01
        2   -1    0    0  501    0  0.00000000000E+00  0.00000000000E+00  0.26653448074E+04  0.26653448074E+04  0.25500000920E-02 0. -1.
       -2   -1    0    0    0  501  0.00000000000E+00  0.00000000000E+00 -0.64487823054E+03  0.64487823054E+03  0.25500000920E-02 0.  1.
    10030    2    1    2    0    0  0.00000000000E+00  0.00000000000E+00  0.20204665769E+04  0.33102230380E+04  0.26220776824E+04 0.  0.
        3    1    3    3  502    0 -0.10787872417E+04  0.29699697954E+03  0.18728002295E+04  0.21815979988E+04  0.10100000352E+00 0. -1.
       -3    1    3    3    0  502  0.10787872417E+04 -0.29699697954E+03  0.14766634741E+03  0.11286250392E+04  0.10100000352E+00 0.  1.
</event>
<event>
 5   0  0.9491680E-05  0.2390987E+04  0.7818609E-02  0.8442885E-01
        2   -1    0    0  501    0  0.00000000000E+00  0.00000000000E+00  0.14571182563E+04  0.14571182563E+04  0.25500000920E-02 0.  1.
       -2   -1    0    0    0  501  0.00000000000E+00  0.00000000000E+00 -0.98084364224E+03  0.98084364224E+03  0.25500000920E-02 0. -1.
    10030    2    1    2    0    0  0.00000000000E+00  0.00000000000E+00  0.47627461408E+03  0.24379618986E+04  0.23909873924E+04 0.  0.
        5    1    3    3  502    0 -0.21683734903E+02  0.71552955052E+03 -0.73813379999E+03  0.10282588773E+04  0.46999998093E+01 0. -1.
       -5    1    3    3    0  502  0.21683734903E+02 -0.71552955052E+03  0.12144084141E+04  0.14097030213E+04  0.46999998093E+01 0.  1.
</event>
<event>
 5   0  0.9491680E-05  0.2381379E+04  0.7818609E-02  0.8446508E-01
       -2   -1    0    0    0  501  0.00000000000E+00  0.00000000000E+00  0.15808822481E+04  0.15808822481E+04  0.25500000920E-02 0. -1.
        2   -1    0    0  501    0  0.00000000000E+00  0.00000000000E+00 -0.89680381556E+03  0.89680381556E+03  0.25500000920E-02 0.  1.
    10030    2    1    2    0    0  0.00000000000E+00  0.00000000000E+00  0.68407843255E+03  0.24776860637E+04  0.23813787872E+04 0.  0.
        5    1    3    3  502    0  0.23761805181E+03  0.52086859066E+02  0.15547426682E+04  0.15736652229E+04  0.46999998093E+01 0. -1.
       -5    1    3    3    0  502 -0.23761805181E+03 -0.52086859066E+02 -0.87066423562E+03  0.90402084081E+03  0.46999998093E+01 0.  1.
</event>
<event>
 5   0  0.9491680E-05  0.2416443E+04  0.7818609E-02  0.8433373E-01
       -2   -1    0    0    0  501  0.00000000000E+00  0.00000000000E+00  0.20263429405E+04  0.20263429405E+04  0.25500000920E-02 0. -1.
        2   -1    0    0  501    0  0.00000000000E+00  0.00000000000E+00 -0.72041079136E+03  0.72041079136E+03  0.25500000920E-02 0.  1.
    10030    2    1    2    0    0  0.00000000000E+00  0.00000000000E+00  0.13059321492E+04  0.27467537319E+04  0.24164431062E+04 0.  0.
        5    1    3    3  502    0 -0.77066483344E+02  0.75705245585E+03  0.17197083484E+04  0.18805548536E+04  0.46999998093E+01 0. -1.
       -5    1    3    3    0  502  0.77066483344E+02 -0.75705245585E+03 -0.41377619922E+03  0.86619887832E+03  0.46999998093E+01 0.  1.
</event>
<event>
 5   0  0.4018942E-05  0.1953407E+04  0.7818609E-02  0.8628720E-01
       -1   -1    0    0    0  501  0.00000000000E+00  0.00000000000E+00  0.52642114902E+03  0.52642114904E+03  0.50400001928E-02 0. -1.
        1   -1    0    0  501    0  0.00000000000E+00  0.00000000000E+00 -0.18121419422E+04  0.18121419422E+04  0.50400001928E-02 0.  1.
    10030    2    1    2    0    0  0.00000000000E+00  0.00000000000E+00 -0.12857207932E+04  0.23385630913E+04  0.19534071193E+04 0.  0.
        5    1    3    3  502    0  0.96462413919E+03 -0.61849900268E+02 -0.81047556278E+03  0.12614348449E+04  0.46999998093E+01 0. -1.
       -5    1    3    3    0  502 -0.96462413919E+03  0.61849900268E+02 -0.47524523041E+03  0.10771282464E+04  0.46999998093E+01 0.  1.
</event>
<event>
 5   0  0.9144244E-05  0.2419979E+04  0.7818609E-02  0.8432061E-01
        2   -1    0    0  501    0  0.00000000000E+00  0.00000000000E+00  0.15888826306E+04  0.15888826306E+04  0.25500000920E-02 0. -1.
       -2   -1    0    0    0  501  0.00000000000E+00  0.00000000000E+00 -0.92144952833E+03  0.92144952834E+03  0.25500000920E-02 0.  1.
    10030    2    1    2    0    0  0.00000000000E+00  0.00000000000E+00  0.66743310227E+03  0.25103321589E+04  0.24199794632E+04 0.  0.
        1    1    3    3  502    0 -0.10328253373E+04  0.43661023390E+03 -0.13792184881E+03  0.11297694943E+04  0.50400001928E-02 0.  1.
       -1    1    3    3    0  502  0.10328253373E+04 -0.43661023390E+03  0.80535495108E+03  0.13805626647E+04  0.50400001928E-02 0. -1.
</event>
<event>
 5   0  0.3934906E-05  0.2554810E+04  0.7818609E-02  0.8383715E-01
        1   -1    0    0  501    0  0.00000000000E+00  0.00000000000E+00  0.98183101164E+03  0.98183101165E+03  0.50400001928E-02 0. -1.
       -1   -1    0    0    0  501  0.00000000000E+00  0.00000000000E+00 -0.16619600076E+04  0.16619600076E+04  0.50400001928E-02 0.  1.
    10030    2    1    2    0    0  0.00000000000E+00  0.00000000000E+00 -0.68012899592E+03  0.26437910192E+04  0.25548102674E+04 0.  0.
        2    1    3    3  502    0  0.11443940564E+04  0.55980281312E+03 -0.24328212017E+03  0.12969977393E+04  0.25500000920E-02 0. -1.
       -2    1    3    3    0  502 -0.11443940564E+04 -0.55980281312E+03 -0.43684687575E+03  0.13467932799E+04  0.25500000920E-02 0.  1.
</event>
<event>
 5   0  0.3934906E-05  0.2451961E+04  0.7818609E-02  0.8420302E-01
       -1   -1    0    0    0  501  0.00000000000E+00  0.00000000000E+00  0.78077107055E+03  0.78077107057E+03  0.50400001928E-02 0.  1.
        1   -1    0    0  501    0  0.00000000000E+00  0.00000000000E+00 -0.19250564614E+04  0.19250564614E+04  0.50400001928E-02 0. -1.
    10030    2    1    2    0    0  0.00000000000E+00  0.00000000000E+00 -0.11442853908E+04  0.27058275319E+04  0.24519611695E+04 0.  0.
        2    1    3    3  502    0  0.99197756991E+03 -0.22267465994E+03 -0.13282258814E+04  0.16726588102E+04  0.25500000920E-02 0. -1.
       -2    1    3    3    0  502 -0.99197756991E+03  0.22267465994E+03  0.18394049061E+03  0.10331687217E+04  0.25500000920E-02 0.  1.
</event>
<event>
 5   0  0.4061631E-05  0.2216426E+04  0.7818609E-02  0.8511622E-01
        1   -1    0    0  501    0  0.00000000000E+00  0.00000000000E+00  0.11620562818E+04  0.11620562818E+04  0.50400001928E-02 0.  1.
       -1   -1    0    0    0  501  0.00000000000E+00  0.00000000000E+00 -0.10568644999E+04  0.10568644999E+04  0.50400001928E-02 0. -1.
    10030    2    1    2    0    0  0.00000000000E+00  0.00000000000E+00  0.10519178191E+03  0.22189207817E+04  0.22164259800E+04 0.  0.
        3    1    3    3  502    0  0.28841223569E+03  0.31127672905E+03 -0.97230503964E+03  0.10608731875E+04  0.10100000352E+00 0. -1.
       -3    1    3    3    0  502 -0.28841223569E+03 -0.31127672905E+03  0.10774968215E+04  0.11580475942E+04  0.10100000352E+00 0.  1.
</event>
<event>
 5   0  0.9144244E-05  0.2372585E+04  0.7818609E-02  0.8449839E-01
        2   -1    0    0  501    0  0.00000000000E+00  0.00000000000E+00  0.11887040334E+04  0.11887040334E+04  0.25500000920E-02 0. -1.
       -2   -1    0    0    0  501  0.00000000000E+00  0.00000000000E+00 -0.11838861926E+04  0.11838861926E+04  0.25500000920E-02 0.  1.
    10030    2    1    2    0    0  0.00000000000E+00  0.00000000000E+00  0.48178408072E+01  0.23725902259E+04  0.23725853343E+04 0.  0.
        1    1    3    3  502    0  0.91297113181E+03  0.27243257584E+03  0.70920206987E+03  0.11877303447E+04  0.50400001928E-02 0. -1.
       -1    1    3    3    0  502 -0.91297113181E+03 -0.27243257584E+03 -0.70438422906E+03  0.11848598812E+04  0.50400001928E-02 0.  1.
</event>
<event>
 5   0  0.4260395E-05  0.2586152E+04  0.7818609E-02  0.8372920E-01
        1   -1    0    0  501    0  0.00000000000E+00  0.00000000000E+00  0.84851731584E+03  0.84851731585E+03  0.50400001928E-02 0. -1.
       -1   -1    0    0    0  501  0.00000000000E+00  0.00000000000E+00 -0.19705498655E+04  0.19705498655E+04  0.50400001928E-02 0.  1.
    10030    2    1    2    0    0  0.00000000000E+00  0.00000000000E+00 -0.11220325497E+04  0.28190671814E+04  0.25861521089E+04 0.  0.
        4    1    3    3  502    0 -0.46073573108E+03 -0.10328151243E+04  0.12239249980E+03  0.11375262774E+04  0.12699999809E+01 0.  1.
       -4    1    3    3    0  502  0.46073573108E+03  0.10328151243E+04 -0.12444250495E+04  0.16815409039E+04  0.12699999809E+01 0. -1.
</event>
<event>
 5   0  0.4260395E-05  0.2274587E+04  0.7818609E-02  0.8488009E-01
       -1   -1    0    0    0  501  0.00000000000E+00  0.00000000000E+00  0.10608921580E+04  0.10608921581E+04  0.50400001928E-02 0. -1.
        1   -1    0    0  501    0  0.00000000000E+00  0.00000000000E+00 -0.12191966280E+04  0.12191966280E+04  0.50400001928E-02 0.  1.
    10030    2    1    2    0    0  0.00000000000E+00  0.00000000000E+00 -0.15830446995E+03  0.22800887861E+04  0.22745866805E+04 0.  0.
        4    1    3    3  502    0  0.31356819484E+03  0.71673495457E+03 -0.90661888209E+03  0.11974946422E+04  0.12699999809E+01 0.  1.
       -4    1    3    3    0  502 -0.31356819484E+03 -0.71673495457E+03  0.74831441215E+03  0.10825941438E+04  0.12699999809E+01 0. -1.
</event>
<event>
 5   0  0.4018942E-05  0.2426913E+04  0.7818609E-02  0.8429496E-01
        1   -1    0    0  501    0  0.00000000000E+00  0.00000000000E+00  0.95642192029E+03  0.95642192031E+03  0.50400001928E-02 0. -1.
       -1   -1    0    0    0  501  0.00000000000E+00  0.00000000000E+00 -0.15395675762E+04  0.15395675762E+04  0.50400001928E-02 0.  1.
    10030    2    1    2    0    0  0.00000000000E+00  0.00000000000E+00 -0.58314565590E+03  0.24959894965E+04  0.24269125882E+04 0.  0.
        5    1    3    3  502    0  0.10795558416E+04  0.50330679029E+03 -0.53254328347E+02  0.11923156687E+04  0.46999998093E+01 0. -1.
       -5    1    3    3    0  502 -0.10795558416E+04 -0.50330679029E+03 -0.52989132756E+03  0.13036738278E+04  0.46999998093E+01 0.  1.
</event>
<event>
 5   0  0.9750757E-05  0.2487729E+04  0.7818609E-02  0.8407370E-01
       -2   -1    0    0    0  501  0.00000000000E+00  0.00000000000E+00  0.12291557573E+04  0.12291557573E+04  0.25500000920E-02 0. -1.
        2   -1    0    0  501    0  0.00000000000E+00  0.00000000000E+00 -0.12587491640E+04  0.12587491640E+04  0.25500000920E-02 0.  1.
    10030    2    1    2    0    0  0.00000000000E+00  0.00000000000E+00 -0.29593406734E+02  0.24879049213E+04  0.24877289096E+04 0.  0.
        2    1    3    3  502    0 -0.40913719104E+03  0.61377654379E+03  0.98681491818E+03  0.12320383799E+04  0.25500000920E-02 0. -1.
       -2    1    3    3    0  502  0.40913719104E+03 -0.61377654379E+03 -0.10164083249E+04  0.12558665414E+04  0.25500000920E-02 0.  1.
</event>
<event>
 5   0  0.9519092E-05  0.1650883E+04  0.7818609E-02  0.8789884E-01
        2   -1    0    0  501    0  0.00000000000E+00  0.00000000000E+00  0.15477175990E+04  0.15477175990E+04  0.25500000920E-02 0. -1.
       -2   -1    0    0    0  501  0.00000000000E+00  0.00000000000E+00 -0.44023141869E+03  0.44023141870E+03  0.25500000920E-02 0.  1.
    10030    2    1    2    0    0  0.00000000000E+00  0.00000000000E+00  0.11074861803E+04  0.19879490177E+04  0.16508832961E+04 0.  0.
        4    1    3    3  502    0  0.59271231816E+03  0.45071191636E+03  0.98271130918E+03  0.12329526567E+04  0.12699999809E+01 0. -1.
       -4    1    3    3    0  502 -0.59271231816E+03 -0.45071191636E+03  0.12477487109E+03  0.75499636092E+03  0.12699999809E+01 0.  1.
</event>
<event>
 5   0  0.9491680E-05  0.2461407E+04  0.7818609E-02  0.8416865E-01
       -2   -1    0    0    0  501  0.00000000000E+00  0.00000000000E+00  0.77307326213E+03  0.77307326214E+03  0.25500000920E-02 0. -1.
        2   -1    0    0  501    0  0.00000000000E+00  0.00000000000E+00 -0.19592335227E+04  0.19592335227E+04  0.25500000920E-02 0.  1.
    10030    2    1    2    0    0  0.00000000000E+00  0.00000000000E+00 -0.11861602606E+04  0.27323067849E+04  0.24614069560E+04 0.  0.
        5    1    3    3  502    0  0.59211368606E+03 -0.63535413331E+03  0.37486037058E+03  0.94594708064E+03  0.46999998093E+01 0. -1.
       -5    1    3    3    0  502 -0.59211368606E+03  0.63535413331E+03 -0.15610206312E+04  0.17863597042E+04  0.46999998093E+01 0.  1.
</event>
<event>
 5   0  0.9182865E-05  0.2340529E+04  0.7818609E-02  0.8462110E-01
       -2   -1    0    0    0  501  0.00000000000E+00  0.00000000000E+00  0.12825745449E+04  0.12825745449E+04  0.25500000920E-02 0.  1.
        2   -1    0    0  501    0  0.00000000000E+00  0.00000000000E+00 -0.10677891545E+04  0.10677891545E+04  0.25500000920E-02 0. -1.
    10030    2    1    2    0    0  0.00000000000E+00  0.00000000000E+00  0.21478539038E+03  0.23503636993E+04  0.23405291614E+04 0.  0.
        3    1    3    3  502    0  0.59619104789E+03  0.90490860724E+03  0.55108155579E+03  0.12157278661E+04  0.10100000352E+00 0.  1.
       -3    1    3    3    0  502 -0.59619104789E+03 -0.90490860724E+03 -0.33629616541E+03  0.11346358333E+04  0.10100000352E+00 0. -1.
</event>
<event>
 5   0  0.9491680E-05  0.2387609E+04  0.7818609E-02  0.8444157E-01
       -2   -1    0    0    0  501  0.00000000000E+00  0.00000000000E+00  0.80657397202E+03  0.80657397202E+03  0.25500000920E-02 0. -1.
        2   -1    0    0  501    0  0.00000000000E+00  0.00000000000E+00 -0.17669416012E+04  0.17669416012E+04  0.25500000920E-02 0.  1.
    10030    2    1    2    0    0  0.00000000000E+00  0.00000000000E+00 -0.96036762920E+03  0.25735155732E+04  0.23876089342E+04 0.  0.
        5    1    3    3  502    0 -0.38135603333E+03  0.10549361182E+04 -0.39939899088E+02  0.11224704554E+04  0.46999998093E+01 0.  1.
       -5    1    3    3    0  502  0.38135603333E+03 -0.10549361182E+04 -0.92042773012E+03  0.14510451179E+04  0.46999998093E+01 0. -1.
</event>
<event>
 5   0  0.9750757E-05  0.2173470E+04  0.7818609E-02  0.8529552E-01
        2   -1    0    0  501    0  0.00000000000E+00  0.00000000000E+00  0.97994171184E+03  0.97994171184E+03  0.25500000920E-02 0.  1.
       -2   -1    0    0    0  501  0.00000000000E+00  0.00000000000E+00 -0.12051666580E+04  0.12051666580E+04  0.25500000920E-02 0. -1.
    10030    2    1    2    0    0  0.00000000000E+00  0.00000000000E+00 -0.22522494612E+03  0.21851083698E+04  0.21734701083E+04 0.  0.
        2    1    3    3  502    0  0.69574603111E+03 -0.77533478682E+03 -0.42376366978E+03  0.11246253684E+04  0.25500000920E-02 0.  1.
       -2    1    3    3    0  502 -0.69574603111E+03  0.77533478682E+03  0.19853872365E+03  0.10604830014E+04  0.25500000920E-02 0. -1.
</event>
<event>
 5   0  0.4208577E-05  0.2371683E+04  0.7818609E-02  0.8450182E-01
       -1   -1    0    0    0  501  0.00000000000E+00  0.00000000000E+00  0.55230017040E+03  0.55230017042E+03  0.50400001928E-02 0. -1.
        1   -1    0    0  501    0  0.00000000000E+00  0.00000000000E+00 -0.25461165931E+04  0.25461165931E+04  0.50400001928E-02 0.  1.
    10030    2    1    2    0    0  0.00000000000E+00  0.00000000000E+00 -0.19938164227E+04  0.30984167635E+04  0.23716834766E+04 0.  0.
        1    1    3    3  502    0 -0.20956186035E+03 -0.57966366873E+03  0.32657703272E+03  0.69755193390E+03  0.50400001928E-02 0. -1.
       -1    1    3    3    0  502  0.20956186035E+03  0.57966366873E+03 -0.23203934554E+04  0.24008648296E+04  0.50400001928E-02 0.  1.
</event>
<event>
 5   0  0.4260395E-05  0.2409076E+04  0.7818609E-02  0.8436113E-01
        1   -1    0    0  501    0  0.00000000000E+00  0.00000000000E+00  0.10416837054E+04  0.10416837054E+04  0.50400001928E-02 0.  1.
       -1   -1    0    0    0  501  0.00000000000E+00  0.00000000000E+00 -0.13928525532E+04  0.13928525532E+04  0.50400001928E-02 0. -1.
    10030    2    1    2    0    0  0.00000000000E+00  0.00000000000E+00 -0.35116884782E+03  0.24345362587E+04  0.24090760127E+04 0.  0.
        4    1    3    3  502    0 -0.82465236537E+03  0.67870005379E+03  0.38728035899E+03  0.11360778917E+04  0.12699999809E+01 0.  1.
       -4    1    3    3    0  502  0.82465236537E+03 -0.67870005379E+03 -0.73844920681E+03  0.12984583669E+04  0.12699999809E+01 0. -1.
</event>
<event>
 5   0  0.9144244E-05  0.1697842E+04  0.7818609E-02  0.8762596E-01
        2   -1    0    0  501    0  0.00000000000E+00  0.00000000000E+00  0.19315463991E+04  0.19315463991E+04  0.25500000920E-02 0. -1.
       -2   -1    0    0    0  501  0.00000000000E+00  0.00000000000E+00 -0.37310343767E+03  0.37310343768E+03  0.25500000920E-02 0.  1.
    10030    2    1    2    0    0  0.00000000000E+00  0.00000000000E+00  0.15584429614E+04  0.23046498368E+04  0.16978416906E+04 0.  0.
        1    1    3    3  502    0 -0.30377526715E+03 -0.69013035130E+02 -0.29271561741E+03  0.42746303308E+03  0.50400001928E-02 0.  1.
       -1    1    3    3    0  502  0.30377526715E+03  0.69013035130E+02  0.18511585789E+04  0.18771868037E+04  0.50400001928E-02 0. -1.
</event>
<event>
 5   0  0.9519092E-05  0.2353699E+04  0.7818609E-02  0.8457044E-01
        2   -1    0    0  501    0  0.00000000000E+00  0.00000000000E+00  0.10576906974E+04  0.10576906974E+04  0.25500000920E-02 0. -1.
       -2   -1    0    0    0  501  0.00000000000E+00  0.00000000000E+00 -0.13094323455E+04  0.13094323455E+04  0.25500000920E-02 0.  1.
    10030    2    1    2    0    0  0.00000000000E+00  0.00000000000E+00 -0.25174164803E+03  0.23671230429E+04  0.23536987154E+04 0.  0.
        4    1    3    3  502    0  0.80256368847E+03 -0.71179256663E+03  0.36084776448E+03  0.11317993877E+04  0.12699999809E+01 0. -1.
       -4    1    3    3    0  502 -0.80256368847E+03  0.71179256663E+03 -0.61258941251E+03  0.12353236552E+04  0.12699999809E+01 0.  1.
</event>
<event>
 5   0  0.3934906E-05  0.2298115E+04  0.7818609E-02  0.8478665E-01
       -1   -1    0    0    0  501  0.00000000000E+00  0.00000000000E+00  0.82392646246E+03  0.82392646247E+03  0.50400001928E-02 0. -1.
        1   -1    0    0  501    0  0.00000000000E+00  0.00000000000E+00 -0.16024885299E+04  0.16024885299E+04  0.50400001928E-02 0.  1.
    10030    2    1    2    0    0  0.00000000000E+00  0.00000000000E+00 -0.77856206743E+03  0.24264149924E+04  0.22981146234E+04 0.  0.
        2    1    3    3  502    0 -0.60592890664E+03  0.96837530200E+03 -0.52044256372E+03  0.12552932038E+04  0.25500000920E-02 0. -1.
       -2    1    3    3    0  502  0.60592890664E+03 -0.96837530200E+03 -0.25811950371E+03  0.11711217886E+04  0.25500000920E-02 0.  1.
</event>
<event>
 5   0  0.3934906E-05  0.2550467E+04  0.7818609E-02  0.8385224E-01
        1   -1    0    0  501    0  0.00000000000E+00  0.00000000000E+00  0.95455882525E+03  0.95455882526E+03  0.50400001928E-02 0.  1.
       -1   -1    0    0    0  501  0.00000000000E+00  0.00000000000E+00 -0.17036359161E+04  0.17036359161E+04  0.50400001928E-02 0. -1.
    10030    2    1    2    0    0  0.00000000000E+00  0.00000000000E+00 -0.74907709083E+03  0.26581947413E+04  0.25504671719E+04 0.  0.
        2    1    3    3  502    0  0.77135852615E+02 -0.71954922108E+03 -0.14688985971E+04  0.16374871328E+04  0.25500000920E-02 0. -1.
       -2    1    3    3    0  502 -0.77135852615E+02  0.71954922108E+03  0.71982150629E+03  0.10207076086E+04  0.25500000920E-02 0.  1.
</event>
<event>
 5   0  0.9750757E-05  0.2365210E+04  0.7818609E-02  0.8452645E-01
        2   -1    0    0  501    0  0.00000000000E+00  0.00000000000E+00  0.13133426878E+04  0.13133426878E+04  0.25500000920E-02 0.  1.
       -2   -1    0    0    0  501  0.00000000000E+00  0.00000000000E+00 -0.10648813407E+04  0.10648813407E+04  0.25500000920E-02 0. -1.
    10030    2    1    2    0    0  0.00000000000E+00  0.00000000000E+00  0.24846134711E+03  0.23782240284E+04  0.23652096077E+04 0.  0.
        2    1    3    3  502    0  0.25012033923E+03 -0.36594891972E+03  0.12266554613E+04  0.13042861713E+04  0.25500000920E-02 0.  1.
       -2    1    3    3    0  502 -0.25012033923E+03  0.36594891972E+03 -0.97819411418E+03  0.10739378571E+04  0.25500000920E-02 0. -1.
</event>
<event>
 5   0  0.9182865E-05  0.1603332E+04  0.7818609E-02  0.8818504E-01
       -2   -1    0    0    0  501  0.00000000000E+00  0.00000000000E+00  0.72404291980E+03  0.72404291980E+03  0.25500000920E-02 0. -1.
        2   -1    0    0  501    0  0.00000000000E+00  0.00000000000E+00 -0.88761081183E+03  0.88761081183E+03  0.25500000920E-02 0.  1.
    10030    2    1    2    0    0  0.00000000000E+00  0.00000000000E+00 -0.16356789202E+03  0.16116537316E+04  0.16033319355E+04 0.  0.
        3    1    3    3  502    0 -0.64207326331E+03 -0.23458608203E+03 -0.50274104998E+03  0.84855010393E+03  0.10100000352E+00 0.  1.
       -3    1    3    3    0  502  0.64207326331E+03  0.23458608203E+03  0.33917315795E+03  0.76310362771E+03  0.10100000352E+00 0. -1.
</event>
<event>
 5   0  0.9750757E-05  0.2364390E+04  0.7818609E-02  0.8452957E-01
        2   -1    0    0  501    0  0.00000000000E+00  0.00000000000E+00  0.17743068758E+04  0.17743068758E+04  0.25500000920E-02 0.  1.
       -2   -1    0    0    0  501  0.00000000000E+00  0.00000000000E+00 -0.78767925812E+03  0.78767925812E+03  0.25500000920E-02 0. -1.
    10030    2    1    2    0    0  0.00000000000E+00  0.00000000000E+00  0.98662761772E+03  0.25619861340E+04  0.23643897510E+04 0.  0.
        2    1    3    3  502    0  0.56998316196E+03  0.25153782136E+03 -0.59535650150E+03  0.86174325897E+03  0.25500000920E-02 0. -1.
       -2    1    3    3    0  502 -0.56998316196E+03 -0.25153782136E+03  0.15819841192E+04  0.17002428750E+04  0.25500000920E-02 0.  1.
</event>
<event>
 5   0  0.9144244E-05  0.2333476E+04  0.7818609E-02  0.8464838E-01
        2   -1    0    0  501    0  0.00000000000E+00  0.00000000000E+00  0.18364568745E+04  0.18364568745E+04  0.25500000920E-02 0.  1.
       -2   -1    0    0    0  501  0.00000000000E+00  0.00000000000E+00 -0.74125219297E+03  0.74125219297E+03  0.25500000920E-02 0. -1.
    10030    2    1    2    0    0  0.00000000000E+00  0.00000000000E+00  0.10952046816E+04  0.25777090675E+04  0.23334761071E+04 0.  0.
        1    1    3    3  502    0 -0.19669096195E+02  0.49519463232E+03  0.17144093236E+04  0.17846018957E+04  0.50400001928E-02 0.  1.
       -1    1    3    3    0  502  0.19669096195E+02 -0.49519463232E+03 -0.61920464204E+03  0.79310717181E+03  0.50400001928E-02 0. -1.
</event>
<event>
 5   0  0.4018942E-05  0.2313086E+04  0.7818609E-02  0.8472779E-01
        1   -1    0    0  501    0  0.00000000000E+00  0.00000000000E+00  0.12225057846E+04  0.12225057846E+04  0.50400001928E-02 0.  1.
       -1   -1    0    0    0  501  0.00000000000E+00  0.00000000000E+00 -0.10941398387E+04  0.10941398388E+04  0.50400001928E-02 0. -1.
    10030    2    1    2    0    0  0.00000000000E+00  0.00000000000E+00  0.12836594586E+03  0.23166456234E+04  0.23130864939E+04 0.  0.
        5    1    3    3  502    0 -0.57707006327E+03  0.79666988060E+03 -0.54492831959E+03  0.11245717941E+04  0.46999998093E+01 0. -1.
       -5    1    3    3    0  502  0.57707006327E+03 -0.79666988060E+03  0.67329426545E+03  0.11920738293E+04  0.46999998093E+01 0.  1.
</event>
<event>
 5   0  0.9491680E-05  0.2406573E+04  0.7818609E-02  0.8437047E-01
       -2   -1    0    0    0  501  0.00000000000E+00  0.00000000000E+00  0.97240836166E+03  0.97240836166E+03  0.25500000920E-02 0.  1.
        2   -1    0    0  501    0  0.00000000000E+00  0.00000000000E+00 -0.14889822073E+04  0.14889822073E+04  0.25500000920E-02 0. -1.
    10030    2    1    2    0    0  0.00000000000E+00  0.00000000000E+00 -0.51657384567E+03  0.24613905690E+04  0.24065732890E+04 0.  0.
        5    1    3    3  502    0 -0.11728685507E+04 -0.13073804864E+03 -0.18067743897E+02  0.11802803091E+04  0.46999998093E+01 0.  1.
       -5    1    3    3    0  502  0.11728685507E+04  0.13073804864E+03 -0.49850610177E+03  0.12811102599E+04  0.46999998093E+01 0. -1.
</event>
<event>
 5   0  0.9519092E-05  0.2338806E+04  0.7818609E-02  0.8462776E-01
       -2   -1    0    0    0  501  0.00000000000E+00  0.00000000000E+00  0.86524497398E+03  0.86524497399E+03  0.25500000920E-02 0. -1.
        2   -1    0    0  501    0  0.00000000000E+00  0.00000000000E+00 -0.15804809476E+04  0.15804809476E+04  0.25500000920E-02 0.  1.
    10030    2    1    2    0    0  0.00000000000E+00  0.00000000000E+00 -0.71523597358E+03  0.24457259216E+04  0.23388058460E+04 0.  0.
        4    1    3    3  502    0  0.97526079664E+03 -0.47805114024E+03  0.95594592491E+02  0.10903240129E+04  0.12699999809E+01 0. -1.
       -4    1    3    3    0  502 -0.97526079664E+03  0.47805114024E+03 -0.81083056608E+03  0.13554019086E+04  0.12699999809E+01 0.  1.
</event>
<event>
 5   0  0.9750757E-05  0.2337731E+04  0.7818609E-02  0.8463191E-01
       -2   -1    0    0    0  501  0.00000000000E+00  0.00000000000E+00  0.13697668195E+04  0.13697668195E+04  0.25500000920E-02 0.  1.
        2   -1    0    0  501    0  0.00000000000E+00  0.00000000000E+00 -0.99743036308E+03  0.99743036308E+03  0.25500000920E-02 0. -1.
    10030    2    1    2    0    0  0.00000000000E+00  0.00000000000E+00  0.37233645644E+03  0.23671971826E+04  0.23377313927E+04 0.  0.
        2    1    3    3  502    0 -0.37262366862E+03  0.95176775275E+03  0.76035759239E+03  0.12739128392E+04  0.25500000920E-02 0.  1.
       -2    1    3    3    0  502  0.37262366862E+03 -0.95176775275E+03 -0.38802113595E+03  0.10932843434E+04  0.25500000920E-02 0. -1.
</event>
<event>
 5   0  0.4018942E-05  0.2395330E+04  0.7818609E-02  0.8441254E-01
        1   -1    0    0  501    0  0.00000000000E+00  0.00000000000E+00  0.16710752503E+04  0.16710752503E+04  0.50400001928E-02 0. -1.
       -1   -1    0    0    0  501  0.00000000000E+00  0.00000000000E+00 -0.85837026921E+03  0.85837026923E+03  0.50400001928E-02 0.  1.
    10030    2    1    2    0    0  0.00000000000E+00  0.00000000000E+00  0.81270498113E+03  0.25294455196E+04  0.23953298834E+04 0.  0.
        5    1    3    3  502    0  0.10387497231E+04  0.90599394915E+02  0.10285540317E+04  0.14646346724E+04  0.46999998093E+01 0. -1.
       -5    1    3    3    0  502 -0.10387497231E+04 -0.90599394915E+02 -0.21584905060E+03  0.10648108471E+04  0.46999998093E+01 0.  1.
</event>
<event>
 5   0  0.4018942E-05  0.2464100E+04  0.7818609E-02  0.8415888E-01
        1   -1    0    0  501    0  0.00000000000E+00  0.00000000000E+00  0.18427871002E+04  0.18427871002E+04  0.50400001928E-02 0. -1.
       -1   -1    0    0    0  501  0.00000000000E+00  0.00000000000E+00 -0.82372327923E+03  0.82372327925E+03  0.50400001928E-02 0.  1.
    10030    2    1    2    0    0  0.00000000000E+00  0.00000000000E+00  0.10190638209E+04  0.26665103794E+04  0.24640995378E+04 0.  0.
        5    1    3    3  502    0 -0.31645433350E+03 -0.62993723854E+03 -0.58389423179E+03  0.91537906553E+03  0.46999998093E+01 0.  1.
       -5    1    3    3    0  502  0.31645433350E+03  0.62993723854E+03  0.16029580527E+04  0.17511313139E+04  0.46999998093E+01 0. -1.
</event>
<event>
 5   0  0.9144244E-05  0.1952033E+04  0.7818609E-02  0.8629381E-01
       -2   -1    0    0    0  501  0.00000000000E+00  0.00000000000E+00  0.91647405652E+03  0.91647405652E+03  0.25500000920E-02 0. -1.
        2   -1    0    0  501    0  0.00000000000E+00  0.00000000000E+00 -0.10394272712E+04  0.10394272712E+04  0.25500000920E-02 0.  1.
    10030    2    1    2    0    0  0.00000000000E+00  0.00000000000E+00 -0.12295321464E+03  0.19559013277E+04  0.19520329174E+04 0.  0.
        1    1    3    3  502    0 -0.51554105661E+03 -0.18951364366E+03 -0.86986546387E+03  0.10287681602E+04  0.50400001928E-02 0.  1.
       -1    1    3    3    0  502  0.51554105661E+03  0.18951364366E+03  0.74691224922E+03  0.92713316749E+03  0.50400001928E-02 0. -1.
</event>
<event>
 5   0  0.9491680E-05  0.2213085E+04  0.7818609E-02  0.8513001E-01
       -2   -1    0    0    0  501  0.00000000000E+00  0.00000000000E+00  0.89157631783E+03  0.89157631783E+03  0.25500000920E-02 0. -1.
        2   -1    0    0  501    0  0.00000000000E+00  0.00000000000E+00 -0.13733393369E+04  0.13733393369E+04  0.25500000920E-02 0.  1.
    10030    2    1    2    0    0  0.00000000000E+00  0.00000000000E+00 -0.48176301910E+03  0.22649156548E+04  0.22130854743E+04 0.  0.
        5    1    3    3  502    0  0.56642904849E+03  0.50943157622E+03 -0.10622053469E+04  0.13071590136E+04  0.46999998093E+01 0.  1.
       -5    1    3    3    0  502 -0.56642904849E+03 -0.50943157622E+03  0.58044232779E+03  0.95775664118E+03  0.46999998093E+01 0. -1.
</event>
<event>
 5   0  0.9491680E-05  0.2405175E+04  0.7818609E-02  0.8437569E-01
        2   -1    0    0  501    0  0.00000000000E+00  0.00000000000E+00  0.12091684197E+04  0.12091684197E+04  0.25500000920E-02 0. -1.
       -2   -1    0    0    0  501  0.00000000000E+00  0.00000000000E+00 -0.11960425166E+04  0.11960425166E+04  0.25500000920E-02 0.  1.
    10030    2    1    2    0    0  0.00000000000E+00  0.00000000000E+00  0.13125903051E+02  0.24052109363E+04  0.24051751202E+04 0.  0.
        5    1    3    3  502    0  0.68514976843E+03 -0.12929422624E+03 -0.97327180011E+03  0.11972582382E+04  0.46999998093E+01 0.  1.
       -5    1    3    3    0  502 -0.68514976843E+03  0.12929422624E+03  0.98639770316E+03  0.12079526981E+04  0.46999998093E+01 0. -1.
</event>
<event>
 5   0  0.4260395E-05  0.2370992E+04  0.7818609E-02  0.8450444E-01
        1   -1    0    0  501    0  0.00000000000E+00  0.00000000000E+00  0.11796076367E+04  0.11796076367E+04  0.50400001928E-02 0.  1.
       -1   -1    0    0    0  501  0.00000000000E+00  0.00000000000E+00 -0.11914135819E+04  0.11914135820E+04  0.50400001928E-02 0. -1.
    10030    2    1    2    0    0  0.00000000000E+00  0.00000000000E+00 -0.11805945233E+02  0.23710212187E+04  0.23709918260E+04 0.  0.
        4    1    3    3  502    0  0.10193936857E+04  0.29019424356E+02 -0.61038820234E+03  0.11885205021E+04  0.12699999809E+01 0. -1.
       -4    1    3    3    0  502 -0.10193936857E+04 -0.29019424356E+02  0.59858225710E+03  0.11825007166E+04  0.12699999809E+01 0.  1.
</event>
<event>
 5   0  0.4260395E-05  0.1387530E+04  0.7818609E-02  0.8962895E-01
        1   -1    0    0  501    0  0.00000000000E+00  0.00000000000E+00  0.13808661606E+04  0.13808661606E+04  0.50400001928E-02 0. -1.
       -1   -1    0    0    0  501  0.00000000000E+00  0.00000000000E+00 -0.34855641839E+03  0.34855641843E+03  0.50400001928E-02 0.  1.
    10030    2    1    2    0    0  0.00000000000E+00  0.00000000000E+00  0.10323097422E+04  0.17294225790E+04  0.13875298386E+04 0.  0.
        4    1    3    3  502    0 -0.43157350649E+03 -0.52786701522E+03  0.67581562346E+03  0.96001439941E+03  0.12699999809E+01 0. -1.
       -4    1    3    3    0  502  0.43157350649E+03  0.52786701522E+03  0.35649411872E+03  0.76940817960E+03  0.12699999809E+01 0.  1.
</event>
<event>
 5   0  0.3934906E-05  0.2358317E+04  0.7818609E-02  0.8455276E-01
       -1   -1    0    0    0  501  0.00000000000E+00  0.00000000000E+00  0.14415752786E+04  0.14415752786E+04  0.50400001928E-02 0. -1.
        1   -1    0    0  501    0  0.00000000000E+00  0.00000000000E+00 -0.96451108058E+03  0.96451108059E+03  0.50400001928E-02 0.  1.
    10030    2    1    2    0    0  0.00000000000E+00  0.00000000000E+00  0.47706419803E+03  0.24060863592E+04  0.23583174763E+04 0.  0.
        2    1    3    3  502    0 -0.10335679039E+04  0.26823286070E+03 -0.27180358428E+03  0.11018569181E+04  0.25500000920E-02 0.  1.
       -2    1    3    3    0  502  0.10335679039E+04 -0.26823286070E+03  0.74886778231E+03  0.13042294411E+04  0.25500000920E-02 0. -1.
</event>
<event>
 5   0  0.9144244E-05  0.2396171E+04  0.7818609E-02  0.8440938E-01
        2   -1    0    0  501    0  0.00000000000E+00  0.00000000000E+00  0.12769861080E+04  0.12769861080E+04  0.25500000920E-02 0. -1.
       -2   -1    0    0    0  501  0.00000000000E+00  0.00000000000E+00 -0.11240599311E+04  0.11240599311E+04  0.25500000920E-02 0.  1.
    10030    2    1    2    0    0  0.00000000000E+00  0.00000000000E+00  0.15292617699E+03  0.24010460391E+04  0.23961710428E+04 0.  0.
        1    1    3    3  502    0 -0.10358288768E+04  0.36635274361E+03  0.55519351986E+03  0.12310140695E+04  0.50400001928E-02 0.  1.
       -1    1    3    3    0  502  0.10358288768E+04 -0.36635274361E+03 -0.40226734287E+03  0.11700319696E+04  0.50400001928E-02 0. -1.
</event>
<event>
 5   0  0.9491680E-05  0.2386615E+04  0.7818609E-02  0.8444532E-01
        2   -1    0    0  501    0  0.00000000000E+00  0.00000000000E+00  0.28004971475E+04  0.28004971475E+04  0.25500000920E-02 0. -1.
       -2   -1    0    0    0  501  0.00000000000E+00  0.00000000000E+00 -0.50847512577E+03  0.50847512577E+03  0.25500000920E-02 0.  1.
    10030    2    1    2    0    0  0.00000000000E+00  0.00000000000E+00  0.22920220218E+04  0.33089722733E+04  0.23866152931E+04 0.  0.
        5    1    3    3  502    0  0.11813001940E+04 -0.15237356588E+03  0.12466920581E+04  0.17242247619E+04  0.46999998093E+01 0. -1.
       -5    1    3    3    0  502 -0.11813001940E+04  0.15237356588E+03  0.10453299636E+04  0.15847475114E+04  0.46999998093E+01 0.  1.
</event>
<event>
 5   0  0.9182865E-05  0.2407266E+04  0.7818609E-02  0.8436788E-01
        2   -1    0    0  501    0  0.00000000000E+00  0.00000000000E+00  0.18096674446E+04  0.18096674446E+04  0.25500000920E-02 0.  1.
       -2   -1    0    0    0  501  0.00000000000E+00  0.00000000000E+00 -0.80055157182E+03  0.80055157182E+03  0.25500000920E-02 0. -1.
    10030    2    1    2    0    0  0.00000000000E+00  0.00000000000E+00  0.10091158728E+04  0.26102190164E+04  0.24072657662E+04 0.  0.
        3    1    3    3  502    0 -0.40393321499E+03 -0.39804526411E+03  0.16557291485E+04  0.17501545926E+04  0.10100000352E+00 0.  1.
       -3    1    3    3    0  502  0.40393321499E+03  0.39804526411E+03 -0.64661327579E+03  0.86006442380E+03  0.10100000352E+00 0. -1.
</event>
<event>
 5   0  0.4208577E-05  0.2155649E+04  0.7818609E-02  0.8537118E-01
        1   -1    0    0  501    0  0.00000000000E+00  0.00000000000E+00  0.13872993715E+04  0.13872993715E+04  0.50400001928E-02 0. -1.
       -1   -1    0    0    0  501  0.00000000000E+00  0.00000000000E+00 -0.83738634987E+03  0.83738634988E+03  0.50400001928E-02 0.  1.
    10030    2    1    2    0    0  0.00000000000E+00  0.00000000000E+00  0.54991302167E+03  0.22246857214E+04  0.21556489110E+04 0.  0.
        1    1    3    3  502    0  0.20680523466E+03 -0.49133341920E+03 -0.69180930108E+03  0.87337107978E+03  0.50400001928E-02 0.  1.
       -1    1    3    3    0  502 -0.20680523466E+03  0.49133341920E+03  0.12417223227E+04  0.13513146416E+04  0.50400001928E-02 0. -1.
</event>
<event>
 5   0  0.9144244E-05  0.2407407E+04  0.7818609E-02  0.8436736E-01
       -2   -1    0    0    0  501  0.00000000000E+00  0.00000000000E+00  0.24662229705E+04  0.24662229705E+04  0.25500000920E-02 0. -1.
        2   -1    0    0  501    0  0.00000000000E+00  0.00000000000E+00 -0.58749851299E+03  0.58749851299E+03  0.25500000920E-02 0.  1.
    10030    2    1    2    0    0  0.00000000000E+00  0.00000000000E+00  0.18787244575E+04  0.30537214835E+04  0.24074071761E+04 0.  0.
        1    1    3    3  502    0  0.84446236804E+02  0.90162584747E+01 -0.58369350818E+03  0.58983944540E+03  0.50400001928E-02 0.  1.
       -1    1    3    3    0  502 -0.84446236804E+02 -0.90162584747E+01  0.24624179657E+04  0.24638820381E+04  0.50400001928E-02 0. -1.
</event>
<event>
 5   0  0.4260395E-05  0.2393838E+04  0.7818609E-02  0.8441814E-01
        1   -1    0    0  501    0  0.00000000000E+00  0.00000000000E+00  0.12839119937E+04  0.12839119937E+04  0.50400001928E-02 0.  1.
       -1   -1    0    0    0  501  0.00000000000E+00  0.00000000000E+00 -0.11158203960E+04  0.11158203960E+04  0.50400001928E-02 0. -1.
    10030    2    1    2    0    0  0.00000000000E+00  0.00000000000E+00  0.16809159775E+03  0.23997323897E+04  0.23938380808E+04 0.  0.
        4    1    3    3  502    0  0.11319738560E+04  0.23494778032E+03 -0.22663391549E+03  0.11781043310E+04  0.12699999809E+01 0.  1.
       -4    1    3    3    0  502 -0.11319738560E+04 -0.23494778032E+03  0.39472551324E+03  0.12216280587E+04  0.12699999809E+01 0. -1.
</event>
<event>
 5   0  0.9182865E-05  0.1316980E+04  0.7818609E-02  0.9016207E-01
        2   -1    0    0  501    0  0.00000000000E+00  0.00000000000E+00  0.38412739830E+03  0.38412739830E+03  0.25500000920E-02 0. -1.
       -2   -1    0    0    0  501  0.00000000000E+00  0.00000000000E+00 -0.11288153421E+04  0.11288153421E+04  0.25500000920E-02 0.  1.
    10030    2    1    2    0    0  0.00000000000E+00  0.00000000000E+00 -0.74468794381E+03  0.15129427404E+04  0.13169797273E+04 0.  0.
        3    1    3    3  502    0 -0.19241508773E+03  0.33906085132E+03 -0.98198966666E+03  0.10565460437E+04  0.10100000352E+00 0.  1.
       -3    1    3    3    0  502  0.19241508773E+03 -0.33906085132E+03  0.23730172284E+03  0.45639669669E+03  0.10100000352E+00 0. -1.
</event>
<event>
 5   0  0.9519092E-05  0.1773549E+04  0.7818609E-02  0.8720494E-01
        2   -1    0    0  501    0  0.00000000000E+00  0.00000000000E+00  0.16096181033E+04  0.16096181033E+04  0.25500000920E-02 0. -1.
       -2   -1    0    0    0  501  0.00000000000E+00  0.00000000000E+00 -0.48854360880E+03  0.48854360881E+03  0.25500000920E-02 0.  1.
    10030    2    1    2    0    0  0.00000000000E+00  0.00000000000E+00  0.11210744945E+04  0.20981617121E+04  0.17735485750E+04 0.  0.
        4    1    3    3  502    0  0.56596112202E+03 -0.47446340134E+03 -0.20160156383E+02  0.73880684597E+03  0.12699999809E+01 0.  1.
       -4    1    3    3    0  502 -0.56596112202E+03  0.47446340134E+03  0.11412346509E+04  0.13593548662E+04  0.12699999809E+01 0. -1.
</event>
<event>
 5   0  0.4208577E-05  0.2406081E+04  0.7818609E-02  0.8437231E-01
        1   -1    0    0  501    0  0.00000000000E+00  0.00000000000E+00  0.12529111275E+04  0.12529111275E+04  0.50400001928E-02 0. -1.
       -1   -1    0    0    0  501  0.00000000000E+00  0.00000000000E+00 -0.11551547349E+04  0.11551547349E+04  0.50400001928E-02 0.  1.
    10030    2    1    2    0    0  0.00000000000E+00  0.00000000000E+00  0.97756392609E+02  0.24080658624E+04  0.24060808144E+04 0.  0.
        1    1    3    3  502    0 -0.35272319255E+03 -0.11494214757E+04  0.90419571294E+02  0.12057193198E+04  0.50400001928E-02 0.  1.
       -1    1    3    3    0  502  0.35272319255E+03  0.11494214757E+04  0.73368213149E+01  0.12023465425E+04  0.50400001928E-02 0. -1.
</event>
<event>
 5   0  0.9144244E-05  0.2401252E+04  0.7818609E-02  0.8439035E-01
       -2   -1    0    0    0  501  0.00000000000E+00  0.00000000000E+00  0.66569766851E+03  0.66569766851E+03  0.25500000920E-02 0.  1.
        2   -1    0    0  501    0  0.00000000000E+00  0.00000000000E+00 -0.21654011858E+04  0.21654011858E+04  0.25500000920E-02 0. -1.
    10030    2    1    2    0    0  0.00000000000E+00  0.00000000000E+00 -0.14997035173E+04  0.28310988543E+04  0.24012517742E+04 0.  0.
        1    1    3    3  502    0  0.87383891976E+03  0.42535640469E+03 -0.15810158796E+04  0.18558377462E+04  0.50400001928E-02 0. -1.
       -1    1    3    3    0  502 -0.87383891976E+03 -0.42535640469E+03  0.81312362304E+02  0.97526110810E+03  0.50400001928E-02 0.  1.
</event>
<event>
 5   0  0.4018942E-05  0.1503304E+04  0.7818609E-02  0.8882259E-01
        1   -1    0    0  501    0  0.00000000000E+00  0.00000000000E+00  0.11352494847E+04  0.11352494847E+04  0.50400001928E-02 0. -1.
       -1   -1    0    0    0  501  0.00000000000E+00  0.00000000000E+00 -0.49767106813E+03  0.49767106815E+03  0.50400001928E-02 0.  1.
    10030    2    1    2    0    0  0.00000000000E+00  0.00000000000E+00  0.63757841653E+03  0.16329205528E+04  0.15033041258E+04 0.  0.
        5    1    3    3  502    0 -0.42318710113E+03  0.61299749850E+03  0.20959574652E+03  0.77382538256E+03  0.46999998093E+01 0. -1.
       -5    1    3    3    0  502  0.42318710113E+03 -0.61299749850E+03  0.42798267000E+03  0.85909517026E+03  0.46999998093E+01 0.  1.
</event>
<event>
 5   0  0.4018942E-05  0.2440221E+04  0.7818609E-02  0.8424597E-01
        1   -1    0    0  501    0  0.00000000000E+00  0.00000000000E+00  0.10696726255E+04  0.10696726255E+04  0.50400001928E-02 0.  1.
       -1   -1    0    0    0  501  0.00000000000E+00  0.00000000000E+00 -0.13917058033E+04  0.13917058033E+04  0.50400001928E-02 0. -1.
    10030    2    1    2    0    0  0.00000000000E+00  0.00000000000E+00 -0.32203317785E+03  0.24613784288E+04  0.24402209740E+04 0.  0.
        5    1    3    3  502    0 -0.71557984546E+03 -0.96712450398E+03  0.43878066187E+02  0.12038819278E+04  0.46999998093E+01 0.  1.
       -5    1    3    3    0  502  0.71557984546E+03  0.96712450398E+03 -0.36591124404E+03  0.12574965010E+04  0.46999998093E+01 0. -1.
</event>
<event>
 5   0  0.4208577E-05  0.1341992E+04  0.7818609E-02  0.8996912E-01
       -1   -1    0    0    0  501  0.00000000000E+00  0.00000000000E+00  0.82259276163E+03  0.82259276164E+03  0.50400001928E-02 0. -1.
        1   -1    0    0  501    0  0.00000000000E+00  0.00000000000E+00 -0.54733750980E+03  0.54733750982E+03  0.50400001928E-02 0.  1.
    10030    2    1    2    0    0  0.00000000000E+00  0.00000000000E+00  0.27525525183E+03  0.13699302715E+04  0.13419923603E+04 0.  0.
        1    1    3    3  502    0  0.41330520527E+03  0.52202957451E+03  0.52833296967E+02  0.66792771065E+03  0.50400001928E-02 0.  1.
       -1    1    3    3    0  502 -0.41330520527E+03 -0.52202957451E+03  0.22242195486E+03  0.70200256081E+03  0.50400001928E-02 0. -1.
</event>
<event>
 5   0  0.4061631E-05  0.1494402E+04  0.7818609E-02  0.8888184E-01
        1   -1    0    0  501    0  0.00000000000E+00  0.00000000000E+00  0.96069792319E+03  0.96069792321E+03  0.50400001928E-02 0.  1.
       -1   -1    0    0    0  501  0.00000000000E+00  0.00000000000E+00 -0.58114958917E+03  0.58114958919E+03  0.50400001928E-02 0. -1.
    10030    2    1    2    0    0  0.00000000000E+00  0.00000000000E+00  0.37954833403E+03  0.15418475124E+04  0.14944018247E+04 0.  0.
        3    1    3    3  502    0 -0.18630777497E+03 -0.71146854003E+03  0.32591469285E+03  0.80443673939E+03  0.10100000352E+00 0. -1.
       -3    1    3    3    0  502  0.18630777497E+03  0.71146854003E+03  0.53633641180E+02  0.73741077300E+03  0.10100000352E+00 0.  1.
</event>
<event>
 5   0  0.4061631E-05  0.2288008E+04  0.7818609E-02  0.8482665E-01
        1   -1    0    0  501    0  0.00000000000E+00  0.00000000000E+00  0.79918872986E+03  0.79918872987E+03  0.50400001928E-02 0.  1.
       -1   -1    0    0    0  501  0.00000000000E+00  0.00000000000E+00 -0.16375917186E+04  0.16375917186E+04  0.50400001928E-02 0. -1.
    10030    2    1    2    0    0  0.00000000000E+00  0.00000000000E+00 -0.83840298871E+03  0.24367804484E+04  0.22880077322E+04 0.  0.
        3    1    3    3  502    0  0.83897596085E+03 -0.56664215254E+03  0.14814771147E+03  0.10231870535E+04  0.10100000352E+00 0.  1.
       -3    1    3    3    0  502 -0.83897596085E+03  0.56664215254E+03 -0.98655070018E+03  0.14135933949E+04  0.10100000352E+00 0. -1.
</event>
<event>
 5   0  0.4260395E-05  0.2333311E+04  0.7818609E-02  0.8464902E-01
        1   -1    0    0  501    0  0.00000000000E+00  0.00000000000E+00  0.12260007391E+04  0.12260007392E+04  0.50400001928E-02 0.  1.
       -1   -1    0    0    0  501  0.00000000000E+00  0.00000000000E+00 -0.11101833178E+04  0.11101833178E+04  0.50400001928E-02 0. -1.
    10030    2    1    2    0    0  0.00000000000E+00  0.00000000000E+00  0.11581742134E+03  0.23361840570E+04  0.23333114394E+04 0.  0.
        4    1    3    3  502    0 -0.22596017739E+03 -0.60187303017E+03  0.10326445313E+04  0.12164150144E+04  0.12699999809E+01 0.  1.
       -4    1    3    3    0  502  0.22596017739E+03  0.60187303017E+03 -0.91682711001E+03  0.11197690426E+04  0.12699999809E+01 0. -1.
</event>
<event>
 5   0  0.4061631E-05  0.2393927E+04  0.7818609E-02  0.8441781E-01
       -1   -1    0    0    0  501  0.00000000000E+00  0.00000000000E+00  0.84538701820E+03  0.84538701821E+03  0.50400001928E-02 0. -1.
        1   -1    0    0  501    0  0.00000000000E+00  0.00000000000E+00 -0.16947523352E+04  0.16947523352E+04  0.50400001928E-02 0.  1.
    10030    2    1    2    0    0  0.00000000000E+00  0.00000000000E+00 -0.84936531697E+03  0.25401393534E+04  0.23939270024E+04 0.  0.
        3    1    3    3  502    0  0.36028723774E+03  0.93790776647E+03 -0.11149890773E+04  0.15008925760E+04  0.10100000352E+00 0.  1.
       -3    1    3    3    0  502 -0.36028723774E+03 -0.93790776647E+03  0.26562376029E+03  0.10392467774E+04  0.10100000352E+00 0. -1.
</event>
<event>
 5   0  0.4208577E-05  0.2365520E+04  0.7818609E-02  0.8452526E-01
        1   -1    0    0  501    0  0.00000000000E+00  0.00000000000E+00  0.79069780572E+03  0.79069780574E+03  0.50400001928E-02 0. -1.
       -1   -1    0    0    0  501  0.00000000000E+00  0.00000000000E+00 -0.17692236073E+04  0.17692236073E+04  0.50400001928E-02 0.  1.
    10030    2    1    2    0    0  0.00000000000E+00  0.00000000000E+00 -0.97852580154E+03  0.25599214130E+04  0.23655200055E+04 0.  0.
        1    1    3    3  502    0  0.96973997103E+02  0.11708794447E+04 -0.63668837798E+03  0.13363138557E+04  0.50400001928E-02 0. -1.
       -1    1    3    3    0  502 -0.96973997103E+02 -0.11708794447E+04 -0.34183742356E+03  0.12236075573E+04  0.50400001928E-02 0.  1.
</event>
<event>
 5   0  0.4018942E-05  0.2462503E+04  0.7818609E-02  0.8416467E-01
       -1   -1    0    0    0  501  0.00000000000E+00  0.00000000000E+00  0.12002244530E+04  0.12002244530E+04  0.50400001928E-02 0. -1.
        1   -1    0    0  501    0  0.00000000000E+00  0.00000000000E+00 -0.12630805151E+04  0.12630805151E+04  0.50400001928E-02 0.  1.
    10030    2    1    2    0    0  0.00000000000E+00  0.00000000000E+00 -0.62856062122E+02  0.24633049681E+04  0.24625028896E+04 0.  0.
        5    1    3    3  502    0 -0.15635389114E+03  0.89932224186E+03 -0.85797253846E+03  0.12527433898E+04  0.46999998093E+01 0.  1.
       -5    1    3    3    0  502  0.15635389114E+03 -0.89932224186E+03  0.79511647633E+03  0.12105615783E+04  0.46999998093E+01 0. -1.
</event>
<event>
 5   0  0.9182865E-05  0.2398825E+04  0.7818609E-02  0.8439944E-01
       -2   -1    0    0    0  501  0.00000000000E+00  0.00000000000E+00  0.13815546372E+04  0.13815546372E+04  0.25500000920E-02 0.  1.
        2   -1    0    0  501    0  0.00000000000E+00  0.00000000000E+00 -0.10412834490E+04  0.10412834490E+04  0.25500000920E-02 0. -1.
    10030    2    1    2    0    0  0.00000000000E+00  0.00000000000E+00  0.34027118814E+03  0.24228380862E+04  0.23988246936E+04 0.  0.
        3    1    3    3  502    0 -0.53131940545E+03  0.11873317011E+03 -0.90929682060E+03  0.10598200765E+04  0.10100000352E+00 0. -1.
       -3    1    3    3    0  502  0.53131940545E+03 -0.11873317011E+03  0.12495680087E+04  0.13630180098E+04  0.10100000352E+00 0.  1.
</event>
<event>
 5   0  0.9750757E-05  0.2460840E+04  0.7818609E-02  0.8417071E-01
       -2   -1    0    0    0  501  0.00000000000E+00  0.00000000000E+00  0.68966701156E+03  0.68966701157E+03  0.25500000920E-02 0. -1.
        2   -1    0    0  501    0  0.00000000000E+00  0.00000000000E+00 -0.21951659553E+04  0.21951659553E+04  0.25500000920E-02 0.  1.
    10030    2    1    2    0    0  0.00000000000E+00  0.00000000000E+00 -0.15054989437E+04  0.28848329668E+04  0.24608401364E+04 0.  0.
        2    1    3    3  502    0  0.41542675501E+03  0.11537371057E+04 -0.63409339184E+03  0.13804937984E+04  0.25500000920E-02 0. -1.
       -2    1    3    3    0  502 -0.41542675501E+03 -0.11537371057E+04 -0.87140555187E+03  0.15043391684E+04  0.25500000920E-02 0.  1.
</event>
<event>
 5   0  0.4018942E-05  0.2309484E+04  0.7818609E-02  0.8474191E-01
       -1   -1    0    0    0  501  0.00000000000E+00  0.00000000000E+00  0.21120711786E+04  0.21120711786E+04  0.50400001928E-02 0.  1.
        1   -1    0    0  501    0  0.00000000000E+00  0.00000000000E+00 -0.63133709566E+03  0.63133709568E+03  0.50400001928E-02 0. -1.
    10030    2    1    2    0    0  0.00000000000E+00  0.00000000000E+00  0.14807340829E+04  0.27434082743E+04  0.23094838244E+04 0.  0.
        5    1    3    3  502    0 -0.32015321767E+03  0.10644454544E+04  0.36875626469E+03  0.11711300017E+04  0.46999998093E+01 0. -1.
       -5    1    3    3    0  502  0.32015321767E+03 -0.10644454544E+04  0.11119778182E+04  0.15722782725E+04  0.46999998093E+01 0.  1.
</event>
<event>
 5   0  0.9182865E-05  0.1902545E+04  0.7818609E-02  0.8653591E-01
       -2   -1    0    0    0  501  0.00000000000E+00  0.00000000000E+00  0.10610672142E+04  0.10610672142E+04  0.25500000920E-02 0.  1.
        2   -1    0    0  501    0  0.00000000000E+00  0.00000000000E+00 -0.85283900090E+03  0.85283900091E+03  0.25500000920E-02 0. -1.
    10030    2    1    2    0    0  0.00000000000E+00  0.00000000000E+00  0.20822821331E+03  0.19139062151E+04  0.19025451405E+04 0.  0.
        3    1    3    3  502    0  0.53660681088E+03 -0.78529985718E+03  0.87378733938E+02  0.95513234083E+03  0.10100000352E+00 0. -1.
       -3    1    3    3    0  502 -0.53660681088E+03  0.78529985718E+03  0.12084947938E+03  0.95877387429E+03  0.10100000352E+00 0.  1.
</event>
<event>
 5   0  0.9144244E-05  0.2407578E+04  0.7818609E-02  0.8436672E-01
        2   -1    0    0  501    0  0.00000000000E+00  0.00000000000E+00  0.23692201641E+04  0.23692201641E+04  0.25500000920E-02 0. -1.
       -2   -1    0    0    0  501  0.00000000000E+00  0.00000000000E+00 -0.61163938127E+03  0.61163938127E+03  0.25500000920E-02 0.  1.
    10030    2    1    2    0    0  0.00000000000E+00  0.00000000000E+00  0.17575807828E+04  0.29808595454E+04  0.24075783312E+04 0.  0.
        1    1    3    3  502    0 -0.10174705150E+04 -0.28624938280E+03  0.15921031967E+04  0.19110147951E+04  0.50400001928E-02 0. -1.
       -1    1    3    3    0  502  0.10174705150E+04  0.28624938280E+03  0.16547758609E+03  0.10698447502E+04  0.50400001928E-02 0.  1.
</event>
<event>
 5   0  0.9519092E-05  0.2066328E+04  0.7818609E-02  0.8576223E-01
       -2   -1    0    0    0  501  0.00000000000E+00  0.00000000000E+00  0.56300012508E+03  0.56300012508E+03  0.25500000920E-02 0. -1.
        2   -1    0    0  501    0  0.00000000000E+00  0.00000000000E+00 -0.18959634673E+04  0.18959634673E+04  0.25500000920E-02 0.  1.
    10030    2    1    2    0    0  0.00000000000E+00  0.00000000000E+00 -0.13329633423E+04  0.24589635924E+04  0.20663278242E+04 0.  0.
        4    1    3    3  502    0  0.47637967235E+03  0.37206680235E+03 -0.16635808729E+04  0.17699927207E+04  0.12699999809E+01 0.  1.
       -4    1    3    3    0  502 -0.47637967235E+03 -0.37206680235E+03  0.33061753065E+03  0.68897087174E+03  0.12699999809E+01 0. -1.
</event>
<event>
 5   0  0.9750757E-05  0.2446049E+04  0.7818609E-02  0.8422462E-01
       -2   -1    0    0    0  501  0.00000000000E+00  0.00000000000E+00  0.10918178149E+04  0.10918178149E+04  0.25500000920E-02 0. -1.
        2   -1    0    0  501    0  0.00000000000E+00  0.00000000000E+00 -0.13699985382E+04  0.13699985382E+04  0.25500000920E-02 0.  1.
    10030    2    1    2    0    0  0.00000000000E+00  0.00000000000E+00 -0.27818072333E+03  0.24618163531E+04  0.24460489042E+04 0.  0.
        2    1    3    3  502    0 -0.10067133405E+04  0.44268001658E+03 -0.67765795812E+03  0.12917653251E+04  0.25500000920E-02 0.  1.
       -2    1    3    3    0  502  0.10067133405E+04 -0.44268001658E+03  0.39947723479E+03  0.11700510280E+04  0.25500000920E-02 0. -1.
</event>
<event>
 5   0  0.4018942E-05  0.2385973E+04  0.7818609E-02  0.8444774E-01
        1   -1    0    0  501    0  0.00000000000E+00  0.00000000000E+00  0.24288720741E+04  0.24288720741E+04  0.50400001928E-02 0. -1.
       -1   -1    0    0    0  501  0.00000000000E+00  0.00000000000E+00 -0.58595789563E+03  0.58595789565E+03  0.50400001928E-02 0.  1.
    10030    2    1    2    0    0  0.00000000000E+00  0.00000000000E+00  0.18429141785E+04  0.30148299698E+04  0.23859729834E+04 0.  0.
        5    1    3    3  502    0  0.11549420605E+04  0.28219826616E+03  0.10456960673E+04  0.15833601548E+04  0.46999998093E+01 0.  1.
       -5    1    3    3    0  502 -0.11549420605E+04 -0.28219826616E+03  0.79721811120E+03  0.14314698150E+04  0.46999998093E+01 0. -1.
</event>
<event>
 5   0  0.9750757E-05  0.1324564E+04  0.7818609E-02  0.9010310E-01
       -2   -1    0    0    0  501  0.00000000000E+00  0.00000000000E+00  0.39347375178E+03  0.39347375179E+03  0.25500000920E-02 0. -1.
        2   -1    0    0  501    0  0.00000000000E+00  0.00000000000E+00 -0.11147307509E+04  0.11147307509E+04  0.25500000920E-02 0.  1.
    10030    2    1    2    0    0  0.00000000000E+00  0.00000000000E+00 -0.72125699910E+03  0.15082045027E+04  0.13245637633E+04 0.  0.
        2    1    3    3  502    0 -0.30194292270E+03 -0.57781875331E+03 -0.22797176703E+03  0.69066284598E+03  0.25500000920E-02 0.  1.
       -2    1    3    3    0  502  0.30194292270E+03  0.57781875331E+03 -0.49328523207E+03  0.81754165670E+03  0.25500000920E-02 0. -1.
</event>
<event>
 5   0  0.4018942E-05  0.2271620E+04  0.7818609E-02  0.8489196E-01
        1   -1    0    0  501    0  0.00000000000E+00  0.00000000000E+00  0.11915536004E+04  0.11915536005E+04  0.50400001928E-02 0. -1.
       -1   -1    0    0    0  501  0.00000000000E+00  0.00000000000E+00 -0.10826741982E+04  0.10826741983E+04  0.50400001928E-02 0.  1.
    10030    2    1    2    0    0  0.00000000000E+00  0.00000000000E+00  0.10887940221E+03  0.22742277987E+04  0.22716199850E+04 0.  0.
        5    1    3    3  502    0 -0.51006197999E+03 -0.78086787748E+03  0.70335382530E+03  0.11681808760E+04  0.46999998093E+01 0. -1.
       -5    1    3    3    0  502  0.51006197999E+03  0.78086787748E+03 -0.59447442310E+03  0.11060469227E+04  0.46999998093E+01 0.  1.
</event>
<event>
 5   0  0.4260395E-05  0.2384005E+04  0.7818609E-02  0.8445516E-01
       -1   -1    0    0    0  501  0.00000000000E+00  0.00000000000E+00  0.10826790834E+04  0.10826790834E+04  0.50400001928E-02 0.  1.
        1   -1    0    0  501    0  0.00000000000E+00  0.00000000000E+00 -0.13123653834E+04  0.13123653834E+04  0.50400001928E-02 0. -1.
    10030    2    1    2    0    0  0.00000000000E+00  0.00000000000E+00 -0.22968630004E+03  0.23950444668E+04  0.23840054953E+04 0.  0.
        4    1    3    3  502    0  0.50764330318E+02 -0.85286831201E+03 -0.94990049839E+03  0.12776047685E+04  0.12699999809E+01 0. -1.
       -4    1    3    3    0  502 -0.50764330318E+02  0.85286831201E+03  0.72021419835E+03  0.11174396983E+04  0.12699999809E+01 0.  1.
</event>
<event>
 5   0  0.3934906E-05  0.2388569E+04  0.7818609E-02  0.8443795E-01
       -1   -1    0    0    0  501  0.00000000000E+00  0.00000000000E+00  0.12358339521E+04  0.12358339521E+04  0.50400001928E-02 0. -1.
        1   -1    0    0  501    0  0.00000000000E+00  0.00000000000E+00 -0.11541324069E+04  0.11541324069E+04  0.50400001928E-02 0.  1.
    10030    2    1    2    0    0  0.00000000000E+00  0.00000000000E+00  0.81701545180E+02  0.23899663590E+04  0.23885694578E+04 0.  0.
        2    1    3    3  502    0  0.10072429351E+04  0.45225529352E+03 -0.41465477780E+03  0.11794116184E+04  0.25500000920E-02 0.  1.
       -2    1    3    3    0  502 -0.10072429351E+04 -0.45225529352E+03  0.49635632298E+03  0.12105547407E+04  0.25500000920E-02 0. -1.
</event>
<event>
 5   0  0.4260395E-05  0.2131398E+04  0.7818609E-02  0.8547537E-01
        1   -1    0    0  501    0  0.00000000000E+00  0.00000000000E+00  0.81650015625E+03  0.81650015626E+03  0.50400001928E-02 0.  1.
       -1   -1    0    0    0  501  0.00000000000E+00  0.00000000000E+00 -0.13909538661E+04  0.13909538662E+04  0.50400001928E-02 0. -1.
    10030    2    1    2    0    0  0.00000000000E+00  0.00000000000E+00 -0.57445370990E+03  0.22074540224E+04  0.21313977096E+04 0.  0.
        4    1    3    3  502    0 -0.29244209198E+03  0.58944798136E+03 -0.11554370079E+04  0.13296644660E+04  0.12699999809E+01 0. -1.
       -4    1    3    3    0  502  0.29244209198E+03 -0.58944798136E+03  0.58098329803E+03  0.87778955644E+03  0.12699999809E+01 0.  1.
</event>
<event>
 5   0  0.9144244E-05  0.2327064E+04  0.7818609E-02  0.8467326E-01
       -2   -1    0    0    0  501  0.00000000000E+00  0.00000000000E+00  0.90494420814E+03  0.90494420814E+03  0.25500000920E-02 0. -1.
        2   -1    0    0  501    0  0.00000000000E+00  0.00000000000E+00 -0.14960108701E+04  0.14960108701E+04  0.25500000920E-02 0.  1.
    10030    2    1    2    0    0  0.00000000000E+00  0.00000000000E+00 -0.59106666197E+03  0.24009550783E+04  0.23270637054E+04 0.  0.
        1    1    3    3  502    0 -0.13250369756E+03  0.11533616771E+04 -0.21557423898E+03  0.11807932251E+04  0.50400001928E-02 0.  1.
       -1    1    3    3    0  502  0.13250369756E+03 -0.11533616771E+04 -0.37549242299E+03  0.12201618531E+04  0.50400001928E-02 0. -1.
</event>
<event>
 5   0  0.9519092E-05  0.2444080E+04  0.7818609E-02  0.8423182E-01
       -2   -1    0    0    0  501  0.00000000000E+00  0.00000000000E+00  0.63037205463E+03  0.63037205463E+03  0.25500000920E-02 0. -1.
        2   -1    0    0  501    0  0.00000000000E+00  0.00000000000E+00 -0.23690489558E+04  0.23690489558E+04  0.25500000920E-02 0.  1.
    10030    2    1    2    0    0  0.00000000000E+00  0.00000000000E+00 -0.17386769012E+04  0.29994210105E+04  0.24440804060E+04 0.  0.
        4    1    3    3  502    0 -0.45467155027E+03 -0.10510742680E+04 -0.13927400888E+04  0.18031111733E+04  0.12699999809E+01 0.  1.
       -4    1    3    3    0  502  0.45467155027E+03  0.10510742680E+04 -0.34593681238E+03  0.11963098371E+04  0.12699999809E+01 0. -1.
</event>
<event>
 5   0  0.4061631E-05  0.2400236E+04  0.7818609E-02  0.8439415E-01
        1   -1    0    0  501    0  0.00000000000E+00  0.00000000000E+00  0.16864758295E+04  0.16864758295E+04  0.50400001928E-02 0.  1.
       -1   -1    0    0    0  501  0.00000000000E+00  0.00000000000E+00 -0.85401974051E+03  0.85401974052E+03  0.50400001928E-02 0. -1.
    10030    2    1    2    0    0  0.00000000000E+00  0.00000000000E+00  0.83245608903E+03  0.25404955701E+04  0.24002363636E+04 0.  0.
        3    1    3    3  502    0  0.26286590888E+02  0.26550240377E+03  0.16546886461E+04  0.16760599742E+04  0.10100000352E+00 0.  1.
       -3    1    3    3    0  502 -0.26286590888E+02 -0.26550240377E+03 -0.82223255710E+03  0.86443559588E+03  0.10100000352E+00 0. -1.
</event>
<event>
 5   0  0.9182865E-05  0.1215610E+04  0.7818609E-02  0.9099301E-01
        2   -1    0    0  501    0  0.00000000000E+00  0.00000000000E+00  0.22782337125E+03  0.22782337126E+03  0.25500000920E-02 0.  1.
       -2   -1    0    0    0  501  0.00000000000E+00  0.00000000000E+00 -0.16215509826E+04  0.16215509826E+04  0.25500000920E-02 0. -1.
    10030    2    1    2    0    0  0.00000000000E+00  0.00000000000E+00 -0.13937276113E+04  0.18493743538E+04  0.12156104829E+04 0.  0.
        3    1    3    3  502    0  0.24193413490E+03 -0.37646603703E+03 -0.71129431344E+02  0.45312052356E+03  0.10100000352E+00 0.  1.
       -3    1    3    3    0  502 -0.24193413490E+03  0.37646603703E+03 -0.13225981800E+04  0.13962538303E+04  0.10100000352E+00 0. -1.
</event>
<event>
 5   0  0.4061631E-05  0.2315470E+04  0.7818609E-02  0.8471846E-01
        1   -1    0    0  501    0  0.00000000000E+00  0.00000000000E+00  0.10075679037E+04  0.10075679037E+04  0.50400001928E-02 0.  1.
       -1   -1    0    0    0  501  0.00000000000E+00  0.00000000000E+00 -0.13302827701E+04  0.13302827701E+04  0.50400001928E-02 0. -1.
    10030    2    1    2    0    0  0.00000000000E+00  0.00000000000E+00 -0.32271486639E+03  0.23378506738E+04  0.23154699065E+04 0.  0.
        3    1    3    3  502    0 -0.84694845915E+03  0.42560483379E+03  0.50981520670E+03  0.10762772515E+04  0.10100000352E+00 0.  1.
       -3    1    3    3    0  502  0.84694845915E+03 -0.42560483379E+03 -0.83253007308E+03  0.12615734223E+04  0.10100000352E+00 0. -1.
</event>
<event>
 5   0  0.3934906E-05  0.1298316E+04  0.7818609E-02  0.9030902E-01
        1   -1    0    0  501    0  0.00000000000E+00  0.00000000000E+00  0.13552392900E+04  0.13552392900E+04  0.50400001928E-02 0. -1.
       -1   -1    0    0    0  501  0.00000000000E+00  0.00000000000E+00 -0.31094594989E+03  0.31094594993E+03  0.50400001928E-02 0.  1.
    10030    2    1    2    0    0  0.00000000000E+00  0.00000000000E+00  0.10442933401E+04  0.16661852399E+04  0.12983160916E+04 0.  0.
        2    1    3    3  502    0 -0.76739273498E+02 -0.55485205635E+03  0.10106836500E+03  0.56917882510E+03  0.25500000920E-02 0.  1.
       -2    1    3    3    0  502  0.76739273498E+02  0.55485205635E+03  0.94322497510E+03  0.10970064148E+04  0.25500000920E-02 0. -1.
</event>
<event>
 5   0  0.9750757E-05  0.2396851E+04  0.7818609E-02  0.8440683E-01
       -2   -1    0    0    0  501  0.00000000000E+00  0.00000000000E+00  0.61742492225E+03  0.61742492225E+03  0.25500000920E-02 0. -1.
        2   -1    0    0  501    0  0.00000000000E+00  0.00000000000E+00 -0.23261511946E+04  0.23261511946E+04  0.25500000920E-02 0.  1.
    10030    2    1    2    0    0  0.00000000000E+00  0.00000000000E+00 -0.17087262723E+04  0.29435761168E+04  0.23968510345E+04 0.  0.
        2    1    3    3  502    0  0.11300028867E+04 -0.14271224747E+03 -0.39657540968E+03  0.12060453413E+04  0.25500000920E-02 0. -1.
       -2    1    3    3    0  502 -0.11300028867E+04  0.14271224747E+03 -0.13121508626E+04  0.17375307755E+04  0.25500000920E-02 0.  1.
</event>
<event>
 5   0  0.3234750E-05  0.1481858E+04  0.7818609E-02  0.8896608E-01
        3   -1    0    0  501    0  0.00000000000E+00  0.00000000000E+00  0.73022071415E+03  0.73022072114E+03  0.10100000352E+00 0.  1.
       -3   -1    0    0    0  501  0.00000000000E+00  0.00000000000E+00 -0.75179380164E+03  0.75179380842E+03  0.10100000352E+00 0. -1.
    10030    2    1    2    0    0  0.00000000000E+00  0.00000000000E+00 -0.21573087483E+02  0.14820145296E+04  0.14818575059E+04 0.  0.
        2    1    3    3  502    0 -0.17295517371E+03 -0.60221097029E+03  0.38473465698E+03  0.73524982226E+03  0.25500000920E-02 0. -1.
       -2    1    3    3    0  502  0.17295517371E+03  0.60221097029E+03 -0.40630774446E+03  0.74676470730E+03  0.25500000920E-02 0.  1.
</event>
<event>
 5   0  0.4208577E-05  0.2443519E+04  0.7818609E-02  0.8423388E-01
        1   -1    0    0  501    0  0.00000000000E+00  0.00000000000E+00  0.11148947496E+04  0.11148947496E+04  0.50400001928E-02 0.  1.
       -1   -1    0    0    0  501  0.00000000000E+00  0.00000000000E+00 -0.13388672312E+04  0.13388672313E+04  0.50400001928E-02 0. -1.
    10030    2    1    2    0    0  0.00000000000E+00  0.00000000000E+00 -0.22397248163E+03  0.24537619809E+04  0.24435188123E+04 0.  0.
        1    1    3    3  502    0  0.58252239803E+03 -0.78446711671E+03  0.62455625905E+03  0.11596514658E+04  0.50400001928E-02 0.  1.
       -1    1    3    3    0  502 -0.58252239803E+03  0.78446711671E+03 -0.84852874068E+03  0.12941105151E+04  0.50400001928E-02 0. -1.
</event>
<event>
 5   0  0.9519092E-05  0.2154543E+04  0.7818609E-02  0.8537590E-01
       -2   -1    0    0    0  501  0.00000000000E+00  0.00000000000E+00  0.64780479506E+03  0.64780479507E+03  0.25500000920E-02 0. -1.
        2   -1    0    0  501    0  0.00000000000E+00  0.00000000000E+00 -0.17914563211E+04  0.17914563211E+04  0.25500000920E-02 0.  1.
    10030    2    1    2    0    0  0.00000000000E+00  0.00000000000E+00 -0.11436515260E+04  0.24392611161E+04  0.21545431023E+04 0.  0.
        4    1    3    3  502    0 -0.98384875972E+03  0.43948387227E+02 -0.10661253315E+04  0.14513837116E+04  0.12699999809E+01 0.  1.
       -4    1    3    3    0  502  0.98384875972E+03 -0.43948387227E+02 -0.77526194480E+02  0.98787740458E+03  0.12699999809E+01 0. -1.
</event>
<event>
 5   0  0.4208577E-05  0.2442458E+04  0.7818609E-02  0.8423777E-01
       -1   -1    0    0    0  501  0.00000000000E+00  0.00000000000E+00  0.15757960069E+04  0.15757960069E+04  0.50400001928E-02 0.  1.
        1   -1    0    0  501    0  0.00000000000E+00  0.00000000000E+00 -0.94644277580E+03  0.94644277582E+03  0.50400001928E-02 0. -1.
    10030    2    1    2    0    0  0.00000000000E+00  0.00000000000E+00  0.62935323110E+03  0.25222387827E+04  0.24424583902E+04 0.  0.
        1    1    3    3  502    0  0.10829353622E+04  0.55982471688E+03  0.38948622232E+03  0.12797860093E+04  0.50400001928E-02 0. -1.
       -1    1    3    3    0  502 -0.10829353622E+04 -0.55982471688E+03  0.23986700878E+03  0.12424527734E+04  0.50400001928E-02 0.  1.
</event>
<event>
 5   0  0.9144244E-05  0.2400731E+04  0.7818609E-02  0.8439230E-01
        2   -1    0    0  501    0  0.00000000000E+00  0.00000000000E+00  0.20778670198E+04  0.20778670198E+04  0.25500000920E-02 0. -1.
       -2   -1    0    0    0  501  0.00000000000E+00  0.00000000000E+00 -0.69344087400E+03  0.69344087400E+03  0.25500000920E-02 0.  1.
    10030    2    1    2    0    0  0.00000000000E+00  0.00000000000E+00  0.13844261458E+04  0.27713078938E+04  0.24007314904E+04 0.  0.
        1    1    3    3  502    0 -0.88199125718E+03 -0.48592496751E+03 -0.61970268270E+02  0.10088964099E+04  0.50400001928E-02 0.  1.
       -1    1    3    3    0  502  0.88199125718E+03  0.48592496751E+03  0.14463964140E+04  0.17624114838E+04  0.50400001928E-02 0. -1.
</event>
<event>
 5   0  0.9491680E-05  0.1558450E+04  0.7818609E-02  0.8846488E-01
       -2   -1    0    0    0  501  0.00000000000E+00  0.00000000000E+00  0.80632685578E+03  0.80632685579E+03  0.25500000920E-02 0. -1.
        2   -1    0    0  501    0  0.00000000000E+00  0.00000000000E+00 -0.75303395667E+03  0.75303395668E+03  0.25500000920E-02 0.  1.
    10030    2    1    2    0    0  0.00000000000E+00  0.00000000000E+00  0.53292899108E+02  0.15593608125E+04  0.15584498742E+04 0.  0.
        5    1    3    3  502    0 -0.67590714050E+03 -0.37043151694E+03 -0.87873240450E+02  0.77576656780E+03  0.46999998093E+01 0.  1.
       -5    1    3    3    0  502  0.67590714050E+03  0.37043151694E+03  0.14116613956E+03  0.78359424467E+03  0.46999998093E+01 0. -1.
</event>
<event>
 5   0  0.4260395E-05  0.2345231E+04  0.7818609E-02  0.8460298E-01
        1   -1    0    0  501    0  0.00000000000E+00  0.00000000000E+00  0.11749599571E+04  0.11749599571E+04  0.50400001928E-02 0.  1.
       -1   -1    0    0    0  501  0.00000000000E+00  0.00000000000E+00 -0.11702761041E+04  0.11702761041E+04  0.50400001928E-02 0. -1.
    10030    2    1    2    0    0  0.00000000000E+00  0.00000000000E+00  0.46838530108E+01  0.23452360611E+04  0.23452313839E+04 0.  0.
        4    1    3    3  502    0  0.52510583556E+02  0.12956091875E+03  0.11665961778E+04  0.11749432531E+04  0.12699999809E+01 0.  1.
       -4    1    3    3    0  502 -0.52510583556E+02 -0.12956091875E+03 -0.11619123248E+04  0.11702928080E+04  0.12699999809E+01 0. -1.
</event>
<event>
 5   0  0.9491680E-05  0.2403790E+04  0.7818609E-02  0.8438086E-01
        2   -1    0    0  501    0  0.00000000000E+00  0.00000000000E+00  0.18437576220E+04  0.18437576220E+04  0.25500000920E-02 0. -1.
       -2   -1    0    0    0  501  0.00000000000E+00  0.00000000000E+00 -0.78348243611E+03  0.78348243612E+03  0.25500000920E-02 0.  1.
    10030    2    1    2    0    0  0.00000000000E+00  0.00000000000E+00  0.10602751859E+04  0.26272400581E+04  0.24037901017E+04 0.  0.
        5    1    3    3  502    0 -0.32659169660E+03 -0.10987326353E+04  0.92519909288E+03  0.14730549859E+04  0.46999998093E+01 0.  1.
       -5    1    3    3    0  502  0.32659169660E+03  0.10987326353E+04  0.13507609304E+03  0.11541850722E+04  0.46999998093E+01 0. -1.
</event>
<event>
 5   0  0.3934906E-05  0.2058213E+04  0.7818609E-02  0.8579877E-01
        1   -1    0    0  501    0  0.00000000000E+00  0.00000000000E+00  0.14724756213E+04  0.14724756213E+04  0.50400001928E-02 0. -1.
       -1   -1    0    0    0  501  0.00000000000E+00  0.00000000000E+00 -0.71923806845E+03  0.71923806847E+03  0.50400001928E-02 0.  1.
    10030    2    1    2    0    0  0.00000000000E+00  0.00000000000E+00  0.75323755285E+03  0.21917136898E+04  0.20582133240E+04 0.  0.
        2    1    3    3  502    0  0.25249045225E+03  0.15193393156E+03  0.14265887173E+04  0.14567054322E+04  0.25500000920E-02 0. -1.
       -2    1    3    3    0  502 -0.25249045225E+03 -0.15193393156E+03 -0.67335116442E+03  0.73500825755E+03  0.25500000920E-02 0.  1.
</event>
<event>
 5   0  0.9750757E-05  0.2379572E+04  0.7818609E-02  0.8447191E-01
       -2   -1    0    0    0  501  0.00000000000E+00  0.00000000000E+00  0.14202614975E+04  0.14202614975E+04  0.25500000920E-02 0.  1.
        2   -1    0    0  501    0  0.00000000000E+00  0.00000000000E+00 -0.99671116716E+03  0.99671116716E+03  0.25500000920E-02 0. -1.
    10030    2    1    2    0    0  0.00000000000E+00  0.00000000000E+00  0.42355033030E+03  0.24169726646E+04  0.23795718058E+04 0.  0.
        2    1    3    3  502    0  0.30594752918E+03  0.95352523551E+03 -0.44079958216E+03  0.10941291226E+04  0.25500000920E-02 0. -1.
       -2    1    3    3    0  502 -0.30594752918E+03 -0.95352523551E+03  0.86434991245E+03  0.13228435420E+04  0.25500000920E-02 0.  1.
</event>
<event>
 5   0  0.4018942E-05  0.2454653E+04  0.7818609E-02  0.8419321E-01
       -1   -1    0    0    0  501  0.00000000000E+00  0.00000000000E+00  0.91537891976E+03  0.91537891977E+03  0.50400001928E-02 0. -1.
        1   -1    0    0  501    0  0.00000000000E+00  0.00000000000E+00 -0.16455810323E+04  0.16455810323E+04  0.50400001928E-02 0.  1.
    10030    2    1    2    0    0  0.00000000000E+00  0.00000000000E+00 -0.73020211256E+03  0.25609599521E+04  0.24546528779E+04 0.  0.
        5    1    3    3  502    0  0.19725020653E+03 -0.19985846062E+03 -0.16116066347E+04  0.16358939707E+04  0.46999998093E+01 0.  1.
       -5    1    3    3    0  502 -0.19725020653E+03  0.19985846062E+03  0.88140452216E+03  0.92506598140E+03  0.46999998093E+01 0. -1.
</event>
</LesHouchesEvents>
