<LesHouchesEvents version="3.0">
<header>
<!--
#*********************************************************************
#                                                                    *
#                        MadGraph5_aMC@NLO                           *
#                                                                    *
#                           Going Beyond                             *
#                                                                    *
#                   http://madgraph.hep.uiuc.edu                     *
#                   http://madgraph.phys.ucl.ac.be                   *
#                   http://amcatnlo.cern.ch                          *
#                                                                    *
#                     The MadGraph5_aMC@NLO team                     *
#                                                                    *
#....................................................................*
#                                                                    *
# This file contains all the information necessary to reproduce      *
# the events generated:                                              *
#                                                                    *
# 1. software version                                                *
# 2. proc_card          : code generation info including model       *
# 3. param_card         : model primary parameters in the LH format  *
# 4. run_card           : running parameters (collider and cuts)     *
# 5. pythia_card        : present only if pythia has been run        *
# 6. pgs_card           : present only if pgs has been run           *
# 7. delphes_cards      : present only if delphes has been run       *
#                                                                    *
#                                                                    *
#*********************************************************************
-->
<MGVersion>
#5.2.2.3
</MGVersion>
<MG5ProcCard>
#************************************************************
#*                     MadGraph5_aMC@NLO                    *
#*                                                          *
#*                *                       *                 *
#*                  *        * *        *                   *
#*                    * * * * 5 * * * *                     *
#*                  *        * *        *                   *
#*                *                       *                 *
#*                                                          *
#*                                                          *
#*         VERSION 2.2.3                 2015-02-10         *
#*                                                          *
#*    The MadGraph5_aMC@NLO Development Team - Find us at   *
#*    https://server06.fynu.ucl.ac.be/projects/madgraph     *
#*                                                          *
#************************************************************
#*                                                          *
#*               Command File for MadGraph5_aMC@NLO         *
#*                                                          *
#*     run as ./bin/mg5_aMC  filename                       *
#*                                                          *
#************************************************************
set group_subprocesses Auto
set ignore_six_quark_processes False
set loop_optimized_output True
set gauge unitary
set complex_mass_scheme False
import model sm
define p = g u c d s u~ c~ d~ s~
define j = g u c d s u~ c~ d~ s~
define l+ = e+ mu+
define l- = e- mu-
define vl = ve vm vt
define vl~ = ve~ vm~ vt~
import model Zprime_UFO
generate p p > zph, zph > j j
add process p p > zph, zph > b b~
output Dijet_signal
</MG5ProcCard>
<MGProcCard>
#*********************************************************************
#                        MadGraph/MadEvent                           *
#                   http://madgraph.hep.uiuc.edu                     *
#                                                                    *
#                          proc_card.dat                             *
#*********************************************************************
#                                                                    *
#            This Files is generated by MADGRAPH 5                   *
#                                                                    *
# WARNING: This Files is generated for MADEVENT (compatibility issue)*
#          This files is NOT a valid MG4 proc_card.dat               *
#          Running this in MG4 will NEVER reproduce the result of MG5*
#                                                                    *
#*********************************************************************
#*********************************************************************
# Process(es) requested : mg2 input                                  *
#*********************************************************************
# Begin PROCESS # This is TAG. Do not modify this line
p p > zph , zph > j j           #Process
# Be carefull the coupling are here in MG5 convention
          
end_coup           # End the couplings input

done               # this tells MG there are no more procs
# End PROCESS  # This is TAG. Do not modify this line
#*********************************************************************
# Model information                                                  *
#*********************************************************************
# Begin MODEL  # This is TAG. Do not modify this line
Zprime_UFO
# End   MODEL  # This is TAG. Do not modify this line
#*********************************************************************
# Start multiparticle definitions                                    *
#*********************************************************************
# Begin MULTIPARTICLES # This is TAG. Do not modify this line

# End  MULTIPARTICLES # This is TAG. Do not modify this line
</MGProcCard>
<MGRunCard>
#*********************************************************************
#                       MadGraph5_aMC@NLO                            *
#                                                                    *
#                     run_card.dat MadEvent                          *
#                                                                    *
#  This file is used to set the parameters of the run.               *
#                                                                    *
#  Some notation/conventions:                                        *
#                                                                    *
#   Lines starting with a '# ' are info or comments                  *
#                                                                    *
#   mind the format:   value    = variable     ! comment             *
#*********************************************************************
#
#*******************                                                 
# Running parameters
#*******************                                                 
#                                                                    
#*********************************************************************
# Tag name for the run (one word)                                    *
#*********************************************************************
  tag_1     = run_tag ! name of the run 
#*********************************************************************
# Run to generate the grid pack                                      *
#*********************************************************************
  .false.     = gridpack  !True = setting up the grid pack
#*********************************************************************
# Number of events and rnd seed                                      *
# Warning: Do not generate more than 1M events in a single run       *
# If you want to run Pythia, avoid more than 50k events in a run.    *
#*********************************************************************
  2000 = nevents ! Number of unweighted events requested 
 2532 = iseed   ! rnd seed (0=assigned automatically=default))
#*********************************************************************
# Collider type and energy                                           *
# lpp: 0=No PDF, 1=proton, -1=antiproton, 2=photon from proton,      *
#                                         3=photon from electron     *
#*********************************************************************
        1     = lpp1    ! beam 1 type 
        1     = lpp2    ! beam 2 type
     4000     = ebeam1  ! beam 1 total energy in GeV
     4000     = ebeam2  ! beam 2 total energy in GeV
#*********************************************************************
# Beam polarization from -100 (left-handed) to 100 (right-handed)    *
#*********************************************************************
        0     = polbeam1 ! beam polarization for beam 1
        0     = polbeam2 ! beam polarization for beam 2
#*********************************************************************
# PDF CHOICE: this automatically fixes also alpha_s and its evol.    *
#*********************************************************************
 'nn23lo1'    = pdlabel     ! PDF set                                     
 230000    = lhaid     ! if pdlabel=lhapdf, this is the lhapdf number
#*********************************************************************
# Renormalization and factorization scales                           *
#*********************************************************************
 F        = fixed_ren_scale  ! if .true. use fixed ren scale
 F        = fixed_fac_scale  ! if .true. use fixed fac scale
 91.1880  = scale            ! fixed ren scale
 91.1880  = dsqrt_q2fact1    ! fixed fact scale for pdf1
 91.1880  = dsqrt_q2fact2    ! fixed fact scale for pdf2
 1        = scalefact        ! scale factor for event-by-event scales
#*********************************************************************
# Matching - Warning! ickkw > 1 is still beta
#*********************************************************************
 0        = ickkw            ! 0 no matching, 1 MLM, 2 CKKW matching
 1        = highestmult      ! for ickkw=2, highest mult group
 1        = ktscheme         ! for ickkw=1, 1 Durham kT, 2 Pythia pTE
 1        = alpsfact         ! scale factor for QCD emission vx
 F        = chcluster        ! cluster only according to channel diag
 T        = pdfwgt           ! for ickkw=1, perform pdf reweighting
 5        = asrwgtflavor     ! highest quark flavor for a_s reweight
 T        = clusinfo         ! include clustering tag in output
 3.0      = lhe_version       ! Change the way clustering information pass to shower.        
#*********************************************************************
#**********************************************************
#
#**********************************************************
# Automatic ptj and mjj cuts if xqcut > 0
# (turn off for VBF and single top processes)
#**********************************************************
   T  = auto_ptj_mjj  ! Automatic setting of ptj and mjj
#**********************************************************
#                                                                    
#**********************************
# BW cutoff (M+/-bwcutoff*Gamma)
#**********************************
  15  = bwcutoff      ! (M+/-bwcutoff*Gamma)
#**********************************************************
# Apply pt/E/eta/dr/mij cuts on decay products or not
# (note that etmiss/ptll/ptheavy/ht/sorted cuts always apply)
#**********************************************************
   T  = cut_decays    ! Cut decay products 
#*************************************************************
# Number of helicities to sum per event (0 = all helicities)
# 0 gives more stable result, but longer run time (needed for
# long decay chains e.g.).
# Use >=2 if most helicities contribute, e.g. pure QCD.
#*************************************************************
   0  = nhel          ! Number of helicities used per event
#*******************                                                 
# Standard Cuts
#*******************                                                 
#                                                                    
#*********************************************************************
# Minimum and maximum pt's (for max, -1 means no cut)                *
#*********************************************************************
 20  = ptj       ! minimum pt for the jets 
  0  = ptb       ! minimum pt for the b 
 10  = pta       ! minimum pt for the photons 
 10  = ptl       ! minimum pt for the charged leptons 
  0  = misset    ! minimum missing Et (sum of neutrino's momenta)
  0  = ptheavy   ! minimum pt for one heavy final state
 1.0 = ptonium   ! minimum pt for the quarkonium states
 -1  = ptjmax    ! maximum pt for the jets
 -1  = ptbmax    ! maximum pt for the b
 -1  = ptamax    ! maximum pt for the photons
 -1  = ptlmax    ! maximum pt for the charged leptons
 -1  = missetmax ! maximum missing Et (sum of neutrino's momenta)
#*********************************************************************
# Minimum and maximum E's (in the center of mass frame)              *
#*********************************************************************
  0  = ej     ! minimum E for the jets 
  0  = eb     ! minimum E for the b 
  0  = ea     ! minimum E for the photons 
  0  = el     ! minimum E for the charged leptons 
 -1   = ejmax ! maximum E for the jets
 -1   = ebmax ! maximum E for the b
 -1   = eamax ! maximum E for the photons
 -1   = elmax ! maximum E for the charged leptons
#*********************************************************************
# Maximum and minimum absolute rapidity (for max, -1 means no cut)   *
#*********************************************************************
   5  = etaj    ! max rap for the jets 
  -1  = etab    ! max rap for the b
 2.5  = etaa    ! max rap for the photons 
 2.5  = etal    ! max rap for the charged leptons 
 0.6  = etaonium ! max rap for the quarkonium states
   0  = etajmin ! min rap for the jets
   0  = etabmin ! min rap for the b
   0  = etaamin ! min rap for the photons
   0  = etalmin ! main rap for the charged leptons
#*********************************************************************
# Minimum and maximum DeltaR distance                                *
#*********************************************************************
 0.4 = drjj    ! min distance between jets 
 0   = drbb    ! min distance between b's 
 0.4 = drll    ! min distance between leptons 
 0.4 = draa    ! min distance between gammas 
 0   = drbj    ! min distance between b and jet 
 0.4 = draj    ! min distance between gamma and jet 
 0.4 = drjl    ! min distance between jet and lepton 
 0   = drab    ! min distance between gamma and b 
 0   = drbl    ! min distance between b and lepton 
 0.4 = dral    ! min distance between gamma and lepton 
 -1  = drjjmax ! max distance between jets
 -1  = drbbmax ! max distance between b's
 -1  = drllmax ! max distance between leptons
 -1  = draamax ! max distance between gammas
 -1  = drbjmax ! max distance between b and jet
 -1  = drajmax ! max distance between gamma and jet
 -1  = drjlmax ! max distance between jet and lepton
 -1  = drabmax ! max distance between gamma and b
 -1  = drblmax ! max distance between b and lepton
 -1  = dralmax ! maxdistance between gamma and lepton
#*********************************************************************
# Minimum and maximum invariant mass for pairs                       *
# WARNING: for four lepton final state mmll cut require to have      *
#          different lepton masses for each flavor!                  *           
#*********************************************************************
 0   = mmjj    ! min invariant mass of a jet pair 
 0   = mmbb    ! min invariant mass of a b pair 
 0   = mmaa    ! min invariant mass of gamma gamma pair
 0   = mmll    ! min invariant mass of l+l- (same flavour) lepton pair
 -1  = mmjjmax ! max invariant mass of a jet pair
 -1  = mmbbmax ! max invariant mass of a b pair
 -1  = mmaamax ! max invariant mass of gamma gamma pair
 -1  = mmllmax ! max invariant mass of l+l- (same flavour) lepton pair
#*********************************************************************
# Minimum and maximum invariant mass for all letpons                 *
#*********************************************************************
 0   = mmnl    ! min invariant mass for all letpons (l+- and vl) 
 -1  = mmnlmax ! max invariant mass for all letpons (l+- and vl) 
#*********************************************************************
# Minimum and maximum pt for 4-momenta sum of leptons                *
#*********************************************************************
 0   = ptllmin  ! Minimum pt for 4-momenta sum of leptons(l and vl)
 -1  = ptllmax  ! Maximum pt for 4-momenta sum of leptons(l and vl)
#*********************************************************************
# Inclusive cuts                                                     *
#*********************************************************************
 0  = xptj ! minimum pt for at least one jet  
 0  = xptb ! minimum pt for at least one b 
 0  = xpta ! minimum pt for at least one photon 
 0  = xptl ! minimum pt for at least one charged lepton 
#*********************************************************************
# Control the pt's of the jets sorted by pt                          *
#*********************************************************************
 0   = ptj1min ! minimum pt for the leading jet in pt
 0   = ptj2min ! minimum pt for the second jet in pt
 0   = ptj3min ! minimum pt for the third jet in pt
 0   = ptj4min ! minimum pt for the fourth jet in pt
 -1  = ptj1max ! maximum pt for the leading jet in pt 
 -1  = ptj2max ! maximum pt for the second jet in pt
 -1  = ptj3max ! maximum pt for the third jet in pt
 -1  = ptj4max ! maximum pt for the fourth jet in pt
 0   = cutuse  ! reject event if fails any (0) / all (1) jet pt cuts
#*********************************************************************
# Control the pt's of leptons sorted by pt                           *
#*********************************************************************
 0   = ptl1min ! minimum pt for the leading lepton in pt
 0   = ptl2min ! minimum pt for the second lepton in pt
 0   = ptl3min ! minimum pt for the third lepton in pt
 0   = ptl4min ! minimum pt for the fourth lepton in pt
 -1  = ptl1max ! maximum pt for the leading lepton in pt 
 -1  = ptl2max ! maximum pt for the second lepton in pt
 -1  = ptl3max ! maximum pt for the third lepton in pt
 -1  = ptl4max ! maximum pt for the fourth lepton in pt
#*********************************************************************
# Control the Ht(k)=Sum of k leading jets                            *
#*********************************************************************
 0   = htjmin ! minimum jet HT=Sum(jet pt)
 -1  = htjmax ! maximum jet HT=Sum(jet pt)
 0   = ihtmin  !inclusive Ht for all partons (including b)
 -1  = ihtmax  !inclusive Ht for all partons (including b)
 0   = ht2min ! minimum Ht for the two leading jets
 0   = ht3min ! minimum Ht for the three leading jets
 0   = ht4min ! minimum Ht for the four leading jets
 -1  = ht2max ! maximum Ht for the two leading jets
 -1  = ht3max ! maximum Ht for the three leading jets
 -1  = ht4max ! maximum Ht for the four leading jets
#***********************************************************************
# Photon-isolation cuts, according to hep-ph/9801442                   *
# When ptgmin=0, all the other parameters are ignored                  *
# When ptgmin>0, pta and draj are not going to be used                 *
#***********************************************************************
   0 = ptgmin ! Min photon transverse momentum
 0.4 = R0gamma ! Radius of isolation code
 1.0 = xn ! n parameter of eq.(3.4) in hep-ph/9801442
 1.0 = epsgamma ! epsilon_gamma parameter of eq.(3.4) in hep-ph/9801442
 .true. = isoEM ! isolate photons from EM energy (photons and leptons)
#*********************************************************************
# WBF cuts                                                           *
#*********************************************************************
 0   = xetamin ! minimum rapidity for two jets in the WBF case  
 0   = deltaeta ! minimum rapidity for two jets in the WBF case 
#*********************************************************************
# KT DURHAM CUT                                                      *
#*********************************************************************
 -1    =  ktdurham        
 0.4  =  dparameter 
#*********************************************************************
# maximal pdg code for quark to be considered as a light jet         *
# (otherwise b cuts are applied)                                     *
#*********************************************************************
 4 = maxjetflavor    ! Maximum jet pdg code
#*********************************************************************
# Jet measure cuts                                                   *
#*********************************************************************
 0   = xqcut   ! minimum kt jet measure between partons
#*********************************************************************
#
#*********************************************************************
# Store info for systematics studies                                 *
# WARNING: If use_syst is T, matched Pythia output is                *
#          meaningful ONLY if plotted taking matchscale              *
#          reweighting into account!                                 *
#*********************************************************************
   F  = use_syst      ! Enable systematics studies
#
#**************************************
# Parameter of the systematics study
#  will be used by SysCalc (if installed)
#**************************************                                  
#
0.5 1 2 = sys_scalefact  # factorization/renormalization scale factor
0.5 1 2 = sys_alpsfact  # \alpha_s emission scale factors
30 50 = sys_matchscale # variation of merging scale
# PDF sets and number of members (0 or none for all members).
CT10nlo.LHgrid = sys_pdf # matching scales
# MSTW2008nlo68cl.LHgrid 1  = sys_pdf
</MGRunCard>
<slha>
######################################################################
## PARAM_CARD AUTOMATICALY GENERATED BY MG5 FOLLOWING UFO MODEL   ####
######################################################################
##                                                                  ##
##  Width set on Auto will be computed following the information    ##
##        present in the decay.py files of the model.               ##
##        See  arXiv:1402.1178 for more details.                    ##
##                                                                  ##
######################################################################

###################################
## INFORMATION FOR CKMBLOCK
###################################
Block ckmblock 
    1 2.277360e-01 # cabi 

###################################
## INFORMATION FOR FRBLOCK
###################################
Block frblock 
    1 1.400000e+00 # gz 

###################################
## INFORMATION FOR MASS
###################################
Block mass 
    1 5.040000e-03 # MD 
    2 2.550000e-03 # MU 
    3 1.010000e-01 # MS 
    4 1.270000e+00 # MC 
    5 4.700000e+00 # MB 
    6 1.720000e+02 # MT 
   11 5.110000e-04 # Me 
   13 1.056600e-01 # MM 
   15 1.777000e+00 # MTA 
   23 9.118760e+01 # MZ 
   25 1.200000e+02 # MH 
  10030 1.500000e+03 # MZph 
  10031 3.000000e+02 # MZpl 
## Dependent parameters, given by model restrictions.
## Those values should be edited following the 
## analytical expression. MG5 ignores those values 
## but they are important for interfacing the output of MG5
## to external program such as Pythia.
  12 0.000000 # ve : 0.0 
  14 0.000000 # vm : 0.0 
  16 0.000000 # vt : 0.0 
  21 0.000000 # g : 0.0 
  22 0.000000 # a : 0.0 
  24 79.824360 # w+ : cmath.sqrt(MZ__exp__2/2. + cmath.sqrt(MZ__exp__4/4. - (aEW*cmath.pi*MZ__exp__2)/(Gf*sqrt__2))) 

###################################
## INFORMATION FOR SMINPUTS
###################################
Block sminputs 
    1 1.279000e+02 # aEWM1 
    2 1.166370e-05 # Gf 
    3 1.184000e-01 # aS 

###################################
## INFORMATION FOR YUKAWA
###################################
Block yukawa 
    1 5.040000e-03 # ymdo 
    2 2.550000e-03 # ymup 
    3 1.010000e-01 # yms 
    4 1.270000e+00 # ymc 
    5 4.700000e+00 # ymb 
    6 1.720000e+02 # ymt 
   11 5.110000e-04 # yme 
   13 1.056600e-01 # ymm 
   15 1.777000e+00 # ymtau 

###################################
## INFORMATION FOR DECAY
###################################
DECAY   6 1.508336e+00 # WT 
DECAY  23 2.495200e+00 # WZ 
DECAY  24 2.085000e+00 # WW 
DECAY  25 5.753088e-03 # WH 
## Dependent parameters, given by model restrictions.
## Those values should be edited following the 
## analytical expression. MG5 ignores those values 
## but they are important for interfacing the output of MG5
## to external program such as Pythia.
DECAY  1 0.000000 # d : 0.0 
DECAY  2 0.000000 # u : 0.0 
DECAY  3 0.000000 # s : 0.0 
DECAY  4 0.000000 # c : 0.0 
DECAY  5 0.000000 # b : 0.0 
DECAY  11 0.000000 # e- : 0.0 
DECAY  12 0.000000 # ve : 0.0 
DECAY  13 0.000000 # mu- : 0.0 
DECAY  14 0.000000 # vm : 0.0 
DECAY  15 0.000000 # ta- : 0.0 
DECAY  16 0.000000 # vt : 0.0 
DECAY  21 0.000000 # g : 0.0 
DECAY  22 0.000000 # a : 0.0 
DECAY  10030 0.308725 # zph : (gz__exp__2*MZph*(5 + cmath.sqrt(1 - (4*MT__exp__2)/MZph__exp__2)))/(144.*cmath.pi) 
DECAY  10031 0.132629 # zpl : (5*gz__exp__2*MZpl)/(144.*cmath.pi) 
#===========================================================
# QUANTUM NUMBERS OF NEW STATE(S) (NON SM PDG CODE)
#===========================================================

Block QNUMBERS 10030  # zph 
        1 0  # 3 times electric charge
        2 3  # number of spin states (2S+1)
        3 1  # colour rep (1: singlet, 3: triplet, 8: octet)
        4 0  # Particle/Antiparticle distinction (0=own anti)
Block QNUMBERS 10031  # zpl 
        1 0  # 3 times electric charge
        2 3  # number of spin states (2S+1)
        3 1  # colour rep (1: singlet, 3: triplet, 8: octet)
        4 0  # Particle/Antiparticle distinction (0=own anti)
</slha>
## END BANNER##
<MGGenerationInfo>
#  Number of Events        :         3953
#  Integrated weight (pb)  :  0.44831E+00
#  Max wgt                 :  0.15521E-03
#  Average wgt             :  0.11341E-03
</MGGenerationInfo>
</header>
<init>
     2212     2212  0.40000000000E+04  0.40000000000E+04 0 0  247000  247000 2   1
  0.44905970273E+00  0.10118893438E-02  0.15520670000E-03   0
</init>
<event>
 5   0  0.1511546E-03  0.1526853E+04  0.7818609E-02  0.8866790E-01
        2   -1    0    0  501    0  0.00000000000E+00  0.00000000000E+00  0.10529416853E+04  0.10529416853E+04  0.25500000920E-02 0. -1.
       -2   -1    0    0    0  501  0.00000000000E+00  0.00000000000E+00 -0.55351625821E+03  0.55351625822E+03  0.25500000920E-02 0.  1.
    10030    2    1    2    0    0  0.00000000000E+00  0.00000000000E+00  0.49942542709E+03  0.16064579435E+04  0.15268534203E+04 0.  0.
        1    1    3    3  502    0  0.41964668245E+03 -0.44337270744E+03 -0.23259470885E+03  0.65328630355E+03  0.50400001928E-02 0.  1.
       -1    1    3    3    0  502 -0.41964668245E+03  0.44337270744E+03  0.73202013594E+03  0.95317163997E+03  0.50400001928E-02 0. -1.
</event>
<event>
 5   0  0.1511546E-03  0.1501998E+04  0.7818609E-02  0.8883125E-01
        2   -1    0    0  501    0  0.00000000000E+00  0.00000000000E+00  0.19637510510E+04  0.19637510510E+04  0.25500000920E-02 0. -1.
       -2   -1    0    0    0  501  0.00000000000E+00  0.00000000000E+00 -0.28720517471E+03  0.28720517472E+03  0.25500000920E-02 0.  1.
    10030    2    1    2    0    0  0.00000000000E+00  0.00000000000E+00  0.16765458763E+04  0.22509562257E+04  0.15019979543E+04 0.  0.
        1    1    3    3  502    0  0.67072466510E+03  0.32274026587E+03  0.68865922583E+03  0.10140435814E+04  0.50400001928E-02 0. -1.
       -1    1    3    3    0  502 -0.67072466510E+03 -0.32274026587E+03  0.98788665047E+03  0.12369126444E+04  0.50400001928E-02 0.  1.
</event>
<event>
 5   0  0.1552067E-03  0.1488401E+04  0.7818609E-02  0.8892203E-01
        2   -1    0    0  501    0  0.00000000000E+00  0.00000000000E+00  0.18731042374E+04  0.18731042374E+04  0.25500000920E-02 0.  1.
       -2   -1    0    0    0  501  0.00000000000E+00  0.00000000000E+00 -0.29567745465E+03  0.29567745466E+03  0.25500000920E-02 0. -1.
    10030    2    1    2    0    0  0.00000000000E+00  0.00000000000E+00  0.15774267828E+04  0.21687816921E+04  0.14884014152E+04 0.  0.
        3    1    3    3  502    0 -0.49893194069E+02  0.55233864397E+03  0.15118147948E+04  0.16103264552E+04  0.10100000352E+00 0.  1.
       -3    1    3    3    0  502  0.49893194069E+02 -0.55233864397E+03  0.65611988002E+02  0.55845523688E+03  0.10100000352E+00 0. -1.
</event>
<event>
 5   0  0.1511546E-03  0.1499616E+04  0.7818609E-02  0.8884708E-01
       -2   -1    0    0    0  501  0.00000000000E+00  0.00000000000E+00  0.11496824127E+04  0.11496824127E+04  0.25500000920E-02 0.  1.
        2   -1    0    0  501    0  0.00000000000E+00  0.00000000000E+00 -0.48901534800E+03  0.48901534800E+03  0.25500000920E-02 0. -1.
    10030    2    1    2    0    0  0.00000000000E+00  0.00000000000E+00  0.66066706467E+03  0.16386977607E+04  0.14996164111E+04 0.  0.
        1    1    3    3  502    0  0.71917179980E+03 -0.13711474851E+03  0.50722257163E+03  0.89066450984E+03  0.50400001928E-02 0.  1.
       -1    1    3    3    0  502 -0.71917179980E+03  0.13711474851E+03  0.15344449305E+03  0.74803325084E+03  0.50400001928E-02 0. -1.
</event>
<event>
 5   0  0.1552067E-03  0.1417684E+04  0.7818609E-02  0.8941116E-01
        2   -1    0    0  501    0  0.00000000000E+00  0.00000000000E+00  0.61308501231E+03  0.61308501232E+03  0.25500000920E-02 0. -1.
       -2   -1    0    0    0  501  0.00000000000E+00  0.00000000000E+00 -0.81955555174E+03  0.81955555174E+03  0.25500000920E-02 0.  1.
    10030    2    1    2    0    0  0.00000000000E+00  0.00000000000E+00 -0.20647053943E+03  0.14326405641E+04  0.14176843450E+04 0.  0.
        3    1    3    3  502    0  0.27751976886E+03 -0.17825025875E+02 -0.76212786032E+03  0.81127913774E+03  0.10100000352E+00 0.  1.
       -3    1    3    3    0  502 -0.27751976886E+03  0.17825025875E+02  0.55565732089E+03  0.62136142632E+03  0.10100000352E+00 0. -1.
</event>
<event>
 5   0  0.7870317E-04  0.1441212E+04  0.7818609E-02  0.8924516E-01
        1   -1    0    0  501    0  0.00000000000E+00  0.00000000000E+00  0.81199244328E+03  0.81199244329E+03  0.50400001928E-02 0.  1.
       -1   -1    0    0    0  501  0.00000000000E+00  0.00000000000E+00 -0.63950441051E+03  0.63950441053E+03  0.50400001928E-02 0. -1.
    10030    2    1    2    0    0  0.00000000000E+00  0.00000000000E+00  0.17248803276E+03  0.14514968538E+04  0.14412116414E+04 0.  0.
        1    1    3    3  502    0 -0.11517408028E+03 -0.44327122062E+03 -0.47407002575E+03  0.65916373773E+03  0.50400001928E-02 0. -1.
       -1    1    3    3    0  502  0.11517408028E+03  0.44327122062E+03  0.64655805852E+03  0.79233311609E+03  0.50400001928E-02 0.  1.
</event>
<event>
 5   0  0.8365016E-04  0.1425275E+04  0.7818609E-02  0.8935724E-01
       -1   -1    0    0    0  501  0.00000000000E+00  0.00000000000E+00  0.52137503480E+03  0.52137503483E+03  0.50400001928E-02 0. -1.
        1   -1    0    0  501    0  0.00000000000E+00  0.00000000000E+00 -0.97406299751E+03  0.97406299752E+03  0.50400001928E-02 0.  1.
    10030    2    1    2    0    0  0.00000000000E+00  0.00000000000E+00 -0.45268796271E+03  0.14954380323E+04  0.14252748917E+04 0.  0.
        3    1    3    3  502    0 -0.64280096532E+03 -0.28734031817E+03 -0.34173318483E+03  0.78264878412E+03  0.10100000352E+00 0.  1.
       -3    1    3    3    0  502  0.64280096532E+03  0.28734031817E+03 -0.11095477788E+03  0.71278924823E+03  0.10100000352E+00 0. -1.
</event>
<event>
 5   0  0.1511546E-03  0.1498214E+04  0.7818609E-02  0.8885642E-01
       -2   -1    0    0    0  501  0.00000000000E+00  0.00000000000E+00  0.24056459678E+03  0.24056459679E+03  0.25500000920E-02 0.  1.
        2   -1    0    0  501    0  0.00000000000E+00  0.00000000000E+00 -0.23326832434E+04  0.23326832434E+04  0.25500000920E-02 0. -1.
    10030    2    1    2    0    0  0.00000000000E+00  0.00000000000E+00 -0.20921186466E+04  0.25732478402E+04  0.14982136081E+04 0.  0.
        1    1    3    3  502    0  0.51934322033E+03  0.37192751243E+03 -0.37398904299E+03  0.74021298239E+03  0.50400001928E-02 0.  1.
       -1    1    3    3    0  502 -0.51934322033E+03 -0.37192751243E+03 -0.17181296036E+04  0.18330348578E+04  0.50400001928E-02 0. -1.
</event>
<event>
 5   0  0.8191876E-04  0.1498315E+04  0.7818609E-02  0.8885574E-01
        1   -1    0    0  501    0  0.00000000000E+00  0.00000000000E+00  0.11289485167E+04  0.11289485167E+04  0.50400001928E-02 0. -1.
       -1   -1    0    0    0  501  0.00000000000E+00  0.00000000000E+00 -0.49713238312E+03  0.49713238315E+03  0.50400001928E-02 0.  1.
    10030    2    1    2    0    0  0.00000000000E+00  0.00000000000E+00  0.63181613355E+03  0.16260808998E+04  0.14983148755E+04 0.  0.
        2    1    3    3  502    0  0.29257055925E+03  0.10333818886E+03  0.10559342942E+04  0.11005787328E+04  0.25500000920E-02 0. -1.
       -2    1    3    3    0  502 -0.29257055925E+03 -0.10333818886E+03 -0.42411816062E+03  0.52550216707E+03  0.25500000920E-02 0.  1.
</event>
<event>
 5   0  0.1511546E-03  0.1488432E+04  0.7818609E-02  0.8892182E-01
       -2   -1    0    0    0  501  0.00000000000E+00  0.00000000000E+00  0.29459237223E+03  0.29459237224E+03  0.25500000920E-02 0. -1.
        2   -1    0    0  501    0  0.00000000000E+00  0.00000000000E+00 -0.18800817876E+04  0.18800817876E+04  0.25500000920E-02 0.  1.
    10030    2    1    2    0    0  0.00000000000E+00  0.00000000000E+00 -0.15854894154E+04  0.21746741599E+04  0.14884324020E+04 0.  0.
        1    1    3    3  502    0  0.92147850345E+01  0.22627162729E+03 -0.18285188948E+04  0.18424888359E+04  0.50400001928E-02 0.  1.
       -1    1    3    3    0  502 -0.92147850345E+01 -0.22627162729E+03  0.24302947943E+03  0.33218532399E+03  0.50400001928E-02 0. -1.
</event>
<event>
 5   0  0.5603875E-04  0.1357356E+04  0.7818609E-02  0.8985278E-01
        4   -1    0    0  501    0  0.00000000000E+00  0.00000000000E+00  0.12698664419E+04  0.12698670769E+04  0.12699999809E+01 0.  1.
       -4   -1    0    0    0  501  0.00000000000E+00  0.00000000000E+00 -0.36271645363E+03  0.36271867699E+03  0.12699999809E+01 0. -1.
    10030    2    1    2    0    0  0.00000000000E+00  0.00000000000E+00  0.90714998825E+03  0.16325857539E+04  0.13573559381E+04 0.  0.
        3    1    3    3  502    0  0.13791347254E+03 -0.17380320629E+02 -0.34541281342E+03  0.37233348403E+03  0.10100000352E+00 0. -1.
       -3    1    3    3    0  502 -0.13791347254E+03  0.17380320629E+02  0.12525628017E+04  0.12602522699E+04  0.10100000352E+00 0.  1.
</event>
<event>
 5   0  0.1484056E-03  0.1340258E+04  0.7818609E-02  0.8998236E-01
       -2   -1    0    0    0  501  0.00000000000E+00  0.00000000000E+00  0.74536030002E+03  0.74536030003E+03  0.25500000920E-02 0. -1.
        2   -1    0    0  501    0  0.00000000000E+00  0.00000000000E+00 -0.60249071121E+03  0.60249071122E+03  0.25500000920E-02 0.  1.
    10030    2    1    2    0    0  0.00000000000E+00  0.00000000000E+00  0.14286958881E+03  0.13478510112E+04  0.13402576727E+04 0.  0.
        5    1    3    3  502    0 -0.12773786372E+03  0.15003291846E+03 -0.57268104003E+03  0.60565047846E+03  0.46999998093E+01 0.  1.
       -5    1    3    3    0  502  0.12773786372E+03 -0.15003291846E+03  0.71555062884E+03  0.74220053279E+03  0.46999998093E+01 0. -1.
</event>
<event>
 5   0  0.8058234E-04  0.1523238E+04  0.7818609E-02  0.8869145E-01
        1   -1    0    0  501    0  0.00000000000E+00  0.00000000000E+00  0.12684129456E+04  0.12684129456E+04  0.50400001928E-02 0.  1.
       -1   -1    0    0    0  501  0.00000000000E+00  0.00000000000E+00 -0.45731436050E+03  0.45731436053E+03  0.50400001928E-02 0. -1.
    10030    2    1    2    0    0  0.00000000000E+00  0.00000000000E+00  0.81109858509E+03  0.17257273061E+04  0.15232379395E+04 0.  0.
        5    1    3    3  502    0 -0.32036757331E+03  0.32484143468E+02  0.11874792561E+04  0.12303737949E+04  0.46999998093E+01 0.  1.
       -5    1    3    3    0  502  0.32036757331E+03 -0.32484143468E+02 -0.37638067097E+03  0.49535351123E+03  0.46999998093E+01 0. -1.
</event>
<event>
 5   0  0.7870317E-04  0.9225276E+03  0.7818609E-02  0.9397851E-01
        1   -1    0    0  501    0  0.00000000000E+00  0.00000000000E+00  0.12358240550E+04  0.12358240550E+04  0.50400001928E-02 0. -1.
       -1   -1    0    0    0  501  0.00000000000E+00  0.00000000000E+00 -0.17216389778E+03  0.17216389785E+03  0.50400001928E-02 0.  1.
    10030    2    1    2    0    0  0.00000000000E+00  0.00000000000E+00  0.10636601573E+04  0.14079879529E+04  0.92252758516E+03 0.  0.
        1    1    3    3  502    0  0.27484120023E+03  0.20854294931E+03  0.99910643175E+03  0.10569964565E+04  0.50400001928E-02 0. -1.
       -1    1    3    3    0  502 -0.27484120023E+03 -0.20854294931E+03  0.64553725508E+02  0.35099149641E+03  0.50400001928E-02 0.  1.
</event>
<event>
 5   0  0.8365016E-04  0.1427054E+04  0.7818609E-02  0.8934465E-01
        1   -1    0    0  501    0  0.00000000000E+00  0.00000000000E+00  0.56560266956E+03  0.56560266958E+03  0.50400001928E-02 0.  1.
       -1   -1    0    0    0  501  0.00000000000E+00  0.00000000000E+00 -0.90013917454E+03  0.90013917455E+03  0.50400001928E-02 0. -1.
    10030    2    1    2    0    0  0.00000000000E+00  0.00000000000E+00 -0.33453650498E+03  0.14657418441E+04  0.14270544771E+04 0.  0.
        3    1    3    3  502    0  0.64453424733E+03 -0.27743638307E+03 -0.30010246914E+03  0.76318860370E+03  0.10100000352E+00 0. -1.
       -3    1    3    3    0  502 -0.64453424733E+03  0.27743638307E+03 -0.34434035838E+02  0.70255324044E+03  0.10100000352E+00 0.  1.
</event>
<event>
 5   0  0.8365016E-04  0.1496330E+04  0.7818609E-02  0.8886897E-01
       -1   -1    0    0    0  501  0.00000000000E+00  0.00000000000E+00  0.60622834150E+03  0.60622834152E+03  0.50400001928E-02 0. -1.
        1   -1    0    0  501    0  0.00000000000E+00  0.00000000000E+00 -0.92333375883E+03  0.92333375885E+03  0.50400001928E-02 0.  1.
    10030    2    1    2    0    0  0.00000000000E+00  0.00000000000E+00 -0.31710541733E+03  0.15295621004E+04  0.14963303022E+04 0.  0.
        3    1    3    3  502    0  0.54946149582E+03 -0.46601893805E+03  0.47592879266E+02  0.72204340477E+03  0.10100000352E+00 0. -1.
       -3    1    3    3    0  502 -0.54946149582E+03  0.46601893805E+03 -0.36469829660E+03  0.80751869560E+03  0.10100000352E+00 0.  1.
</event>
<event>
 5   0  0.1511546E-03  0.1492616E+04  0.7818609E-02  0.8889378E-01
        2   -1    0    0  501    0  0.00000000000E+00  0.00000000000E+00  0.69035551503E+03  0.69035551504E+03  0.25500000920E-02 0.  1.
       -2   -1    0    0    0  501  0.00000000000E+00  0.00000000000E+00 -0.80679577151E+03  0.80679577152E+03  0.25500000920E-02 0. -1.
    10030    2    1    2    0    0  0.00000000000E+00  0.00000000000E+00 -0.11644025648E+03  0.14971512866E+04  0.14926163745E+04 0.  0.
        1    1    3    3  502    0  0.66190738536E+03 -0.33721421016E+02  0.28592196594E+03  0.72181014932E+03  0.50400001928E-02 0.  1.
       -1    1    3    3    0  502 -0.66190738536E+03  0.33721421016E+02 -0.40236222242E+03  0.77534113723E+03  0.50400001928E-02 0. -1.
</event>
<event>
 5   0  0.8306301E-04  0.1409401E+04  0.7818609E-02  0.8947042E-01
        1   -1    0    0  501    0  0.00000000000E+00  0.00000000000E+00  0.10021035054E+04  0.10021035054E+04  0.50400001928E-02 0.  1.
       -1   -1    0    0    0  501  0.00000000000E+00  0.00000000000E+00 -0.49556035812E+03  0.49556035815E+03  0.50400001928E-02 0. -1.
    10030    2    1    2    0    0  0.00000000000E+00  0.00000000000E+00  0.50654314730E+03  0.14976638636E+04  0.14094009679E+04 0.  0.
        4    1    3    3  502    0 -0.11563351647E+03 -0.62594416284E+03 -0.68027731097E+02  0.64016137827E+03  0.12699999809E+01 0.  1.
       -4    1    3    3    0  502  0.11563351647E+03  0.62594416284E+03  0.57457087840E+03  0.85750248532E+03  0.12699999809E+01 0. -1.
</event>
<event>
 5   0  0.7870317E-04  0.1489363E+04  0.7818609E-02  0.8891558E-01
       -1   -1    0    0    0  501  0.00000000000E+00  0.00000000000E+00  0.36840481348E+03  0.36840481351E+03  0.50400001928E-02 0.  1.
        1   -1    0    0  501    0  0.00000000000E+00  0.00000000000E+00 -0.15052744573E+04  0.15052744573E+04  0.50400001928E-02 0. -1.
    10030    2    1    2    0    0  0.00000000000E+00  0.00000000000E+00 -0.11368696438E+04  0.18736792708E+04  0.14893627573E+04 0.  0.
        1    1    3    3  502    0  0.54672571951E+01  0.19442786297E+03  0.33588421105E+03  0.38813694498E+03  0.50400001928E-02 0.  1.
       -1    1    3    3    0  502 -0.54672571951E+01 -0.19442786297E+03 -0.14727538548E+04  0.14855423258E+04  0.50400001928E-02 0. -1.
</event>
<event>
 5   0  0.1526126E-03  0.1585476E+04  0.7818609E-02  0.8829521E-01
        2   -1    0    0  501    0  0.00000000000E+00  0.00000000000E+00  0.76866435452E+03  0.76866435452E+03  0.25500000920E-02 0.  1.
       -2   -1    0    0    0  501  0.00000000000E+00  0.00000000000E+00 -0.81756529981E+03  0.81756529981E+03  0.25500000920E-02 0. -1.
    10030    2    1    2    0    0  0.00000000000E+00  0.00000000000E+00 -0.48900945289E+02  0.15862296543E+04  0.15854757059E+04 0.  0.
        2    1    3    3  502    0  0.48375079413E+03  0.61596024220E+03 -0.14702996924E+03  0.79689375870E+03  0.25500000920E-02 0.  1.
       -2    1    3    3    0  502 -0.48375079413E+03 -0.61596024220E+03  0.98129023956E+02  0.78933589564E+03  0.25500000920E-02 0. -1.
</event>
<event>
 5   0  0.8365016E-04  0.1552135E+04  0.7818609E-02  0.8850505E-01
        1   -1    0    0  501    0  0.00000000000E+00  0.00000000000E+00  0.59747713823E+03  0.59747713826E+03  0.50400001928E-02 0. -1.
       -1   -1    0    0    0  501  0.00000000000E+00  0.00000000000E+00 -0.10080394365E+04  0.10080394365E+04  0.50400001928E-02 0.  1.
    10030    2    1    2    0    0  0.00000000000E+00  0.00000000000E+00 -0.41056229822E+03  0.16055165747E+04  0.15521346820E+04 0.  0.
        3    1    3    3  502    0  0.32213828316E+03  0.29971902361E+03 -0.86654521914E+03  0.97185657049E+03  0.10100000352E+00 0.  1.
       -3    1    3    3    0  502 -0.32213828316E+03 -0.29971902361E+03  0.45598292092E+03  0.63366000423E+03  0.10100000352E+00 0. -1.
</event>
<event>
 5   0  0.1552067E-03  0.1520090E+04  0.7818609E-02  0.8871202E-01
        2   -1    0    0  501    0  0.00000000000E+00  0.00000000000E+00  0.93602784376E+03  0.93602784376E+03  0.25500000920E-02 0.  1.
       -2   -1    0    0    0  501  0.00000000000E+00  0.00000000000E+00 -0.61714872382E+03  0.61714872382E+03  0.25500000920E-02 0. -1.
    10030    2    1    2    0    0  0.00000000000E+00  0.00000000000E+00  0.31887911994E+03  0.15531765676E+04  0.15200899832E+04 0.  0.
        3    1    3    3  502    0 -0.49503956692E+03  0.10574104782E+03 -0.41984243855E+03  0.65765722486E+03  0.10100000352E+00 0. -1.
       -3    1    3    3    0  502  0.49503956692E+03 -0.10574104782E+03  0.73872155849E+03  0.89551934272E+03  0.10100000352E+00 0.  1.
</event>
<event>
 5   0  0.7870317E-04  0.1586371E+04  0.7818609E-02  0.8828965E-01
        1   -1    0    0  501    0  0.00000000000E+00  0.00000000000E+00  0.94302264449E+03  0.94302264450E+03  0.50400001928E-02 0.  1.
       -1   -1    0    0    0  501  0.00000000000E+00  0.00000000000E+00 -0.66715607128E+03  0.66715607130E+03  0.50400001928E-02 0. -1.
    10030    2    1    2    0    0  0.00000000000E+00  0.00000000000E+00  0.27586657321E+03  0.16101787158E+04  0.15863710570E+04 0.  0.
        1    1    3    3  502    0 -0.47909962361E+03  0.87335483576E+02 -0.49754526388E+03  0.69621492778E+03  0.50400001928E-02 0. -1.
       -1    1    3    3    0  502  0.47909962361E+03 -0.87335483576E+02  0.77341183709E+03  0.91396378802E+03  0.50400001928E-02 0.  1.
</event>
<event>
 5   0  0.1526126E-03  0.1535929E+04  0.7818609E-02  0.8860906E-01
       -2   -1    0    0    0  501  0.00000000000E+00  0.00000000000E+00  0.86036137187E+03  0.86036137187E+03  0.25500000920E-02 0.  1.
        2   -1    0    0  501    0  0.00000000000E+00  0.00000000000E+00 -0.68549071518E+03  0.68549071519E+03  0.25500000920E-02 0. -1.
    10030    2    1    2    0    0  0.00000000000E+00  0.00000000000E+00  0.17487065669E+03  0.15458520871E+04  0.15359293371E+04 0.  0.
        2    1    3    3  502    0 -0.66840398614E+03  0.82125738449E+02 -0.28408520021E+03  0.73089871158E+03  0.25500000920E-02 0. -1.
       -2    1    3    3    0  502  0.66840398614E+03 -0.82125738449E+02  0.45895585690E+03  0.81495337548E+03  0.25500000920E-02 0.  1.
</event>
<event>
 5   0  0.8191876E-04  0.1560436E+04  0.7818609E-02  0.8845229E-01
        1   -1    0    0  501    0  0.00000000000E+00  0.00000000000E+00  0.74011189258E+03  0.74011189260E+03  0.50400001928E-02 0.  1.
       -1   -1    0    0    0  501  0.00000000000E+00  0.00000000000E+00 -0.82249714879E+03  0.82249714880E+03  0.50400001928E-02 0. -1.
    10030    2    1    2    0    0  0.00000000000E+00  0.00000000000E+00 -0.82385256202E+02  0.15626090414E+04  0.15604357359E+04 0.  0.
        2    1    3    3  502    0 -0.29399611777E+03 -0.19222566973E+03 -0.73883752393E+03  0.81808637205E+03  0.25500000920E-02 0. -1.
       -2    1    3    3    0  502  0.29399611777E+03  0.19222566973E+03  0.65645226772E+03  0.74452266935E+03  0.25500000920E-02 0.  1.
</event>
<event>
 5   0  0.1552067E-03  0.1414725E+04  0.7818609E-02  0.8943228E-01
        2   -1    0    0  501    0  0.00000000000E+00  0.00000000000E+00  0.10593842399E+04  0.10593842399E+04  0.25500000920E-02 0.  1.
       -2   -1    0    0    0  501  0.00000000000E+00  0.00000000000E+00 -0.47231364855E+03  0.47231364856E+03  0.25500000920E-02 0. -1.
    10030    2    1    2    0    0  0.00000000000E+00  0.00000000000E+00  0.58707059135E+03  0.15316978885E+04  0.14147248999E+04 0.  0.
        3    1    3    3  502    0 -0.39362511097E+03  0.27522639049E+03 -0.26870051768E+03  0.55035467874E+03  0.10100000352E+00 0. -1.
       -3    1    3    3    0  502  0.39362511097E+03 -0.27522639049E+03  0.85577110903E+03  0.98134320972E+03  0.10100000352E+00 0.  1.
</event>
<event>
 5   0  0.1484056E-03  0.1485023E+04  0.7818609E-02  0.8894474E-01
        2   -1    0    0  501    0  0.00000000000E+00  0.00000000000E+00  0.12396429345E+04  0.12396429345E+04  0.25500000920E-02 0. -1.
       -2   -1    0    0    0  501  0.00000000000E+00  0.00000000000E+00 -0.44474369076E+03  0.44474369077E+03  0.25500000920E-02 0.  1.
    10030    2    1    2    0    0  0.00000000000E+00  0.00000000000E+00  0.79489924378E+03  0.16843866253E+04  0.14850230624E+04 0.  0.
        5    1    3    3  502    0  0.35021936780E+03 -0.46720917749E+03 -0.12277815270E+03  0.59668633795E+03  0.46999998093E+01 0.  1.
       -5    1    3    3    0  502 -0.35021936780E+03  0.46720917749E+03  0.91767739648E+03  0.10877002874E+04  0.46999998093E+01 0. -1.
</event>
<event>
 5   0  0.8191876E-04  0.1495261E+04  0.7818609E-02  0.8887610E-01
       -1   -1    0    0    0  501  0.00000000000E+00  0.00000000000E+00  0.58491814993E+03  0.58491814995E+03  0.50400001928E-02 0. -1.
        1   -1    0    0  501    0  0.00000000000E+00  0.00000000000E+00 -0.95560675084E+03  0.95560675086E+03  0.50400001928E-02 0.  1.
    10030    2    1    2    0    0  0.00000000000E+00  0.00000000000E+00 -0.37068860091E+03  0.15405249008E+04  0.14952614926E+04 0.  0.
        2    1    3    3  502    0  0.22693587460E+03  0.70170255329E+03 -0.31180088572E+03  0.80069104954E+03  0.25500000920E-02 0.  1.
       -2    1    3    3    0  502 -0.22693587460E+03 -0.70170255329E+03 -0.58887715196E+02  0.73983385127E+03  0.25500000920E-02 0. -1.
</event>
<event>
 5   0  0.1552067E-03  0.1504173E+04  0.7818609E-02  0.8881682E-01
        2   -1    0    0  501    0  0.00000000000E+00  0.00000000000E+00  0.15668739344E+04  0.15668739344E+04  0.25500000920E-02 0.  1.
       -2   -1    0    0    0  501  0.00000000000E+00  0.00000000000E+00 -0.36099544868E+03  0.36099544869E+03  0.25500000920E-02 0. -1.
    10030    2    1    2    0    0  0.00000000000E+00  0.00000000000E+00  0.12058784857E+04  0.19278693831E+04  0.15041733397E+04 0.  0.
        3    1    3    3  502    0 -0.12404887963E+03 -0.64693011879E+03  0.10681161901E+04  0.12549019519E+04  0.10100000352E+00 0.  1.
       -3    1    3    3    0  502  0.12404887963E+03  0.64693011879E+03  0.13776229559E+03  0.67296743117E+03  0.10100000352E+00 0. -1.
</event>
<event>
 5   0  0.1511546E-03  0.1503990E+04  0.7818609E-02  0.8881804E-01
        2   -1    0    0  501    0  0.00000000000E+00  0.00000000000E+00  0.76565810045E+03  0.76565810045E+03  0.25500000920E-02 0. -1.
       -2   -1    0    0    0  501  0.00000000000E+00  0.00000000000E+00 -0.73857560537E+03  0.73857560537E+03  0.25500000920E-02 0.  1.
    10030    2    1    2    0    0  0.00000000000E+00  0.00000000000E+00  0.27082495080E+02  0.15042337058E+04  0.15039898870E+04 0.  0.
        1    1    3    3  502    0 -0.47878046002E+03 -0.29739381153E+03  0.51143977621E+03  0.76108110787E+03  0.50400001928E-02 0. -1.
       -1    1    3    3    0  502  0.47878046002E+03  0.29739381153E+03 -0.48435728113E+03  0.74315259795E+03  0.50400001928E-02 0.  1.
</event>
<event>
 5   0  0.8058234E-04  0.1484411E+04  0.7818609E-02  0.8894886E-01
        1   -1    0    0  501    0  0.00000000000E+00  0.00000000000E+00  0.91218218166E+03  0.91218218168E+03  0.50400001928E-02 0. -1.
       -1   -1    0    0    0  501  0.00000000000E+00  0.00000000000E+00 -0.60390223430E+03  0.60390223432E+03  0.50400001928E-02 0.  1.
    10030    2    1    2    0    0  0.00000000000E+00  0.00000000000E+00  0.30827994737E+03  0.15160844160E+04  0.14844108025E+04 0.  0.
        5    1    3    3  502    0 -0.37143849604E+03  0.61106596408E+03  0.35707179004E+03  0.79930627549E+03  0.46999998093E+01 0. -1.
       -5    1    3    3    0  502  0.37143849604E+03 -0.61106596408E+03 -0.48791842670E+02  0.71677814051E+03  0.46999998093E+01 0.  1.
</event>
<event>
 5   0  0.1552067E-03  0.1458836E+04  0.7818609E-02  0.8912298E-01
        2   -1    0    0  501    0  0.00000000000E+00  0.00000000000E+00  0.13033783143E+04  0.13033783143E+04  0.25500000920E-02 0. -1.
       -2   -1    0    0    0  501  0.00000000000E+00  0.00000000000E+00 -0.40820871250E+03  0.40820871250E+03  0.25500000920E-02 0.  1.
    10030    2    1    2    0    0  0.00000000000E+00  0.00000000000E+00  0.89516960184E+03  0.17115870268E+04  0.14588356777E+04 0.  0.
        3    1    3    3  502    0 -0.15457609539E+03  0.53089209280E+03 -0.11055714812E+03  0.56388214785E+03  0.10100000352E+00 0.  1.
       -3    1    3    3    0  502  0.15457609539E+03 -0.53089209280E+03  0.10057267500E+04  0.11477048790E+04  0.10100000352E+00 0. -1.
</event>
<event>
 5   0  0.8306301E-04  0.1607882E+04  0.7818609E-02  0.8815721E-01
       -1   -1    0    0    0  501  0.00000000000E+00  0.00000000000E+00  0.61219501556E+03  0.61219501559E+03  0.50400001928E-02 0. -1.
        1   -1    0    0  501    0  0.00000000000E+00  0.00000000000E+00 -0.10557435355E+04  0.10557435355E+04  0.50400001928E-02 0.  1.
    10030    2    1    2    0    0  0.00000000000E+00  0.00000000000E+00 -0.44354851989E+03  0.16679385511E+04  0.16078817496E+04 0.  0.
        4    1    3    3  502    0 -0.61536097648E+03  0.43480642742E+03 -0.51259100677E+03  0.91130506079E+03  0.12699999809E+01 0.  1.
       -4    1    3    3    0  502  0.61536097648E+03 -0.43480642742E+03  0.69042486873E+02  0.75663349027E+03  0.12699999809E+01 0. -1.
</event>
<event>
 5   0  0.7870317E-04  0.1434007E+04  0.7818609E-02  0.8929564E-01
        1   -1    0    0  501    0  0.00000000000E+00  0.00000000000E+00  0.13745598549E+04  0.13745598549E+04  0.50400001928E-02 0.  1.
       -1   -1    0    0    0  501  0.00000000000E+00  0.00000000000E+00 -0.37400610643E+03  0.37400610647E+03  0.50400001928E-02 0. -1.
    10030    2    1    2    0    0  0.00000000000E+00  0.00000000000E+00  0.10005537485E+04  0.17485659614E+04  0.14340066658E+04 0.  0.
        1    1    3    3  502    0  0.56190201928E+03  0.37691166235E+03  0.21095891010E+03  0.70873122004E+03  0.50400001928E-02 0. -1.
       -1    1    3    3    0  502 -0.56190201928E+03 -0.37691166235E+03  0.78959483835E+03  0.10398347413E+04  0.50400001928E-02 0.  1.
</event>
<event>
 5   0  0.8365016E-04  0.1491373E+04  0.7818609E-02  0.8890210E-01
        1   -1    0    0  501    0  0.00000000000E+00  0.00000000000E+00  0.15064527575E+04  0.15064527575E+04  0.50400001928E-02 0. -1.
       -1   -1    0    0    0  501  0.00000000000E+00  0.00000000000E+00 -0.36911100283E+03  0.36911100286E+03  0.50400001928E-02 0.  1.
    10030    2    1    2    0    0  0.00000000000E+00  0.00000000000E+00  0.11373417547E+04  0.18755637604E+04  0.14913729085E+04 0.  0.
        3    1    3    3  502    0  0.92401132329E+02  0.44986697499E+02  0.14975037746E+04  0.15010260948E+04  0.10100000352E+00 0. -1.
       -3    1    3    3    0  502 -0.92401132329E+02 -0.44986697499E+02 -0.36016201986E+03  0.37453766561E+03  0.10100000352E+00 0.  1.
</event>
<event>
 5   0  0.1500956E-03  0.1475587E+04  0.7818609E-02  0.8900852E-01
        2   -1    0    0  501    0  0.00000000000E+00  0.00000000000E+00  0.18965299777E+04  0.18965299777E+04  0.25500000920E-02 0.  1.
       -2   -1    0    0    0  501  0.00000000000E+00  0.00000000000E+00 -0.28701847793E+03  0.28701847794E+03  0.25500000920E-02 0. -1.
    10030    2    1    2    0    0  0.00000000000E+00  0.00000000000E+00  0.16095114998E+04  0.21835484557E+04  0.14755868630E+04 0.  0.
        4    1    3    3  502    0  0.60569843043E+03 -0.25480977614E+03  0.13011759361E+04  0.14576896241E+04  0.12699999809E+01 0.  1.
       -4    1    3    3    0  502 -0.60569843043E+03  0.25480977614E+03  0.30833556373E+03  0.72585883159E+03  0.12699999809E+01 0. -1.
</event>
<event>
 5   0  0.1500956E-03  0.1496807E+04  0.7818609E-02  0.8886579E-01
        2   -1    0    0  501    0  0.00000000000E+00  0.00000000000E+00  0.81101381197E+03  0.81101381198E+03  0.25500000920E-02 0. -1.
       -2   -1    0    0    0  501  0.00000000000E+00  0.00000000000E+00 -0.69062677556E+03  0.69062677556E+03  0.25500000920E-02 0.  1.
    10030    2    1    2    0    0  0.00000000000E+00  0.00000000000E+00  0.12038703641E+03  0.15016405875E+04  0.14968070736E+04 0.  0.
        4    1    3    3  502    0  0.20936608644E+03  0.36245791652E+03  0.68259707089E+03  0.80071859819E+03  0.12699999809E+01 0. -1.
       -4    1    3    3    0  502 -0.20936608644E+03 -0.36245791652E+03 -0.56221003447E+03  0.70092198936E+03  0.12699999809E+01 0.  1.
</event>
<event>
 5   0  0.8191876E-04  0.1516356E+04  0.7818609E-02  0.8873649E-01
       -1   -1    0    0    0  501  0.00000000000E+00  0.00000000000E+00  0.38965111480E+03  0.38965111483E+03  0.50400001928E-02 0. -1.
        1   -1    0    0  501    0  0.00000000000E+00  0.00000000000E+00 -0.14752531926E+04  0.14752531927E+04  0.50400001928E-02 0.  1.
    10030    2    1    2    0    0  0.00000000000E+00  0.00000000000E+00 -0.10856020778E+04  0.18649043075E+04  0.15163562262E+04 0.  0.
        2    1    3    3  502    0 -0.65914378148E+03 -0.10155238445E+03 -0.99282722900E+02  0.67427032452E+03  0.25500000920E-02 0. -1.
       -2    1    3    3    0  502  0.65914378148E+03  0.10155238445E+03 -0.98631935495E+03  0.11906339830E+04  0.25500000920E-02 0.  1.
</event>
<event>
 5   0  0.8058234E-04  0.1502570E+04  0.7818609E-02  0.8882746E-01
        1   -1    0    0  501    0  0.00000000000E+00  0.00000000000E+00  0.16823700551E+04  0.16823700551E+04  0.50400001928E-02 0.  1.
       -1   -1    0    0    0  501  0.00000000000E+00  0.00000000000E+00 -0.33549649143E+03  0.33549649147E+03  0.50400001928E-02 0. -1.
    10030    2    1    2    0    0  0.00000000000E+00  0.00000000000E+00  0.13468735637E+04  0.20178665466E+04  0.15025701326E+04 0.  0.
        5    1    3    3  502    0 -0.36348950560E+03  0.69709625725E+02 -0.20454739208E+03  0.42290161764E+03  0.46999998093E+01 0. -1.
       -5    1    3    3    0  502  0.36348950560E+03 -0.69709625725E+02  0.15514209558E+04  0.15949649290E+04  0.46999998093E+01 0.  1.
</event>
<event>
 5   0  0.8058234E-04  0.1488575E+04  0.7818609E-02  0.8892086E-01
       -1   -1    0    0    0  501  0.00000000000E+00  0.00000000000E+00  0.56454195253E+03  0.56454195256E+03  0.50400001928E-02 0. -1.
        1   -1    0    0  501    0  0.00000000000E+00  0.00000000000E+00 -0.98126238338E+03  0.98126238340E+03  0.50400001928E-02 0.  1.
    10030    2    1    2    0    0  0.00000000000E+00  0.00000000000E+00 -0.41672043085E+03  0.15458043360E+04  0.14885748646E+04 0.  0.
        5    1    3    3  502    0  0.70525283848E+03 -0.14369564694E+03 -0.40514963369E+03  0.82595297736E+03  0.46999998093E+01 0.  1.
       -5    1    3    3    0  502 -0.70525283848E+03  0.14369564694E+03 -0.11570797159E+02  0.71985135860E+03  0.46999998093E+01 0. -1.
</event>
<event>
 5   0  0.1526126E-03  0.1496141E+04  0.7818609E-02  0.8887023E-01
       -2   -1    0    0    0  501  0.00000000000E+00  0.00000000000E+00  0.22365009120E+04  0.22365009120E+04  0.25500000920E-02 0.  1.
        2   -1    0    0  501    0  0.00000000000E+00  0.00000000000E+00 -0.25021656037E+03  0.25021656038E+03  0.25500000920E-02 0. -1.
    10030    2    1    2    0    0  0.00000000000E+00  0.00000000000E+00  0.19862843516E+04  0.24867174724E+04  0.14961411237E+04 0.  0.
        2    1    3    3  502    0  0.65599416672E+03  0.31729276506E+03  0.71202563543E+03  0.10188147776E+04  0.25500000920E-02 0. -1.
       -2    1    3    3    0  502 -0.65599416672E+03 -0.31729276506E+03  0.12742587162E+04  0.14679026948E+04  0.25500000920E-02 0.  1.
</event>
<event>
 5   0  0.1552067E-03  0.1523192E+04  0.7818609E-02  0.8869175E-01
       -2   -1    0    0    0  501  0.00000000000E+00  0.00000000000E+00  0.29058500503E+03  0.29058500505E+03  0.25500000920E-02 0. -1.
        2   -1    0    0  501    0  0.00000000000E+00  0.00000000000E+00 -0.19960723785E+04  0.19960723785E+04  0.25500000920E-02 0.  1.
    10030    2    1    2    0    0  0.00000000000E+00  0.00000000000E+00 -0.17054873734E+04  0.22866573835E+04  0.15231923085E+04 0.  0.
        3    1    3    3  502    0  0.14421447222E+03  0.36070639755E+03  0.13067087558E+03  0.40985583704E+03  0.10100000352E+00 0. -1.
       -3    1    3    3    0  502 -0.14421447222E+03 -0.36070639755E+03 -0.18361582490E+04  0.18768015465E+04  0.10100000352E+00 0.  1.
</event>
<event>
 5   0  0.1511546E-03  0.1473811E+04  0.7818609E-02  0.8902057E-01
       -2   -1    0    0    0  501  0.00000000000E+00  0.00000000000E+00  0.29971171344E+03  0.29971171345E+03  0.25500000920E-02 0. -1.
        2   -1    0    0  501    0  0.00000000000E+00  0.00000000000E+00 -0.18118409744E+04  0.18118409744E+04  0.25500000920E-02 0.  1.
    10030    2    1    2    0    0  0.00000000000E+00  0.00000000000E+00 -0.15121292609E+04  0.21115526878E+04  0.14738113352E+04 0.  0.
        1    1    3    3  502    0 -0.52784661111E+03 -0.40331768335E+03 -0.12130599969E+04  0.13830407639E+04  0.50400001928E-02 0.  1.
       -1    1    3    3    0  502  0.52784661111E+03  0.40331768335E+03 -0.29906926405E+03  0.72851192391E+03  0.50400001928E-02 0. -1.
</event>
<event>
 5   0  0.1526126E-03  0.1506593E+04  0.7818609E-02  0.8880080E-01
        2   -1    0    0  501    0  0.00000000000E+00  0.00000000000E+00  0.13214477008E+04  0.13214477008E+04  0.25500000920E-02 0.  1.
       -2   -1    0    0    0  501  0.00000000000E+00  0.00000000000E+00 -0.42941969309E+03  0.42941969310E+03  0.25500000920E-02 0. -1.
    10030    2    1    2    0    0  0.00000000000E+00  0.00000000000E+00  0.89202800766E+03  0.17508673939E+04  0.15065930653E+04 0.  0.
        2    1    3    3  502    0 -0.60553044425E+03  0.50853673785E+02 -0.71368575165E+02  0.61183877662E+03  0.25500000920E-02 0. -1.
       -2    1    3    3    0  502  0.60553044425E+03 -0.50853673785E+02  0.96339658283E+03  0.11390286172E+04  0.25500000920E-02 0.  1.
</event>
<event>
 5   0  0.1552067E-03  0.1349725E+04  0.7818609E-02  0.8991036E-01
       -2   -1    0    0    0  501  0.00000000000E+00  0.00000000000E+00  0.37808487103E+03  0.37808487104E+03  0.25500000920E-02 0. -1.
        2   -1    0    0  501    0  0.00000000000E+00  0.00000000000E+00 -0.12045952189E+04  0.12045952189E+04  0.25500000920E-02 0.  1.
    10030    2    1    2    0    0  0.00000000000E+00  0.00000000000E+00 -0.82651034790E+03  0.15826800900E+04  0.13497247542E+04 0.  0.
        3    1    3    3  502    0 -0.28281097205E+03 -0.59453869563E+03 -0.23940674404E+03  0.70055257176E+03  0.10100000352E+00 0.  1.
       -3    1    3    3    0  502  0.28281097205E+03  0.59453869563E+03 -0.58710360386E+03  0.88212751820E+03  0.10100000352E+00 0. -1.
</event>
<event>
 5   0  0.8365016E-04  0.1530075E+04  0.7818609E-02  0.8864696E-01
        1   -1    0    0  501    0  0.00000000000E+00  0.00000000000E+00  0.20509438105E+04  0.20509438105E+04  0.50400001928E-02 0.  1.
       -1   -1    0    0    0  501  0.00000000000E+00  0.00000000000E+00 -0.28537208179E+03  0.28537208183E+03  0.50400001928E-02 0. -1.
    10030    2    1    2    0    0  0.00000000000E+00  0.00000000000E+00  0.17655717287E+04  0.23363158924E+04  0.15300746451E+04 0.  0.
        3    1    3    3  502    0 -0.13402320816E+02 -0.63353603673E+03  0.22827874539E+03  0.67354192730E+03  0.10100000352E+00 0. -1.
       -3    1    3    3    0  502  0.13402320816E+02  0.63353603673E+03  0.15372929833E+04  0.16627739651E+04  0.10100000352E+00 0.  1.
</event>
<event>
 5   0  0.1484056E-03  0.1524788E+04  0.7818609E-02  0.8868134E-01
       -2   -1    0    0    0  501  0.00000000000E+00  0.00000000000E+00  0.61603662141E+03  0.61603662142E+03  0.25500000920E-02 0.  1.
        2   -1    0    0  501    0  0.00000000000E+00  0.00000000000E+00 -0.94352327273E+03  0.94352327274E+03  0.25500000920E-02 0. -1.
    10030    2    1    2    0    0  0.00000000000E+00  0.00000000000E+00 -0.32748665132E+03  0.15595598942E+04  0.15247883645E+04 0.  0.
        5    1    3    3  502    0  0.31992105921E+03 -0.10260915878E+03  0.53621999477E+03  0.63279704202E+03  0.46999998093E+01 0.  1.
       -5    1    3    3    0  502 -0.31992105921E+03  0.10260915878E+03 -0.86370664610E+03  0.92676285214E+03  0.46999998093E+01 0. -1.
</event>
<event>
 5   0  0.8058234E-04  0.1495778E+04  0.7818609E-02  0.8887265E-01
       -1   -1    0    0    0  501  0.00000000000E+00  0.00000000000E+00  0.91547458048E+03  0.91547458050E+03  0.50400001928E-02 0. -1.
        1   -1    0    0  501    0  0.00000000000E+00  0.00000000000E+00 -0.61098142740E+03  0.61098142742E+03  0.50400001928E-02 0.  1.
    10030    2    1    2    0    0  0.00000000000E+00  0.00000000000E+00  0.30449315309E+03  0.15264560079E+04  0.14957780129E+04 0.  0.
        5    1    3    3  502    0  0.37121959137E+03  0.12461066918E+03 -0.49799037393E+03  0.63352056511E+03  0.46999998093E+01 0.  1.
       -5    1    3    3    0  502 -0.37121959137E+03 -0.12461066918E+03  0.80248352702E+03  0.89293544281E+03  0.46999998093E+01 0. -1.
</event>
<event>
 5   0  0.8365016E-04  0.1376114E+04  0.7818609E-02  0.8971292E-01
        1   -1    0    0  501    0  0.00000000000E+00  0.00000000000E+00  0.60873670507E+03  0.60873670509E+03  0.50400001928E-02 0. -1.
       -1   -1    0    0    0  501  0.00000000000E+00  0.00000000000E+00 -0.77771269109E+03  0.77771269110E+03  0.50400001928E-02 0.  1.
    10030    2    1    2    0    0  0.00000000000E+00  0.00000000000E+00 -0.16897598602E+03  0.13864493962E+04  0.13761137469E+04 0.  0.
        3    1    3    3  502    0  0.27824141923E+03 -0.18535997387E+03  0.52139855259E+03  0.61938119776E+03  0.10100000352E+00 0. -1.
       -3    1    3    3    0  502 -0.27824141923E+03  0.18535997387E+03 -0.69037453861E+03  0.76706819844E+03  0.10100000352E+00 0.  1.
</event>
<event>
 5   0  0.1552067E-03  0.1497352E+04  0.7818609E-02  0.8886216E-01
       -2   -1    0    0    0  501  0.00000000000E+00  0.00000000000E+00  0.39149816670E+03  0.39149816671E+03  0.25500000920E-02 0. -1.
        2   -1    0    0  501    0  0.00000000000E+00  0.00000000000E+00 -0.14317194965E+04  0.14317194965E+04  0.25500000920E-02 0.  1.
    10030    2    1    2    0    0  0.00000000000E+00  0.00000000000E+00 -0.10402213298E+04  0.18232176632E+04  0.14973517397E+04 0.  0.
        3    1    3    3  502    0 -0.23012378219E+03  0.65793751662E+03 -0.85285263776E+03  0.11014519340E+04  0.10100000352E+00 0. -1.
       -3    1    3    3    0  502  0.23012378219E+03 -0.65793751662E+03 -0.18736869201E+03  0.72176572921E+03  0.10100000352E+00 0.  1.
</event>
<event>
 5   0  0.7870317E-04  0.1535532E+04  0.7818609E-02  0.8861162E-01
        1   -1    0    0  501    0  0.00000000000E+00  0.00000000000E+00  0.57184847437E+03  0.57184847439E+03  0.50400001928E-02 0. -1.
       -1   -1    0    0    0  501  0.00000000000E+00  0.00000000000E+00 -0.10308062647E+04  0.10308062647E+04  0.50400001928E-02 0.  1.
    10030    2    1    2    0    0  0.00000000000E+00  0.00000000000E+00 -0.45895779029E+03  0.16026547391E+04  0.15355324677E+04 0.  0.
        1    1    3    3  502    0  0.10960798315E+03  0.62823909105E+03 -0.67567886075E+03  0.92910719962E+03  0.50400001928E-02 0.  1.
       -1    1    3    3    0  502 -0.10960798315E+03 -0.62823909105E+03  0.21672107046E+03  0.67354753945E+03  0.50400001928E-02 0. -1.
</event>
<event>
 5   0  0.8365016E-04  0.1465672E+04  0.7818609E-02  0.8907607E-01
        1   -1    0    0  501    0  0.00000000000E+00  0.00000000000E+00  0.54592369228E+03  0.54592369230E+03  0.50400001928E-02 0.  1.
       -1   -1    0    0    0  501  0.00000000000E+00  0.00000000000E+00 -0.98374283823E+03  0.98374283824E+03  0.50400001928E-02 0. -1.
    10030    2    1    2    0    0  0.00000000000E+00  0.00000000000E+00 -0.43781914595E+03  0.15296665305E+04  0.14656718903E+04 0.  0.
        3    1    3    3  502    0  0.99403507015E+02  0.61737984127E+02  0.53611060454E+03  0.54873238139E+03  0.10100000352E+00 0.  1.
       -3    1    3    3    0  502 -0.99403507015E+02 -0.61737984127E+02 -0.97392975048E+03  0.98093414915E+03  0.10100000352E+00 0. -1.
</event>
<event>
 5   0  0.8191876E-04  0.1463516E+04  0.7818609E-02  0.8909083E-01
        1   -1    0    0  501    0  0.00000000000E+00  0.00000000000E+00  0.17633105125E+04  0.17633105125E+04  0.50400001928E-02 0.  1.
       -1   -1    0    0    0  501  0.00000000000E+00  0.00000000000E+00 -0.30367318810E+03  0.30367318814E+03  0.50400001928E-02 0. -1.
    10030    2    1    2    0    0  0.00000000000E+00  0.00000000000E+00  0.14596373244E+04  0.20669837006E+04  0.14635164843E+04 0.  0.
        2    1    3    3  502    0  0.62440915039E+03  0.17355796799E+03  0.24991171854E+03  0.69459702160E+03  0.25500000920E-02 0. -1.
       -2    1    3    3    0  502 -0.62440915039E+03 -0.17355796799E+03  0.12097256058E+04  0.13723866790E+04  0.25500000920E-02 0.  1.
</event>
<event>
 5   0  0.8058234E-04  0.1505534E+04  0.7818609E-02  0.8880781E-01
        1   -1    0    0  501    0  0.00000000000E+00  0.00000000000E+00  0.55233016236E+03  0.55233016239E+03  0.50400001928E-02 0. -1.
       -1   -1    0    0    0  501  0.00000000000E+00  0.00000000000E+00 -0.10259411101E+04  0.10259411101E+04  0.50400001928E-02 0.  1.
    10030    2    1    2    0    0  0.00000000000E+00  0.00000000000E+00 -0.47361094770E+03  0.15782712725E+04  0.15055340845E+04 0.  0.
        5    1    3    3  502    0 -0.18951794174E+03 -0.44025916573E+03  0.37165970505E+03  0.60654613147E+03  0.46999998093E+01 0. -1.
       -5    1    3    3    0  502  0.18951794174E+03  0.44025916573E+03 -0.84527065275E+03  0.97172514099E+03  0.46999998093E+01 0.  1.
</event>
<event>
 5   0  0.1500956E-03  0.1512530E+04  0.7818609E-02  0.8876163E-01
       -2   -1    0    0    0  501  0.00000000000E+00  0.00000000000E+00  0.34711745570E+03  0.34711745571E+03  0.25500000920E-02 0.  1.
        2   -1    0    0  501    0  0.00000000000E+00  0.00000000000E+00 -0.16476739120E+04  0.16476739120E+04  0.25500000920E-02 0. -1.
    10030    2    1    2    0    0  0.00000000000E+00  0.00000000000E+00 -0.13005564563E+04  0.19947913678E+04  0.15125295054E+04 0.  0.
        4    1    3    3  502    0 -0.37858199921E+03 -0.41533289036E+03 -0.13177087525E+04  0.14325444877E+04  0.12699999809E+01 0. -1.
       -4    1    3    3    0  502  0.37858199921E+03  0.41533289036E+03  0.17152296176E+02  0.56224688003E+03  0.12699999809E+01 0.  1.
</event>
<event>
 5   0  0.1511546E-03  0.1559969E+04  0.7818609E-02  0.8845525E-01
       -2   -1    0    0    0  501  0.00000000000E+00  0.00000000000E+00  0.60430115740E+03  0.60430115741E+03  0.25500000920E-02 0. -1.
        2   -1    0    0  501    0  0.00000000000E+00  0.00000000000E+00 -0.10067422803E+04  0.10067422803E+04  0.25500000920E-02 0.  1.
    10030    2    1    2    0    0  0.00000000000E+00  0.00000000000E+00 -0.40244112287E+03  0.16110434377E+04  0.15599686217E+04 0.  0.
        1    1    3    3  502    0 -0.46338750159E+03 -0.46874928140E+03 -0.63191396782E+03  0.91310959265E+03  0.50400001928E-02 0.  1.
       -1    1    3    3    0  502  0.46338750159E+03  0.46874928140E+03  0.22947284495E+03  0.69793384503E+03  0.50400001928E-02 0. -1.
</event>
<event>
 5   0  0.8306301E-04  0.1510346E+04  0.7818609E-02  0.8877602E-01
       -1   -1    0    0    0  501  0.00000000000E+00  0.00000000000E+00  0.38367636447E+03  0.38367636450E+03  0.50400001928E-02 0. -1.
        1   -1    0    0  501    0  0.00000000000E+00  0.00000000000E+00 -0.14863727560E+04  0.14863727560E+04  0.50400001928E-02 0.  1.
    10030    2    1    2    0    0  0.00000000000E+00  0.00000000000E+00 -0.11026963916E+04  0.18700491206E+04  0.15103457820E+04 0.  0.
        4    1    3    3  502    0 -0.12118862949E+03  0.34573375150E+03  0.26627410075E+03  0.45290398593E+03  0.12699999809E+01 0. -1.
       -4    1    3    3    0  502  0.12118862949E+03 -0.34573375150E+03 -0.13689704923E+04  0.14171451346E+04  0.12699999809E+01 0.  1.
</event>
<event>
 5   0  0.1526126E-03  0.1530759E+04  0.7818609E-02  0.8864252E-01
       -2   -1    0    0    0  501  0.00000000000E+00  0.00000000000E+00  0.46000247989E+03  0.46000247990E+03  0.25500000920E-02 0. -1.
        2   -1    0    0  501    0  0.00000000000E+00  0.00000000000E+00 -0.12734839398E+04  0.12734839398E+04  0.25500000920E-02 0.  1.
    10030    2    1    2    0    0  0.00000000000E+00  0.00000000000E+00 -0.81348145992E+03  0.17334864197E+04  0.15307589888E+04 0.  0.
        2    1    3    3  502    0  0.52922281343E+03 -0.54519905085E+03 -0.30241529794E+03  0.81778591559E+03  0.25500000920E-02 0. -1.
       -2    1    3    3    0  502 -0.52922281343E+03  0.54519905085E+03 -0.51106616198E+03  0.91570050411E+03  0.25500000920E-02 0.  1.
</event>
<event>
 5   0  0.8058234E-04  0.1520745E+04  0.7818609E-02  0.8870774E-01
        1   -1    0    0  501    0  0.00000000000E+00  0.00000000000E+00  0.65683795363E+03  0.65683795365E+03  0.50400001928E-02 0. -1.
       -1   -1    0    0    0  501  0.00000000000E+00  0.00000000000E+00 -0.88022641917E+03  0.88022641918E+03  0.50400001928E-02 0.  1.
    10030    2    1    2    0    0  0.00000000000E+00  0.00000000000E+00 -0.22338846553E+03  0.15370643728E+04  0.15207447122E+04 0.  0.
        5    1    3    3  502    0  0.75379933632E+03  0.99043886655E+02 -0.10058082875E+03  0.76691702552E+03  0.46999998093E+01 0. -1.
       -5    1    3    3    0  502 -0.75379933632E+03 -0.99043886655E+02 -0.12280763679E+03  0.77014734731E+03  0.46999998093E+01 0.  1.
</event>
<event>
 5   0  0.1526126E-03  0.1581843E+04  0.7818609E-02  0.8831781E-01
       -2   -1    0    0    0  501  0.00000000000E+00  0.00000000000E+00  0.45766955661E+03  0.45766955662E+03  0.25500000920E-02 0. -1.
        2   -1    0    0  501    0  0.00000000000E+00  0.00000000000E+00 -0.13668308549E+04  0.13668308549E+04  0.25500000920E-02 0.  1.
    10030    2    1    2    0    0  0.00000000000E+00  0.00000000000E+00 -0.90916129833E+03  0.18245004116E+04  0.15818430660E+04 0.  0.
        2    1    3    3  502    0 -0.52012151815E+03 -0.46658185686E+03 -0.27149465367E+02  0.69925826149E+03  0.25500000920E-02 0. -1.
       -2    1    3    3    0  502  0.52012151815E+03  0.46658185686E+03 -0.88201183296E+03  0.11252421501E+04  0.25500000920E-02 0.  1.
</event>
<event>
 5   0  0.8306301E-04  0.1504056E+04  0.7818609E-02  0.8881760E-01
       -1   -1    0    0    0  501  0.00000000000E+00  0.00000000000E+00  0.33605297846E+03  0.33605297850E+03  0.50400001928E-02 0.  1.
        1   -1    0    0  501    0  0.00000000000E+00  0.00000000000E+00 -0.16829068118E+04  0.16829068118E+04  0.50400001928E-02 0. -1.
    10030    2    1    2    0    0  0.00000000000E+00  0.00000000000E+00 -0.13468538333E+04  0.20189597903E+04  0.15040556461E+04 0.  0.
        4    1    3    3  502    0  0.21598853396E+03  0.58294998136E+02 -0.16372025530E+04  0.16524173705E+04  0.12699999809E+01 0. -1.
       -4    1    3    3    0  502 -0.21598853396E+03 -0.58294998136E+02  0.29034871970E+03  0.36654241984E+03  0.12699999809E+01 0.  1.
</event>
<event>
 5   0  0.8306301E-04  0.1258967E+04  0.7818609E-02  0.9062753E-01
        1   -1    0    0  501    0  0.00000000000E+00  0.00000000000E+00  0.43808100672E+03  0.43808100675E+03  0.50400001928E-02 0. -1.
       -1   -1    0    0    0  501  0.00000000000E+00  0.00000000000E+00 -0.90451197158E+03  0.90451197160E+03  0.50400001928E-02 0.  1.
    10030    2    1    2    0    0  0.00000000000E+00  0.00000000000E+00 -0.46643096486E+03  0.13425929783E+04  0.12589670609E+04 0.  0.
        4    1    3    3  502    0 -0.99691597568E+02  0.21084841360E+03  0.39030301552E+03  0.45467958495E+03  0.12699999809E+01 0. -1.
       -4    1    3    3    0  502  0.99691597568E+02 -0.21084841360E+03 -0.85673398038E+03  0.88791339340E+03  0.12699999809E+01 0.  1.
</event>
<event>
 5   0  0.8191876E-04  0.1427999E+04  0.7818609E-02  0.8933797E-01
        1   -1    0    0  501    0  0.00000000000E+00  0.00000000000E+00  0.17499208766E+04  0.17499208767E+04  0.50400001928E-02 0. -1.
       -1   -1    0    0    0  501  0.00000000000E+00  0.00000000000E+00 -0.29132482116E+03  0.29132482120E+03  0.50400001928E-02 0.  1.
    10030    2    1    2    0    0  0.00000000000E+00  0.00000000000E+00  0.14585960555E+04  0.20412456979E+04  0.14279991407E+04 0.  0.
        2    1    3    3  502    0 -0.25211455877E+02 -0.15195252842E+03  0.17258887356E+04  0.17327484284E+04  0.25500000920E-02 0. -1.
       -2    1    3    3    0  502  0.25211455877E+02  0.15195252842E+03 -0.26729268013E+03  0.30849726945E+03  0.25500000920E-02 0.  1.
</event>
<event>
 5   0  0.1500956E-03  0.1525776E+04  0.7818609E-02  0.8867491E-01
        2   -1    0    0  501    0  0.00000000000E+00  0.00000000000E+00  0.11933355570E+04  0.11933355570E+04  0.25500000920E-02 0.  1.
       -2   -1    0    0    0  501  0.00000000000E+00  0.00000000000E+00 -0.48770711489E+03  0.48770711490E+03  0.25500000920E-02 0. -1.
    10030    2    1    2    0    0  0.00000000000E+00  0.00000000000E+00  0.70562844211E+03  0.16810426719E+04  0.15257761849E+04 0.  0.
        4    1    3    3  502    0 -0.73253221409E+03 -0.18151326866E+03  0.47572921138E+03  0.89211569139E+03  0.12699999809E+01 0. -1.
       -4    1    3    3    0  502  0.73253221409E+03  0.18151326866E+03  0.22989923073E+03  0.78892698050E+03  0.12699999809E+01 0.  1.
</event>
<event>
 5   0  0.5603875E-04  0.1488927E+04  0.7818609E-02  0.8891850E-01
        3   -1    0    0  501    0  0.00000000000E+00  0.00000000000E+00  0.77624398396E+03  0.77624399053E+03  0.10100000352E+00 0.  1.
       -3   -1    0    0    0  501  0.00000000000E+00  0.00000000000E+00 -0.71398432184E+03  0.71398432899E+03  0.10100000352E+00 0. -1.
    10030    2    1    2    0    0  0.00000000000E+00  0.00000000000E+00  0.62259662117E+02  0.14902283195E+04  0.14889271905E+04 0.  0.
        4    1    3    3  502    0 -0.73693600944E+03  0.10502153091E+03  0.20155404159E+02  0.74465566350E+03  0.12699999809E+01 0. -1.
       -4    1    3    3    0  502  0.73693600944E+03 -0.10502153091E+03  0.42104257958E+02  0.74557265602E+03  0.12699999809E+01 0.  1.
</event>
<event>
 5   0  0.1484056E-03  0.1508646E+04  0.7818609E-02  0.8878724E-01
        2   -1    0    0  501    0  0.00000000000E+00  0.00000000000E+00  0.99585268584E+03  0.99585268584E+03  0.25500000920E-02 0. -1.
       -2   -1    0    0    0  501  0.00000000000E+00  0.00000000000E+00 -0.57137273762E+03  0.57137273763E+03  0.25500000920E-02 0.  1.
    10030    2    1    2    0    0  0.00000000000E+00  0.00000000000E+00  0.42447994821E+03  0.15672254235E+04  0.15086458503E+04 0.  0.
        5    1    3    3  502    0  0.37843836857E+03 -0.48003356540E+03 -0.24688631059E+03  0.65925925330E+03  0.46999998093E+01 0.  1.
       -5    1    3    3    0  502 -0.37843836857E+03  0.48003356540E+03  0.67136625880E+03  0.90796617017E+03  0.46999998093E+01 0. -1.
</event>
<event>
 5   0  0.1484056E-03  0.1478940E+04  0.7818609E-02  0.8898579E-01
        2   -1    0    0  501    0  0.00000000000E+00  0.00000000000E+00  0.79756211910E+03  0.79756211911E+03  0.25500000920E-02 0.  1.
       -2   -1    0    0    0  501  0.00000000000E+00  0.00000000000E+00 -0.68560940533E+03  0.68560940533E+03  0.25500000920E-02 0. -1.
    10030    2    1    2    0    0  0.00000000000E+00  0.00000000000E+00  0.11195271378E+03  0.14831715244E+04  0.14789402830E+04 0.  0.
        5    1    3    3  502    0 -0.43454143103E+03 -0.23901085191E+03  0.60603583796E+03  0.78310533742E+03  0.46999998093E+01 0.  1.
       -5    1    3    3    0  502  0.43454143103E+03  0.23901085191E+03 -0.49408312418E+03  0.70006618702E+03  0.46999998093E+01 0. -1.
</event>
<event>
 5   0  0.1500956E-03  0.1556841E+04  0.7818609E-02  0.8847510E-01
       -2   -1    0    0    0  501  0.00000000000E+00  0.00000000000E+00  0.37146901917E+03  0.37146901918E+03  0.25500000920E-02 0. -1.
        2   -1    0    0  501    0  0.00000000000E+00  0.00000000000E+00 -0.16311945310E+04  0.16311945310E+04  0.25500000920E-02 0.  1.
    10030    2    1    2    0    0  0.00000000000E+00  0.00000000000E+00 -0.12597255118E+04  0.20026635502E+04  0.15568406887E+04 0.  0.
        4    1    3    3  502    0  0.51046945370E+03  0.26444511835E+03 -0.13049603373E+04  0.14259850556E+04  0.12699999809E+01 0.  1.
       -4    1    3    3    0  502 -0.51046945370E+03 -0.26444511835E+03  0.45234825541E+02  0.57667849459E+03  0.12699999809E+01 0. -1.
</event>
<event>
 5   0  0.8306301E-04  0.1613132E+04  0.7818609E-02  0.8812521E-01
       -1   -1    0    0    0  501  0.00000000000E+00  0.00000000000E+00  0.52132593584E+03  0.52132593586E+03  0.50400001928E-02 0. -1.
        1   -1    0    0  501    0  0.00000000000E+00  0.00000000000E+00 -0.12478726654E+04  0.12478726654E+04  0.50400001928E-02 0.  1.
    10030    2    1    2    0    0  0.00000000000E+00  0.00000000000E+00 -0.72654672956E+03  0.17691986013E+04  0.16131315943E+04 0.  0.
        4    1    3    3  502    0  0.49554958760E+03 -0.50529140011E+03  0.61010707743E+02  0.71036097314E+03  0.12699999809E+01 0. -1.
       -4    1    3    3    0  502 -0.49554958760E+03  0.50529140011E+03 -0.78755743730E+03  0.10588376281E+04  0.12699999809E+01 0.  1.
</event>
<event>
 5   0  0.8191876E-04  0.1487527E+04  0.7818609E-02  0.8892790E-01
        1   -1    0    0  501    0  0.00000000000E+00  0.00000000000E+00  0.77608025478E+03  0.77608025479E+03  0.50400001928E-02 0.  1.
       -1   -1    0    0    0  501  0.00000000000E+00  0.00000000000E+00 -0.71279230756E+03  0.71279230758E+03  0.50400001928E-02 0. -1.
    10030    2    1    2    0    0  0.00000000000E+00  0.00000000000E+00  0.63287947217E+02  0.14888725624E+04  0.14875268545E+04 0.  0.
        2    1    3    3  502    0  0.42441974561E+03 -0.33929186725E+03  0.53997441634E+03  0.76604403395E+03  0.25500000920E-02 0.  1.
       -2    1    3    3    0  502 -0.42441974561E+03  0.33929186725E+03 -0.47668646912E+03  0.72282852842E+03  0.25500000920E-02 0. -1.
</event>
<event>
 5   0  0.1526126E-03  0.1474117E+04  0.7818609E-02  0.8901850E-01
        2   -1    0    0  501    0  0.00000000000E+00  0.00000000000E+00  0.13703322930E+04  0.13703322930E+04  0.25500000920E-02 0. -1.
       -2   -1    0    0    0  501  0.00000000000E+00  0.00000000000E+00 -0.39644034193E+03  0.39644034194E+03  0.25500000920E-02 0.  1.
    10030    2    1    2    0    0  0.00000000000E+00  0.00000000000E+00  0.97389195110E+03  0.17667726350E+04  0.14741166885E+04 0.  0.
        2    1    3    3  502    0 -0.56023289682E+03  0.99902631156E+02  0.10483564891E+04  0.11928506875E+04  0.25500000920E-02 0. -1.
       -2    1    3    3    0  502  0.56023289682E+03 -0.99902631156E+02 -0.74464537990E+02  0.57392194750E+03  0.25500000920E-02 0.  1.
</event>
<event>
 5   0  0.8191876E-04  0.1502390E+04  0.7818609E-02  0.8882865E-01
        1   -1    0    0  501    0  0.00000000000E+00  0.00000000000E+00  0.18507299966E+04  0.18507299966E+04  0.50400001928E-02 0.  1.
       -1   -1    0    0    0  501  0.00000000000E+00  0.00000000000E+00 -0.30490325231E+03  0.30490325235E+03  0.50400001928E-02 0. -1.
    10030    2    1    2    0    0  0.00000000000E+00  0.00000000000E+00  0.15458267442E+04  0.21556332489E+04  0.15023895569E+04 0.  0.
        2    1    3    3  502    0 -0.44559086416E+02  0.63466478140E+03  0.13459527977E+04  0.14887490825E+04  0.25500000920E-02 0.  1.
       -2    1    3    3    0  502  0.44559086416E+02 -0.63466478140E+03  0.19987394653E+03  0.66688416643E+03  0.25500000920E-02 0. -1.
</event>
<event>
 5   0  0.1552067E-03  0.1494021E+04  0.7818609E-02  0.8888439E-01
       -2   -1    0    0    0  501  0.00000000000E+00  0.00000000000E+00  0.19675132052E+04  0.19675132052E+04  0.25500000920E-02 0.  1.
        2   -1    0    0  501    0  0.00000000000E+00  0.00000000000E+00 -0.28361926272E+03  0.28361926273E+03  0.25500000920E-02 0. -1.
    10030    2    1    2    0    0  0.00000000000E+00  0.00000000000E+00  0.16838939425E+04  0.22511324679E+04  0.14940209432E+04 0.  0.
        3    1    3    3  502    0 -0.15571619465E+03  0.21064200972E+03 -0.21214735252E+03  0.33708173922E+03  0.10100000352E+00 0. -1.
       -3    1    3    3    0  502  0.15571619465E+03 -0.21064200972E+03  0.18960412950E+04  0.19140507287E+04  0.10100000352E+00 0.  1.
</event>
<event>
 5   0  0.1484056E-03  0.1492366E+04  0.7818609E-02  0.8889546E-01
       -2   -1    0    0    0  501  0.00000000000E+00  0.00000000000E+00  0.23884974878E+03  0.23884974880E+03  0.25500000920E-02 0.  1.
        2   -1    0    0  501    0  0.00000000000E+00  0.00000000000E+00 -0.23311256432E+04  0.23311256432E+04  0.25500000920E-02 0. -1.
    10030    2    1    2    0    0  0.00000000000E+00  0.00000000000E+00 -0.20922758944E+04  0.25699753920E+04  0.14923656044E+04 0.  0.
        5    1    3    3  502    0  0.23676043870E+03  0.21773648715E+02 -0.22641222111E+04  0.22765766128E+04  0.46999998093E+01 0. -1.
       -5    1    3    3    0  502 -0.23676043870E+03 -0.21773648715E+02  0.17184631665E+03  0.29339877924E+03  0.46999998093E+01 0.  1.
</event>
<event>
 5   0  0.8058234E-04  0.1489915E+04  0.7818609E-02  0.8891187E-01
        1   -1    0    0  501    0  0.00000000000E+00  0.00000000000E+00  0.55754116220E+03  0.55754116222E+03  0.50400001928E-02 0. -1.
       -1   -1    0    0    0  501  0.00000000000E+00  0.00000000000E+00 -0.99537344896E+03  0.99537344898E+03  0.50400001928E-02 0.  1.
    10030    2    1    2    0    0  0.00000000000E+00  0.00000000000E+00 -0.43783228677E+03  0.15529146112E+04  0.14899149903E+04 0.  0.
        5    1    3    3  502    0  0.36088386859E+03  0.24430992763E+03  0.41079515476E+03  0.59891506620E+03  0.46999998093E+01 0. -1.
       -5    1    3    3    0  502 -0.36088386859E+03 -0.24430992763E+03 -0.84862744152E+03  0.95399954500E+03  0.46999998093E+01 0.  1.
</event>
<event>
 5   0  0.8365016E-04  0.1551938E+04  0.7818609E-02  0.8850631E-01
        1   -1    0    0  501    0  0.00000000000E+00  0.00000000000E+00  0.12741092872E+04  0.12741092872E+04  0.50400001928E-02 0. -1.
       -1   -1    0    0    0  501  0.00000000000E+00  0.00000000000E+00 -0.47258739928E+03  0.47258739930E+03  0.50400001928E-02 0.  1.
    10030    2    1    2    0    0  0.00000000000E+00  0.00000000000E+00  0.80152188788E+03  0.17466966865E+04  0.15519381359E+04 0.  0.
        3    1    3    3  502    0  0.53867189420E+03 -0.49631116931E+03  0.68910664144E+03  0.10056640393E+04  0.10100000352E+00 0. -1.
       -3    1    3    3    0  502 -0.53867189420E+03  0.49631116931E+03  0.11241524644E+03  0.74103264720E+03  0.10100000352E+00 0.  1.
</event>
<event>
 5   0  0.1552067E-03  0.1515067E+04  0.7818609E-02  0.8874495E-01
       -2   -1    0    0    0  501  0.00000000000E+00  0.00000000000E+00  0.93900994664E+03  0.93900994665E+03  0.25500000920E-02 0.  1.
        2   -1    0    0  501    0  0.00000000000E+00  0.00000000000E+00 -0.61112960654E+03  0.61112960655E+03  0.25500000920E-02 0. -1.
    10030    2    1    2    0    0  0.00000000000E+00  0.00000000000E+00  0.32788034010E+03  0.15501395532E+04  0.15150667038E+04 0.  0.
        3    1    3    3  502    0 -0.37712847068E+03 -0.81046707269E+02 -0.50312051700E+03  0.63397532837E+03  0.10100000352E+00 0. -1.
       -3    1    3    3    0  502  0.37712847068E+03  0.81046707269E+02  0.83100085710E+03  0.91616422483E+03  0.10100000352E+00 0.  1.
</event>
<event>
 5   0  0.1511546E-03  0.1501662E+04  0.7818609E-02  0.8883349E-01
       -2   -1    0    0    0  501  0.00000000000E+00  0.00000000000E+00  0.34479662177E+03  0.34479662178E+03  0.25500000920E-02 0. -1.
        2   -1    0    0  501    0  0.00000000000E+00  0.00000000000E+00 -0.16350130040E+04  0.16350130040E+04  0.25500000920E-02 0.  1.
    10030    2    1    2    0    0  0.00000000000E+00  0.00000000000E+00 -0.12902163823E+04  0.19798096258E+04  0.15016616934E+04 0.  0.
        1    1    3    3  502    0 -0.47289249460E+03  0.18817654286E+03  0.82661792496E+02  0.51562650698E+03  0.50400001928E-02 0. -1.
       -1    1    3    3    0  502  0.47289249460E+03 -0.18817654286E+03 -0.13728781748E+04  0.14641831188E+04  0.50400001928E-02 0.  1.
</event>
<event>
 5   0  0.1511546E-03  0.1230878E+04  0.7818609E-02  0.9086250E-01
        2   -1    0    0  501    0  0.00000000000E+00  0.00000000000E+00  0.63815377134E+03  0.63815377134E+03  0.25500000920E-02 0. -1.
       -2   -1    0    0    0  501  0.00000000000E+00  0.00000000000E+00 -0.59353309178E+03  0.59353309179E+03  0.25500000920E-02 0.  1.
    10030    2    1    2    0    0  0.00000000000E+00  0.00000000000E+00  0.44620679555E+02  0.12316868631E+04  0.12308783546E+04 0.  0.
        1    1    3    3  502    0  0.44301716682E+01 -0.35370779330E+03 -0.48164389003E+03  0.59758653456E+03  0.50400001928E-02 0.  1.
       -1    1    3    3    0  502 -0.44301716682E+01  0.35370779330E+03  0.52626456959E+03  0.63410032856E+03  0.50400001928E-02 0. -1.
</event>
<event>
 5   0  0.1526126E-03  0.1326608E+04  0.7818609E-02  0.9008727E-01
       -2   -1    0    0    0  501  0.00000000000E+00  0.00000000000E+00  0.21876961537E+03  0.21876961539E+03  0.25500000920E-02 0. -1.
        2   -1    0    0  501    0  0.00000000000E+00  0.00000000000E+00 -0.20111205391E+04  0.20111205391E+04  0.25500000920E-02 0.  1.
    10030    2    1    2    0    0  0.00000000000E+00  0.00000000000E+00 -0.17923509237E+04  0.22298901545E+04  0.13266078046E+04 0.  0.
        2    1    3    3  502    0 -0.51508415089E+03  0.21467894530E+03 -0.14988965350E+04  0.15994028744E+04  0.25500000920E-02 0.  1.
       -2    1    3    3    0  502  0.51508415089E+03 -0.21467894530E+03 -0.29345438871E+03  0.63048728006E+03  0.25500000920E-02 0. -1.
</event>
<event>
 5   0  0.7870317E-04  0.1507859E+04  0.7818609E-02  0.8879243E-01
       -1   -1    0    0    0  501  0.00000000000E+00  0.00000000000E+00  0.41716257337E+03  0.41716257341E+03  0.50400001928E-02 0. -1.
        1   -1    0    0  501    0  0.00000000000E+00  0.00000000000E+00 -0.13625622085E+04  0.13625622085E+04  0.50400001928E-02 0.  1.
    10030    2    1    2    0    0  0.00000000000E+00  0.00000000000E+00 -0.94539963510E+03  0.17797247819E+04  0.15078593533E+04 0.  0.
        1    1    3    3  502    0  0.60343430998E+02  0.33626812388E+03 -0.12659558692E+04  0.13112443874E+04  0.50400001928E-02 0.  1.
       -1    1    3    3    0  502 -0.60343430998E+02 -0.33626812388E+03  0.32055623406E+03  0.46848039449E+03  0.50400001928E-02 0. -1.
</event>
<event>
 5   0  0.1511546E-03  0.1468905E+04  0.7818609E-02  0.8905398E-01
       -2   -1    0    0    0  501  0.00000000000E+00  0.00000000000E+00  0.31029921603E+03  0.31029921604E+03  0.25500000920E-02 0. -1.
        2   -1    0    0  501    0  0.00000000000E+00  0.00000000000E+00 -0.17383885570E+04  0.17383885570E+04  0.25500000920E-02 0.  1.
    10030    2    1    2    0    0  0.00000000000E+00  0.00000000000E+00 -0.14280893409E+04  0.20486877730E+04  0.14689051792E+04 0.  0.
        1    1    3    3  502    0 -0.30947798320E+03 -0.10692377045E+03  0.20287242017E+03  0.38518376610E+03  0.50400001928E-02 0. -1.
       -1    1    3    3    0  502  0.30947798320E+03  0.10692377045E+03 -0.16309617611E+04  0.16635040069E+04  0.50400001928E-02 0.  1.
</event>
<event>
 5   0  0.1500956E-03  0.1509401E+04  0.7818609E-02  0.8878225E-01
       -2   -1    0    0    0  501  0.00000000000E+00  0.00000000000E+00  0.28263401771E+03  0.28263401772E+03  0.25500000920E-02 0. -1.
        2   -1    0    0  501    0  0.00000000000E+00  0.00000000000E+00 -0.20152322132E+04  0.20152322132E+04  0.25500000920E-02 0.  1.
    10030    2    1    2    0    0  0.00000000000E+00  0.00000000000E+00 -0.17325981955E+04  0.22978662309E+04  0.15094014404E+04 0.  0.
        4    1    3    3  502    0  0.60414204212E+03  0.35296133254E+03 -0.43570200174E+03  0.82426158259E+03  0.12699999809E+01 0. -1.
       -4    1    3    3    0  502 -0.60414204212E+03 -0.35296133254E+03 -0.12968961938E+04  0.14736046484E+04  0.12699999809E+01 0.  1.
</event>
<event>
 5   0  0.1552067E-03  0.1526103E+04  0.7818609E-02  0.8867278E-01
        2   -1    0    0  501    0  0.00000000000E+00  0.00000000000E+00  0.86836985178E+03  0.86836985179E+03  0.25500000920E-02 0.  1.
       -2   -1    0    0    0  501  0.00000000000E+00  0.00000000000E+00 -0.67050625653E+03  0.67050625653E+03  0.25500000920E-02 0. -1.
    10030    2    1    2    0    0  0.00000000000E+00  0.00000000000E+00  0.19786359526E+03  0.15388761083E+04  0.15261027732E+04 0.  0.
        3    1    3    3  502    0  0.57738122947E+03  0.22682746536E+03  0.54697906854E+03  0.82704648890E+03  0.10100000352E+00 0.  1.
       -3    1    3    3    0  502 -0.57738122947E+03 -0.22682746536E+03 -0.34911547328E+03  0.71182961941E+03  0.10100000352E+00 0. -1.
</event>
<event>
 5   0  0.8058234E-04  0.9573485E+03  0.7818609E-02  0.9356602E-01
       -1   -1    0    0    0  501  0.00000000000E+00  0.00000000000E+00  0.13574863161E+04  0.13574863161E+04  0.50400001928E-02 0.  1.
        1   -1    0    0  501    0  0.00000000000E+00  0.00000000000E+00 -0.16878920854E+03  0.16878920861E+03  0.50400001928E-02 0. -1.
    10030    2    1    2    0    0  0.00000000000E+00  0.00000000000E+00  0.11886971076E+04  0.15262755247E+04  0.95734850699E+03 0.  0.
        5    1    3    3  502    0 -0.39751745285E+03 -0.25778061633E+03  0.70289950366E+03  0.84767964098E+03  0.46999998093E+01 0.  1.
       -5    1    3    3    0  502  0.39751745285E+03  0.25778061633E+03  0.48579760390E+03  0.67859588374E+03  0.46999998093E+01 0. -1.
</event>
<event>
 5   0  0.8191876E-04  0.1428767E+04  0.7818609E-02  0.8933255E-01
        1   -1    0    0  501    0  0.00000000000E+00  0.00000000000E+00  0.15637477290E+04  0.15637477290E+04  0.50400001928E-02 0. -1.
       -1   -1    0    0    0  501  0.00000000000E+00  0.00000000000E+00 -0.32635925255E+03  0.32635925259E+03  0.50400001928E-02 0.  1.
    10030    2    1    2    0    0  0.00000000000E+00  0.00000000000E+00  0.12373884765E+04  0.18901069816E+04  0.14287666570E+04 0.  0.
        2    1    3    3  502    0  0.49006520838E+03 -0.13195350690E+03  0.12837928525E+04  0.13804708344E+04  0.25500000920E-02 0. -1.
       -2    1    3    3    0  502 -0.49006520838E+03  0.13195350690E+03 -0.46404376026E+02  0.50963614724E+03  0.25500000920E-02 0.  1.
</event>
<event>
 5   0  0.1511546E-03  0.1451778E+04  0.7818609E-02  0.8917169E-01
        2   -1    0    0  501    0  0.00000000000E+00  0.00000000000E+00  0.10404675676E+04  0.10404675676E+04  0.25500000920E-02 0. -1.
       -2   -1    0    0    0  501  0.00000000000E+00  0.00000000000E+00 -0.50642117447E+03  0.50642117448E+03  0.25500000920E-02 0.  1.
    10030    2    1    2    0    0  0.00000000000E+00  0.00000000000E+00  0.53404639316E+03  0.15468887421E+04  0.14517779549E+04 0.  0.
        1    1    3    3  502    0 -0.12290667934E+03  0.50433624683E+03  0.80766354606E+03  0.96009452939E+03  0.50400001928E-02 0.  1.
       -1    1    3    3    0  502  0.12290667934E+03 -0.50433624683E+03 -0.27361715291E+03  0.58679421272E+03  0.50400001928E-02 0. -1.
</event>
<event>
 5   0  0.1500956E-03  0.1500047E+04  0.7818609E-02  0.8884421E-01
        2   -1    0    0  501    0  0.00000000000E+00  0.00000000000E+00  0.24405019264E+04  0.24405019264E+04  0.25500000920E-02 0.  1.
       -2   -1    0    0    0  501  0.00000000000E+00  0.00000000000E+00 -0.23049989795E+03  0.23049989796E+03  0.25500000920E-02 0. -1.
    10030    2    1    2    0    0  0.00000000000E+00  0.00000000000E+00  0.22100020285E+04  0.26710018244E+04  0.15000472593E+04 0.  0.
        4    1    3    3  502    0  0.65335778548E+03 -0.23504166502E+03  0.16099319453E+04  0.17532836227E+04  0.12699999809E+01 0.  1.
       -4    1    3    3    0  502 -0.65335778548E+03  0.23504166502E+03  0.60007008320E+03  0.91771820173E+03  0.12699999809E+01 0. -1.
</event>
<event>
 5   0  0.1552067E-03  0.1501296E+04  0.7818609E-02  0.8883591E-01
        2   -1    0    0  501    0  0.00000000000E+00  0.00000000000E+00  0.12447531412E+04  0.12447531412E+04  0.25500000920E-02 0.  1.
       -2   -1    0    0    0  501  0.00000000000E+00  0.00000000000E+00 -0.45267814224E+03  0.45267814225E+03  0.25500000920E-02 0. -1.
    10030    2    1    2    0    0  0.00000000000E+00  0.00000000000E+00  0.79207499901E+03  0.16974312835E+04  0.15012961594E+04 0.  0.
        3    1    3    3  502    0  0.64879671132E+03  0.11412877273E+03 -0.10852903288E+02  0.65884774045E+03  0.10100000352E+00 0.  1.
       -3    1    3    3    0  502 -0.64879671132E+03 -0.11412877273E+03  0.80292790230E+03  0.10385835430E+04  0.10100000352E+00 0. -1.
</event>
<event>
 5   0  0.7870317E-04  0.1495451E+04  0.7818609E-02  0.8887484E-01
        1   -1    0    0  501    0  0.00000000000E+00  0.00000000000E+00  0.95469815195E+03  0.95469815196E+03  0.50400001928E-02 0. -1.
       -1   -1    0    0    0  501  0.00000000000E+00  0.00000000000E+00 -0.58562315590E+03  0.58562315592E+03  0.50400001928E-02 0.  1.
    10030    2    1    2    0    0  0.00000000000E+00  0.00000000000E+00  0.36907499605E+03  0.15403213079E+04  0.14954508948E+04 0.  0.
        1    1    3    3  502    0 -0.62223818499E+03 -0.34396635903E+03 -0.53926096715E+02  0.71302260759E+03  0.50400001928E-02 0.  1.
       -1    1    3    3    0  502  0.62223818499E+03  0.34396635903E+03  0.42300109276E+03  0.82729870029E+03  0.50400001928E-02 0. -1.
</event>
<event>
 5   0  0.1526126E-03  0.1546902E+04  0.7818609E-02  0.8853849E-01
       -2   -1    0    0    0  501  0.00000000000E+00  0.00000000000E+00  0.52766588482E+03  0.52766588483E+03  0.25500000920E-02 0.  1.
        2   -1    0    0  501    0  0.00000000000E+00  0.00000000000E+00 -0.11337226594E+04  0.11337226594E+04  0.25500000920E-02 0. -1.
    10030    2    1    2    0    0  0.00000000000E+00  0.00000000000E+00 -0.60605677461E+03  0.16613885443E+04  0.15469024148E+04 0.  0.
        2    1    3    3  502    0 -0.54806779874E+03  0.48770698805E+03 -0.39971910392E+02  0.73473408239E+03  0.25500000920E-02 0. -1.
       -2    1    3    3    0  502  0.54806779874E+03 -0.48770698805E+03 -0.56608486422E+03  0.92665446187E+03  0.25500000920E-02 0.  1.
</event>
<event>
 5   0  0.7870317E-04  0.1533202E+04  0.7818609E-02  0.8862669E-01
       -1   -1    0    0    0  501  0.00000000000E+00  0.00000000000E+00  0.63009719114E+03  0.63009719116E+03  0.50400001928E-02 0.  1.
        1   -1    0    0  501    0  0.00000000000E+00  0.00000000000E+00 -0.93267729062E+03  0.93267729063E+03  0.50400001928E-02 0. -1.
    10030    2    1    2    0    0  0.00000000000E+00  0.00000000000E+00 -0.30258009948E+03  0.15627744818E+04  0.15332023234E+04 0.  0.
        1    1    3    3  502    0  0.59656978031E+03 -0.29975648442E+03  0.23270949811E+03  0.70703830396E+03  0.50400001928E-02 0.  1.
       -1    1    3    3    0  502 -0.59656978031E+03  0.29975648442E+03 -0.53528959759E+03  0.85573617783E+03  0.50400001928E-02 0. -1.
</event>
<event>
 5   0  0.8191876E-04  0.1467505E+04  0.7818609E-02  0.8906354E-01
       -1   -1    0    0    0  501  0.00000000000E+00  0.00000000000E+00  0.34273187565E+03  0.34273187569E+03  0.50400001928E-02 0.  1.
        1   -1    0    0  501    0  0.00000000000E+00  0.00000000000E+00 -0.15708864656E+04  0.15708864656E+04  0.50400001928E-02 0. -1.
    10030    2    1    2    0    0  0.00000000000E+00  0.00000000000E+00 -0.12281545900E+04  0.19136183413E+04  0.14675051820E+04 0.  0.
        2    1    3    3  502    0 -0.22233693513E+03 -0.43236037894E+03 -0.13307092352E+04  0.14167414297E+04  0.25500000920E-02 0. -1.
       -2    1    3    3    0  502  0.22233693513E+03  0.43236037894E+03  0.10255464525E+03  0.49687691159E+03  0.25500000920E-02 0.  1.
</event>
<event>
 5   0  0.1484056E-03  0.1488838E+04  0.7818609E-02  0.8891910E-01
       -2   -1    0    0    0  501  0.00000000000E+00  0.00000000000E+00  0.42866522631E+03  0.42866522631E+03  0.25500000920E-02 0.  1.
        2   -1    0    0  501    0  0.00000000000E+00  0.00000000000E+00 -0.12927561659E+04  0.12927561659E+04  0.25500000920E-02 0. -1.
    10030    2    1    2    0    0  0.00000000000E+00  0.00000000000E+00 -0.86409093958E+03  0.17214213922E+04  0.14888379555E+04 0.  0.
        5    1    3    3  502    0  0.37741999144E+03 -0.59691141923E+03 -0.15993246410E+03  0.72411986260E+03  0.46999998093E+01 0.  1.
       -5    1    3    3    0  502 -0.37741999144E+03  0.59691141923E+03 -0.70415847548E+03  0.99730152959E+03  0.46999998093E+01 0. -1.
</event>
<event>
 5   0  0.7870317E-04  0.1497728E+04  0.7818609E-02  0.8885965E-01
        1   -1    0    0  501    0  0.00000000000E+00  0.00000000000E+00  0.43283547445E+03  0.43283547448E+03  0.50400001928E-02 0. -1.
       -1   -1    0    0    0  501  0.00000000000E+00  0.00000000000E+00 -0.12956364026E+04  0.12956364026E+04  0.50400001928E-02 0.  1.
    10030    2    1    2    0    0  0.00000000000E+00  0.00000000000E+00 -0.86280092813E+03  0.17284718771E+04  0.14977281423E+04 0.  0.
        1    1    3    3  502    0  0.72943001437E+03  0.36443245954E+02 -0.62243577572E+03  0.95959499319E+03  0.50400001928E-02 0.  1.
       -1    1    3    3    0  502 -0.72943001437E+03 -0.36443245954E+02 -0.24036515241E+03  0.76887688387E+03  0.50400001928E-02 0. -1.
</event>
<event>
 5   0  0.1500956E-03  0.1385578E+04  0.7818609E-02  0.8964325E-01
        2   -1    0    0  501    0  0.00000000000E+00  0.00000000000E+00  0.18728422975E+04  0.18728422975E+04  0.25500000920E-02 0.  1.
       -2   -1    0    0    0  501  0.00000000000E+00  0.00000000000E+00 -0.25627161646E+03  0.25627161648E+03  0.25500000920E-02 0. -1.
    10030    2    1    2    0    0  0.00000000000E+00  0.00000000000E+00  0.16165706810E+04  0.21291139139E+04  0.13855776022E+04 0.  0.
        4    1    3    3  502    0 -0.50056681553E+03 -0.46146198525E+03  0.10053117115E+04  0.12141530178E+04  0.12699999809E+01 0.  1.
       -4    1    3    3    0  502  0.50056681553E+03  0.46146198525E+03  0.61125896954E+03  0.91496089609E+03  0.12699999809E+01 0. -1.
</event>
<event>
 5   0  0.5603875E-04  0.1490903E+04  0.7818609E-02  0.8890525E-01
        3   -1    0    0  501    0  0.00000000000E+00  0.00000000000E+00  0.12024836126E+04  0.12024836168E+04  0.10100000352E+00 0. -1.
       -3   -1    0    0    0  501  0.00000000000E+00  0.00000000000E+00 -0.46212505179E+03  0.46212506282E+03  0.10100000352E+00 0.  1.
    10030    2    1    2    0    0  0.00000000000E+00  0.00000000000E+00  0.74035856081E+03  0.16646086797E+04  0.14909028331E+04 0.  0.
        4    1    3    3  502    0  0.23316951280E+02  0.68595692725E+03  0.45400180987E+02  0.68785418193E+03  0.12699999809E+01 0.  1.
       -4    1    3    3    0  502 -0.23316951280E+02 -0.68595692725E+03  0.69495837983E+03  0.97675449774E+03  0.12699999809E+01 0. -1.
</event>
<event>
 5   0  0.1552067E-03  0.1498456E+04  0.7818609E-02  0.8885480E-01
        2   -1    0    0  501    0  0.00000000000E+00  0.00000000000E+00  0.69216202376E+03  0.69216202377E+03  0.25500000920E-02 0.  1.
       -2   -1    0    0    0  501  0.00000000000E+00  0.00000000000E+00 -0.81099919150E+03  0.81099919151E+03  0.25500000920E-02 0. -1.
    10030    2    1    2    0    0  0.00000000000E+00  0.00000000000E+00 -0.11883716774E+03  0.15031612153E+04  0.14984563279E+04 0.  0.
        3    1    3    3  502    0  0.37053142247E+03 -0.25308185574E+03  0.54246436580E+03  0.70399684595E+03  0.10100000352E+00 0.  1.
       -3    1    3    3    0  502 -0.37053142247E+03  0.25308185574E+03 -0.66130153354E+03  0.79916436933E+03  0.10100000352E+00 0. -1.
</event>
<event>
 5   0  0.1484056E-03  0.1500816E+04  0.7818609E-02  0.8883911E-01
        2   -1    0    0  501    0  0.00000000000E+00  0.00000000000E+00  0.20259255187E+04  0.20259255187E+04  0.25500000920E-02 0.  1.
       -2   -1    0    0    0  501  0.00000000000E+00  0.00000000000E+00 -0.27795302469E+03  0.27795302470E+03  0.25500000920E-02 0. -1.
    10030    2    1    2    0    0  0.00000000000E+00  0.00000000000E+00  0.17479724940E+04  0.23038785434E+04  0.15008159457E+04 0.  0.
        5    1    3    3  502    0 -0.62214813454E+03 -0.24648909884E+03  0.13951576836E+04  0.15473565294E+04  0.46999998093E+01 0.  1.
       -5    1    3    3    0  502  0.62214813454E+03  0.24648909884E+03  0.35281481045E+03  0.75652201398E+03  0.46999998093E+01 0. -1.
</event>
<event>
 5   0  0.8365016E-04  0.1498045E+04  0.7818609E-02  0.8885754E-01
        1   -1    0    0  501    0  0.00000000000E+00  0.00000000000E+00  0.11657927545E+04  0.11657927545E+04  0.50400001928E-02 0.  1.
       -1   -1    0    0    0  501  0.00000000000E+00  0.00000000000E+00 -0.48124718496E+03  0.48124718498E+03  0.50400001928E-02 0. -1.
    10030    2    1    2    0    0  0.00000000000E+00  0.00000000000E+00  0.68454556951E+03  0.16470399395E+04  0.14980447008E+04 0.  0.
        3    1    3    3  502    0 -0.23540565497E+03  0.53509434272E+03  0.85713549509E+03  0.10375080940E+04  0.10100000352E+00 0.  1.
       -3    1    3    3    0  502  0.23540565497E+03 -0.53509434272E+03 -0.17258992558E+03  0.60953184545E+03  0.10100000352E+00 0. -1.
</event>
<event>
 5   0  0.1526126E-03  0.1481209E+04  0.7818609E-02  0.8897046E-01
       -2   -1    0    0    0  501  0.00000000000E+00  0.00000000000E+00  0.29379944695E+03  0.29379944696E+03  0.25500000920E-02 0.  1.
        2   -1    0    0  501    0  0.00000000000E+00  0.00000000000E+00 -0.18669032163E+04  0.18669032163E+04  0.25500000920E-02 0. -1.
    10030    2    1    2    0    0  0.00000000000E+00  0.00000000000E+00 -0.15731037693E+04  0.21607026632E+04  0.14812091445E+04 0.  0.
        2    1    3    3  502    0 -0.38140469409E+03 -0.17407131530E+03  0.10402772967E+03  0.43196311420E+03  0.25500000920E-02 0.  1.
       -2    1    3    3    0  502  0.38140469409E+03  0.17407131530E+03 -0.16771314990E+04  0.17287395490E+04  0.25500000920E-02 0. -1.
</event>
<event>
 5   0  0.1500956E-03  0.1506851E+04  0.7818609E-02  0.8879910E-01
       -2   -1    0    0    0  501  0.00000000000E+00  0.00000000000E+00  0.15684279544E+04  0.15684279544E+04  0.25500000920E-02 0. -1.
        2   -1    0    0  501    0  0.00000000000E+00  0.00000000000E+00 -0.36192297383E+03  0.36192297384E+03  0.25500000920E-02 0.  1.
    10030    2    1    2    0    0  0.00000000000E+00  0.00000000000E+00  0.12065049806E+04  0.19303509282E+04  0.15068511665E+04 0.  0.
        4    1    3    3  502    0 -0.70001536744E+03  0.20917045674E+03  0.36747428821E+03  0.81780973339E+03  0.12699999809E+01 0.  1.
       -4    1    3    3    0  502  0.70001536744E+03 -0.20917045674E+03  0.83903069234E+03  0.11125411948E+04  0.12699999809E+01 0. -1.
</event>
<event>
 5   0  0.1500956E-03  0.1523236E+04  0.7818609E-02  0.8869147E-01
        2   -1    0    0  501    0  0.00000000000E+00  0.00000000000E+00  0.80632279729E+03  0.80632279729E+03  0.25500000920E-02 0. -1.
       -2   -1    0    0    0  501  0.00000000000E+00  0.00000000000E+00 -0.71939136830E+03  0.71939136830E+03  0.25500000920E-02 0.  1.
    10030    2    1    2    0    0  0.00000000000E+00  0.00000000000E+00  0.86931428991E+02  0.15257141656E+04  0.15232355831E+04 0.  0.
        4    1    3    3  502    0  0.30955039762E+03  0.99885500483E+02 -0.64632132616E+03  0.72355471903E+03  0.12699999809E+01 0.  1.
       -4    1    3    3    0  502 -0.30955039762E+03 -0.99885500483E+02  0.73325275515E+03  0.80215944656E+03  0.12699999809E+01 0. -1.
</event>
<event>
 5   0  0.8306301E-04  0.1492971E+04  0.7818609E-02  0.8889140E-01
       -1   -1    0    0    0  501  0.00000000000E+00  0.00000000000E+00  0.50935466038E+03  0.50935466041E+03  0.50400001928E-02 0. -1.
        1   -1    0    0  501    0  0.00000000000E+00  0.00000000000E+00 -0.10940134647E+04  0.10940134648E+04  0.50400001928E-02 0.  1.
    10030    2    1    2    0    0  0.00000000000E+00  0.00000000000E+00 -0.58465880436E+03  0.16033681252E+04  0.14929713417E+04 0.  0.
        4    1    3    3  502    0  0.43933729022E+01 -0.39531822314E+03 -0.97235198107E+03  0.10496503167E+04  0.12699999809E+01 0.  1.
       -4    1    3    3    0  502 -0.43933729022E+01  0.39531822314E+03  0.38769317672E+03  0.55371780849E+03  0.12699999809E+01 0. -1.
</event>
<event>
 5   0  0.8058234E-04  0.1619446E+04  0.7818609E-02  0.8808690E-01
        1   -1    0    0  501    0  0.00000000000E+00  0.00000000000E+00  0.17946022208E+04  0.17946022208E+04  0.50400001928E-02 0.  1.
       -1   -1    0    0    0  501  0.00000000000E+00  0.00000000000E+00 -0.36534631816E+03  0.36534631819E+03  0.50400001928E-02 0. -1.
    10030    2    1    2    0    0  0.00000000000E+00  0.00000000000E+00  0.14292559026E+04  0.21599485390E+04  0.16194459719E+04 0.  0.
        5    1    3    3  502    0 -0.51782094848E+02 -0.74177206930E+03  0.11421010108E+04  0.13628367463E+04  0.46999998093E+01 0.  1.
       -5    1    3    3    0  502  0.51782094848E+02  0.74177206930E+03  0.28715489181E+03  0.79711179268E+03  0.46999998093E+01 0. -1.
</event>
<event>
 5   0  0.7870317E-04  0.1386974E+04  0.7818609E-02  0.8963302E-01
       -1   -1    0    0    0  501  0.00000000000E+00  0.00000000000E+00  0.12123504942E+04  0.12123504942E+04  0.50400001928E-02 0. -1.
        1   -1    0    0  501    0  0.00000000000E+00  0.00000000000E+00 -0.39668743253E+03  0.39668743256E+03  0.50400001928E-02 0.  1.
    10030    2    1    2    0    0  0.00000000000E+00  0.00000000000E+00  0.81566306166E+03  0.16090379268E+04  0.13869739794E+04 0.  0.
        1    1    3    3  502    0 -0.32225042408E+03  0.87912903148E+02  0.11128770084E+04  0.11619248040E+04  0.50400001928E-02 0. -1.
       -1    1    3    3    0  502  0.32225042408E+03 -0.87912903148E+02 -0.29721394674E+03  0.44711312273E+03  0.50400001928E-02 0.  1.
</event>
<event>
 5   0  0.8306301E-04  0.1493536E+04  0.7818609E-02  0.8888762E-01
       -1   -1    0    0    0  501  0.00000000000E+00  0.00000000000E+00  0.12195457449E+04  0.12195457449E+04  0.50400001928E-02 0.  1.
        1   -1    0    0  501    0  0.00000000000E+00  0.00000000000E+00 -0.45727091063E+03  0.45727091066E+03  0.50400001928E-02 0. -1.
    10030    2    1    2    0    0  0.00000000000E+00  0.00000000000E+00  0.76227483429E+03  0.16768166556E+04  0.14935364654E+04 0.  0.
        4    1    3    3  502    0  0.28883708489E+03  0.61541612041E+03  0.34188660839E+02  0.68068666822E+03  0.12699999809E+01 0. -1.
       -4    1    3    3    0  502 -0.28883708489E+03 -0.61541612041E+03  0.72808617345E+03  0.99612998736E+03  0.12699999809E+01 0.  1.
</event>
<event>
 5   0  0.7870317E-04  0.1477339E+04  0.7818609E-02  0.8899664E-01
        1   -1    0    0  501    0  0.00000000000E+00  0.00000000000E+00  0.90332756172E+03  0.90332756173E+03  0.50400001928E-02 0.  1.
       -1   -1    0    0    0  501  0.00000000000E+00  0.00000000000E+00 -0.60402488870E+03  0.60402488872E+03  0.50400001928E-02 0. -1.
    10030    2    1    2    0    0  0.00000000000E+00  0.00000000000E+00  0.29930267302E+03  0.15073524504E+04  0.14773385935E+04 0.  0.
        1    1    3    3  502    0  0.31737879645E+03 -0.62596277937E+03 -0.85406187589E+02  0.70700277121E+03  0.50400001928E-02 0. -1.
       -1    1    3    3    0  502 -0.31737879645E+03  0.62596277937E+03  0.38470886061E+03  0.80034967924E+03  0.50400001928E-02 0.  1.
</event>
<event>
 5   0  0.1526126E-03  0.1299199E+04  0.7818609E-02  0.9030201E-01
       -2   -1    0    0    0  501  0.00000000000E+00  0.00000000000E+00  0.76105930712E+03  0.76105930712E+03  0.25500000920E-02 0. -1.
        2   -1    0    0  501    0  0.00000000000E+00  0.00000000000E+00 -0.55446318422E+03  0.55446318422E+03  0.25500000920E-02 0.  1.
    10030    2    1    2    0    0  0.00000000000E+00  0.00000000000E+00  0.20659612290E+03  0.13155224913E+04  0.12991987790E+04 0.  0.
        2    1    3    3  502    0 -0.72231679345E+02  0.42136446515E+03 -0.39194216655E+03  0.57998628425E+03  0.25500000920E-02 0.  1.
       -2    1    3    3    0  502  0.72231679345E+02 -0.42136446515E+03  0.59853828945E+03  0.73553620709E+03  0.25500000920E-02 0. -1.
</event>
<event>
 5   0  0.8306301E-04  0.1495702E+04  0.7818609E-02  0.8887316E-01
       -1   -1    0    0    0  501  0.00000000000E+00  0.00000000000E+00  0.31740735246E+03  0.31740735250E+03  0.50400001928E-02 0.  1.
        1   -1    0    0  501    0  0.00000000000E+00  0.00000000000E+00 -0.17620286359E+04  0.17620286359E+04  0.50400001928E-02 0. -1.
    10030    2    1    2    0    0  0.00000000000E+00  0.00000000000E+00 -0.14446212834E+04  0.20794359884E+04  0.14957016338E+04 0.  0.
        4    1    3    3  502    0 -0.46374290539E+03  0.44551520875E+02 -0.15356354353E+04  0.16047492400E+04  0.12699999809E+01 0. -1.
       -4    1    3    3    0  502  0.46374290539E+03 -0.44551520875E+02  0.91014151903E+02  0.47468674835E+03  0.12699999809E+01 0.  1.
</event>
<event>
 5   0  0.1500956E-03  0.1523513E+04  0.7818609E-02  0.8868966E-01
       -2   -1    0    0    0  501  0.00000000000E+00  0.00000000000E+00  0.28811268634E+03  0.28811268635E+03  0.25500000920E-02 0.  1.
        2   -1    0    0  501    0  0.00000000000E+00  0.00000000000E+00 -0.20140498008E+04  0.20140498008E+04  0.25500000920E-02 0. -1.
    10030    2    1    2    0    0  0.00000000000E+00  0.00000000000E+00 -0.17259371144E+04  0.23021624871E+04  0.15235134375E+04 0.  0.
        4    1    3    3  502    0  0.47786137213E+03 -0.59156282500E+03 -0.79583783596E+03  0.11007531699E+04  0.12699999809E+01 0. -1.
       -4    1    3    3    0  502 -0.47786137213E+03  0.59156282500E+03 -0.93009927847E+03  0.12014093173E+04  0.12699999809E+01 0.  1.
</event>
<event>
 5   0  0.7870317E-04  0.1485293E+04  0.7818609E-02  0.8894292E-01
        1   -1    0    0  501    0  0.00000000000E+00  0.00000000000E+00  0.67285559406E+03  0.67285559408E+03  0.50400001928E-02 0. -1.
       -1   -1    0    0    0  501  0.00000000000E+00  0.00000000000E+00 -0.81967599766E+03  0.81967599768E+03  0.50400001928E-02 0.  1.
    10030    2    1    2    0    0  0.00000000000E+00  0.00000000000E+00 -0.14682040360E+03  0.14925315918E+04  0.14852926720E+04 0.  0.
        1    1    3    3  502    0 -0.35532915830E+03  0.25942206770E+03 -0.67462789486E+03  0.80540760891E+03  0.50400001928E-02 0. -1.
       -1    1    3    3    0  502  0.35532915830E+03 -0.25942206770E+03  0.52780749126E+03  0.68712398285E+03  0.50400001928E-02 0.  1.
</event>
<event>
 5   0  0.8365016E-04  0.1503281E+04  0.7818609E-02  0.8882274E-01
       -1   -1    0    0    0  501  0.00000000000E+00  0.00000000000E+00  0.34903683300E+03  0.34903683304E+03  0.50400001928E-02 0. -1.
        1   -1    0    0  501    0  0.00000000000E+00  0.00000000000E+00 -0.16186346763E+04  0.16186346763E+04  0.50400001928E-02 0.  1.
    10030    2    1    2    0    0  0.00000000000E+00  0.00000000000E+00 -0.12695978433E+04  0.19676715093E+04  0.15032805743E+04 0.  0.
        3    1    3    3  502    0 -0.60887375479E+03  0.37364626048E+03 -0.32888050093E+03  0.78644845434E+03  0.10100000352E+00 0.  1.
       -3    1    3    3    0  502  0.60887375479E+03 -0.37364626048E+03 -0.94071734235E+03  0.11812230550E+04  0.10100000352E+00 0. -1.
</event>
<event>
 5   0  0.1526126E-03  0.1461215E+04  0.7818609E-02  0.8910662E-01
       -2   -1    0    0    0  501  0.00000000000E+00  0.00000000000E+00  0.56142237219E+03  0.56142237219E+03  0.25500000920E-02 0.  1.
        2   -1    0    0  501    0  0.00000000000E+00  0.00000000000E+00 -0.95077655651E+03  0.95077655651E+03  0.25500000920E-02 0. -1.
    10030    2    1    2    0    0  0.00000000000E+00  0.00000000000E+00 -0.38935418432E+03  0.15121989287E+04  0.14612148778E+04 0.  0.
        2    1    3    3  502    0  0.54444516891E+03  0.40904000660E+03  0.79233034322E+02  0.68557431594E+03  0.25500000920E-02 0. -1.
       -2    1    3    3    0  502 -0.54444516891E+03 -0.40904000660E+03 -0.46858721864E+03  0.82662461277E+03  0.25500000920E-02 0.  1.
</event>
<event>
 5   0  0.1552067E-03  0.1535078E+04  0.7818609E-02  0.8861456E-01
        2   -1    0    0  501    0  0.00000000000E+00  0.00000000000E+00  0.80414277091E+03  0.80414277091E+03  0.25500000920E-02 0.  1.
       -2   -1    0    0    0  501  0.00000000000E+00  0.00000000000E+00 -0.73260168617E+03  0.73260168617E+03  0.25500000920E-02 0. -1.
    10030    2    1    2    0    0  0.00000000000E+00  0.00000000000E+00  0.71541084742E+02  0.15367444571E+04  0.15350783041E+04 0.  0.
        3    1    3    3  502    0  0.13985274036E+03 -0.41374077400E+03 -0.59608496006E+03  0.73895703993E+03  0.10100000352E+00 0. -1.
       -3    1    3    3    0  502 -0.13985274036E+03  0.41374077400E+03  0.66762604480E+03  0.79778741715E+03  0.10100000352E+00 0.  1.
</event>
<event>
 5   0  0.1484056E-03  0.1521878E+04  0.7818609E-02  0.8870033E-01
       -2   -1    0    0    0  501  0.00000000000E+00  0.00000000000E+00  0.11220703717E+04  0.11220703717E+04  0.25500000920E-02 0.  1.
        2   -1    0    0  501    0  0.00000000000E+00  0.00000000000E+00 -0.51603543318E+03  0.51603543319E+03  0.25500000920E-02 0. -1.
    10030    2    1    2    0    0  0.00000000000E+00  0.00000000000E+00  0.60603493855E+03  0.16381058049E+04  0.15218778799E+04 0.  0.
        5    1    3    3  502    0  0.61235034393E+03 -0.19986318996E+03 -0.13299630946E+03  0.65774489488E+03  0.46999998093E+01 0. -1.
       -5    1    3    3    0  502 -0.61235034393E+03  0.19986318996E+03  0.73903124801E+03  0.98036091005E+03  0.46999998093E+01 0.  1.
</event>
<event>
 5   0  0.8306301E-04  0.1373230E+04  0.7818609E-02  0.8973427E-01
       -1   -1    0    0    0  501  0.00000000000E+00  0.00000000000E+00  0.13272861204E+04  0.13272861204E+04  0.50400001928E-02 0.  1.
        1   -1    0    0  501    0  0.00000000000E+00  0.00000000000E+00 -0.35519110000E+03  0.35519110003E+03  0.50400001928E-02 0. -1.
    10030    2    1    2    0    0  0.00000000000E+00  0.00000000000E+00  0.97209502038E+03  0.16824772204E+04  0.13732300858E+04 0.  0.
        4    1    3    3  502    0 -0.59169077895E+03 -0.17014813024E+03  0.11363957086E+03  0.62607022696E+03  0.12699999809E+01 0. -1.
       -4    1    3    3    0  502  0.59169077895E+03  0.17014813024E+03  0.85845544952E+03  0.10564069935E+04  0.12699999809E+01 0.  1.
</event>
<event>
 5   0  0.7870317E-04  0.1316545E+04  0.7818609E-02  0.9016547E-01
       -1   -1    0    0    0  501  0.00000000000E+00  0.00000000000E+00  0.32505311008E+03  0.32505311012E+03  0.50400001928E-02 0.  1.
        1   -1    0    0  501    0  0.00000000000E+00  0.00000000000E+00 -0.13330826586E+04  0.13330826586E+04  0.50400001928E-02 0. -1.
    10030    2    1    2    0    0  0.00000000000E+00  0.00000000000E+00 -0.10080295485E+04  0.16581357687E+04  0.13165449695E+04 0.  0.
        1    1    3    3  502    0 -0.41523060866E+03 -0.51077328603E+03 -0.49884391318E+03  0.82592436568E+03  0.50400001928E-02 0.  1.
       -1    1    3    3    0  502  0.41523060866E+03  0.51077328603E+03 -0.50918563530E+03  0.83221140301E+03  0.50400001928E-02 0. -1.
</event>
<event>
 5   0  0.8365016E-04  0.1504227E+04  0.7818609E-02  0.8881647E-01
        1   -1    0    0  501    0  0.00000000000E+00  0.00000000000E+00  0.63433610865E+03  0.63433610867E+03  0.50400001928E-02 0.  1.
       -1   -1    0    0    0  501  0.00000000000E+00  0.00000000000E+00 -0.89175813662E+03  0.89175813663E+03  0.50400001928E-02 0. -1.
    10030    2    1    2    0    0  0.00000000000E+00  0.00000000000E+00 -0.25742202797E+03  0.15260942453E+04  0.15042265604E+04 0.  0.
        3    1    3    3  502    0 -0.22743016199E+03  0.53273376397E+03  0.35799703531E+03  0.68094906516E+03  0.10100000352E+00 0.  1.
       -3    1    3    3    0  502  0.22743016199E+03 -0.53273376397E+03 -0.61541906328E+03  0.84514518014E+03  0.10100000352E+00 0. -1.
</event>
<event>
 5   0  0.1552067E-03  0.1478658E+04  0.7818609E-02  0.8898771E-01
       -2   -1    0    0    0  501  0.00000000000E+00  0.00000000000E+00  0.81778798547E+03  0.81778798547E+03  0.25500000920E-02 0. -1.
        2   -1    0    0  501    0  0.00000000000E+00  0.00000000000E+00 -0.66839730844E+03  0.66839730844E+03  0.25500000920E-02 0.  1.
    10030    2    1    2    0    0  0.00000000000E+00  0.00000000000E+00  0.14939067703E+03  0.14861852939E+04  0.14786578893E+04 0.  0.
        3    1    3    3  502    0 -0.74731313990E+02 -0.72377816491E+03  0.20638783180E+03  0.75633031713E+03  0.10100000352E+00 0. -1.
       -3    1    3    3    0  502  0.74731313990E+02  0.72377816491E+03 -0.56997154772E+02  0.72985497679E+03  0.10100000352E+00 0.  1.
</event>
<event>
 5   0  0.1526126E-03  0.1305357E+04  0.7818609E-02  0.9025327E-01
        2   -1    0    0  501    0  0.00000000000E+00  0.00000000000E+00  0.23204788342E+04  0.23204788342E+04  0.25500000920E-02 0.  1.
       -2   -1    0    0    0  501  0.00000000000E+00  0.00000000000E+00 -0.18357825287E+03  0.18357825288E+03  0.25500000920E-02 0. -1.
    10030    2    1    2    0    0  0.00000000000E+00  0.00000000000E+00  0.21369005813E+04  0.25040570871E+04  0.13053573460E+04 0.  0.
        2    1    3    3  502    0  0.45724939378E+03 -0.16720797769E+03  0.23459098917E+03  0.54043357420E+03  0.25500000920E-02 0. -1.
       -2    1    3    3    0  502 -0.45724939378E+03  0.16720797769E+03  0.19023095921E+04  0.19636235129E+04  0.25500000920E-02 0.  1.
</event>
<event>
 5   0  0.8191876E-04  0.1505813E+04  0.7818609E-02  0.8880597E-01
       -1   -1    0    0    0  501  0.00000000000E+00  0.00000000000E+00  0.42074680466E+03  0.42074680469E+03  0.50400001928E-02 0. -1.
        1   -1    0    0  501    0  0.00000000000E+00  0.00000000000E+00 -0.13472901249E+04  0.13472901249E+04  0.50400001928E-02 0.  1.
    10030    2    1    2    0    0  0.00000000000E+00  0.00000000000E+00 -0.92654332021E+03  0.17680369296E+04  0.15058127573E+04 0.  0.
        2    1    3    3  502    0  0.80578635637E+02  0.45705830983E+03 -0.11593629834E+04  0.12488065272E+04  0.25500000920E-02 0.  1.
       -2    1    3    3    0  502 -0.80578635637E+02 -0.45705830983E+03  0.23281966323E+03  0.51923040233E+03  0.25500000920E-02 0. -1.
</event>
<event>
 5   0  0.8191876E-04  0.1507355E+04  0.7818609E-02  0.8879576E-01
       -1   -1    0    0    0  501  0.00000000000E+00  0.00000000000E+00  0.13211216029E+04  0.13211216029E+04  0.50400001928E-02 0.  1.
        1   -1    0    0  501    0  0.00000000000E+00  0.00000000000E+00 -0.42996043997E+03  0.42996044000E+03  0.50400001928E-02 0. -1.
    10030    2    1    2    0    0  0.00000000000E+00  0.00000000000E+00  0.89116116292E+03  0.17510820429E+04  0.15073553339E+04 0.  0.
        2    1    3    3  502    0 -0.50298890634E+03  0.24589060390E+03 -0.14055010721E+03  0.57724722747E+03  0.25500000920E-02 0. -1.
       -2    1    3    3    0  502  0.50298890634E+03 -0.24589060390E+03  0.10317112701E+04  0.11738348154E+04  0.25500000920E-02 0.  1.
</event>
<event>
 5   0  0.1511546E-03  0.1522631E+04  0.7818609E-02  0.8869542E-01
        2   -1    0    0  501    0  0.00000000000E+00  0.00000000000E+00  0.85456116919E+03  0.85456116919E+03  0.25500000920E-02 0.  1.
       -2   -1    0    0    0  501  0.00000000000E+00  0.00000000000E+00 -0.67824417981E+03  0.67824417981E+03  0.25500000920E-02 0. -1.
    10030    2    1    2    0    0  0.00000000000E+00  0.00000000000E+00  0.17631698938E+03  0.15328053490E+04  0.15226308013E+04 0.  0.
        1    1    3    3  502    0 -0.38471209583E+03 -0.49170968611E+03 -0.35043542959E+03  0.71595167605E+03  0.50400001928E-02 0.  1.
       -1    1    3    3    0  502  0.38471209583E+03  0.49170968611E+03  0.52675241898E+03  0.81685367296E+03  0.50400001928E-02 0. -1.
</event>
<event>
 5   0  0.8365016E-04  0.1479873E+04  0.7818609E-02  0.8897949E-01
       -1   -1    0    0    0  501  0.00000000000E+00  0.00000000000E+00  0.61959486514E+03  0.61959486516E+03  0.50400001928E-02 0.  1.
        1   -1    0    0  501    0  0.00000000000E+00  0.00000000000E+00 -0.88365132613E+03  0.88365132614E+03  0.50400001928E-02 0. -1.
    10030    2    1    2    0    0  0.00000000000E+00  0.00000000000E+00 -0.26405646099E+03  0.15032461913E+04  0.14798727300E+04 0.  0.
        3    1    3    3  502    0  0.49595108724E+03 -0.54856507464E+03 -0.15721280008E+03  0.75604695407E+03  0.10100000352E+00 0.  1.
       -3    1    3    3    0  502 -0.49595108724E+03  0.54856507464E+03 -0.10684366091E+03  0.74719923724E+03  0.10100000352E+00 0. -1.
</event>
<event>
 5   0  0.1511546E-03  0.1333551E+04  0.7818609E-02  0.9003374E-01
       -2   -1    0    0    0  501  0.00000000000E+00  0.00000000000E+00  0.83163923596E+03  0.83163923597E+03  0.25500000920E-02 0. -1.
        2   -1    0    0  501    0  0.00000000000E+00  0.00000000000E+00 -0.53459412353E+03  0.53459412354E+03  0.25500000920E-02 0.  1.
    10030    2    1    2    0    0  0.00000000000E+00  0.00000000000E+00  0.29704511243E+03  0.13662333595E+04  0.13335508216E+04 0.  0.
        1    1    3    3  502    0  0.41297081833E+02 -0.47806759022E+03  0.62283251714E+03  0.78624068466E+03  0.50400001928E-02 0. -1.
       -1    1    3    3    0  502 -0.41297081833E+02  0.47806759022E+03 -0.32578740471E+03  0.57999267484E+03  0.50400001928E-02 0.  1.
</event>
<event>
 5   0  0.8191876E-04  0.1502846E+04  0.7818609E-02  0.8882563E-01
        1   -1    0    0  501    0  0.00000000000E+00  0.00000000000E+00  0.78255140990E+03  0.78255140991E+03  0.50400001928E-02 0.  1.
       -1   -1    0    0    0  501  0.00000000000E+00  0.00000000000E+00 -0.72153291195E+03  0.72153291197E+03  0.50400001928E-02 0. -1.
    10030    2    1    2    0    0  0.00000000000E+00  0.00000000000E+00  0.61018497945E+02  0.15040843219E+04  0.15028460967E+04 0.  0.
        2    1    3    3  502    0 -0.16072661698E+03  0.18041965449E+03 -0.68159107195E+03  0.72315329392E+03  0.25500000920E-02 0. -1.
       -2    1    3    3    0  502  0.16072661698E+03 -0.18041965449E+03  0.74260956990E+03  0.78093102797E+03  0.25500000920E-02 0.  1.
</event>
<event>
 5   0  0.8306301E-04  0.1499963E+04  0.7818609E-02  0.8884478E-01
       -1   -1    0    0    0  501  0.00000000000E+00  0.00000000000E+00  0.31517071083E+03  0.31517071087E+03  0.50400001928E-02 0.  1.
        1   -1    0    0  501    0  0.00000000000E+00  0.00000000000E+00 -0.17846589685E+04  0.17846589685E+04  0.50400001928E-02 0. -1.
    10030    2    1    2    0    0  0.00000000000E+00  0.00000000000E+00 -0.14694882577E+04  0.20998296794E+04  0.14999629805E+04 0.  0.
        4    1    3    3  502    0  0.29433898950E+02  0.57551211609E+03 -0.62796524362E+02  0.57967712267E+03  0.12699999809E+01 0.  1.
       -4    1    3    3    0  502 -0.29433898950E+02 -0.57551211609E+03 -0.14066917333E+04  0.15201525567E+04  0.12699999809E+01 0. -1.
</event>
<event>
 5   0  0.1500956E-03  0.1443153E+04  0.7818609E-02  0.8923161E-01
        2   -1    0    0  501    0  0.00000000000E+00  0.00000000000E+00  0.13091839736E+04  0.13091839736E+04  0.25500000920E-02 0.  1.
       -2   -1    0    0    0  501  0.00000000000E+00  0.00000000000E+00 -0.39770793771E+03  0.39770793772E+03  0.25500000920E-02 0. -1.
    10030    2    1    2    0    0  0.00000000000E+00  0.00000000000E+00  0.91147603589E+03  0.17068919113E+04  0.14431532950E+04 0.  0.
        4    1    3    3  502    0  0.32700361237E+03  0.12666881450E+03 -0.29014129613E+03  0.45514825682E+03  0.12699999809E+01 0. -1.
       -4    1    3    3    0  502 -0.32700361237E+03 -0.12666881450E+03  0.12016173320E+04  0.12517436545E+04  0.12699999809E+01 0.  1.
</event>
<event>
 5   0  0.1526126E-03  0.1422769E+04  0.7818609E-02  0.8937500E-01
       -2   -1    0    0    0  501  0.00000000000E+00  0.00000000000E+00  0.23446400899E+03  0.23446400900E+03  0.25500000920E-02 0.  1.
        2   -1    0    0  501    0  0.00000000000E+00  0.00000000000E+00 -0.21584029148E+04  0.21584029148E+04  0.25500000920E-02 0. -1.
    10030    2    1    2    0    0  0.00000000000E+00  0.00000000000E+00 -0.19239389059E+04  0.23928669238E+04  0.14227688504E+04 0.  0.
        2    1    3    3  502    0 -0.28017657717E+03 -0.54630951026E+03 -0.35764214384E+03  0.71053564193E+03  0.25500000920E-02 0.  1.
       -2    1    3    3    0  502  0.28017657717E+03  0.54630951026E+03 -0.15662967620E+04  0.16823312819E+04  0.25500000920E-02 0. -1.
</event>
<event>
 5   0  0.8058234E-04  0.1491705E+04  0.7818609E-02  0.8889988E-01
        1   -1    0    0  501    0  0.00000000000E+00  0.00000000000E+00  0.69023779882E+03  0.69023779884E+03  0.50400001928E-02 0. -1.
       -1   -1    0    0    0  501  0.00000000000E+00  0.00000000000E+00 -0.80594862365E+03  0.80594862366E+03  0.50400001928E-02 0.  1.
    10030    2    1    2    0    0  0.00000000000E+00  0.00000000000E+00 -0.11571082483E+03  0.14961864225E+04  0.14917053382E+04 0.  0.
        5    1    3    3  502    0 -0.28540064700E+03 -0.28156640674E+03 -0.68866514872E+03  0.79687825154E+03  0.46999998093E+01 0.  1.
       -5    1    3    3    0  502  0.28540064700E+03  0.28156640674E+03  0.57295432389E+03  0.69930817096E+03  0.46999998093E+01 0. -1.
</event>
<event>
 5   0  0.1484056E-03  0.1516310E+04  0.7818609E-02  0.8873679E-01
       -2   -1    0    0    0  501  0.00000000000E+00  0.00000000000E+00  0.41060514831E+03  0.41060514832E+03  0.25500000920E-02 0.  1.
        2   -1    0    0  501    0  0.00000000000E+00  0.00000000000E+00 -0.13998824044E+04  0.13998824044E+04  0.25500000920E-02 0. -1.
    10030    2    1    2    0    0  0.00000000000E+00  0.00000000000E+00 -0.98927725613E+03  0.18104875528E+04  0.15163098922E+04 0.  0.
        5    1    3    3  502    0 -0.39676691359E+03  0.11702646041E+03  0.26396370173E+03  0.49073221005E+03  0.46999998093E+01 0.  1.
       -5    1    3    3    0  502  0.39676691359E+03 -0.11702646041E+03 -0.12532409579E+04  0.13197553427E+04  0.46999998093E+01 0. -1.
</event>
<event>
 5   0  0.1526126E-03  0.1508556E+04  0.7818609E-02  0.8878783E-01
        2   -1    0    0  501    0  0.00000000000E+00  0.00000000000E+00  0.16148708128E+04  0.16148708128E+04  0.25500000920E-02 0.  1.
       -2   -1    0    0    0  501  0.00000000000E+00  0.00000000000E+00 -0.35231024260E+03  0.35231024261E+03  0.25500000920E-02 0. -1.
    10030    2    1    2    0    0  0.00000000000E+00  0.00000000000E+00  0.12625605702E+04  0.19671810554E+04  0.15085563004E+04 0.  0.
        2    1    3    3  502    0 -0.47010600112E+03  0.47658900897E+03  0.17805502573E+03  0.69270508007E+03  0.25500000920E-02 0. -1.
       -2    1    3    3    0  502  0.47010600112E+03 -0.47658900897E+03  0.10845055445E+04  0.12744759754E+04  0.25500000920E-02 0.  1.
</event>
<event>
 5   0  0.5603875E-04  0.1478575E+04  0.7818609E-02  0.8898826E-01
       -4   -1    0    0    0  501  0.00000000000E+00  0.00000000000E+00  0.82369998794E+03  0.82370096700E+03  0.12699999809E+01 0. -1.
        4   -1    0    0  501    0  0.00000000000E+00  0.00000000000E+00 -0.66352395510E+03  0.66352517050E+03  0.12699999809E+01 0.  1.
    10030    2    1    2    0    0  0.00000000000E+00  0.00000000000E+00  0.16017603284E+03  0.14872261375E+04  0.14785754031E+04 0.  0.
        1    1    3    3  502    0 -0.19478785418E+03 -0.16945560655E+03  0.77688110932E+03  0.81865851780E+03  0.50400001928E-02 0. -1.
       -1    1    3    3    0  502  0.19478785418E+03  0.16945560655E+03 -0.61670507648E+03  0.66856761970E+03  0.50400001928E-02 0.  1.
</event>
<event>
 5   0  0.8365016E-04  0.1494959E+04  0.7818609E-02  0.8887812E-01
        1   -1    0    0  501    0  0.00000000000E+00  0.00000000000E+00  0.10647830475E+04  0.10647830475E+04  0.50400001928E-02 0.  1.
       -1   -1    0    0    0  501  0.00000000000E+00  0.00000000000E+00 -0.52473206169E+03  0.52473206172E+03  0.50400001928E-02 0. -1.
    10030    2    1    2    0    0  0.00000000000E+00  0.00000000000E+00  0.54005098576E+03  0.15895151092E+04  0.14949592687E+04 0.  0.
        3    1    3    3  502    0 -0.63703378289E+03 -0.19171998101E+03 -0.92349626347E+02  0.67163759227E+03  0.10100000352E+00 0. -1.
       -3    1    3    3    0  502  0.63703378289E+03  0.19171998101E+03  0.63240061211E+03  0.91787751692E+03  0.10100000352E+00 0.  1.
</event>
<event>
 5   0  0.1511546E-03  0.1502564E+04  0.7818609E-02  0.8882750E-01
       -2   -1    0    0    0  501  0.00000000000E+00  0.00000000000E+00  0.36487932820E+03  0.36487932821E+03  0.25500000920E-02 0.  1.
        2   -1    0    0  501    0  0.00000000000E+00  0.00000000000E+00 -0.15468797616E+04  0.15468797616E+04  0.25500000920E-02 0. -1.
    10030    2    1    2    0    0  0.00000000000E+00  0.00000000000E+00 -0.11820004334E+04  0.19117590898E+04  0.15025637400E+04 0.  0.
        1    1    3    3  502    0  0.10522397991E+03  0.28079947761E+03  0.28543577837E+03  0.41399760407E+03  0.50400001928E-02 0.  1.
       -1    1    3    3    0  502 -0.10522397991E+03 -0.28079947761E+03 -0.14674362117E+04  0.14977614857E+04  0.50400001928E-02 0. -1.
</event>
<event>
 5   0  0.8365016E-04  0.1506615E+04  0.7818609E-02  0.8880066E-01
       -1   -1    0    0    0  501  0.00000000000E+00  0.00000000000E+00  0.46009313622E+03  0.46009313624E+03  0.50400001928E-02 0.  1.
        1   -1    0    0  501    0  0.00000000000E+00  0.00000000000E+00 -0.12333850297E+04  0.12333850298E+04  0.50400001928E-02 0. -1.
    10030    2    1    2    0    0  0.00000000000E+00  0.00000000000E+00 -0.77329189353E+03  0.16934781660E+04  0.15066147305E+04 0.  0.
        3    1    3    3  502    0  0.51915839236E+03  0.50309923709E+03 -0.62465805119E+03  0.95542240388E+03  0.10100000352E+00 0. -1.
       -3    1    3    3    0  502 -0.51915839236E+03 -0.50309923709E+03 -0.14863384234E+03  0.73805576212E+03  0.10100000352E+00 0.  1.
</event>
<event>
 5   0  0.1526126E-03  0.1538551E+04  0.7818609E-02  0.8859214E-01
       -2   -1    0    0    0  501  0.00000000000E+00  0.00000000000E+00  0.14570181594E+04  0.14570181594E+04  0.25500000920E-02 0. -1.
        2   -1    0    0  501    0  0.00000000000E+00  0.00000000000E+00 -0.40616183555E+03  0.40616183556E+03  0.25500000920E-02 0.  1.
    10030    2    1    2    0    0  0.00000000000E+00  0.00000000000E+00  0.10508563238E+04  0.18631799949E+04  0.15385514877E+04 0.  0.
        2    1    3    3  502    0  0.37256117105E+03 -0.53877464742E+03  0.36951830317E+02  0.65608336714E+03  0.25500000920E-02 0.  1.
       -2    1    3    3    0  502 -0.37256117105E+03  0.53877464742E+03  0.10139044935E+04  0.12070966278E+04  0.25500000920E-02 0. -1.
</event>
<event>
 5   0  0.1552067E-03  0.1537377E+04  0.7818609E-02  0.8859971E-01
        2   -1    0    0  501    0  0.00000000000E+00  0.00000000000E+00  0.10925235997E+04  0.10925235997E+04  0.25500000920E-02 0. -1.
       -2   -1    0    0    0  501  0.00000000000E+00  0.00000000000E+00 -0.54084164985E+03  0.54084164985E+03  0.25500000920E-02 0.  1.
    10030    2    1    2    0    0  0.00000000000E+00  0.00000000000E+00  0.55168194987E+03  0.16333652496E+04  0.15373773332E+04 0.  0.
        3    1    3    3  502    0  0.91898979214E+02 -0.56650636775E+03 -0.26746540329E+03  0.63317662563E+03  0.10100000352E+00 0.  1.
       -3    1    3    3    0  502 -0.91898979214E+02  0.56650636775E+03  0.81914735316E+03  0.10001886239E+04  0.10100000352E+00 0. -1.
</event>
<event>
 5   0  0.1511546E-03  0.1533728E+04  0.7818609E-02  0.8862329E-01
        2   -1    0    0  501    0  0.00000000000E+00  0.00000000000E+00  0.73328602445E+03  0.73328602445E+03  0.25500000920E-02 0.  1.
       -2   -1    0    0    0  501  0.00000000000E+00  0.00000000000E+00 -0.80197909034E+03  0.80197909034E+03  0.25500000920E-02 0. -1.
    10030    2    1    2    0    0  0.00000000000E+00  0.00000000000E+00 -0.68693065892E+02  0.15352651148E+04  0.15337275623E+04 0.  0.
        1    1    3    3  502    0  0.19040416528E+03 -0.61743732867E+03  0.37910198271E+03  0.74913344226E+03  0.50400001928E-02 0.  1.
       -1    1    3    3    0  502 -0.19040416528E+03  0.61743732867E+03 -0.44779504860E+03  0.78613167254E+03  0.50400001928E-02 0. -1.
</event>
<event>
 5   0  0.1484056E-03  0.1569755E+04  0.7818609E-02  0.8839347E-01
       -2   -1    0    0    0  501  0.00000000000E+00  0.00000000000E+00  0.43093532447E+03  0.43093532448E+03  0.25500000920E-02 0.  1.
        2   -1    0    0  501    0  0.00000000000E+00  0.00000000000E+00 -0.14295238982E+04  0.14295238982E+04  0.25500000920E-02 0. -1.
    10030    2    1    2    0    0  0.00000000000E+00  0.00000000000E+00 -0.99858857370E+03  0.18604592226E+04  0.15697545603E+04 0.  0.
        5    1    3    3  502    0 -0.68999165811E+03 -0.13666490446E+02 -0.94233230131E+03  0.11680271903E+04  0.46999998093E+01 0.  1.
       -5    1    3    3    0  502  0.68999165811E+03  0.13666490446E+02 -0.56256272390E+02  0.69243203233E+03  0.46999998093E+01 0. -1.
</event>
<event>
 5   0  0.8306301E-04  0.1506065E+04  0.7818609E-02  0.8880430E-01
       -1   -1    0    0    0  501  0.00000000000E+00  0.00000000000E+00  0.96805969178E+03  0.96805969179E+03  0.50400001928E-02 0.  1.
        1   -1    0    0  501    0  0.00000000000E+00  0.00000000000E+00 -0.58576757097E+03  0.58576757099E+03  0.50400001928E-02 0. -1.
    10030    2    1    2    0    0  0.00000000000E+00  0.00000000000E+00  0.38229212081E+03  0.15538272628E+04  0.15060650374E+04 0.  0.
        4    1    3    3  502    0  0.73022133798E+03 -0.12173010935E+03  0.48878303914E+02  0.74191112908E+03  0.12699999809E+01 0.  1.
       -4    1    3    3    0  502 -0.73022133798E+03  0.12173010935E+03  0.33341381690E+03  0.81191613370E+03  0.12699999809E+01 0. -1.
</event>
<event>
 5   0  0.8058234E-04  0.1501066E+04  0.7818609E-02  0.8883744E-01
        1   -1    0    0  501    0  0.00000000000E+00  0.00000000000E+00  0.17914124361E+04  0.17914124361E+04  0.50400001928E-02 0.  1.
       -1   -1    0    0    0  501  0.00000000000E+00  0.00000000000E+00 -0.31444454521E+03  0.31444454525E+03  0.50400001928E-02 0. -1.
    10030    2    1    2    0    0  0.00000000000E+00  0.00000000000E+00  0.14769678909E+04  0.21058569814E+04  0.15010661129E+04 0.  0.
        5    1    3    3  502    0  0.46319400526E+03  0.71399985011E+02 -0.83901290766E+02  0.47613880430E+03  0.46999998093E+01 0. -1.
       -5    1    3    3    0  502 -0.46319400526E+03 -0.71399985011E+02  0.15608691817E+04  0.16297181771E+04  0.46999998093E+01 0.  1.
</event>
<event>
 5   0  0.1500956E-03  0.1312534E+04  0.7818609E-02  0.9019684E-01
       -2   -1    0    0    0  501  0.00000000000E+00  0.00000000000E+00  0.42502681638E+03  0.42502681638E+03  0.25500000920E-02 0. -1.
        2   -1    0    0  501    0  0.00000000000E+00  0.00000000000E+00 -0.10133160327E+04  0.10133160327E+04  0.25500000920E-02 0.  1.
    10030    2    1    2    0    0  0.00000000000E+00  0.00000000000E+00 -0.58828921633E+03  0.14383428491E+04  0.13125341708E+04 0.  0.
        4    1    3    3  502    0  0.34104103829E+03  0.12663815292E+02  0.32013430997E+03  0.46792836133E+03  0.12699999809E+01 0. -1.
       -4    1    3    3    0  502 -0.34104103829E+03 -0.12663815292E+02 -0.90842352630E+03  0.97041448776E+03  0.12699999809E+01 0.  1.
</event>
<event>
 5   0  0.8306301E-04  0.1516504E+04  0.7818609E-02  0.8873551E-01
       -1   -1    0    0    0  501  0.00000000000E+00  0.00000000000E+00  0.69680503926E+03  0.69680503928E+03  0.50400001928E-02 0.  1.
        1   -1    0    0  501    0  0.00000000000E+00  0.00000000000E+00 -0.82511784040E+03  0.82511784042E+03  0.50400001928E-02 0. -1.
    10030    2    1    2    0    0  0.00000000000E+00  0.00000000000E+00 -0.12831280114E+03  0.15219228797E+04  0.15165042291E+04 0.  0.
        4    1    3    3  502    0 -0.66070390873E+03  0.34973698425E+03  0.63178968735E+02  0.75022583810E+03  0.12699999809E+01 0.  1.
       -4    1    3    3    0  502  0.66070390873E+03 -0.34973698425E+03 -0.19149176988E+03  0.77169704159E+03  0.12699999809E+01 0. -1.
</event>
<event>
 5   0  0.7870317E-04  0.1569950E+04  0.7818609E-02  0.8839225E-01
       -1   -1    0    0    0  501  0.00000000000E+00  0.00000000000E+00  0.47862879247E+03  0.47862879249E+03  0.50400001928E-02 0. -1.
        1   -1    0    0  501    0  0.00000000000E+00  0.00000000000E+00 -0.12873980522E+04  0.12873980522E+04  0.50400001928E-02 0.  1.
    10030    2    1    2    0    0  0.00000000000E+00  0.00000000000E+00 -0.80876925970E+03  0.17660268447E+04  0.15699500313E+04 0.  0.
        1    1    3    3  502    0 -0.12450172544E+03 -0.12964422175E+03  0.45516771667E+03  0.48937302153E+03  0.50400001928E-02 0. -1.
       -1    1    3    3    0  502  0.12450172544E+03  0.12964422175E+03 -0.12639369764E+04  0.12766538231E+04  0.50400001928E-02 0.  1.
</event>
<event>
 5   0  0.1511546E-03  0.1507376E+04  0.7818609E-02  0.8879563E-01
       -2   -1    0    0    0  501  0.00000000000E+00  0.00000000000E+00  0.33416117137E+03  0.33416117138E+03  0.25500000920E-02 0. -1.
        2   -1    0    0  501    0  0.00000000000E+00  0.00000000000E+00 -0.16999154736E+04  0.16999154736E+04  0.25500000920E-02 0.  1.
    10030    2    1    2    0    0  0.00000000000E+00  0.00000000000E+00 -0.13657543022E+04  0.20340766449E+04  0.15073761918E+04 0.  0.
        1    1    3    3  502    0  0.48127402037E+03  0.46602943755E+03 -0.21691319580E+03  0.70417288636E+03  0.50400001928E-02 0. -1.
       -1    1    3    3    0  502 -0.48127402037E+03 -0.46602943755E+03 -0.11488411064E+04  0.13299037586E+04  0.50400001928E-02 0.  1.
</event>
<event>
 5   0  0.8058234E-04  0.1468843E+04  0.7818609E-02  0.8905441E-01
        1   -1    0    0  501    0  0.00000000000E+00  0.00000000000E+00  0.14886048130E+04  0.14886048130E+04  0.50400001928E-02 0.  1.
       -1   -1    0    0    0  501  0.00000000000E+00  0.00000000000E+00 -0.36233581964E+03  0.36233581968E+03  0.50400001928E-02 0. -1.
    10030    2    1    2    0    0  0.00000000000E+00  0.00000000000E+00  0.11262689933E+04  0.18509406327E+04  0.14688428712E+04 0.  0.
        5    1    3    3  502    0 -0.18465424311E+02 -0.25556550220E+03 -0.30416271736E+03  0.39773326041E+03  0.46999998093E+01 0. -1.
       -5    1    3    3    0  502  0.18465424311E+02  0.25556550220E+03  0.14304317107E+04  0.14532073722E+04  0.46999998093E+01 0.  1.
</event>
<event>
 5   0  0.1500956E-03  0.1522500E+04  0.7818609E-02  0.8869627E-01
       -2   -1    0    0    0  501  0.00000000000E+00  0.00000000000E+00  0.43791310663E+03  0.43791310664E+03  0.25500000920E-02 0. -1.
        2   -1    0    0  501    0  0.00000000000E+00  0.00000000000E+00 -0.13233259689E+04  0.13233259689E+04  0.25500000920E-02 0.  1.
    10030    2    1    2    0    0  0.00000000000E+00  0.00000000000E+00 -0.88541286227E+03  0.17612390755E+04  0.15225002938E+04 0.  0.
        4    1    3    3  502    0 -0.55409013009E+02 -0.10863664061E+03 -0.13119513671E+04  0.13176077113E+04  0.12699999809E+01 0.  1.
       -4    1    3    3    0  502  0.55409013009E+02  0.10863664061E+03  0.42653850478E+03  0.44363136427E+03  0.12699999809E+01 0. -1.
</event>
<event>
 5   0  0.1511546E-03  0.1678637E+04  0.7818609E-02  0.8773643E-01
       -2   -1    0    0    0  501  0.00000000000E+00  0.00000000000E+00  0.11537071732E+04  0.11537071732E+04  0.25500000920E-02 0. -1.
        2   -1    0    0  501    0  0.00000000000E+00  0.00000000000E+00 -0.61060158809E+03  0.61060158810E+03  0.25500000920E-02 0.  1.
    10030    2    1    2    0    0  0.00000000000E+00  0.00000000000E+00  0.54310558510E+03  0.17643087613E+04  0.16786368662E+04 0.  0.
        1    1    3    3  502    0 -0.37752597091E+03 -0.71028554793E+03  0.19689656499E+02  0.80462357715E+03  0.50400001928E-02 0. -1.
       -1    1    3    3    0  502  0.37752597091E+03  0.71028554793E+03  0.52341592860E+03  0.95968518414E+03  0.50400001928E-02 0.  1.
</event>
<event>
 5   0  0.1552067E-03  0.1506791E+04  0.7818609E-02  0.8879950E-01
       -2   -1    0    0    0  501  0.00000000000E+00  0.00000000000E+00  0.33473384300E+03  0.33473384301E+03  0.25500000920E-02 0. -1.
        2   -1    0    0  501    0  0.00000000000E+00  0.00000000000E+00 -0.16956890167E+04  0.16956890167E+04  0.25500000920E-02 0.  1.
    10030    2    1    2    0    0  0.00000000000E+00  0.00000000000E+00 -0.13609551737E+04  0.20304228597E+04  0.15067906306E+04 0.  0.
        3    1    3    3  502    0 -0.39882566703E+03  0.58823333464E+03 -0.10174213214E+04  0.12410586304E+04  0.10100000352E+00 0.  1.
       -3    1    3    3    0  502  0.39882566703E+03 -0.58823333464E+03 -0.34353385230E+03  0.78936422932E+03  0.10100000352E+00 0. -1.
</event>
<event>
 5   0  0.1526126E-03  0.1482582E+04  0.7818609E-02  0.8896119E-01
       -2   -1    0    0    0  501  0.00000000000E+00  0.00000000000E+00  0.30533555060E+03  0.30533555061E+03  0.25500000920E-02 0.  1.
        2   -1    0    0  501    0  0.00000000000E+00  0.00000000000E+00 -0.17997006050E+04  0.17997006050E+04  0.25500000920E-02 0. -1.
    10030    2    1    2    0    0  0.00000000000E+00  0.00000000000E+00 -0.14943650544E+04  0.21050361556E+04  0.14825823082E+04 0.  0.
        2    1    3    3  502    0  0.48009711581E+02 -0.38535071798E+03 -0.16437245567E+04  0.16889732166E+04  0.25500000920E-02 0. -1.
       -2    1    3    3    0  502 -0.48009711581E+02  0.38535071798E+03  0.14935950229E+03  0.41606293897E+03  0.25500000920E-02 0.  1.
</event>
<event>
 5   0  0.1511546E-03  0.1518231E+04  0.7818609E-02  0.8872419E-01
       -2   -1    0    0    0  501  0.00000000000E+00  0.00000000000E+00  0.52072409838E+03  0.52072409838E+03  0.25500000920E-02 0.  1.
        2   -1    0    0  501    0  0.00000000000E+00  0.00000000000E+00 -0.11066439810E+04  0.11066439810E+04  0.25500000920E-02 0. -1.
    10030    2    1    2    0    0  0.00000000000E+00  0.00000000000E+00 -0.58591988262E+03  0.16273680794E+04  0.15182307983E+04 0.  0.
        1    1    3    3  502    0 -0.38437312207E+03  0.55651520817E+03 -0.66241711524E+03  0.94670391806E+03  0.50400001928E-02 0. -1.
       -1    1    3    3    0  502  0.38437312207E+03 -0.55651520817E+03  0.76497232616E+02  0.68066416133E+03  0.50400001928E-02 0.  1.
</event>
<event>
 5   0  0.1484056E-03  0.1502870E+04  0.7818609E-02  0.8882547E-01
       -2   -1    0    0    0  501  0.00000000000E+00  0.00000000000E+00  0.24850792579E+03  0.24850792581E+03  0.25500000920E-02 0.  1.
        2   -1    0    0  501    0  0.00000000000E+00  0.00000000000E+00 -0.22721790307E+04  0.22721790307E+04  0.25500000920E-02 0. -1.
    10030    2    1    2    0    0  0.00000000000E+00  0.00000000000E+00 -0.20236711049E+04  0.25206869565E+04  0.15028699185E+04 0.  0.
        5    1    3    3  502    0  0.13110567180E+03  0.22520383266E+03  0.17027033876E+03  0.31131903521E+03  0.46999998093E+01 0.  1.
       -5    1    3    3    0  502 -0.13110567180E+03 -0.22520383266E+03 -0.21939414437E+04  0.22093679213E+04  0.46999998093E+01 0. -1.
</event>
<event>
 5   0  0.1526126E-03  0.1512086E+04  0.7818609E-02  0.8876455E-01
        2   -1    0    0  501    0  0.00000000000E+00  0.00000000000E+00  0.14417355085E+04  0.14417355085E+04  0.25500000920E-02 0. -1.
       -2   -1    0    0    0  501  0.00000000000E+00  0.00000000000E+00 -0.39646736348E+03  0.39646736349E+03  0.25500000920E-02 0.  1.
    10030    2    1    2    0    0  0.00000000000E+00  0.00000000000E+00  0.10452681450E+04  0.18382028720E+04  0.15120860768E+04 0.  0.
        2    1    3    3  502    0  0.18104765071E+03 -0.71548090561E+03  0.72205601841E+03  0.10324999137E+04  0.25500000920E-02 0. -1.
       -2    1    3    3    0  502 -0.18104765071E+03  0.71548090561E+03  0.32321212657E+03  0.80570295822E+03  0.25500000920E-02 0.  1.
</event>
<event>
 5   0  0.8365016E-04  0.1497224E+04  0.7818609E-02  0.8886301E-01
       -1   -1    0    0    0  501  0.00000000000E+00  0.00000000000E+00  0.11349271389E+04  0.11349271389E+04  0.50400001928E-02 0. -1.
        1   -1    0    0  501    0  0.00000000000E+00  0.00000000000E+00 -0.49379389740E+03  0.49379389742E+03  0.50400001928E-02 0.  1.
    10030    2    1    2    0    0  0.00000000000E+00  0.00000000000E+00  0.64113324150E+03  0.16287210363E+04  0.14972242253E+04 0.  0.
        3    1    3    3  502    0 -0.46181326081E+03  0.57683468991E+03  0.18998052459E+03  0.76295632723E+03  0.10100000352E+00 0.  1.
       -3    1    3    3    0  502  0.46181326081E+03 -0.57683468991E+03  0.45115271691E+03  0.86576470910E+03  0.10100000352E+00 0. -1.
</event>
<event>
 5   0  0.7870317E-04  0.1502868E+04  0.7818609E-02  0.8882548E-01
        1   -1    0    0  501    0  0.00000000000E+00  0.00000000000E+00  0.50136798914E+03  0.50136798917E+03  0.50400001928E-02 0. -1.
       -1   -1    0    0    0  501  0.00000000000E+00  0.00000000000E+00 -0.11262253856E+04  0.11262253856E+04  0.50400001928E-02 0.  1.
    10030    2    1    2    0    0  0.00000000000E+00  0.00000000000E+00 -0.62485739647E+03  0.16275933748E+04  0.15028684000E+04 0.  0.
        1    1    3    3  502    0  0.36425858892E+03 -0.46555909166E+03 -0.81485235168E+03  0.10066846291E+04  0.50400001928E-02 0.  1.
       -1    1    3    3    0  502 -0.36425858892E+03  0.46555909166E+03  0.18999495521E+03  0.62090874568E+03  0.50400001928E-02 0. -1.
</event>
<event>
 5   0  0.1500956E-03  0.1537357E+04  0.7818609E-02  0.8859984E-01
        2   -1    0    0  501    0  0.00000000000E+00  0.00000000000E+00  0.14880256391E+04  0.14880256391E+04  0.25500000920E-02 0.  1.
       -2   -1    0    0    0  501  0.00000000000E+00  0.00000000000E+00 -0.39708109438E+03  0.39708109439E+03  0.25500000920E-02 0. -1.
    10030    2    1    2    0    0  0.00000000000E+00  0.00000000000E+00  0.10909445448E+04  0.18851067335E+04  0.15373572770E+04 0.  0.
        4    1    3    3  502    0 -0.25771805167E+03  0.37892476425E+03  0.13022099154E+04  0.13804907996E+04  0.12699999809E+01 0.  1.
       -4    1    3    3    0  502  0.25771805167E+03 -0.37892476425E+03 -0.21126537058E+03  0.50461593398E+03  0.12699999809E+01 0. -1.
</event>
<event>
 5   0  0.1484056E-03  0.1361227E+04  0.7818609E-02  0.8982373E-01
       -2   -1    0    0    0  501  0.00000000000E+00  0.00000000000E+00  0.17554711949E+03  0.17554711950E+03  0.25500000920E-02 0. -1.
        2   -1    0    0  501    0  0.00000000000E+00  0.00000000000E+00 -0.26388059220E+04  0.26388059220E+04  0.25500000920E-02 0.  1.
    10030    2    1    2    0    0  0.00000000000E+00  0.00000000000E+00 -0.24632588025E+04  0.28143530415E+04  0.13612270619E+04 0.  0.
        5    1    3    3  502    0  0.25161427311E+03  0.39723051034E+03 -0.22489436876E+04  0.22975795134E+04  0.46999998093E+01 0.  1.
       -5    1    3    3    0  502 -0.25161427311E+03 -0.39723051034E+03 -0.21431511490E+03  0.51677352801E+03  0.46999998093E+01 0. -1.
</event>
<event>
 5   0  0.1484056E-03  0.1577446E+04  0.7818609E-02  0.8834525E-01
        2   -1    0    0  501    0  0.00000000000E+00  0.00000000000E+00  0.18389835786E+04  0.18389835786E+04  0.25500000920E-02 0. -1.
       -2   -1    0    0    0  501  0.00000000000E+00  0.00000000000E+00 -0.33827583874E+03  0.33827583875E+03  0.25500000920E-02 0.  1.
    10030    2    1    2    0    0  0.00000000000E+00  0.00000000000E+00  0.15007077399E+04  0.21772594174E+04  0.15774456726E+04 0.  0.
        5    1    3    3  502    0  0.33852520603E+03  0.40763233956E+03  0.15567023188E+04  0.16444171121E+04  0.46999998093E+01 0. -1.
       -5    1    3    3    0  502 -0.33852520603E+03 -0.40763233956E+03 -0.55994578911E+02  0.53284230523E+03  0.46999998093E+01 0.  1.
</event>
<event>
 5   0  0.8306301E-04  0.1529584E+04  0.7818609E-02  0.8865014E-01
       -1   -1    0    0    0  501  0.00000000000E+00  0.00000000000E+00  0.12287466379E+04  0.12287466379E+04  0.50400001928E-02 0. -1.
        1   -1    0    0  501    0  0.00000000000E+00  0.00000000000E+00 -0.47601935665E+03  0.47601935668E+03  0.50400001928E-02 0.  1.
    10030    2    1    2    0    0  0.00000000000E+00  0.00000000000E+00  0.75272728127E+03  0.17047659946E+04  0.15295844980E+04 0.  0.
        4    1    3    3  502    0  0.22093148341E+03  0.59478262738E+03 -0.99539479896E+02  0.64225136446E+03  0.12699999809E+01 0.  1.
       -4    1    3    3    0  502 -0.22093148341E+03 -0.59478262738E+03  0.85226676116E+03  0.10625146301E+04  0.12699999809E+01 0. -1.
</event>
<event>
 5   0  0.8058234E-04  0.1520707E+04  0.7818609E-02  0.8870799E-01
        1   -1    0    0  501    0  0.00000000000E+00  0.00000000000E+00  0.39218930928E+03  0.39218930931E+03  0.50400001928E-02 0.  1.
       -1   -1    0    0    0  501  0.00000000000E+00  0.00000000000E+00 -0.14741277500E+04  0.14741277500E+04  0.50400001928E-02 0. -1.
    10030    2    1    2    0    0  0.00000000000E+00  0.00000000000E+00 -0.10819384407E+04  0.18663170593E+04  0.15207066043E+04 0.  0.
        5    1    3    3  502    0 -0.41717257741E+03  0.54108570175E+03 -0.95042205498E+03  0.11705258940E+04  0.46999998093E+01 0. -1.
       -5    1    3    3    0  502  0.41717257741E+03 -0.54108570175E+03 -0.13151638572E+03  0.69579116529E+03  0.46999998093E+01 0.  1.
</event>
<event>
 5   0  0.1511546E-03  0.1204144E+04  0.7818609E-02  0.9109237E-01
        2   -1    0    0  501    0  0.00000000000E+00  0.00000000000E+00  0.83124987829E+03  0.83124987830E+03  0.25500000920E-02 0. -1.
       -2   -1    0    0    0  501  0.00000000000E+00  0.00000000000E+00 -0.43607914182E+03  0.43607914183E+03  0.25500000920E-02 0.  1.
    10030    2    1    2    0    0  0.00000000000E+00  0.00000000000E+00  0.39517073647E+03  0.12673290201E+04  0.12041440671E+04 0.  0.
        1    1    3    3  502    0 -0.56833990372E+03  0.16465316504E+03  0.80529641489E+02  0.59716491366E+03  0.50400001928E-02 0.  1.
       -1    1    3    3    0  502  0.56833990372E+03 -0.16465316504E+03  0.31464109498E+03  0.67016410647E+03  0.50400001928E-02 0. -1.
</event>
<event>
 5   0  0.1500956E-03  0.1518896E+04  0.7818609E-02  0.8871984E-01
        2   -1    0    0  501    0  0.00000000000E+00  0.00000000000E+00  0.11262968098E+04  0.11262968098E+04  0.25500000920E-02 0. -1.
       -2   -1    0    0    0  501  0.00000000000E+00  0.00000000000E+00 -0.51208629648E+03  0.51208629649E+03  0.25500000920E-02 0.  1.
    10030    2    1    2    0    0  0.00000000000E+00  0.00000000000E+00  0.61421051331E+03  0.16383831063E+04  0.15188958649E+04 0.  0.
        4    1    3    3  502    0  0.68421425480E+02 -0.45029638801E+03  0.96262188512E+03  0.10649370099E+04  0.12699999809E+01 0. -1.
       -4    1    3    3    0  502 -0.68421425480E+02  0.45029638801E+03 -0.34841137180E+03  0.57344609635E+03  0.12699999809E+01 0.  1.
</event>
<event>
 5   0  0.1526126E-03  0.1539371E+04  0.7818609E-02  0.8858686E-01
        2   -1    0    0  501    0  0.00000000000E+00  0.00000000000E+00  0.95434439242E+03  0.95434439243E+03  0.25500000920E-02 0. -1.
       -2   -1    0    0    0  501  0.00000000000E+00  0.00000000000E+00 -0.62075667543E+03  0.62075667543E+03  0.25500000920E-02 0.  1.
    10030    2    1    2    0    0  0.00000000000E+00  0.00000000000E+00  0.33358771700E+03  0.15751010679E+04  0.15393708484E+04 0.  0.
        2    1    3    3  502    0  0.61448366847E+03 -0.33474429631E+03 -0.16122740765E+03  0.71807952186E+03  0.25500000920E-02 0.  1.
       -2    1    3    3    0  502 -0.61448366847E+03  0.33474429631E+03  0.49481512465E+03  0.85702154600E+03  0.25500000920E-02 0. -1.
</event>
<event>
 5   0  0.1526126E-03  0.1483468E+04  0.7818609E-02  0.8895522E-01
        2   -1    0    0  501    0  0.00000000000E+00  0.00000000000E+00  0.82980136692E+03  0.82980136693E+03  0.25500000920E-02 0.  1.
       -2   -1    0    0    0  501  0.00000000000E+00  0.00000000000E+00 -0.66301305815E+03  0.66301305815E+03  0.25500000920E-02 0. -1.
    10030    2    1    2    0    0  0.00000000000E+00  0.00000000000E+00  0.16678830877E+03  0.14928144251E+04  0.14834677508E+04 0.  0.
        2    1    3    3  502    0 -0.28061559834E+03  0.56590545328E+03  0.47465624208E+03  0.79012191733E+03  0.25500000920E-02 0.  1.
       -2    1    3    3    0  502  0.28061559834E+03 -0.56590545328E+03 -0.30786793331E+03  0.70269250775E+03  0.25500000920E-02 0. -1.
</event>
<event>
 5   0  0.8191876E-04  0.1504698E+04  0.7818609E-02  0.8881335E-01
        1   -1    0    0  501    0  0.00000000000E+00  0.00000000000E+00  0.45688063620E+03  0.45688063623E+03  0.50400001928E-02 0. -1.
       -1   -1    0    0    0  501  0.00000000000E+00  0.00000000000E+00 -0.12388987870E+04  0.12388987870E+04  0.50400001928E-02 0.  1.
    10030    2    1    2    0    0  0.00000000000E+00  0.00000000000E+00 -0.78201815076E+03  0.16957794232E+04  0.15046977982E+04 0.  0.
        2    1    3    3  502    0  0.69406950639E+03  0.25586466432E+03 -0.23636214175E+03  0.77657341456E+03  0.25500000920E-02 0.  1.
       -2    1    3    3    0  502 -0.69406950639E+03 -0.25586466432E+03 -0.54565600902E+03  0.91920600865E+03  0.25500000920E-02 0. -1.
</event>
<event>
 5   0  0.8365016E-04  0.1637569E+04  0.7818609E-02  0.8797795E-01
       -1   -1    0    0    0  501  0.00000000000E+00  0.00000000000E+00  0.85032547296E+03  0.85032547297E+03  0.50400001928E-02 0. -1.
        1   -1    0    0  501    0  0.00000000000E+00  0.00000000000E+00 -0.78841309408E+03  0.78841309409E+03  0.50400001928E-02 0.  1.
    10030    2    1    2    0    0  0.00000000000E+00  0.00000000000E+00  0.61912378880E+02  0.16387385671E+04  0.16375686088E+04 0.  0.
        3    1    3    3  502    0  0.39789581606E+03  0.68635317484E+03  0.23360016321E+03  0.82702527622E+03  0.10100000352E+00 0.  1.
       -3    1    3    3    0  502 -0.39789581606E+03 -0.68635317484E+03 -0.17168778433E+03  0.81171329085E+03  0.10100000352E+00 0. -1.
</event>
<event>
 5   0  0.1484056E-03  0.1485408E+04  0.7818609E-02  0.8894215E-01
       -2   -1    0    0    0  501  0.00000000000E+00  0.00000000000E+00  0.42390188685E+03  0.42390188686E+03  0.25500000920E-02 0.  1.
        2   -1    0    0  501    0  0.00000000000E+00  0.00000000000E+00 -0.13012656752E+04  0.13012656752E+04  0.25500000920E-02 0. -1.
    10030    2    1    2    0    0  0.00000000000E+00  0.00000000000E+00 -0.87736378835E+03  0.17251675621E+04  0.14854076545E+04 0.  0.
        5    1    3    3  502    0  0.66772455775E+03 -0.32272296988E+03 -0.48485703747E+03  0.88606694843E+03  0.46999998093E+01 0.  1.
       -5    1    3    3    0  502 -0.66772455775E+03  0.32272296988E+03 -0.39250675088E+03  0.83910061363E+03  0.46999998093E+01 0. -1.
</event>
<event>
 5   0  0.1511546E-03  0.1500729E+04  0.7818609E-02  0.8883968E-01
       -2   -1    0    0    0  501  0.00000000000E+00  0.00000000000E+00  0.41501333810E+03  0.41501333811E+03  0.25500000920E-02 0.  1.
        2   -1    0    0  501    0  0.00000000000E+00  0.00000000000E+00 -0.13566961080E+04  0.13566961080E+04  0.25500000920E-02 0. -1.
    10030    2    1    2    0    0  0.00000000000E+00  0.00000000000E+00 -0.94168276987E+03  0.17717094461E+04  0.15007291302E+04 0.  0.
        1    1    3    3  502    0 -0.42135813811E+03 -0.25127554291E+03  0.19945065718E+03  0.52958723898E+03  0.50400001928E-02 0.  1.
       -1    1    3    3    0  502  0.42135813811E+03  0.25127554291E+03 -0.11411334270E+04  0.12421222071E+04  0.50400001928E-02 0. -1.
</event>
<event>
 5   0  0.8306301E-04  0.1475320E+04  0.7818609E-02  0.8901033E-01
        1   -1    0    0  501    0  0.00000000000E+00  0.00000000000E+00  0.57451323141E+03  0.57451323143E+03  0.50400001928E-02 0. -1.
       -1   -1    0    0    0  501  0.00000000000E+00  0.00000000000E+00 -0.94713560696E+03  0.94713560697E+03  0.50400001928E-02 0.  1.
    10030    2    1    2    0    0  0.00000000000E+00  0.00000000000E+00 -0.37262237555E+03  0.15216488384E+04  0.14753195426E+04 0.  0.
        4    1    3    3  502    0  0.22691922483E+03  0.15661340577E+03 -0.89198995316E+03  0.93363150274E+03  0.12699999809E+01 0.  1.
       -4    1    3    3    0  502 -0.22691922483E+03 -0.15661340577E+03  0.51936757761E+03  0.58801733566E+03  0.12699999809E+01 0. -1.
</event>
<event>
 5   0  0.8365016E-04  0.1555498E+04  0.7818609E-02  0.8848363E-01
        1   -1    0    0  501    0  0.00000000000E+00  0.00000000000E+00  0.19622230619E+04  0.19622230619E+04  0.50400001928E-02 0.  1.
       -1   -1    0    0    0  501  0.00000000000E+00  0.00000000000E+00 -0.30826962735E+03  0.30826962739E+03  0.50400001928E-02 0. -1.
    10030    2    1    2    0    0  0.00000000000E+00  0.00000000000E+00  0.16539534345E+04  0.22704926893E+04  0.15554983409E+04 0.  0.
        3    1    3    3  502    0 -0.15302212329E+01 -0.59110916986E+03  0.15647623157E+04  0.16726904995E+04  0.10100000352E+00 0.  1.
       -3    1    3    3    0  502  0.15302212329E+01  0.59110916986E+03  0.89191118879E+02  0.59780218983E+03  0.10100000352E+00 0. -1.
</event>
<event>
 5   0  0.1484056E-03  0.1503768E+04  0.7818609E-02  0.8881951E-01
        2   -1    0    0  501    0  0.00000000000E+00  0.00000000000E+00  0.15184286760E+04  0.15184286760E+04  0.25500000920E-02 0.  1.
       -2   -1    0    0    0  501  0.00000000000E+00  0.00000000000E+00 -0.37231231110E+03  0.37231231110E+03  0.25500000920E-02 0. -1.
    10030    2    1    2    0    0  0.00000000000E+00  0.00000000000E+00  0.11461163649E+04  0.18907409871E+04  0.15037681864E+04 0.  0.
        5    1    3    3  502    0 -0.26405015945E+03 -0.76919287385E+02  0.14528952316E+04  0.14787040635E+04  0.46999998093E+01 0.  1.
       -5    1    3    3    0  502  0.26405015945E+03  0.76919287385E+02 -0.30677886661E+03  0.41203692367E+03  0.46999998093E+01 0. -1.
</event>
<event>
 5   0  0.5603875E-04  0.1493437E+04  0.7818609E-02  0.8888829E-01
        4   -1    0    0  501    0  0.00000000000E+00  0.00000000000E+00  0.72126590664E+03  0.72126702474E+03  0.12699999809E+01 0. -1.
       -4   -1    0    0    0  501  0.00000000000E+00  0.00000000000E+00 -0.77306754588E+03  0.77306858906E+03  0.12699999809E+01 0.  1.
    10030    2    1    2    0    0  0.00000000000E+00  0.00000000000E+00 -0.51801639236E+02  0.14943356138E+04  0.14934374834E+04 0.  0.
        4    1    3    3  502    0  0.62085619394E+03 -0.33021624871E+03 -0.27721332997E+03  0.75587963835E+03  0.12699999809E+01 0. -1.
       -4    1    3    3    0  502 -0.62085619394E+03  0.33021624871E+03  0.22541169073E+03  0.73845597545E+03  0.12699999809E+01 0.  1.
</event>
<event>
 5   0  0.1526126E-03  0.1533873E+04  0.7818609E-02  0.8862235E-01
        2   -1    0    0  501    0  0.00000000000E+00  0.00000000000E+00  0.21202968845E+04  0.21202968845E+04  0.25500000920E-02 0. -1.
       -2   -1    0    0    0  501  0.00000000000E+00  0.00000000000E+00 -0.27741009381E+03  0.27741009383E+03  0.25500000920E-02 0.  1.
    10030    2    1    2    0    0  0.00000000000E+00  0.00000000000E+00  0.18428867907E+04  0.23977069783E+04  0.15338732120E+04 0.  0.
        2    1    3    3  502    0  0.73161429459E+03  0.21363415335E+03  0.78795247860E+03  0.10962518580E+04  0.25500000920E-02 0. -1.
       -2    1    3    3    0  502 -0.73161429459E+03 -0.21363415335E+03  0.10549343120E+04  0.13014551203E+04  0.25500000920E-02 0.  1.
</event>
<event>
 5   0  0.1500956E-03  0.1546114E+04  0.7818609E-02  0.8854354E-01
       -2   -1    0    0    0  501  0.00000000000E+00  0.00000000000E+00  0.33132193860E+03  0.33132193861E+03  0.25500000920E-02 0.  1.
        2   -1    0    0  501    0  0.00000000000E+00  0.00000000000E+00 -0.18037354780E+04  0.18037354780E+04  0.25500000920E-02 0. -1.
    10030    2    1    2    0    0  0.00000000000E+00  0.00000000000E+00 -0.14724135394E+04  0.21350574167E+04  0.15461140130E+04 0.  0.
        4    1    3    3  502    0 -0.15920983215E+03  0.70776236486E+03 -0.36736919050E+03  0.81316484848E+03  0.12699999809E+01 0.  1.
       -4    1    3    3    0  502  0.15920983215E+03 -0.70776236486E+03 -0.11050443490E+04  0.13218925682E+04  0.12699999809E+01 0. -1.
</event>
<event>
 5   0  0.7870317E-04  0.1501469E+04  0.7818609E-02  0.8883477E-01
       -1   -1    0    0    0  501  0.00000000000E+00  0.00000000000E+00  0.66769881554E+03  0.66769881556E+03  0.50400001928E-02 0.  1.
        1   -1    0    0  501    0  0.00000000000E+00  0.00000000000E+00 -0.84409666764E+03  0.84409666766E+03  0.50400001928E-02 0. -1.
    10030    2    1    2    0    0  0.00000000000E+00  0.00000000000E+00 -0.17639785210E+03  0.15117954832E+04  0.15014690742E+04 0.  0.
        1    1    3    3  502    0 -0.57774643724E+03  0.47074725708E+03  0.30245088314E+01  0.74525369739E+03  0.50400001928E-02 0.  1.
       -1    1    3    3    0  502  0.57774643724E+03 -0.47074725708E+03 -0.17942236093E+03  0.76654178583E+03  0.50400001928E-02 0. -1.
</event>
<event>
 5   0  0.7870317E-04  0.1512991E+04  0.7818609E-02  0.8875860E-01
        1   -1    0    0  501    0  0.00000000000E+00  0.00000000000E+00  0.60920606576E+03  0.60920606578E+03  0.50400001928E-02 0.  1.
       -1   -1    0    0    0  501  0.00000000000E+00  0.00000000000E+00 -0.93939495537E+03  0.93939495539E+03  0.50400001928E-02 0. -1.
    10030    2    1    2    0    0  0.00000000000E+00  0.00000000000E+00 -0.33018888961E+03  0.15486010212E+04  0.15129905551E+04 0.  0.
        1    1    3    3  502    0 -0.97663813411E+02 -0.29046432017E+03  0.54283281319E+03  0.62335800696E+03  0.50400001928E-02 0.  1.
       -1    1    3    3    0  502  0.97663813411E+02  0.29046432017E+03 -0.87302170281E+03  0.92524301421E+03  0.50400001928E-02 0. -1.
</event>
<event>
 5   0  0.8058234E-04  0.1506352E+04  0.7818609E-02  0.8880240E-01
       -1   -1    0    0    0  501  0.00000000000E+00  0.00000000000E+00  0.36609586680E+03  0.36609586684E+03  0.50400001928E-02 0.  1.
        1   -1    0    0  501    0  0.00000000000E+00  0.00000000000E+00 -0.15495223110E+04  0.15495223110E+04  0.50400001928E-02 0. -1.
    10030    2    1    2    0    0  0.00000000000E+00  0.00000000000E+00 -0.11834264442E+04  0.19156181779E+04  0.15063515043E+04 0.  0.
        5    1    3    3  502    0  0.44451446191E+03 -0.25133977773E+03 -0.12957389572E+04  0.13927405810E+04  0.46999998093E+01 0. -1.
       -5    1    3    3    0  502 -0.44451446191E+03  0.25133977773E+03  0.11231251301E+03  0.52287759685E+03  0.46999998093E+01 0.  1.
</event>
<event>
 5   0  0.1511546E-03  0.1466755E+04  0.7818609E-02  0.8906867E-01
       -2   -1    0    0    0  501  0.00000000000E+00  0.00000000000E+00  0.34125341369E+03  0.34125341370E+03  0.25500000920E-02 0. -1.
        2   -1    0    0  501    0  0.00000000000E+00  0.00000000000E+00 -0.15760794417E+04  0.15760794417E+04  0.25500000920E-02 0.  1.
    10030    2    1    2    0    0  0.00000000000E+00  0.00000000000E+00 -0.12348260280E+04  0.19173328554E+04  0.14667549076E+04 0.  0.
        1    1    3    3  502    0  0.23637967840E+03 -0.15101353108E+03  0.26836104622E+03  0.38819851890E+03  0.50400001928E-02 0. -1.
       -1    1    3    3    0  502 -0.23637967840E+03  0.15101353108E+03 -0.15031870742E+04  0.15291343365E+04  0.50400001928E-02 0.  1.
</event>
<event>
 5   0  0.5603875E-04  0.1529957E+04  0.7818609E-02  0.8864773E-01
       -3   -1    0    0    0  501  0.00000000000E+00  0.00000000000E+00  0.11917621657E+04  0.11917621700E+04  0.10100000352E+00 0.  1.
        3   -1    0    0  501    0  0.00000000000E+00  0.00000000000E+00 -0.49103099678E+03  0.49103100717E+03  0.10100000352E+00 0. -1.
    10030    2    1    2    0    0  0.00000000000E+00  0.00000000000E+00  0.70073116893E+03  0.16827931772E+04  0.15299570929E+04 0.  0.
        5    1    3    3  502    0 -0.16013288943E+03 -0.38774919903E+03 -0.35320501557E+03  0.54842306356E+03  0.46999998093E+01 0. -1.
       -5    1    3    3    0  502  0.16013288943E+03  0.38774919903E+03  0.10539361845E+04  0.11343701136E+04  0.46999998093E+01 0.  1.
</event>
<event>
 5   0  0.1500956E-03  0.1503616E+04  0.7818609E-02  0.8882052E-01
       -2   -1    0    0    0  501  0.00000000000E+00  0.00000000000E+00  0.77384663512E+03  0.77384663513E+03  0.25500000920E-02 0. -1.
        2   -1    0    0  501    0  0.00000000000E+00  0.00000000000E+00 -0.73039716254E+03  0.73039716255E+03  0.25500000920E-02 0.  1.
    10030    2    1    2    0    0  0.00000000000E+00  0.00000000000E+00  0.43449472583E+02  0.15042437977E+04  0.15036161565E+04 0.  0.
        4    1    3    3  502    0 -0.68920523920E+03  0.98877338968E+02 -0.26200109399E+03  0.74392659319E+03  0.12699999809E+01 0.  1.
       -4    1    3    3    0  502  0.68920523920E+03 -0.98877338968E+02  0.30545056657E+03  0.76031720448E+03  0.12699999809E+01 0. -1.
</event>
<event>
 5   0  0.8306301E-04  0.1509209E+04  0.7818609E-02  0.8878352E-01
       -1   -1    0    0    0  501  0.00000000000E+00  0.00000000000E+00  0.61798617388E+03  0.61798617390E+03  0.50400001928E-02 0.  1.
        1   -1    0    0  501    0  0.00000000000E+00  0.00000000000E+00 -0.92142482426E+03  0.92142482427E+03  0.50400001928E-02 0. -1.
    10030    2    1    2    0    0  0.00000000000E+00  0.00000000000E+00 -0.30343865038E+03  0.15394109982E+04  0.15092088016E+04 0.  0.
        4    1    3    3  502    0  0.59205528443E+03 -0.86539614656E+01  0.32542590466E+03  0.67565374504E+03  0.12699999809E+01 0.  1.
       -4    1    3    3    0  502 -0.59205528443E+03  0.86539614656E+01 -0.62886455503E+03  0.86375725314E+03  0.12699999809E+01 0. -1.
</event>
<event>
 5   0  0.8058234E-04  0.1480063E+04  0.7818609E-02  0.8897820E-01
        1   -1    0    0  501    0  0.00000000000E+00  0.00000000000E+00  0.65062262111E+03  0.65062262113E+03  0.50400001928E-02 0.  1.
       -1   -1    0    0    0  501  0.00000000000E+00  0.00000000000E+00 -0.84172719166E+03  0.84172719167E+03  0.50400001928E-02 0. -1.
    10030    2    1    2    0    0  0.00000000000E+00  0.00000000000E+00 -0.19110457055E+03  0.14923498128E+04  0.14800631767E+04 0.  0.
        5    1    3    3  502    0  0.42530175968E+03 -0.42920466743E+03  0.33522546082E+03  0.69101116700E+03  0.46999998093E+01 0.  1.
       -5    1    3    3    0  502 -0.42530175968E+03  0.42920466743E+03 -0.52633003137E+03  0.80133864580E+03  0.46999998093E+01 0. -1.
</event>
<event>
 5   0  0.1511546E-03  0.1493761E+04  0.7818609E-02  0.8888613E-01
        2   -1    0    0  501    0  0.00000000000E+00  0.00000000000E+00  0.13476552684E+04  0.13476552684E+04  0.25500000920E-02 0.  1.
       -2   -1    0    0    0  501  0.00000000000E+00  0.00000000000E+00 -0.41392653959E+03  0.41392653960E+03  0.25500000920E-02 0. -1.
    10030    2    1    2    0    0  0.00000000000E+00  0.00000000000E+00  0.93372872878E+03  0.17615818080E+04  0.14937607329E+04 0.  0.
        1    1    3    3  502    0  0.16802989141E+02  0.71167120074E+03  0.20035443455E+03  0.73952696900E+03  0.50400001928E-02 0. -1.
       -1    1    3    3    0  502 -0.16802989141E+02 -0.71167120074E+03  0.73337429423E+03  0.10220548390E+04  0.50400001928E-02 0.  1.
</event>
<event>
 5   0  0.8365016E-04  0.1557918E+04  0.7818609E-02  0.8846826E-01
        1   -1    0    0  501    0  0.00000000000E+00  0.00000000000E+00  0.11588651135E+04  0.11588651135E+04  0.50400001928E-02 0.  1.
       -1   -1    0    0    0  501  0.00000000000E+00  0.00000000000E+00 -0.52359595959E+03  0.52359595962E+03  0.50400001928E-02 0. -1.
    10030    2    1    2    0    0  0.00000000000E+00  0.00000000000E+00  0.63526915387E+03  0.16824610731E+04  0.15579179582E+04 0.  0.
        3    1    3    3  502    0 -0.76854581241E+03 -0.57502909985E+02  0.19541571727E+03  0.79508273984E+03  0.10100000352E+00 0. -1.
       -3    1    3    3    0  502  0.76854581241E+03  0.57502909985E+02  0.43985343661E+03  0.88737833325E+03  0.10100000352E+00 0.  1.
</event>
<event>
 5   0  0.1526126E-03  0.1534238E+04  0.7818609E-02  0.8861999E-01
       -2   -1    0    0    0  501  0.00000000000E+00  0.00000000000E+00  0.24718992889E+03  0.24718992890E+03  0.25500000920E-02 0. -1.
        2   -1    0    0  501    0  0.00000000000E+00  0.00000000000E+00 -0.23806464269E+04  0.23806464269E+04  0.25500000920E-02 0.  1.
    10030    2    1    2    0    0  0.00000000000E+00  0.00000000000E+00 -0.21334564981E+04  0.26278363558E+04  0.15342383400E+04 0.  0.
        2    1    3    3  502    0 -0.28087275213E+03 -0.35128765695E+03 -0.21311162768E+04  0.21780608591E+04  0.25500000920E-02 0.  1.
       -2    1    3    3    0  502  0.28087275213E+03  0.35128765695E+03 -0.23402212704E+01  0.44977549673E+03  0.25500000920E-02 0. -1.
</event>
<event>
 5   0  0.1526126E-03  0.1498389E+04  0.7818609E-02  0.8885525E-01
       -2   -1    0    0    0  501  0.00000000000E+00  0.00000000000E+00  0.98000904296E+03  0.98000904296E+03  0.25500000920E-02 0. -1.
        2   -1    0    0  501    0  0.00000000000E+00  0.00000000000E+00 -0.57274198324E+03  0.57274198325E+03  0.25500000920E-02 0.  1.
    10030    2    1    2    0    0  0.00000000000E+00  0.00000000000E+00  0.40726705971E+03  0.15527510262E+04  0.14983888986E+04 0.  0.
        2    1    3    3  502    0 -0.44802352281E+03 -0.31110190580E+03  0.73586500752E+03  0.91597313393E+03  0.25500000920E-02 0. -1.
       -2    1    3    3    0  502  0.44802352281E+03  0.31110190580E+03 -0.32859794781E+03  0.63677789228E+03  0.25500000920E-02 0.  1.
</event>
<event>
 5   0  0.1500956E-03  0.1522541E+04  0.7818609E-02  0.8869600E-01
       -2   -1    0    0    0  501  0.00000000000E+00  0.00000000000E+00  0.38110843730E+03  0.38110843731E+03  0.25500000920E-02 0. -1.
        2   -1    0    0  501    0  0.00000000000E+00  0.00000000000E+00 -0.15206503335E+04  0.15206503335E+04  0.25500000920E-02 0.  1.
    10030    2    1    2    0    0  0.00000000000E+00  0.00000000000E+00 -0.11395418962E+04  0.19017587708E+04  0.15225408661E+04 0.  0.
        4    1    3    3  502    0 -0.60290084203E+03  0.32385706780E+03 -0.98621559910E+03  0.12004147810E+04  0.12699999809E+01 0.  1.
       -4    1    3    3    0  502  0.60290084203E+03 -0.32385706780E+03 -0.15332629706E+03  0.70134398974E+03  0.12699999809E+01 0. -1.
</event>
<event>
 5   0  0.1484056E-03  0.1562513E+04  0.7818609E-02  0.8843915E-01
        2   -1    0    0  501    0  0.00000000000E+00  0.00000000000E+00  0.12704593791E+04  0.12704593791E+04  0.25500000920E-02 0. -1.
       -2   -1    0    0    0  501  0.00000000000E+00  0.00000000000E+00 -0.48042577976E+03  0.48042577977E+03  0.25500000920E-02 0.  1.
    10030    2    1    2    0    0  0.00000000000E+00  0.00000000000E+00  0.79003359931E+03  0.17508851588E+04  0.15625126404E+04 0.  0.
        5    1    3    3  502    0  0.54637461007E+03  0.21034792559E+03 -0.18461354544E+03  0.61390204063E+03  0.46999998093E+01 0.  1.
       -5    1    3    3    0  502 -0.54637461007E+03 -0.21034792559E+03  0.97464714475E+03  0.11369831182E+04  0.46999998093E+01 0. -1.
</event>
<event>
 5   0  0.1511546E-03  0.1447372E+04  0.7818609E-02  0.8920225E-01
       -2   -1    0    0    0  501  0.00000000000E+00  0.00000000000E+00  0.74497233762E+03  0.74497233763E+03  0.25500000920E-02 0.  1.
        2   -1    0    0  501    0  0.00000000000E+00  0.00000000000E+00 -0.70300775991E+03  0.70300775992E+03  0.25500000920E-02 0. -1.
    10030    2    1    2    0    0  0.00000000000E+00  0.00000000000E+00  0.41964577708E+02  0.14479800975E+04  0.14473718724E+04 0.  0.
        1    1    3    3  502    0  0.61099854146E+03  0.29420550757E+03 -0.23180004080E+03  0.71666404772E+03  0.50400001928E-02 0.  1.
       -1    1    3    3    0  502 -0.61099854146E+03 -0.29420550757E+03  0.27376461851E+03  0.73131604982E+03  0.50400001928E-02 0. -1.
</event>
<event>
 5   0  0.1484056E-03  0.1417372E+04  0.7818609E-02  0.8941339E-01
        2   -1    0    0  501    0  0.00000000000E+00  0.00000000000E+00  0.65614947179E+03  0.65614947180E+03  0.25500000920E-02 0. -1.
       -2   -1    0    0    0  501  0.00000000000E+00  0.00000000000E+00 -0.76542940676E+03  0.76542940677E+03  0.25500000920E-02 0.  1.
    10030    2    1    2    0    0  0.00000000000E+00  0.00000000000E+00 -0.10927993497E+03  0.14215788786E+04  0.14173723589E+04 0.  0.
        5    1    3    3  502    0 -0.53059951613E+03  0.46877145216E+03 -0.85250868817E+02  0.71314256745E+03  0.46999998093E+01 0. -1.
       -5    1    3    3    0  502  0.53059951613E+03 -0.46877145216E+03 -0.24029066155E+02  0.70843631111E+03  0.46999998093E+01 0.  1.
</event>
<event>
 5   0  0.8306301E-04  0.1519352E+04  0.7818609E-02  0.8871685E-01
        1   -1    0    0  501    0  0.00000000000E+00  0.00000000000E+00  0.45224038906E+03  0.45224038909E+03  0.50400001928E-02 0. -1.
       -1   -1    0    0    0  501  0.00000000000E+00  0.00000000000E+00 -0.12761081278E+04  0.12761081278E+04  0.50400001928E-02 0.  1.
    10030    2    1    2    0    0  0.00000000000E+00  0.00000000000E+00 -0.82386773872E+03  0.17283485169E+04  0.15193520148E+04 0.  0.
        4    1    3    3  502    0  0.85776437097E+02 -0.41876693291E+03 -0.11263180571E+04  0.12047063210E+04  0.12699999809E+01 0.  1.
       -4    1    3    3    0  502 -0.85776437097E+02  0.41876693291E+03  0.30245031841E+03  0.52364219584E+03  0.12699999809E+01 0. -1.
</event>
<event>
 5   0  0.8058234E-04  0.1518255E+04  0.7818609E-02  0.8872404E-01
       -1   -1    0    0    0  501  0.00000000000E+00  0.00000000000E+00  0.12084092395E+04  0.12084092395E+04  0.50400001928E-02 0.  1.
        1   -1    0    0  501    0  0.00000000000E+00  0.00000000000E+00 -0.47688680461E+03  0.47688680463E+03  0.50400001928E-02 0. -1.
    10030    2    1    2    0    0  0.00000000000E+00  0.00000000000E+00  0.73152243493E+03  0.16852960442E+04  0.15182548151E+04 0.  0.
        5    1    3    3  502    0  0.30323694368E+03  0.65987897405E+03  0.61112232132E+03  0.94914987543E+03  0.46999998093E+01 0.  1.
       -5    1    3    3    0  502 -0.30323694368E+03 -0.65987897405E+03  0.12040011361E+03  0.73614616875E+03  0.46999998093E+01 0. -1.
</event>
<event>
 5   0  0.1500956E-03  0.1531044E+04  0.7818609E-02  0.8864067E-01
        2   -1    0    0  501    0  0.00000000000E+00  0.00000000000E+00  0.10199757563E+04  0.10199757563E+04  0.25500000920E-02 0. -1.
       -2   -1    0    0    0  501  0.00000000000E+00  0.00000000000E+00 -0.57454724431E+03  0.57454724432E+03  0.25500000920E-02 0.  1.
    10030    2    1    2    0    0  0.00000000000E+00  0.00000000000E+00  0.44542851202E+03  0.15945230007E+04  0.15310444279E+04 0.  0.
        4    1    3    3  502    0 -0.30584824539E+03 -0.30496005302E+03  0.88096278627E+03  0.98114261290E+03  0.12699999809E+01 0. -1.
       -4    1    3    3    0  502  0.30584824539E+03  0.30496005302E+03 -0.43553427425E+03  0.61338038776E+03  0.12699999809E+01 0.  1.
</event>
<event>
 5   0  0.1526126E-03  0.1493511E+04  0.7818609E-02  0.8888780E-01
        2   -1    0    0  501    0  0.00000000000E+00  0.00000000000E+00  0.13808140833E+04  0.13808140833E+04  0.25500000920E-02 0.  1.
       -2   -1    0    0    0  501  0.00000000000E+00  0.00000000000E+00 -0.40385145246E+03  0.40385145247E+03  0.25500000920E-02 0. -1.
    10030    2    1    2    0    0  0.00000000000E+00  0.00000000000E+00  0.97696263088E+03  0.17846655358E+04  0.14935109951E+04 0.  0.
        2    1    3    3  502    0  0.67243231963E+03 -0.14655258053E+03  0.14215112161E+03  0.70274449463E+03  0.25500000920E-02 0. -1.
       -2    1    3    3    0  502 -0.67243231963E+03  0.14655258053E+03  0.83481150927E+03  0.10819210412E+04  0.25500000920E-02 0.  1.
</event>
<event>
 5   0  0.8058234E-04  0.1366750E+04  0.7818609E-02  0.8978245E-01
        1   -1    0    0  501    0  0.00000000000E+00  0.00000000000E+00  0.16151145401E+04  0.16151145401E+04  0.50400001928E-02 0. -1.
       -1   -1    0    0    0  501  0.00000000000E+00  0.00000000000E+00 -0.28914442423E+03  0.28914442427E+03  0.50400001928E-02 0.  1.
    10030    2    1    2    0    0  0.00000000000E+00  0.00000000000E+00  0.13259701158E+04  0.19042589643E+04  0.13667499607E+04 0.  0.
        5    1    3    3  502    0  0.31599689001E+03  0.29072727484E+03  0.14036558840E+04  0.14678720358E+04  0.46999998093E+01 0. -1.
       -5    1    3    3    0  502 -0.31599689001E+03 -0.29072727484E+03 -0.77685768157E+02  0.43638692854E+03  0.46999998093E+01 0.  1.
</event>
<event>
 5   0  0.8191876E-04  0.1495964E+04  0.7818609E-02  0.8887141E-01
        1   -1    0    0  501    0  0.00000000000E+00  0.00000000000E+00  0.67751411427E+03  0.67751411428E+03  0.50400001928E-02 0. -1.
       -1   -1    0    0    0  501  0.00000000000E+00  0.00000000000E+00 -0.82577958340E+03  0.82577958341E+03  0.50400001928E-02 0.  1.
    10030    2    1    2    0    0  0.00000000000E+00  0.00000000000E+00 -0.14826546913E+03  0.15032936977E+04  0.14959643352E+04 0.  0.
        2    1    3    3  502    0 -0.50478139727E+03 -0.65965239549E+02 -0.62483380229E+03  0.80596088760E+03  0.25500000920E-02 0.  1.
       -2    1    3    3    0  502  0.50478139727E+03  0.65965239549E+02  0.47656833315E+03  0.69733281009E+03  0.25500000920E-02 0. -1.
</event>
<event>
 5   0  0.1484056E-03  0.1498860E+04  0.7818609E-02  0.8885211E-01
        2   -1    0    0  501    0  0.00000000000E+00  0.00000000000E+00  0.10252595343E+04  0.10252595343E+04  0.25500000920E-02 0.  1.
       -2   -1    0    0    0  501  0.00000000000E+00  0.00000000000E+00 -0.54780787600E+03  0.54780787601E+03  0.25500000920E-02 0. -1.
    10030    2    1    2    0    0  0.00000000000E+00  0.00000000000E+00  0.47745165832E+03  0.15730674103E+04  0.14988598972E+04 0.  0.
        5    1    3    3  502    0 -0.54967475914E+03 -0.29059913242E+03 -0.20035675747E+03  0.65326496681E+03  0.46999998093E+01 0. -1.
       -5    1    3    3    0  502  0.54967475914E+03  0.29059913242E+03  0.67780841579E+03  0.91980244353E+03  0.46999998093E+01 0.  1.
</event>
<event>
 5   0  0.8191876E-04  0.1480251E+04  0.7818609E-02  0.8897693E-01
       -1   -1    0    0    0  501  0.00000000000E+00  0.00000000000E+00  0.30812175841E+03  0.30812175845E+03  0.50400001928E-02 0. -1.
        1   -1    0    0  501    0  0.00000000000E+00  0.00000000000E+00 -0.17778228265E+04  0.17778228265E+04  0.50400001928E-02 0.  1.
    10030    2    1    2    0    0  0.00000000000E+00  0.00000000000E+00 -0.14697010681E+04  0.20859445850E+04  0.14802511888E+04 0.  0.
        2    1    3    3  502    0  0.48048090666E+03 -0.43875229753E+03 -0.23778554848E+03  0.69275352566E+03  0.25500000920E-02 0. -1.
       -2    1    3    3    0  502 -0.48048090666E+03  0.43875229753E+03 -0.12319155196E+04  0.13931910593E+04  0.25500000920E-02 0.  1.
</event>
<event>
 5   0  0.8365016E-04  0.1517987E+04  0.7818609E-02  0.8872579E-01
        1   -1    0    0  501    0  0.00000000000E+00  0.00000000000E+00  0.63479105380E+03  0.63479105382E+03  0.50400001928E-02 0. -1.
       -1   -1    0    0    0  501  0.00000000000E+00  0.00000000000E+00 -0.90749686661E+03  0.90749686662E+03  0.50400001928E-02 0.  1.
    10030    2    1    2    0    0  0.00000000000E+00  0.00000000000E+00 -0.27270581281E+03  0.15422879204E+04  0.15179866828E+04 0.  0.
        3    1    3    3  502    0 -0.41551872784E+03  0.63052321835E+03 -0.21409942889E+03  0.78489102283E+03  0.10100000352E+00 0.  1.
       -3    1    3    3    0  502  0.41551872784E+03 -0.63052321835E+03 -0.58606383916E+02  0.75739689761E+03  0.10100000352E+00 0. -1.
</event>
<event>
 5   0  0.7870317E-04  0.1510768E+04  0.7818609E-02  0.8877324E-01
       -1   -1    0    0    0  501  0.00000000000E+00  0.00000000000E+00  0.70015513615E+03  0.70015513617E+03  0.50400001928E-02 0. -1.
        1   -1    0    0  501    0  0.00000000000E+00  0.00000000000E+00 -0.81496952911E+03  0.81496952913E+03  0.50400001928E-02 0.  1.
    10030    2    1    2    0    0  0.00000000000E+00  0.00000000000E+00 -0.11481439296E+03  0.15151246653E+04  0.15107681512E+04 0.  0.
        1    1    3    3  502    0  0.95413081750E+02  0.49414720458E+03  0.50752881636E+03  0.71475213566E+03  0.50400001928E-02 0. -1.
       -1    1    3    3    0  502 -0.95413081750E+02 -0.49414720458E+03 -0.62234320933E+03  0.80037252963E+03  0.50400001928E-02 0.  1.
</event>
<event>
 5   0  0.1511546E-03  0.1452856E+04  0.7818609E-02  0.8916423E-01
        2   -1    0    0  501    0  0.00000000000E+00  0.00000000000E+00  0.78384041108E+03  0.78384041108E+03  0.25500000920E-02 0. -1.
       -2   -1    0    0    0  501  0.00000000000E+00  0.00000000000E+00 -0.67322052194E+03  0.67322052194E+03  0.25500000920E-02 0.  1.
    10030    2    1    2    0    0  0.00000000000E+00  0.00000000000E+00  0.11061988914E+03  0.14570609330E+04  0.14528557405E+04 0.  0.
        1    1    3    3  502    0  0.42747136973E+03  0.16064015532E+03  0.62188797933E+03  0.77154500213E+03  0.50400001928E-02 0. -1.
       -1    1    3    3    0  502 -0.42747136973E+03 -0.16064015532E+03 -0.51126809019E+03  0.68551593090E+03  0.50400001928E-02 0.  1.
</event>
<event>
 5   0  0.1552067E-03  0.1580813E+04  0.7818609E-02  0.8832423E-01
       -2   -1    0    0    0  501  0.00000000000E+00  0.00000000000E+00  0.20083654624E+04  0.20083654624E+04  0.25500000920E-02 0. -1.
        2   -1    0    0  501    0  0.00000000000E+00  0.00000000000E+00 -0.31106991377E+03  0.31106991378E+03  0.25500000920E-02 0.  1.
    10030    2    1    2    0    0  0.00000000000E+00  0.00000000000E+00  0.16972955486E+04  0.23194353762E+04  0.15808125395E+04 0.  0.
        3    1    3    3  502    0  0.57092154788E+03 -0.26333705541E+03  0.14583364058E+03  0.64541868543E+03  0.10100000352E+00 0.  1.
       -3    1    3    3    0  502 -0.57092154788E+03  0.26333705541E+03  0.15514619081E+04  0.16740166908E+04  0.10100000352E+00 0. -1.
</event>
<event>
 5   0  0.1484056E-03  0.1486795E+04  0.7818609E-02  0.8893282E-01
        2   -1    0    0  501    0  0.00000000000E+00  0.00000000000E+00  0.14092209822E+04  0.14092209822E+04  0.25500000920E-02 0. -1.
       -2   -1    0    0    0  501  0.00000000000E+00  0.00000000000E+00 -0.39215965878E+03  0.39215965879E+03  0.25500000920E-02 0.  1.
    10030    2    1    2    0    0  0.00000000000E+00  0.00000000000E+00  0.10170613234E+04  0.18013806410E+04  0.14867946994E+04 0.  0.
        5    1    3    3  502    0  0.27987394995E+02  0.50320188044E+03 -0.15355694970E+03  0.52687498855E+03  0.46999998093E+01 0.  1.
       -5    1    3    3    0  502 -0.27987394995E+02 -0.50320188044E+03  0.11706182731E+04  0.12745056525E+04  0.46999998093E+01 0. -1.
</event>
<event>
 5   0  0.1500956E-03  0.1522659E+04  0.7818609E-02  0.8869523E-01
       -2   -1    0    0    0  501  0.00000000000E+00  0.00000000000E+00  0.21149552384E+03  0.21149552385E+03  0.25500000920E-02 0.  1.
        2   -1    0    0  501    0  0.00000000000E+00  0.00000000000E+00 -0.27405917063E+04  0.27405917063E+04  0.25500000920E-02 0. -1.
    10030    2    1    2    0    0  0.00000000000E+00  0.00000000000E+00 -0.25290961824E+04  0.29520872301E+04  0.15226593559E+04 0.  0.
        4    1    3    3  502    0 -0.49540388041E+03 -0.48437097362E+03 -0.18763554803E+04  0.20001879277E+04  0.12699999809E+01 0. -1.
       -4    1    3    3    0  502  0.49540388041E+03  0.48437097362E+03 -0.65274070212E+03  0.95189930240E+03  0.12699999809E+01 0.  1.
</event>
<event>
 5   0  0.1511546E-03  0.1422958E+04  0.7818609E-02  0.8937366E-01
        2   -1    0    0  501    0  0.00000000000E+00  0.00000000000E+00  0.96812123488E+03  0.96812123489E+03  0.25500000920E-02 0. -1.
       -2   -1    0    0    0  501  0.00000000000E+00  0.00000000000E+00 -0.52287089953E+03  0.52287089954E+03  0.25500000920E-02 0.  1.
    10030    2    1    2    0    0  0.00000000000E+00  0.00000000000E+00  0.44525033535E+03  0.14909921344E+04  0.14229580752E+04 0.  0.
        1    1    3    3  502    0 -0.50025866107E+03 -0.50180688182E+03  0.28999177114E+03  0.76561354610E+03  0.50400001928E-02 0. -1.
       -1    1    3    3    0  502  0.50025866107E+03  0.50180688182E+03  0.15525856421E+03  0.72537858833E+03  0.50400001928E-02 0.  1.
</event>
<event>
 5   0  0.8191876E-04  0.1465291E+04  0.7818609E-02  0.8907868E-01
       -1   -1    0    0    0  501  0.00000000000E+00  0.00000000000E+00  0.44491431589E+03  0.44491431591E+03  0.50400001928E-02 0.  1.
        1   -1    0    0  501    0  0.00000000000E+00  0.00000000000E+00 -0.12064562915E+04  0.12064562915E+04  0.50400001928E-02 0. -1.
    10030    2    1    2    0    0  0.00000000000E+00  0.00000000000E+00 -0.76154197563E+03  0.16513706074E+04  0.14652913371E+04 0.  0.
        2    1    3    3  502    0  0.14342001464E+03 -0.68652306410E+03 -0.61954014917E+03  0.93579549827E+03  0.25500000920E-02 0. -1.
       -2    1    3    3    0  502 -0.14342001464E+03  0.68652306410E+03 -0.14200182646E+03  0.71557510917E+03  0.25500000920E-02 0.  1.
</event>
<event>
 5   0  0.8365016E-04  0.1495005E+04  0.7818609E-02  0.8887782E-01
       -1   -1    0    0    0  501  0.00000000000E+00  0.00000000000E+00  0.10314124661E+04  0.10314124661E+04  0.50400001928E-02 0. -1.
        1   -1    0    0  501    0  0.00000000000E+00  0.00000000000E+00 -0.54174217933E+03  0.54174217935E+03  0.50400001928E-02 0.  1.
    10030    2    1    2    0    0  0.00000000000E+00  0.00000000000E+00  0.48967028672E+03  0.15731546454E+04  0.14950045313E+04 0.  0.
        3    1    3    3  502    0 -0.49450941192E+03 -0.54004174703E+03  0.40293904771E+03  0.83578976626E+03  0.10100000352E+00 0.  1.
       -3    1    3    3    0  502  0.49450941192E+03  0.54004174703E+03  0.86731239012E+02  0.73736487917E+03  0.10100000352E+00 0. -1.
</event>
<event>
 5   0  0.1552067E-03  0.1502086E+04  0.7818609E-02  0.8883067E-01
        2   -1    0    0  501    0  0.00000000000E+00  0.00000000000E+00  0.12235593879E+04  0.12235593879E+04  0.25500000920E-02 0.  1.
       -2   -1    0    0    0  501  0.00000000000E+00  0.00000000000E+00 -0.46100358705E+03  0.46100358706E+03  0.25500000920E-02 0. -1.
    10030    2    1    2    0    0  0.00000000000E+00  0.00000000000E+00  0.76255580088E+03  0.16845629750E+04  0.15020855726E+04 0.  0.
        3    1    3    3  502    0 -0.47173042518E+03 -0.10237106991E+03 -0.26399465514E+03  0.55018416747E+03  0.10100000352E+00 0. -1.
       -3    1    3    3    0  502  0.47173042518E+03  0.10237106991E+03  0.10265504560E+04  0.11343788075E+04  0.10100000352E+00 0.  1.
</event>
<event>
 5   0  0.1552067E-03  0.1251286E+04  0.7818609E-02  0.9069114E-01
       -2   -1    0    0    0  501  0.00000000000E+00  0.00000000000E+00  0.28528258090E+03  0.28528258092E+03  0.25500000920E-02 0. -1.
        2   -1    0    0  501    0  0.00000000000E+00  0.00000000000E+00 -0.13720752854E+04  0.13720752854E+04  0.25500000920E-02 0.  1.
    10030    2    1    2    0    0  0.00000000000E+00  0.00000000000E+00 -0.10867927045E+04  0.16573578663E+04  0.12512860243E+04 0.  0.
        3    1    3    3  502    0 -0.18505847448E+03 -0.20772421224E+03  0.19884897001E+03  0.34196039303E+03  0.10100000352E+00 0. -1.
       -3    1    3    3    0  502  0.18505847448E+03  0.20772421224E+03 -0.12856416745E+04  0.13153974733E+04  0.10100000352E+00 0.  1.
</event>
<event>
 5   0  0.8191876E-04  0.1512011E+04  0.7818609E-02  0.8876505E-01
        1   -1    0    0  501    0  0.00000000000E+00  0.00000000000E+00  0.47557343471E+03  0.47557343474E+03  0.50400001928E-02 0. -1.
       -1   -1    0    0    0  501  0.00000000000E+00  0.00000000000E+00 -0.12017998254E+04  0.12017998254E+04  0.50400001928E-02 0.  1.
    10030    2    1    2    0    0  0.00000000000E+00  0.00000000000E+00 -0.72622639068E+03  0.16773732601E+04  0.15120106757E+04 0.  0.
        2    1    3    3  502    0  0.48962955990E+03  0.49863975747E+03 -0.43189736586E+02  0.70017431188E+03  0.25500000920E-02 0. -1.
       -2    1    3    3    0  502 -0.48962955990E+03 -0.49863975747E+03 -0.68303665410E+03  0.97719894827E+03  0.25500000920E-02 0.  1.
</event>
<event>
 5   0  0.7870317E-04  0.1428529E+04  0.7818609E-02  0.8933423E-01
       -1   -1    0    0    0  501  0.00000000000E+00  0.00000000000E+00  0.39708030309E+03  0.39708030312E+03  0.50400001928E-02 0.  1.
        1   -1    0    0  501    0  0.00000000000E+00  0.00000000000E+00 -0.12848128251E+04  0.12848128251E+04  0.50400001928E-02 0. -1.
    10030    2    1    2    0    0  0.00000000000E+00  0.00000000000E+00 -0.88773252198E+03  0.16818931282E+04  0.14285291261E+04 0.  0.
        1    1    3    3  502    0 -0.18934842270E+03 -0.25795770136E+03 -0.11956997264E+04  0.12377773776E+04  0.50400001928E-02 0. -1.
       -1    1    3    3    0  502  0.18934842270E+03  0.25795770136E+03  0.30796720442E+03  0.44411575056E+03  0.50400001928E-02 0.  1.
</event>
<event>
 5   0  0.1484056E-03  0.1488950E+04  0.7818609E-02  0.8891834E-01
        2   -1    0    0  501    0  0.00000000000E+00  0.00000000000E+00  0.12050490990E+04  0.12050490990E+04  0.25500000920E-02 0. -1.
       -2   -1    0    0    0  501  0.00000000000E+00  0.00000000000E+00 -0.45993404739E+03  0.45993404740E+03  0.25500000920E-02 0.  1.
    10030    2    1    2    0    0  0.00000000000E+00  0.00000000000E+00  0.74511505156E+03  0.16649831464E+04  0.14889501125E+04 0.  0.
        5    1    3    3  502    0 -0.48735223795E+03  0.11270608150E+03 -0.24399613819E+03  0.55657081319E+03  0.46999998093E+01 0.  1.
       -5    1    3    3    0  502  0.48735223795E+03 -0.11270608150E+03  0.98911118975E+03  0.11084123332E+04  0.46999998093E+01 0. -1.
</event>
<event>
 5   0  0.8306301E-04  0.1526261E+04  0.7818609E-02  0.8867175E-01
        1   -1    0    0  501    0  0.00000000000E+00  0.00000000000E+00  0.18951820265E+04  0.18951820266E+04  0.50400001928E-02 0. -1.
       -1   -1    0    0    0  501  0.00000000000E+00  0.00000000000E+00 -0.30728866176E+03  0.30728866180E+03  0.50400001928E-02 0.  1.
    10030    2    1    2    0    0  0.00000000000E+00  0.00000000000E+00  0.15878933648E+04  0.22024706884E+04  0.15262607232E+04 0.  0.
        4    1    3    3  502    0 -0.10564564901E+03  0.43056024691E+03 -0.10239910574E+03  0.45500584516E+03  0.12699999809E+01 0.  1.
       -4    1    3    3    0  502  0.10564564901E+03 -0.43056024691E+03  0.16902924705E+04  0.17474648432E+04  0.12699999809E+01 0. -1.
</event>
<event>
 5   0  0.7870317E-04  0.1490635E+04  0.7818609E-02  0.8890705E-01
        1   -1    0    0  501    0  0.00000000000E+00  0.00000000000E+00  0.13991232160E+04  0.13991232160E+04  0.50400001928E-02 0.  1.
       -1   -1    0    0    0  501  0.00000000000E+00  0.00000000000E+00 -0.39703293893E+03  0.39703293896E+03  0.50400001928E-02 0. -1.
    10030    2    1    2    0    0  0.00000000000E+00  0.00000000000E+00  0.10020902771E+04  0.17961561550E+04  0.14906347674E+04 0.  0.
        1    1    3    3  502    0 -0.24069441224E+02 -0.33244565750E+03 -0.30222044670E+03  0.44992960741E+03  0.50400001928E-02 0. -1.
       -1    1    3    3    0  502  0.24069441224E+02  0.33244565750E+03  0.13043107238E+04  0.13462265476E+04  0.50400001928E-02 0.  1.
</event>
<event>
 5   0  0.1500956E-03  0.1424073E+04  0.7818609E-02  0.8936575E-01
       -2   -1    0    0    0  501  0.00000000000E+00  0.00000000000E+00  0.65225674824E+03  0.65225674824E+03  0.25500000920E-02 0.  1.
        2   -1    0    0  501    0  0.00000000000E+00  0.00000000000E+00 -0.77729492258E+03  0.77729492259E+03  0.25500000920E-02 0. -1.
    10030    2    1    2    0    0  0.00000000000E+00  0.00000000000E+00 -0.12503817434E+03  0.14295516708E+04  0.14240728333E+04 0.  0.
        4    1    3    3  502    0  0.25457738499E+03  0.46714443159E+03  0.41254647077E+03  0.67322341638E+03  0.12699999809E+01 0.  1.
       -4    1    3    3    0  502 -0.25457738499E+03 -0.46714443159E+03 -0.53758464511E+03  0.75632825445E+03  0.12699999809E+01 0. -1.
</event>
<event>
 5   0  0.8365016E-04  0.1501505E+04  0.7818609E-02  0.8883453E-01
        1   -1    0    0  501    0  0.00000000000E+00  0.00000000000E+00  0.50336065069E+03  0.50336065072E+03  0.50400001928E-02 0.  1.
       -1   -1    0    0    0  501  0.00000000000E+00  0.00000000000E+00 -0.11197326300E+04  0.11197326300E+04  0.50400001928E-02 0. -1.
    10030    2    1    2    0    0  0.00000000000E+00  0.00000000000E+00 -0.61637197931E+03  0.16230932807E+04  0.15015050386E+04 0.  0.
        3    1    3    3  502    0 -0.46598094341E+03 -0.36429025793E+03 -0.80799488826E+03  0.10013497797E+04  0.10100000352E+00 0. -1.
       -3    1    3    3    0  502  0.46598094341E+03  0.36429025793E+03  0.19162290895E+03  0.62174350103E+03  0.10100000352E+00 0.  1.
</event>
<event>
 5   0  0.7870317E-04  0.1529630E+04  0.7818609E-02  0.8864985E-01
        1   -1    0    0  501    0  0.00000000000E+00  0.00000000000E+00  0.16476568125E+04  0.16476568125E+04  0.50400001928E-02 0.  1.
       -1   -1    0    0    0  501  0.00000000000E+00  0.00000000000E+00 -0.35501462457E+03  0.35501462461E+03  0.50400001928E-02 0. -1.
    10030    2    1    2    0    0  0.00000000000E+00  0.00000000000E+00  0.12926421880E+04  0.20026714372E+04  0.15296303668E+04 0.  0.
        1    1    3    3  502    0  0.56008192867E+02 -0.38000749331E+03 -0.21956830698E+03  0.44243966153E+03  0.50400001928E-02 0. -1.
       -1    1    3    3    0  502 -0.56008192867E+02  0.38000749331E+03  0.15122104949E+04  0.15602317756E+04  0.50400001928E-02 0.  1.
</event>
<event>
 5   0  0.7870317E-04  0.1541541E+04  0.7818609E-02  0.8857289E-01
       -1   -1    0    0    0  501  0.00000000000E+00  0.00000000000E+00  0.23376664869E+03  0.23376664874E+03  0.50400001928E-02 0.  1.
        1   -1    0    0  501    0  0.00000000000E+00  0.00000000000E+00 -0.25413672290E+04  0.25413672290E+04  0.50400001928E-02 0. -1.
    10030    2    1    2    0    0  0.00000000000E+00  0.00000000000E+00 -0.23076005803E+04  0.27751338777E+04  0.15415406583E+04 0.  0.
        1    1    3    3  502    0  0.51956901407E+03  0.16345142272E+03 -0.17202296475E+03  0.57119193656E+03  0.50400001928E-02 0.  1.
       -1    1    3    3    0  502 -0.51956901407E+03 -0.16345142272E+03 -0.21355776155E+04  0.22039419411E+04  0.50400001928E-02 0. -1.
</event>
<event>
 5   0  0.8058234E-04  0.1351217E+04  0.7818609E-02  0.8989907E-01
       -1   -1    0    0    0  501  0.00000000000E+00  0.00000000000E+00  0.35816450320E+03  0.35816450323E+03  0.50400001928E-02 0. -1.
        1   -1    0    0  501    0  0.00000000000E+00  0.00000000000E+00 -0.12744063470E+04  0.12744063470E+04  0.50400001928E-02 0.  1.
    10030    2    1    2    0    0  0.00000000000E+00  0.00000000000E+00 -0.91624184378E+03  0.16325708502E+04  0.13512174010E+04 0.  0.
        5    1    3    3  502    0  0.66019653356E+03 -0.68855749526E+02 -0.61010955425E+03  0.90158545648E+03  0.46999998093E+01 0. -1.
       -5    1    3    3    0  502 -0.66019653356E+03  0.68855749526E+02 -0.30613228954E+03  0.73098539374E+03  0.46999998093E+01 0.  1.
</event>
<event>
 5   0  0.8058234E-04  0.1510420E+04  0.7818609E-02  0.8877553E-01
       -1   -1    0    0    0  501  0.00000000000E+00  0.00000000000E+00  0.93425183834E+03  0.93425183836E+03  0.50400001928E-02 0.  1.
        1   -1    0    0  501    0  0.00000000000E+00  0.00000000000E+00 -0.61048032068E+03  0.61048032070E+03  0.50400001928E-02 0. -1.
    10030    2    1    2    0    0  0.00000000000E+00  0.00000000000E+00  0.32377151766E+03  0.15447321591E+04  0.15104202884E+04 0.  0.
        5    1    3    3  502    0 -0.61333366201E+03 -0.35876685030E+03 -0.99714791838E+02  0.71753533958E+03  0.46999998093E+01 0. -1.
       -5    1    3    3    0  502  0.61333366201E+03  0.35876685030E+03  0.42348630950E+03  0.82719681948E+03  0.46999998093E+01 0.  1.
</event>
<event>
 5   0  0.8191876E-04  0.1486985E+04  0.7818609E-02  0.8893154E-01
       -1   -1    0    0    0  501  0.00000000000E+00  0.00000000000E+00  0.72623493546E+03  0.72623493548E+03  0.50400001928E-02 0. -1.
        1   -1    0    0  501    0  0.00000000000E+00  0.00000000000E+00 -0.76115973971E+03  0.76115973973E+03  0.50400001928E-02 0.  1.
    10030    2    1    2    0    0  0.00000000000E+00  0.00000000000E+00 -0.34924804251E+02  0.14873946752E+04  0.14869845923E+04 0.  0.
        2    1    3    3  502    0 -0.64935934686E+03  0.23733662995E+03 -0.29100547236E+03  0.75012027184E+03  0.25500000920E-02 0. -1.
       -2    1    3    3    0  502  0.64935934686E+03 -0.23733662995E+03  0.25608066811E+03  0.73727440337E+03  0.25500000920E-02 0.  1.
</event>
<event>
 5   0  0.8191876E-04  0.1504994E+04  0.7818609E-02  0.8881139E-01
        1   -1    0    0  501    0  0.00000000000E+00  0.00000000000E+00  0.13027142531E+04  0.13027142531E+04  0.50400001928E-02 0. -1.
       -1   -1    0    0    0  501  0.00000000000E+00  0.00000000000E+00 -0.43467069318E+03  0.43467069321E+03  0.50400001928E-02 0.  1.
    10030    2    1    2    0    0  0.00000000000E+00  0.00000000000E+00  0.86804355992E+03  0.17373849463E+04  0.15049939634E+04 0.  0.
        2    1    3    3  502    0 -0.22316204490E+03  0.54764013613E+03 -0.10317209826E+03  0.60029617595E+03  0.25500000920E-02 0.  1.
       -2    1    3    3    0  502  0.22316204490E+03 -0.54764013613E+03  0.97121565818E+03  0.11370887704E+04  0.25500000920E-02 0. -1.
</event>
<event>
 5   0  0.8191876E-04  0.1409690E+04  0.7818609E-02  0.8946834E-01
        1   -1    0    0  501    0  0.00000000000E+00  0.00000000000E+00  0.16292837949E+04  0.16292837949E+04  0.50400001928E-02 0.  1.
       -1   -1    0    0    0  501  0.00000000000E+00  0.00000000000E+00 -0.30492320483E+03  0.30492320488E+03  0.50400001928E-02 0. -1.
    10030    2    1    2    0    0  0.00000000000E+00  0.00000000000E+00  0.13243605901E+04  0.19342069998E+04  0.14096899466E+04 0.  0.
        2    1    3    3  502    0 -0.10271041448E+03  0.59018897420E+03  0.11717633580E+04  0.13160174093E+04  0.25500000920E-02 0. -1.
       -2    1    3    3    0  502  0.10271041448E+03 -0.59018897420E+03  0.15259723208E+03  0.61818959046E+03  0.25500000920E-02 0.  1.
</event>
<event>
 5   0  0.1484056E-03  0.1549187E+04  0.7818609E-02  0.8852387E-01
        2   -1    0    0  501    0  0.00000000000E+00  0.00000000000E+00  0.71404329010E+03  0.71404329010E+03  0.25500000920E-02 0.  1.
       -2   -1    0    0    0  501  0.00000000000E+00  0.00000000000E+00 -0.84027852717E+03  0.84027852717E+03  0.25500000920E-02 0. -1.
    10030    2    1    2    0    0  0.00000000000E+00  0.00000000000E+00 -0.12623523707E+03  0.15543218173E+04  0.15491871987E+04 0.  0.
        5    1    3    3  502    0 -0.11274997826E+03  0.33491314571E+03  0.62843736660E+03  0.72099582974E+03  0.46999998093E+01 0.  1.
       -5    1    3    3    0  502  0.11274997826E+03 -0.33491314571E+03 -0.75467260367E+03  0.83332598753E+03  0.46999998093E+01 0. -1.
</event>
<event>
 5   0  0.7870317E-04  0.1549681E+04  0.7818609E-02  0.8852072E-01
       -1   -1    0    0    0  501  0.00000000000E+00  0.00000000000E+00  0.70461900992E+03  0.70461900993E+03  0.50400001928E-02 0. -1.
        1   -1    0    0  501    0  0.00000000000E+00  0.00000000000E+00 -0.85205999872E+03  0.85205999874E+03  0.50400001928E-02 0.  1.
    10030    2    1    2    0    0  0.00000000000E+00  0.00000000000E+00 -0.14744098881E+03  0.15566790087E+04  0.15496808352E+04 0.  0.
        1    1    3    3  502    0  0.51978945216E+03 -0.33831065373E+03 -0.54029892732E+03  0.82253152152E+03  0.50400001928E-02 0.  1.
       -1    1    3    3    0  502 -0.51978945216E+03  0.33831065373E+03  0.39285793851E+03  0.73414748715E+03  0.50400001928E-02 0. -1.
</event>
<event>
 5   0  0.5603875E-04  0.1366130E+04  0.7818609E-02  0.8978707E-01
       -3   -1    0    0    0  501  0.00000000000E+00  0.00000000000E+00  0.91528028340E+03  0.91528028897E+03  0.10100000352E+00 0.  1.
        3   -1    0    0  501    0  0.00000000000E+00  0.00000000000E+00 -0.50976485213E+03  0.50976486214E+03  0.10100000352E+00 0. -1.
    10030    2    1    2    0    0  0.00000000000E+00  0.00000000000E+00  0.40551543127E+03  0.14250451511E+04  0.13661299051E+04 0.  0.
        1    1    3    3  502    0  0.18877031052E+03  0.65528145056E+03  0.24382190183E+03  0.72420793245E+03  0.50400001928E-02 0. -1.
       -1    1    3    3    0  502 -0.18877031052E+03 -0.65528145056E+03  0.16169352943E+03  0.70083721867E+03  0.50400001928E-02 0.  1.
</event>
<event>
 5   0  0.1484056E-03  0.1526442E+04  0.7818609E-02  0.8867057E-01
        2   -1    0    0  501    0  0.00000000000E+00  0.00000000000E+00  0.18546605449E+04  0.18546605449E+04  0.25500000920E-02 0. -1.
       -2   -1    0    0    0  501  0.00000000000E+00  0.00000000000E+00 -0.31407718925E+03  0.31407718926E+03  0.25500000920E-02 0.  1.
    10030    2    1    2    0    0  0.00000000000E+00  0.00000000000E+00  0.15405833557E+04  0.21687377342E+04  0.15264423618E+04 0.  0.
        5    1    3    3  502    0 -0.10618345463E+03  0.64799063204E+03  0.13229687974E+04  0.14769682847E+04  0.46999998093E+01 0. -1.
       -5    1    3    3    0  502  0.10618345463E+03 -0.64799063204E+03  0.21761455832E+03  0.69176944948E+03  0.46999998093E+01 0.  1.
</event>
<event>
 5   0  0.8306301E-04  0.1493280E+04  0.7818609E-02  0.8888934E-01
       -1   -1    0    0    0  501  0.00000000000E+00  0.00000000000E+00  0.48422005506E+03  0.48422005508E+03  0.50400001928E-02 0.  1.
        1   -1    0    0  501    0  0.00000000000E+00  0.00000000000E+00 -0.11512768655E+04  0.11512768655E+04  0.50400001928E-02 0. -1.
    10030    2    1    2    0    0  0.00000000000E+00  0.00000000000E+00 -0.66705681047E+03  0.16354969206E+04  0.14932800772E+04 0.  0.
        4    1    3    3  502    0  0.50272970158E+02  0.31266412211E+03  0.40702049002E+03  0.51570681301E+03  0.12699999809E+01 0.  1.
       -4    1    3    3    0  502 -0.50272970158E+02 -0.31266412211E+03 -0.10740773005E+04  0.11197901076E+04  0.12699999809E+01 0. -1.
</event>
<event>
 5   0  0.1500956E-03  0.1509391E+04  0.7818609E-02  0.8878232E-01
        2   -1    0    0  501    0  0.00000000000E+00  0.00000000000E+00  0.15845409401E+04  0.15845409401E+04  0.25500000920E-02 0.  1.
       -2   -1    0    0    0  501  0.00000000000E+00  0.00000000000E+00 -0.35945136170E+03  0.35945136171E+03  0.25500000920E-02 0. -1.
    10030    2    1    2    0    0  0.00000000000E+00  0.00000000000E+00  0.12250895784E+04  0.19439923018E+04  0.15093911337E+04 0.  0.
        4    1    3    3  502    0  0.72543503540E+03  0.20500550046E+03  0.65863294232E+03  0.10010405643E+04  0.12699999809E+01 0. -1.
       -4    1    3    3    0  502 -0.72543503540E+03 -0.20500550046E+03  0.56645663611E+03  0.94295173752E+03  0.12699999809E+01 0.  1.
</event>
<event>
 5   0  0.1511546E-03  0.1441472E+04  0.7818609E-02  0.8924334E-01
        2   -1    0    0  501    0  0.00000000000E+00  0.00000000000E+00  0.92367683721E+03  0.92367683722E+03  0.25500000920E-02 0.  1.
       -2   -1    0    0    0  501  0.00000000000E+00  0.00000000000E+00 -0.56238345394E+03  0.56238345394E+03  0.25500000920E-02 0. -1.
    10030    2    1    2    0    0  0.00000000000E+00  0.00000000000E+00  0.36129338327E+03  0.14860602912E+04  0.14414722613E+04 0.  0.
        1    1    3    3  502    0 -0.39953403084E+03  0.17451168694E+03 -0.41102114454E+03  0.59918290359E+03  0.50400001928E-02 0. -1.
       -1    1    3    3    0  502  0.39953403084E+03 -0.17451168694E+03  0.77231452782E+03  0.88687738757E+03  0.50400001928E-02 0.  1.
</event>
<event>
 5   0  0.8365016E-04  0.1480445E+04  0.7818609E-02  0.8897562E-01
        1   -1    0    0  501    0  0.00000000000E+00  0.00000000000E+00  0.15277506668E+04  0.15277506668E+04  0.50400001928E-02 0.  1.
       -1   -1    0    0    0  501  0.00000000000E+00  0.00000000000E+00 -0.35865115621E+03  0.35865115625E+03  0.50400001928E-02 0. -1.
    10030    2    1    2    0    0  0.00000000000E+00  0.00000000000E+00  0.11690995105E+04  0.18864018230E+04  0.14804452615E+04 0.  0.
        3    1    3    3  502    0 -0.45533537882E+02  0.36390447199E+03  0.14038493188E+04  0.14509626763E+04  0.10100000352E+00 0.  1.
       -3    1    3    3    0  502  0.45533537882E+02 -0.36390447199E+03 -0.23474980828E+03  0.43543914672E+03  0.10100000352E+00 0. -1.
</event>
<event>
 5   0  0.1552067E-03  0.1492601E+04  0.7818609E-02  0.8889388E-01
        2   -1    0    0  501    0  0.00000000000E+00  0.00000000000E+00  0.15048260588E+04  0.15048260588E+04  0.25500000920E-02 0.  1.
       -2   -1    0    0    0  501  0.00000000000E+00  0.00000000000E+00 -0.37011898299E+03  0.37011898300E+03  0.25500000920E-02 0. -1.
    10030    2    1    2    0    0  0.00000000000E+00  0.00000000000E+00  0.11347070759E+04  0.18749450418E+04  0.14926013406E+04 0.  0.
        3    1    3    3  502    0  0.57654811473E+03 -0.45438197292E+03  0.73632435353E+03  0.10397327876E+04  0.10100000352E+00 0. -1.
       -3    1    3    3    0  502 -0.57654811473E+03  0.45438197292E+03  0.39838272232E+03  0.83521225419E+03  0.10100000352E+00 0.  1.
</event>
<event>
 5   0  0.8306301E-04  0.1523571E+04  0.7818609E-02  0.8868928E-01
       -1   -1    0    0    0  501  0.00000000000E+00  0.00000000000E+00  0.81465238646E+03  0.81465238647E+03  0.50400001928E-02 0. -1.
        1   -1    0    0  501    0  0.00000000000E+00  0.00000000000E+00 -0.71234943149E+03  0.71234943150E+03  0.50400001928E-02 0.  1.
    10030    2    1    2    0    0  0.00000000000E+00  0.00000000000E+00  0.10230295497E+03  0.15270018180E+04  0.15235710215E+04 0.  0.
        4    1    3    3  502    0 -0.32540081991E+03  0.25269547714E+03 -0.59105254842E+03  0.72047583281E+03  0.12699999809E+01 0.  1.
       -4    1    3    3    0  502  0.32540081991E+03 -0.25269547714E+03  0.69335550339E+03  0.80652598517E+03  0.12699999809E+01 0. -1.
</event>
<event>
 5   0  0.1526126E-03  0.1546328E+04  0.7818609E-02  0.8854217E-01
        2   -1    0    0  501    0  0.00000000000E+00  0.00000000000E+00  0.42922613009E+03  0.42922613010E+03  0.25500000920E-02 0.  1.
       -2   -1    0    0    0  501  0.00000000000E+00  0.00000000000E+00 -0.13926980883E+04  0.13926980883E+04  0.25500000920E-02 0. -1.
    10030    2    1    2    0    0  0.00000000000E+00  0.00000000000E+00 -0.96347195817E+03  0.18219242184E+04  0.15463277930E+04 0.  0.
        2    1    3    3  502    0  0.47938126759E+03  0.60547104056E+03 -0.52551830948E+03  0.93411512903E+03  0.25500000920E-02 0. -1.
       -2    1    3    3    0  502 -0.47938126759E+03 -0.60547104056E+03 -0.43795364869E+03  0.88780908932E+03  0.25500000920E-02 0.  1.
</event>
<event>
 5   0  0.8306301E-04  0.1512941E+04  0.7818609E-02  0.8875892E-01
       -1   -1    0    0    0  501  0.00000000000E+00  0.00000000000E+00  0.47641277020E+03  0.47641277023E+03  0.50400001928E-02 0.  1.
        1   -1    0    0  501    0  0.00000000000E+00  0.00000000000E+00 -0.12011597004E+04  0.12011597004E+04  0.50400001928E-02 0. -1.
    10030    2    1    2    0    0  0.00000000000E+00  0.00000000000E+00 -0.72474693022E+03  0.16775724707E+04  0.15129412683E+04 0.  0.
        4    1    3    3  502    0 -0.16358257141E+03  0.11940463538E+03  0.44579203422E+03  0.48964157840E+03  0.12699999809E+01 0.  1.
       -4    1    3    3    0  502  0.16358257141E+03 -0.11940463538E+03 -0.11705389644E+04  0.11879308923E+04  0.12699999809E+01 0. -1.
</event>
<event>
 5   0  0.8306301E-04  0.1517391E+04  0.7818609E-02  0.8872970E-01
       -1   -1    0    0    0  501  0.00000000000E+00  0.00000000000E+00  0.24545511740E+03  0.24545511745E+03  0.50400001928E-02 0.  1.
        1   -1    0    0  501    0  0.00000000000E+00  0.00000000000E+00 -0.23451087819E+04  0.23451087819E+04  0.50400001928E-02 0. -1.
    10030    2    1    2    0    0  0.00000000000E+00  0.00000000000E+00 -0.20996536645E+04  0.25905638994E+04  0.15173911183E+04 0.  0.
        4    1    3    3  502    0 -0.18785577957E+03 -0.24995946763E+03  0.13033501659E+03  0.33876003133E+03  0.12699999809E+01 0.  1.
       -4    1    3    3    0  502  0.18785577957E+03  0.24995946763E+03 -0.22299886811E+04  0.22518038680E+04  0.12699999809E+01 0. -1.
</event>
<event>
 5   0  0.8191876E-04  0.1490781E+04  0.7818609E-02  0.8890607E-01
       -1   -1    0    0    0  501  0.00000000000E+00  0.00000000000E+00  0.10841263608E+04  0.10841263609E+04  0.50400001928E-02 0.  1.
        1   -1    0    0  501    0  0.00000000000E+00  0.00000000000E+00 -0.51249262980E+03  0.51249262982E+03  0.50400001928E-02 0. -1.
    10030    2    1    2    0    0  0.00000000000E+00  0.00000000000E+00  0.57163373104E+03  0.15966189907E+04  0.14907806944E+04 0.  0.
        2    1    3    3  502    0 -0.31119625335E+03 -0.12167901933E+03 -0.42778900474E+03  0.54281886890E+03  0.25500000920E-02 0. -1.
       -2    1    3    3    0  502  0.31119625335E+03  0.12167901933E+03  0.99942273579E+03  0.10538001218E+04  0.25500000920E-02 0.  1.
</event>
<event>
 5   0  0.1526126E-03  0.1487572E+04  0.7818609E-02  0.8892760E-01
       -2   -1    0    0    0  501  0.00000000000E+00  0.00000000000E+00  0.10474913860E+04  0.10474913860E+04  0.25500000920E-02 0.  1.
        2   -1    0    0  501    0  0.00000000000E+00  0.00000000000E+00 -0.52813536800E+03  0.52813536801E+03  0.25500000920E-02 0. -1.
    10030    2    1    2    0    0  0.00000000000E+00  0.00000000000E+00  0.51935601798E+03  0.15756267540E+04  0.14875715090E+04 0.  0.
        2    1    3    3  502    0  0.38943073617E+02 -0.16840873457E+03 -0.50656605122E+03  0.53524501783E+03  0.25500000920E-02 0. -1.
       -2    1    3    3    0  502 -0.38943073617E+02  0.16840873457E+03  0.10259220692E+04  0.10403817362E+04  0.25500000920E-02 0.  1.
</event>
<event>
 5   0  0.1511546E-03  0.1472112E+04  0.7818609E-02  0.8903213E-01
       -2   -1    0    0    0  501  0.00000000000E+00  0.00000000000E+00  0.58269126510E+03  0.58269126511E+03  0.25500000920E-02 0. -1.
        2   -1    0    0  501    0  0.00000000000E+00  0.00000000000E+00 -0.92978629834E+03  0.92978629834E+03  0.25500000920E-02 0.  1.
    10030    2    1    2    0    0  0.00000000000E+00  0.00000000000E+00 -0.34709503323E+03  0.15124775634E+04  0.14721118904E+04 0.  0.
        1    1    3    3  502    0  0.54027092195E+03  0.34479100802E+03 -0.54541807939E+03  0.84157851070E+03  0.50400001928E-02 0.  1.
       -1    1    3    3    0  502 -0.54027092195E+03 -0.34479100802E+03  0.19832304616E+03  0.67089905275E+03  0.50400001928E-02 0. -1.
</event>
<event>
 5   0  0.5603875E-04  0.1502193E+04  0.7818609E-02  0.8882996E-01
        4   -1    0    0  501    0  0.00000000000E+00  0.00000000000E+00  0.12729705156E+04  0.12729711491E+04  0.12699999809E+01 0. -1.
       -4   -1    0    0    0  501  0.00000000000E+00  0.00000000000E+00 -0.44317138462E+03  0.44317320434E+03  0.12699999809E+01 0.  1.
    10030    2    1    2    0    0  0.00000000000E+00  0.00000000000E+00  0.82979913097E+03  0.17161443534E+04  0.15021933445E+04 0.  0.
        4    1    3    3  502    0 -0.36133478406E+03 -0.33602350320E+03 -0.23203019862E+03  0.54526529951E+03  0.12699999809E+01 0.  1.
       -4    1    3    3    0  502  0.36133478406E+03  0.33602350320E+03  0.10618293296E+04  0.11708790539E+04  0.12699999809E+01 0. -1.
</event>
<event>
 5   0  0.1511546E-03  0.1490595E+04  0.7818609E-02  0.8890731E-01
        2   -1    0    0  501    0  0.00000000000E+00  0.00000000000E+00  0.40047385219E+03  0.40047385220E+03  0.25500000920E-02 0.  1.
       -2   -1    0    0    0  501  0.00000000000E+00  0.00000000000E+00 -0.13870284518E+04  0.13870284518E+04  0.25500000920E-02 0. -1.
    10030    2    1    2    0    0  0.00000000000E+00  0.00000000000E+00 -0.98655459965E+03  0.17875023040E+04  0.14905953538E+04 0.  0.
        1    1    3    3  502    0  0.36794541142E+03  0.38411227323E+03  0.13276548536E+03  0.54822690408E+03  0.50400001928E-02 0.  1.
       -1    1    3    3    0  502 -0.36794541142E+03 -0.38411227323E+03 -0.11193200850E+04  0.12392754000E+04  0.50400001928E-02 0. -1.
</event>
<event>
 5   0  0.7870317E-04  0.1504302E+04  0.7818609E-02  0.8881597E-01
        1   -1    0    0  501    0  0.00000000000E+00  0.00000000000E+00  0.68921450983E+03  0.68921450985E+03  0.50400001928E-02 0.  1.
       -1   -1    0    0    0  501  0.00000000000E+00  0.00000000000E+00 -0.82083482364E+03  0.82083482366E+03  0.50400001928E-02 0. -1.
    10030    2    1    2    0    0  0.00000000000E+00  0.00000000000E+00 -0.13162031381E+03  0.15100493335E+04  0.15043021913E+04 0.  0.
        1    1    3    3  502    0 -0.42003271100E+03 -0.17144075470E+03 -0.66802870408E+03  0.80751579562E+03  0.50400001928E-02 0. -1.
       -1    1    3    3    0  502  0.42003271100E+03  0.17144075470E+03  0.53640839027E+03  0.70253353789E+03  0.50400001928E-02 0.  1.
</event>
<event>
 5   0  0.1484056E-03  0.1508898E+04  0.7818609E-02  0.8878557E-01
        2   -1    0    0  501    0  0.00000000000E+00  0.00000000000E+00  0.56744636648E+03  0.56744636649E+03  0.25500000920E-02 0. -1.
       -2   -1    0    0    0  501  0.00000000000E+00  0.00000000000E+00 -0.10030783205E+04  0.10030783205E+04  0.25500000920E-02 0.  1.
    10030    2    1    2    0    0  0.00000000000E+00  0.00000000000E+00 -0.43563195399E+03  0.15705246870E+04  0.15088978073E+04 0.  0.
        5    1    3    3  502    0 -0.74464048068E+03 -0.69063576191E+02 -0.11419158942E+03  0.75651902297E+03  0.46999998093E+01 0. -1.
       -5    1    3    3    0  502  0.74464048068E+03  0.69063576191E+02 -0.32144036457E+03  0.81400566399E+03  0.46999998093E+01 0.  1.
</event>
<event>
 5   0  0.5603875E-04  0.1496275E+04  0.7818609E-02  0.8886934E-01
       -3   -1    0    0    0  501  0.00000000000E+00  0.00000000000E+00  0.78749092992E+03  0.78749093640E+03  0.10100000352E+00 0.  1.
        3   -1    0    0  501    0  0.00000000000E+00  0.00000000000E+00 -0.71075096524E+03  0.71075097241E+03  0.10100000352E+00 0. -1.
    10030    2    1    2    0    0  0.00000000000E+00  0.00000000000E+00  0.76739964687E+02  0.14982419088E+04  0.14962753073E+04 0.  0.
        5    1    3    3  502    0  0.60297357521E+03  0.11235158170E+03  0.46728779861E+03  0.77109012900E+03  0.46999998093E+01 0.  1.
       -5    1    3    3    0  502 -0.60297357521E+03 -0.11235158170E+03 -0.39054783392E+03  0.72715177982E+03  0.46999998093E+01 0. -1.
</event>
<event>
 5   0  0.1500956E-03  0.1727815E+04  0.7818609E-02  0.8745658E-01
       -2   -1    0    0    0  501  0.00000000000E+00  0.00000000000E+00  0.55461617418E+03  0.55461617418E+03  0.25500000920E-02 0.  1.
        2   -1    0    0  501    0  0.00000000000E+00  0.00000000000E+00 -0.13456805251E+04  0.13456805251E+04  0.25500000920E-02 0. -1.
    10030    2    1    2    0    0  0.00000000000E+00  0.00000000000E+00 -0.79106435087E+03  0.19002966992E+04  0.17278150184E+04 0.  0.
        4    1    3    3  502    0 -0.90103251886E+02  0.13522170153E+03  0.53765685885E+03  0.56167607687E+03  0.12699999809E+01 0.  1.
       -4    1    3    3    0  502  0.90103251886E+02 -0.13522170153E+03 -0.13287212097E+04  0.13386206224E+04  0.12699999809E+01 0. -1.
</event>
<event>
 5   0  0.1500956E-03  0.1515956E+04  0.7818609E-02  0.8873911E-01
       -2   -1    0    0    0  501  0.00000000000E+00  0.00000000000E+00  0.10306069281E+04  0.10306069281E+04  0.25500000920E-02 0. -1.
        2   -1    0    0  501    0  0.00000000000E+00  0.00000000000E+00 -0.55746847513E+03  0.55746847514E+03  0.25500000920E-02 0.  1.
    10030    2    1    2    0    0  0.00000000000E+00  0.00000000000E+00  0.47313845298E+03  0.15880754033E+04  0.15159562958E+04 0.  0.
        4    1    3    3  502    0  0.36322069588E+03 -0.61967324032E+03 -0.17032379670E+02  0.71848167238E+03  0.12699999809E+01 0.  1.
       -4    1    3    3    0  502 -0.36322069588E+03  0.61967324032E+03  0.49017083265E+03  0.86959373087E+03  0.12699999809E+01 0. -1.
</event>
<event>
 5   0  0.8191876E-04  0.1515743E+04  0.7818609E-02  0.8874051E-01
       -1   -1    0    0    0  501  0.00000000000E+00  0.00000000000E+00  0.11813559405E+04  0.11813559405E+04  0.50400001928E-02 0. -1.
        1   -1    0    0  501    0  0.00000000000E+00  0.00000000000E+00 -0.48619488314E+03  0.48619488316E+03  0.50400001928E-02 0.  1.
    10030    2    1    2    0    0  0.00000000000E+00  0.00000000000E+00  0.69516105740E+03  0.16675508237E+04  0.15157430039E+04 0.  0.
        2    1    3    3  502    0 -0.46004250118E+03 -0.45872639536E+03  0.77692289990E+03  0.10127577208E+04  0.25500000920E-02 0. -1.
       -2    1    3    3    0  502  0.46004250118E+03  0.45872639536E+03 -0.81761842501E+02  0.65479310289E+03  0.25500000920E-02 0.  1.
</event>
<event>
 5   0  0.8365016E-04  0.1500969E+04  0.7818609E-02  0.8883809E-01
       -1   -1    0    0    0  501  0.00000000000E+00  0.00000000000E+00  0.78035723579E+03  0.78035723580E+03  0.50400001928E-02 0.  1.
        1   -1    0    0  501    0  0.00000000000E+00  0.00000000000E+00 -0.72175484090E+03  0.72175484092E+03  0.50400001928E-02 0. -1.
    10030    2    1    2    0    0  0.00000000000E+00  0.00000000000E+00  0.58602394887E+02  0.15021120767E+04  0.15009685041E+04 0.  0.
        3    1    3    3  502    0 -0.15733372896E+03 -0.40261769035E+03 -0.58465761349E+03  0.72710346036E+03  0.10100000352E+00 0. -1.
       -3    1    3    3    0  502  0.15733372896E+03  0.40261769035E+03  0.64326000838E+03  0.77500861636E+03  0.10100000352E+00 0.  1.
</event>
<event>
 5   0  0.8058234E-04  0.1515143E+04  0.7818609E-02  0.8874445E-01
       -1   -1    0    0    0  501  0.00000000000E+00  0.00000000000E+00  0.56701761782E+03  0.56701761784E+03  0.50400001928E-02 0. -1.
        1   -1    0    0  501    0  0.00000000000E+00  0.00000000000E+00 -0.10121635709E+04  0.10121635709E+04  0.50400001928E-02 0.  1.
    10030    2    1    2    0    0  0.00000000000E+00  0.00000000000E+00 -0.44514595311E+03  0.15791811888E+04  0.15151429990E+04 0.  0.
        5    1    3    3  502    0 -0.38965450372E+03 -0.62461267473E+03 -0.40878839541E+03  0.84208174658E+03  0.46999998093E+01 0.  1.
       -5    1    3    3    0  502  0.38965450372E+03  0.62461267473E+03 -0.36357557698E+02  0.73709944221E+03  0.46999998093E+01 0. -1.
</event>
<event>
 5   0  0.1500956E-03  0.1450142E+04  0.7818609E-02  0.8918302E-01
        2   -1    0    0  501    0  0.00000000000E+00  0.00000000000E+00  0.84045611280E+03  0.84045611280E+03  0.25500000920E-02 0. -1.
       -2   -1    0    0    0  501  0.00000000000E+00  0.00000000000E+00 -0.62552693643E+03  0.62552693644E+03  0.25500000920E-02 0.  1.
    10030    2    1    2    0    0  0.00000000000E+00  0.00000000000E+00  0.21492917636E+03  0.14659830492E+04  0.14501419757E+04 0.  0.
        4    1    3    3  502    0  0.56880786244E+03  0.43644781809E+03  0.21679982934E+03  0.74902126885E+03  0.12699999809E+01 0. -1.
       -4    1    3    3    0  502 -0.56880786244E+03 -0.43644781809E+03 -0.18706529798E+01  0.71696178039E+03  0.12699999809E+01 0.  1.
</event>
<event>
 5   0  0.1484056E-03  0.1492134E+04  0.7818609E-02  0.8889701E-01
       -2   -1    0    0    0  501  0.00000000000E+00  0.00000000000E+00  0.42404012345E+03  0.42404012346E+03  0.25500000920E-02 0.  1.
        2   -1    0    0  501    0  0.00000000000E+00  0.00000000000E+00 -0.13126492639E+04  0.13126492639E+04  0.25500000920E-02 0. -1.
    10030    2    1    2    0    0  0.00000000000E+00  0.00000000000E+00 -0.88860914047E+03  0.17366893874E+04  0.14921339832E+04 0.  0.
        5    1    3    3  502    0 -0.19583695031E+03 -0.49964901598E+03  0.15889547188E+03  0.55970627231E+03  0.46999998093E+01 0.  1.
       -5    1    3    3    0  502  0.19583695031E+03  0.49964901598E+03 -0.10475046123E+04  0.11769831151E+04  0.46999998093E+01 0. -1.
</event>
<event>
 5   0  0.1511546E-03  0.1485661E+04  0.7818609E-02  0.8894045E-01
        2   -1    0    0  501    0  0.00000000000E+00  0.00000000000E+00  0.18531307730E+04  0.18531307730E+04  0.25500000920E-02 0. -1.
       -2   -1    0    0    0  501  0.00000000000E+00  0.00000000000E+00 -0.29776465865E+03  0.29776465866E+03  0.25500000920E-02 0.  1.
    10030    2    1    2    0    0  0.00000000000E+00  0.00000000000E+00  0.15553661144E+04  0.21508954317E+04  0.14856605966E+04 0.  0.
        1    1    3    3  502    0  0.30392665815E+03  0.64395445662E+03  0.47142538703E+03  0.85398515871E+03  0.50400001928E-02 0. -1.
       -1    1    3    3    0  502 -0.30392665815E+03 -0.64395445662E+03  0.10839407273E+04  0.12969102730E+04  0.50400001928E-02 0.  1.
</event>
<event>
 5   0  0.1511546E-03  0.1459562E+04  0.7818609E-02  0.8911798E-01
       -2   -1    0    0    0  501  0.00000000000E+00  0.00000000000E+00  0.86297747758E+03  0.86297747759E+03  0.25500000920E-02 0. -1.
        2   -1    0    0  501    0  0.00000000000E+00  0.00000000000E+00 -0.61714258711E+03  0.61714258712E+03  0.25500000920E-02 0.  1.
    10030    2    1    2    0    0  0.00000000000E+00  0.00000000000E+00  0.24583489047E+03  0.14801200647E+04  0.14595617879E+04 0.  0.
        1    1    3    3  502    0 -0.85966582484E+02 -0.50623246024E+03 -0.40296040495E+03  0.65271635883E+03  0.50400001928E-02 0.  1.
       -1    1    3    3    0  502  0.85966582484E+02  0.50623246024E+03  0.64879529543E+03  0.82740370587E+03  0.50400001928E-02 0. -1.
</event>
<event>
 5   0  0.5603875E-04  0.1502731E+04  0.7818609E-02  0.8882639E-01
        3   -1    0    0  501    0  0.00000000000E+00  0.00000000000E+00  0.11923688441E+04  0.11923688484E+04  0.10100000352E+00 0. -1.
       -3   -1    0    0    0  501  0.00000000000E+00  0.00000000000E+00 -0.47346947503E+03  0.47346948580E+03  0.10100000352E+00 0.  1.
    10030    2    1    2    0    0  0.00000000000E+00  0.00000000000E+00  0.71889936909E+03  0.16658383342E+04  0.15027311978E+04 0.  0.
        2    1    3    3  502    0  0.33748553936E+03  0.62580464701E+03  0.90135220422E+02  0.71669540494E+03  0.25500000920E-02 0. -1.
       -2    1    3    3    0  502 -0.33748553936E+03 -0.62580464701E+03  0.62876414866E+03  0.94914292925E+03  0.25500000920E-02 0.  1.
</event>
<event>
 5   0  0.5603875E-04  0.1481862E+04  0.7818609E-02  0.8896605E-01
       -3   -1    0    0    0  501  0.00000000000E+00  0.00000000000E+00  0.12020781265E+04  0.12020781307E+04  0.10100000352E+00 0. -1.
        3   -1    0    0  501    0  0.00000000000E+00  0.00000000000E+00 -0.45669112564E+03  0.45669113681E+03  0.10100000352E+00 0.  1.
    10030    2    1    2    0    0  0.00000000000E+00  0.00000000000E+00  0.74538700082E+03  0.16587692675E+04  0.14818615664E+04 0.  0.
        2    1    3    3  502    0 -0.42948178933E+03 -0.81547222335E+02 -0.29694951012E+03  0.52847286440E+03  0.25500000920E-02 0.  1.
       -2    1    3    3    0  502  0.42948178933E+03  0.81547222335E+02  0.10423365109E+04  0.11302964031E+04  0.25500000920E-02 0. -1.
</event>
<event>
 5   0  0.1500956E-03  0.1508321E+04  0.7818609E-02  0.8878938E-01
        2   -1    0    0  501    0  0.00000000000E+00  0.00000000000E+00  0.85860459957E+03  0.85860459957E+03  0.25500000920E-02 0. -1.
       -2   -1    0    0    0  501  0.00000000000E+00  0.00000000000E+00 -0.66242163829E+03  0.66242163830E+03  0.25500000920E-02 0.  1.
    10030    2    1    2    0    0  0.00000000000E+00  0.00000000000E+00  0.19618296128E+03  0.15210262379E+04  0.15083212728E+04 0.  0.
        4    1    3    3  502    0 -0.36857622848E+03  0.44681150333E+03 -0.38895470926E+03  0.69769358207E+03  0.12699999809E+01 0.  1.
       -4    1    3    3    0  502  0.36857622848E+03 -0.44681150333E+03  0.58513767054E+03  0.82333265579E+03  0.12699999809E+01 0. -1.
</event>
<event>
 5   0  0.8306301E-04  0.1542687E+04  0.7818609E-02  0.8856553E-01
        1   -1    0    0  501    0  0.00000000000E+00  0.00000000000E+00  0.97990666532E+03  0.97990666533E+03  0.50400001928E-02 0. -1.
       -1   -1    0    0    0  501  0.00000000000E+00  0.00000000000E+00 -0.60717070939E+03  0.60717070941E+03  0.50400001928E-02 0.  1.
    10030    2    1    2    0    0  0.00000000000E+00  0.00000000000E+00  0.37273595592E+03  0.15870773747E+04  0.15426867798E+04 0.  0.
        4    1    3    3  502    0  0.68149096090E+03  0.36130106633E+03  0.18717929808E+03  0.79372923144E+03  0.12699999809E+01 0.  1.
       -4    1    3    3    0  502 -0.68149096090E+03 -0.36130106633E+03  0.18555665784E+03  0.79334814330E+03  0.12699999809E+01 0. -1.
</event>
<event>
 5   0  0.1500956E-03  0.1493173E+04  0.7818609E-02  0.8889006E-01
       -2   -1    0    0    0  501  0.00000000000E+00  0.00000000000E+00  0.76166906988E+03  0.76166906988E+03  0.25500000920E-02 0. -1.
        2   -1    0    0  501    0  0.00000000000E+00  0.00000000000E+00 -0.73180256599E+03  0.73180256600E+03  0.25500000920E-02 0.  1.
    10030    2    1    2    0    0  0.00000000000E+00  0.00000000000E+00  0.29866503884E+02  0.14934716359E+04  0.14931729703E+04 0.  0.
        4    1    3    3  502    0  0.65590560355E+03 -0.74148120855E+02  0.36382914483E+03  0.75371305158E+03  0.12699999809E+01 0. -1.
       -4    1    3    3    0  502 -0.65590560355E+03  0.74148120855E+02 -0.33396264095E+03  0.73975858430E+03  0.12699999809E+01 0.  1.
</event>
<event>
 5   0  0.8365016E-04  0.1454040E+04  0.7818609E-02  0.8915604E-01
        1   -1    0    0  501    0  0.00000000000E+00  0.00000000000E+00  0.77092742347E+03  0.77092742348E+03  0.50400001928E-02 0. -1.
       -1   -1    0    0    0  501  0.00000000000E+00  0.00000000000E+00 -0.68561361575E+03  0.68561361577E+03  0.50400001928E-02 0.  1.
    10030    2    1    2    0    0  0.00000000000E+00  0.00000000000E+00  0.85313807720E+02  0.14565410392E+04  0.14540403547E+04 0.  0.
        3    1    3    3  502    0 -0.48904997302E+03  0.55751935277E+02  0.57862865679E+03  0.75966393034E+03  0.10100000352E+00 0. -1.
       -3    1    3    3    0  502  0.48904997302E+03 -0.55751935277E+02 -0.49331484907E+03  0.69687710891E+03  0.10100000352E+00 0.  1.
</event>
<event>
 5   0  0.8306301E-04  0.1434712E+04  0.7818609E-02  0.8929069E-01
        1   -1    0    0  501    0  0.00000000000E+00  0.00000000000E+00  0.16725833692E+04  0.16725833692E+04  0.50400001928E-02 0.  1.
       -1   -1    0    0    0  501  0.00000000000E+00  0.00000000000E+00 -0.30766742609E+03  0.30766742613E+03  0.50400001928E-02 0. -1.
    10030    2    1    2    0    0  0.00000000000E+00  0.00000000000E+00  0.13649159431E+04  0.19802507953E+04  0.14347117065E+04 0.  0.
        4    1    3    3  502    0  0.23144828444E+03  0.48435938936E+03  0.25680565965E+02  0.53743225694E+03  0.12699999809E+01 0. -1.
       -4    1    3    3    0  502 -0.23144828444E+03 -0.48435938936E+03  0.13392353771E+04  0.14428185384E+04  0.12699999809E+01 0.  1.
</event>
<event>
 5   0  0.8191876E-04  0.1501627E+04  0.7818609E-02  0.8883372E-01
       -1   -1    0    0    0  501  0.00000000000E+00  0.00000000000E+00  0.51692135655E+03  0.51692135657E+03  0.50400001928E-02 0.  1.
        1   -1    0    0  501    0  0.00000000000E+00  0.00000000000E+00 -0.10905352468E+04  0.10905352468E+04  0.50400001928E-02 0. -1.
    10030    2    1    2    0    0  0.00000000000E+00  0.00000000000E+00 -0.57361389023E+03  0.16074566034E+04  0.15016270631E+04 0.  0.
        2    1    3    3  502    0 -0.37924421023E+03  0.25440820071E+03  0.35115691269E+03  0.57607367664E+03  0.25500000920E-02 0.  1.
       -2    1    3    3    0  502  0.37924421023E+03 -0.25440820071E+03 -0.92477080292E+03  0.10313829267E+04  0.25500000920E-02 0. -1.
</event>
<event>
 5   0  0.1511546E-03  0.1477249E+04  0.7818609E-02  0.8899725E-01
        2   -1    0    0  501    0  0.00000000000E+00  0.00000000000E+00  0.45138289210E+03  0.45138289211E+03  0.25500000920E-02 0. -1.
       -2   -1    0    0    0  501  0.00000000000E+00  0.00000000000E+00 -0.12086545168E+04  0.12086545168E+04  0.25500000920E-02 0.  1.
    10030    2    1    2    0    0  0.00000000000E+00  0.00000000000E+00 -0.75727162470E+03  0.16600374089E+04  0.14772487554E+04 0.  0.
        1    1    3    3  502    0  0.46731287286E+03  0.51779210313E+03 -0.65176602286E+03  0.95461454619E+03  0.50400001928E-02 0.  1.
       -1    1    3    3    0  502 -0.46731287286E+03 -0.51779210313E+03 -0.10550560184E+03  0.70542286272E+03  0.50400001928E-02 0. -1.
</event>
<event>
 5   0  0.7870317E-04  0.1613568E+04  0.7818609E-02  0.8812256E-01
       -1   -1    0    0    0  501  0.00000000000E+00  0.00000000000E+00  0.51537457125E+03  0.51537457127E+03  0.50400001928E-02 0. -1.
        1   -1    0    0  501    0  0.00000000000E+00  0.00000000000E+00 -0.12629664112E+04  0.12629664112E+04  0.50400001928E-02 0.  1.
    10030    2    1    2    0    0  0.00000000000E+00  0.00000000000E+00 -0.74759183999E+03  0.17783409825E+04  0.16135684339E+04 0.  0.
        1    1    3    3  502    0 -0.11425602961E+03 -0.51086141054E+03  0.30278800516E+03  0.60474324897E+03  0.50400001928E-02 0. -1.
       -1    1    3    3    0  502  0.11425602961E+03  0.51086141054E+03 -0.10503798451E+04  0.11735977335E+04  0.50400001928E-02 0.  1.
</event>
<event>
 5   0  0.1511546E-03  0.1482717E+04  0.7818609E-02  0.8896028E-01
        2   -1    0    0  501    0  0.00000000000E+00  0.00000000000E+00  0.87437636379E+03  0.87437636380E+03  0.25500000920E-02 0.  1.
       -2   -1    0    0    0  501  0.00000000000E+00  0.00000000000E+00 -0.62857690792E+03  0.62857690793E+03  0.25500000920E-02 0. -1.
    10030    2    1    2    0    0  0.00000000000E+00  0.00000000000E+00  0.24579945587E+03  0.15029532717E+04  0.14827174931E+04 0.  0.
        1    1    3    3  502    0 -0.12734471191E+03  0.62858181932E+03 -0.25403690010E+03  0.68983079510E+03  0.50400001928E-02 0. -1.
       -1    1    3    3    0  502  0.12734471191E+03 -0.62858181932E+03  0.49983635597E+03  0.81312247663E+03  0.50400001928E-02 0.  1.
</event>
<event>
 5   0  0.1526126E-03  0.1508693E+04  0.7818609E-02  0.8878693E-01
        2   -1    0    0  501    0  0.00000000000E+00  0.00000000000E+00  0.55012354966E+03  0.55012354966E+03  0.25500000920E-02 0.  1.
       -2   -1    0    0    0  501  0.00000000000E+00  0.00000000000E+00 -0.10343835727E+04  0.10343835727E+04  0.25500000920E-02 0. -1.
    10030    2    1    2    0    0  0.00000000000E+00  0.00000000000E+00 -0.48426002304E+03  0.15845071224E+04  0.15086931600E+04 0.  0.
        2    1    3    3  502    0 -0.24319126041E+02  0.61009604839E+03 -0.70736904765E+03  0.93444078343E+03  0.25500000920E-02 0. -1.
       -2    1    3    3    0  502  0.24319126041E+02 -0.61009604839E+03  0.22310902460E+03  0.65006633894E+03  0.25500000920E-02 0.  1.
</event>
<event>
 5   0  0.1500956E-03  0.9755909E+03  0.7818609E-02  0.9335729E-01
       -2   -1    0    0    0  501  0.00000000000E+00  0.00000000000E+00  0.74567591178E+03  0.74567591179E+03  0.25500000920E-02 0.  1.
        2   -1    0    0  501    0  0.00000000000E+00  0.00000000000E+00 -0.31909892707E+03  0.31909892708E+03  0.25500000920E-02 0. -1.
    10030    2    1    2    0    0  0.00000000000E+00  0.00000000000E+00  0.42657698471E+03  0.10647748389E+04  0.97559086383E+03 0.  0.
        4    1    3    3  502    0 -0.23383792404E+03  0.49611595055E+01 -0.25390609895E+03  0.34521689966E+03  0.12699999809E+01 0. -1.
       -4    1    3    3    0  502  0.23383792404E+03 -0.49611595055E+01  0.68048308367E+03  0.71955793921E+03  0.12699999809E+01 0.  1.
</event>
<event>
 5   0  0.8306301E-04  0.1502044E+04  0.7818609E-02  0.8883095E-01
       -1   -1    0    0    0  501  0.00000000000E+00  0.00000000000E+00  0.93649108430E+03  0.93649108431E+03  0.50400001928E-02 0. -1.
        1   -1    0    0  501    0  0.00000000000E+00  0.00000000000E+00 -0.60228441496E+03  0.60228441498E+03  0.50400001928E-02 0.  1.
    10030    2    1    2    0    0  0.00000000000E+00  0.00000000000E+00  0.33420666934E+03  0.15387754993E+04  0.15020439206E+04 0.  0.
        4    1    3    3  502    0 -0.13170684835E+03  0.48244605052E+03 -0.40689425546E+03  0.64472120609E+03  0.12699999809E+01 0.  1.
       -4    1    3    3    0  502  0.13170684835E+03 -0.48244605052E+03  0.74110092479E+03  0.89405429320E+03  0.12699999809E+01 0. -1.
</event>
<event>
 5   0  0.7870317E-04  0.1508414E+04  0.7818609E-02  0.8878877E-01
       -1   -1    0    0    0  501  0.00000000000E+00  0.00000000000E+00  0.25817692422E+03  0.25817692427E+03  0.50400001928E-02 0. -1.
        1   -1    0    0  501    0  0.00000000000E+00  0.00000000000E+00 -0.22032484851E+04  0.22032484851E+04  0.50400001928E-02 0.  1.
    10030    2    1    2    0    0  0.00000000000E+00  0.00000000000E+00 -0.19450715609E+04  0.24614254094E+04  0.15084136266E+04 0.  0.
        1    1    3    3  502    0 -0.25836728590E+03 -0.70798262138E+03 -0.92538641810E+03  0.11934542595E+04  0.50400001928E-02 0. -1.
       -1    1    3    3    0  502  0.25836728590E+03  0.70798262138E+03 -0.10196851428E+04  0.12679711499E+04  0.50400001928E-02 0.  1.
</event>
<event>
 5   0  0.1500956E-03  0.1491095E+04  0.7818609E-02  0.8890396E-01
       -2   -1    0    0    0  501  0.00000000000E+00  0.00000000000E+00  0.54927560800E+03  0.54927560800E+03  0.25500000920E-02 0.  1.
        2   -1    0    0  501    0  0.00000000000E+00  0.00000000000E+00 -0.10119533274E+04  0.10119533274E+04  0.25500000920E-02 0. -1.
    10030    2    1    2    0    0  0.00000000000E+00  0.00000000000E+00 -0.46267771940E+03  0.15612289354E+04  0.14910952742E+04 0.  0.
        4    1    3    3  502    0  0.22543251742E+03  0.70621191008E+03 -0.14833477198E+03  0.75601580626E+03  0.12699999809E+01 0. -1.
       -4    1    3    3    0  502 -0.22543251742E+03 -0.70621191008E+03 -0.31434294743E+03  0.80521312914E+03  0.12699999809E+01 0.  1.
</event>
<event>
 5   0  0.1484056E-03  0.1531310E+04  0.7818609E-02  0.8863895E-01
        2   -1    0    0  501    0  0.00000000000E+00  0.00000000000E+00  0.15264540504E+04  0.15264540504E+04  0.25500000920E-02 0. -1.
       -2   -1    0    0    0  501  0.00000000000E+00  0.00000000000E+00 -0.38404510977E+03  0.38404510978E+03  0.25500000920E-02 0.  1.
    10030    2    1    2    0    0  0.00000000000E+00  0.00000000000E+00  0.11424089406E+04  0.19104991602E+04  0.15313095224E+04 0.  0.
        5    1    3    3  502    0 -0.30416543074E+03  0.32812041735E+03  0.13463653882E+04  0.14187675871E+04  0.46999998093E+01 0. -1.
       -5    1    3    3    0  502  0.30416543074E+03 -0.32812041735E+03 -0.20395644755E+03  0.49173157315E+03  0.46999998093E+01 0.  1.
</event>
<event>
 5   0  0.8191876E-04  0.1520235E+04  0.7818609E-02  0.8871107E-01
        1   -1    0    0  501    0  0.00000000000E+00  0.00000000000E+00  0.65129437822E+03  0.65129437824E+03  0.50400001928E-02 0.  1.
       -1   -1    0    0    0  501  0.00000000000E+00  0.00000000000E+00 -0.88712392621E+03  0.88712392622E+03  0.50400001928E-02 0. -1.
    10030    2    1    2    0    0  0.00000000000E+00  0.00000000000E+00 -0.23582954799E+03  0.15384183045E+04  0.15202352791E+04 0.  0.
        2    1    3    3  502    0  0.23671565098E+03  0.63431880251E+03 -0.46756758841E+03  0.82280866085E+03  0.25500000920E-02 0. -1.
       -2    1    3    3    0  502 -0.23671565098E+03 -0.63431880251E+03  0.23173804042E+03  0.71560964361E+03  0.25500000920E-02 0.  1.
</event>
<event>
 5   0  0.8365016E-04  0.1506360E+04  0.7818609E-02  0.8880235E-01
        1   -1    0    0  501    0  0.00000000000E+00  0.00000000000E+00  0.13391094118E+04  0.13391094118E+04  0.50400001928E-02 0.  1.
       -1   -1    0    0    0  501  0.00000000000E+00  0.00000000000E+00 -0.42362474652E+03  0.42362474655E+03  0.50400001928E-02 0. -1.
    10030    2    1    2    0    0  0.00000000000E+00  0.00000000000E+00  0.91548466523E+03  0.17627341583E+04  0.15063596983E+04 0.  0.
        3    1    3    3  502    0 -0.12002487798E+03  0.37076875003E+03  0.12119547846E+04  0.12730710300E+04  0.10100000352E+00 0.  1.
       -3    1    3    3    0  502  0.12002487798E+03 -0.37076875003E+03 -0.29647011937E+03  0.48966312830E+03  0.10100000352E+00 0. -1.
</event>
<event>
 5   0  0.1526126E-03  0.1494423E+04  0.7818609E-02  0.8888170E-01
       -2   -1    0    0    0  501  0.00000000000E+00  0.00000000000E+00  0.39290460753E+03  0.39290460754E+03  0.25500000920E-02 0. -1.
        2   -1    0    0  501    0  0.00000000000E+00  0.00000000000E+00 -0.14210198804E+04  0.14210198804E+04  0.25500000920E-02 0.  1.
    10030    2    1    2    0    0  0.00000000000E+00  0.00000000000E+00 -0.10281152728E+04  0.18139244879E+04  0.14944233114E+04 0.  0.
        2    1    3    3  502    0  0.18318051641E+02 -0.29368773032E+03  0.31961518650E+03  0.43444435939E+03  0.25500000920E-02 0. -1.
       -2    1    3    3    0  502 -0.18318051641E+02  0.29368773032E+03 -0.13477304593E+04  0.13794801285E+04  0.25500000920E-02 0.  1.
</event>
<event>
 5   0  0.1500956E-03  0.1489538E+04  0.7818609E-02  0.8891440E-01
       -2   -1    0    0    0  501  0.00000000000E+00  0.00000000000E+00  0.26204397318E+03  0.26204397319E+03  0.25500000920E-02 0.  1.
        2   -1    0    0  501    0  0.00000000000E+00  0.00000000000E+00 -0.21167459367E+04  0.21167459367E+04  0.25500000920E-02 0. -1.
    10030    2    1    2    0    0  0.00000000000E+00  0.00000000000E+00 -0.18547019635E+04  0.23787899099E+04  0.14895375329E+04 0.  0.
        4    1    3    3  502    0 -0.80572177556E+02  0.60143419106E+03 -0.23774333933E+03  0.65171962551E+03  0.12699999809E+01 0.  1.
       -4    1    3    3    0  502  0.80572177556E+02 -0.60143419106E+03 -0.16169586242E+04  0.17270702844E+04  0.12699999809E+01 0. -1.
</event>
<event>
 5   0  0.7870317E-04  0.1423349E+04  0.7818609E-02  0.8937089E-01
        1   -1    0    0  501    0  0.00000000000E+00  0.00000000000E+00  0.49365193497E+03  0.49365193499E+03  0.50400001928E-02 0. -1.
       -1   -1    0    0    0  501  0.00000000000E+00  0.00000000000E+00 -0.10259873721E+04  0.10259873722E+04  0.50400001928E-02 0.  1.
    10030    2    1    2    0    0  0.00000000000E+00  0.00000000000E+00 -0.53233543718E+03  0.15196393071E+04  0.14233490809E+04 0.  0.
        1    1    3    3  502    0  0.65660883005E+03  0.15343310374E+03 -0.23165738697E+02  0.67469513449E+03  0.50400001928E-02 0. -1.
       -1    1    3    3    0  502 -0.65660883005E+03 -0.15343310374E+03 -0.50916969848E+03  0.84494417266E+03  0.50400001928E-02 0.  1.
</event>
<event>
 5   0  0.7870317E-04  0.1433113E+04  0.7818609E-02  0.8930192E-01
       -1   -1    0    0    0  501  0.00000000000E+00  0.00000000000E+00  0.32194989523E+04  0.32194989523E+04  0.50400001928E-02 0. -1.
        1   -1    0    0  501    0  0.00000000000E+00  0.00000000000E+00 -0.15948234580E+03  0.15948234588E+03  0.50400001928E-02 0.  1.
    10030    2    1    2    0    0  0.00000000000E+00  0.00000000000E+00  0.30600166065E+04  0.33789812981E+04  0.14331130386E+04 0.  0.
        1    1    3    3  502    0  0.38027919501E+03  0.34948671147E+03  0.27010973825E+04  0.27500327812E+04  0.50400001928E-02 0. -1.
       -1    1    3    3    0  502 -0.38027919501E+03 -0.34948671147E+03  0.35891922394E+03  0.62894851696E+03  0.50400001928E-02 0.  1.
</event>
<event>
 5   0  0.1552067E-03  0.1468876E+04  0.7818609E-02  0.8905418E-01
        2   -1    0    0  501    0  0.00000000000E+00  0.00000000000E+00  0.27967191107E+04  0.27967191107E+04  0.25500000920E-02 0.  1.
       -2   -1    0    0    0  501  0.00000000000E+00  0.00000000000E+00 -0.19286857288E+03  0.19286857289E+03  0.25500000920E-02 0. -1.
    10030    2    1    2    0    0  0.00000000000E+00  0.00000000000E+00  0.26038505378E+04  0.29895876836E+04  0.14688760651E+04 0.  0.
        3    1    3    3  502    0 -0.43323459770E+02 -0.73305596042E+03  0.12768945070E+04  0.14729927208E+04  0.10100000352E+00 0.  1.
       -3    1    3    3    0  502  0.43323459770E+02  0.73305596042E+03  0.13269560308E+04  0.15165949628E+04  0.10100000352E+00 0. -1.
</event>
<event>
 5   0  0.8306301E-04  0.1399359E+04  0.7818609E-02  0.8954282E-01
       -1   -1    0    0    0  501  0.00000000000E+00  0.00000000000E+00  0.69260149582E+03  0.69260149584E+03  0.50400001928E-02 0.  1.
        1   -1    0    0  501    0  0.00000000000E+00  0.00000000000E+00 -0.70683012392E+03  0.70683012394E+03  0.50400001928E-02 0. -1.
    10030    2    1    2    0    0  0.00000000000E+00  0.00000000000E+00 -0.14228628094E+02  0.13994316198E+04  0.13993592836E+04 0.  0.
        4    1    3    3  502    0 -0.17711409926E+02  0.52131146152E+03  0.45924728173E+03  0.69497410932E+03  0.12699999809E+01 0.  1.
       -4    1    3    3    0  502  0.17711409926E+02 -0.52131146152E+03 -0.47347590982E+03  0.70445751045E+03  0.12699999809E+01 0. -1.
</event>
<event>
 5   0  0.7870317E-04  0.1505972E+04  0.7818609E-02  0.8880491E-01
        1   -1    0    0  501    0  0.00000000000E+00  0.00000000000E+00  0.65367021980E+03  0.65367021982E+03  0.50400001928E-02 0.  1.
       -1   -1    0    0    0  501  0.00000000000E+00  0.00000000000E+00 -0.86739111657E+03  0.86739111658E+03  0.50400001928E-02 0. -1.
    10030    2    1    2    0    0  0.00000000000E+00  0.00000000000E+00 -0.21372089677E+03  0.15210613364E+04  0.15059717685E+04 0.  0.
        1    1    3    3  502    0 -0.17979770394E+03 -0.32993658980E+03 -0.76593407914E+03  0.85313561715E+03  0.50400001928E-02 0. -1.
       -1    1    3    3    0  502  0.17979770394E+03  0.32993658980E+03  0.55221318238E+03  0.66792571926E+03  0.50400001928E-02 0.  1.
</event>
<event>
 5   0  0.7870317E-04  0.1489120E+04  0.7818609E-02  0.8891721E-01
       -1   -1    0    0    0  501  0.00000000000E+00  0.00000000000E+00  0.48409055788E+03  0.48409055791E+03  0.50400001928E-02 0. -1.
        1   -1    0    0  501    0  0.00000000000E+00  0.00000000000E+00 -0.11451771160E+04  0.11451771160E+04  0.50400001928E-02 0.  1.
    10030    2    1    2    0    0  0.00000000000E+00  0.00000000000E+00 -0.66108655810E+03  0.16292676739E+04  0.14891197789E+04 0.  0.
        1    1    3    3  502    0  0.34814004233E+02  0.12896254148E+02  0.48307721590E+03  0.48450172838E+03  0.50400001928E-02 0. -1.
       -1    1    3    3    0  502 -0.34814004233E+02 -0.12896254148E+02 -0.11441637740E+04  0.11447659455E+04  0.50400001928E-02 0.  1.
</event>
<event>
 5   0  0.8365016E-04  0.1640614E+04  0.7818609E-02  0.8795978E-01
       -1   -1    0    0    0  501  0.00000000000E+00  0.00000000000E+00  0.54420506323E+03  0.54420506325E+03  0.50400001928E-02 0.  1.
        1   -1    0    0  501    0  0.00000000000E+00  0.00000000000E+00 -0.12364895054E+04  0.12364895054E+04  0.50400001928E-02 0. -1.
    10030    2    1    2    0    0  0.00000000000E+00  0.00000000000E+00 -0.69228444220E+03  0.17806945687E+04  0.16406143356E+04 0.  0.
        3    1    3    3  502    0 -0.67056444355E+03  0.23837711023E+03  0.96640110976E+02  0.71820584855E+03  0.10100000352E+00 0.  1.
       -3    1    3    3    0  502  0.67056444355E+03 -0.23837711023E+03 -0.78892455318E+03  0.10624887201E+04  0.10100000352E+00 0. -1.
</event>
<event>
 5   0  0.5603875E-04  0.1498821E+04  0.7818609E-02  0.8885237E-01
       -4   -1    0    0    0  501  0.00000000000E+00  0.00000000000E+00  0.11850447609E+04  0.11850454415E+04  0.12699999809E+01 0. -1.
        4   -1    0    0  501    0  0.00000000000E+00  0.00000000000E+00 -0.47391798964E+03  0.47391969130E+03  0.12699999809E+01 0.  1.
    10030    2    1    2    0    0  0.00000000000E+00  0.00000000000E+00  0.71112677130E+03  0.16589651328E+04  0.14988208788E+04 0.  0.
        2    1    3    3  502    0 -0.37066075702E+03  0.64952789339E+03  0.30201984209E+03  0.80653075955E+03  0.25500000920E-02 0.  1.
       -2    1    3    3    0  502  0.37066075702E+03 -0.64952789339E+03  0.40910692922E+03  0.85243437321E+03  0.25500000920E-02 0. -1.
</event>
<event>
 5   0  0.8306301E-04  0.1503099E+04  0.7818609E-02  0.8882395E-01
        1   -1    0    0  501    0  0.00000000000E+00  0.00000000000E+00  0.67102098580E+03  0.67102098582E+03  0.50400001928E-02 0. -1.
       -1   -1    0    0    0  501  0.00000000000E+00  0.00000000000E+00 -0.84174180661E+03  0.84174180663E+03  0.50400001928E-02 0.  1.
    10030    2    1    2    0    0  0.00000000000E+00  0.00000000000E+00 -0.17072082081E+03  0.15127627924E+04  0.15030986886E+04 0.  0.
        4    1    3    3  502    0  0.68760872830E+03 -0.27933350376E+03 -0.20440801657E+03  0.76981635453E+03  0.12699999809E+01 0.  1.
       -4    1    3    3    0  502 -0.68760872830E+03  0.27933350376E+03  0.33687195760E+02  0.74294643792E+03  0.12699999809E+01 0. -1.
</event>
<event>
 5   0  0.7870317E-04  0.1497314E+04  0.7818609E-02  0.8886241E-01
        1   -1    0    0  501    0  0.00000000000E+00  0.00000000000E+00  0.89823362711E+03  0.89823362713E+03  0.50400001928E-02 0.  1.
       -1   -1    0    0    0  501  0.00000000000E+00  0.00000000000E+00 -0.62398811957E+03  0.62398811959E+03  0.50400001928E-02 0. -1.
    10030    2    1    2    0    0  0.00000000000E+00  0.00000000000E+00  0.27424550754E+03  0.15222217467E+04  0.14973137439E+04 0.  0.
        1    1    3    3  502    0 -0.61142469482E+02 -0.29130847278E+03  0.83549121230E+03  0.88692986969E+03  0.50400001928E-02 0.  1.
       -1    1    3    3    0  502  0.61142469482E+02  0.29130847278E+03 -0.56124570476E+03  0.63529187703E+03  0.50400001928E-02 0. -1.
</event>
<event>
 5   0  0.7870317E-04  0.1498875E+04  0.7818609E-02  0.8885201E-01
       -1   -1    0    0    0  501  0.00000000000E+00  0.00000000000E+00  0.87739407163E+03  0.87739407165E+03  0.50400001928E-02 0.  1.
        1   -1    0    0  501    0  0.00000000000E+00  0.00000000000E+00 -0.64014200626E+03  0.64014200628E+03  0.50400001928E-02 0. -1.
    10030    2    1    2    0    0  0.00000000000E+00  0.00000000000E+00  0.23725206537E+03  0.15175360779E+04  0.14988753135E+04 0.  0.
        1    1    3    3  502    0  0.82394744837E+02  0.64044686369E+03  0.50375072445E+03  0.81897855381E+03  0.50400001928E-02 0.  1.
       -1    1    3    3    0  502 -0.82394744837E+02 -0.64044686369E+03 -0.26649865908E+03  0.69855752412E+03  0.50400001928E-02 0. -1.
</event>
<event>
 5   0  0.1484056E-03  0.1490250E+04  0.7818609E-02  0.8890963E-01
       -2   -1    0    0    0  501  0.00000000000E+00  0.00000000000E+00  0.61264565862E+03  0.61264565863E+03  0.25500000920E-02 0. -1.
        2   -1    0    0  501    0  0.00000000000E+00  0.00000000000E+00 -0.90625135606E+03  0.90625135606E+03  0.25500000920E-02 0.  1.
    10030    2    1    2    0    0  0.00000000000E+00  0.00000000000E+00 -0.29360569744E+03  0.15188970147E+04  0.14902495884E+04 0.  0.
        5    1    3    3  502    0 -0.42728528420E+03 -0.43678407746E+03  0.28781648637E+03  0.67543575878E+03  0.46999998093E+01 0. -1.
       -5    1    3    3    0  502  0.42728528420E+03  0.43678407746E+03 -0.58142218381E+03  0.84346125592E+03  0.46999998093E+01 0.  1.
</event>
<event>
 5   0  0.1500956E-03  0.1524322E+04  0.7818609E-02  0.8868439E-01
       -2   -1    0    0    0  501  0.00000000000E+00  0.00000000000E+00  0.54746197645E+03  0.54746197645E+03  0.25500000920E-02 0.  1.
        2   -1    0    0  501    0  0.00000000000E+00  0.00000000000E+00 -0.10610581923E+04  0.10610581923E+04  0.25500000920E-02 0. -1.
    10030    2    1    2    0    0  0.00000000000E+00  0.00000000000E+00 -0.51359621586E+03  0.16085201688E+04  0.15243215082E+04 0.  0.
        4    1    3    3  502    0 -0.57104342609E+02  0.38032912740E+03 -0.95115375371E+03  0.10259659971E+04  0.12699999809E+01 0. -1.
       -4    1    3    3    0  502  0.57104342609E+02 -0.38032912740E+03  0.43755753785E+03  0.58255417166E+03  0.12699999809E+01 0.  1.
</event>
<event>
 5   0  0.8058234E-04  0.1504893E+04  0.7818609E-02  0.8881206E-01
       -1   -1    0    0    0  501  0.00000000000E+00  0.00000000000E+00  0.34143610740E+03  0.34143610743E+03  0.50400001928E-02 0. -1.
        1   -1    0    0  501    0  0.00000000000E+00  0.00000000000E+00 -0.16582183545E+04  0.16582183545E+04  0.50400001928E-02 0.  1.
    10030    2    1    2    0    0  0.00000000000E+00  0.00000000000E+00 -0.13167822471E+04  0.19996544619E+04  0.15048928470E+04 0.  0.
        5    1    3    3  502    0 -0.29529030504E+03 -0.63948081032E+03 -0.10100041506E+04  0.12313661297E+04  0.46999998093E+01 0. -1.
       -5    1    3    3    0  502  0.29529030504E+03  0.63948081032E+03 -0.30677809646E+03  0.76828833226E+03  0.46999998093E+01 0.  1.
</event>
<event>
 5   0  0.1500956E-03  0.1494998E+04  0.7818609E-02  0.8887786E-01
        2   -1    0    0  501    0  0.00000000000E+00  0.00000000000E+00  0.14542961154E+04  0.14542961154E+04  0.25500000920E-02 0. -1.
       -2   -1    0    0    0  501  0.00000000000E+00  0.00000000000E+00 -0.38420975928E+03  0.38420975929E+03  0.25500000920E-02 0.  1.
    10030    2    1    2    0    0  0.00000000000E+00  0.00000000000E+00  0.10700863561E+04  0.18385058747E+04  0.14949980073E+04 0.  0.
        4    1    3    3  502    0 -0.36714528616E+03  0.57186815961E+03  0.91790382795E+03  0.11420936491E+04  0.12699999809E+01 0. -1.
       -4    1    3    3    0  502  0.36714528616E+03 -0.57186815961E+03  0.15218252816E+03  0.69641222556E+03  0.12699999809E+01 0.  1.
</event>
<event>
 5   0  0.8365016E-04  0.1508603E+04  0.7818609E-02  0.8878752E-01
       -1   -1    0    0    0  501  0.00000000000E+00  0.00000000000E+00  0.71950995742E+03  0.71950995744E+03  0.50400001928E-02 0. -1.
        1   -1    0    0  501    0  0.00000000000E+00  0.00000000000E+00 -0.79077509721E+03  0.79077509722E+03  0.50400001928E-02 0.  1.
    10030    2    1    2    0    0  0.00000000000E+00  0.00000000000E+00 -0.71265139786E+02  0.15102850547E+04  0.15086027397E+04 0.  0.
        3    1    3    3  502    0  0.62636758797E+03 -0.35512338553E+03  0.18938812472E+03  0.74452457729E+03  0.10100000352E+00 0. -1.
       -3    1    3    3    0  502 -0.62636758797E+03  0.35512338553E+03 -0.26065326451E+03  0.76576047737E+03  0.10100000352E+00 0.  1.
</event>
<event>
 5   0  0.1526126E-03  0.1493372E+04  0.7818609E-02  0.8888872E-01
       -2   -1    0    0    0  501  0.00000000000E+00  0.00000000000E+00  0.42406550081E+03  0.42406550082E+03  0.25500000920E-02 0. -1.
        2   -1    0    0  501    0  0.00000000000E+00  0.00000000000E+00 -0.13147501213E+04  0.13147501213E+04  0.25500000920E-02 0.  1.
    10030    2    1    2    0    0  0.00000000000E+00  0.00000000000E+00 -0.89068462052E+03  0.17388156222E+04  0.14933722492E+04 0.  0.
        2    1    3    3  502    0  0.47993734191E+03 -0.54958691510E+03 -0.63001115824E+03  0.96400191334E+03  0.25500000920E-02 0.  1.
       -2    1    3    3    0  502 -0.47993734191E+03  0.54958691510E+03 -0.26067346229E+03  0.77481370881E+03  0.25500000920E-02 0. -1.
</event>
<event>
 5   0  0.1511546E-03  0.1452041E+04  0.7818609E-02  0.8916987E-01
       -2   -1    0    0    0  501  0.00000000000E+00  0.00000000000E+00  0.10419701088E+04  0.10419701088E+04  0.25500000920E-02 0. -1.
        2   -1    0    0  501    0  0.00000000000E+00  0.00000000000E+00 -0.50587416145E+03  0.50587416146E+03  0.25500000920E-02 0.  1.
    10030    2    1    2    0    0  0.00000000000E+00  0.00000000000E+00  0.53609594737E+03  0.15478442703E+04  0.14520409844E+04 0.  0.
        1    1    3    3  502    0  0.11765385556E+03  0.49326996544E+03  0.82189330587E+03  0.96574649613E+03  0.50400001928E-02 0. -1.
       -1    1    3    3    0  502 -0.11765385556E+03 -0.49326996544E+03 -0.28579735850E+03  0.58209777416E+03  0.50400001928E-02 0.  1.
</event>
<event>
 5   0  0.8306301E-04  0.1498183E+04  0.7818609E-02  0.8885662E-01
       -1   -1    0    0    0  501  0.00000000000E+00  0.00000000000E+00  0.81111418340E+03  0.81111418342E+03  0.50400001928E-02 0.  1.
        1   -1    0    0  501    0  0.00000000000E+00  0.00000000000E+00 -0.69181182168E+03  0.69181182170E+03  0.50400001928E-02 0. -1.
    10030    2    1    2    0    0  0.00000000000E+00  0.00000000000E+00  0.11930236172E+03  0.15029260051E+04  0.14981834078E+04 0.  0.
        4    1    3    3  502    0 -0.35273105082E+03 -0.62416379140E+03  0.27744934187E+03  0.76875183441E+03  0.12699999809E+01 0.  1.
       -4    1    3    3    0  502  0.35273105082E+03  0.62416379140E+03 -0.15814698015E+03  0.73417417071E+03  0.12699999809E+01 0. -1.
</event>
<event>
 5   0  0.1511546E-03  0.1553685E+04  0.7818609E-02  0.8849518E-01
        2   -1    0    0  501    0  0.00000000000E+00  0.00000000000E+00  0.91643838776E+03  0.91643838777E+03  0.25500000920E-02 0.  1.
       -2   -1    0    0    0  501  0.00000000000E+00  0.00000000000E+00 -0.65851011436E+03  0.65851011437E+03  0.25500000920E-02 0. -1.
    10030    2    1    2    0    0  0.00000000000E+00  0.00000000000E+00  0.25792827340E+03  0.15749485021E+04  0.15536845852E+04 0.  0.
        1    1    3    3  502    0  0.44869795645E+02  0.71505069000E+03 -0.17543410864E+03  0.73762315197E+03  0.50400001928E-02 0. -1.
       -1    1    3    3    0  502 -0.44869795645E+02 -0.71505069000E+03  0.43336238204E+03  0.83732535016E+03  0.50400001928E-02 0.  1.
</event>
<event>
 5   0  0.8191876E-04  0.1453553E+04  0.7818609E-02  0.8915941E-01
       -1   -1    0    0    0  501  0.00000000000E+00  0.00000000000E+00  0.10543200804E+04  0.10543200804E+04  0.50400001928E-02 0.  1.
        1   -1    0    0  501    0  0.00000000000E+00  0.00000000000E+00 -0.50099013329E+03  0.50099013331E+03  0.50400001928E-02 0. -1.
    10030    2    1    2    0    0  0.00000000000E+00  0.00000000000E+00  0.55332994713E+03  0.15553102137E+04  0.14535528303E+04 0.  0.
        2    1    3    3  502    0  0.23708471939E+03 -0.68701832799E+03  0.27750099812E+03  0.77795253784E+03  0.25500000920E-02 0.  1.
       -2    1    3    3    0  502 -0.23708471939E+03  0.68701832799E+03  0.27582894901E+03  0.77735767590E+03  0.25500000920E-02 0. -1.
</event>
<event>
 5   0  0.1500956E-03  0.1436729E+04  0.7818609E-02  0.8927653E-01
        2   -1    0    0  501    0  0.00000000000E+00  0.00000000000E+00  0.50843402530E+03  0.50843402531E+03  0.25500000920E-02 0. -1.
       -2   -1    0    0    0  501  0.00000000000E+00  0.00000000000E+00 -0.10149744495E+04  0.10149744495E+04  0.25500000920E-02 0.  1.
    10030    2    1    2    0    0  0.00000000000E+00  0.00000000000E+00 -0.50654042415E+03  0.15234084748E+04  0.14367289862E+04 0.  0.
        4    1    3    3  502    0 -0.18063427108E+03  0.64110714585E+03 -0.53857381517E+03  0.85656901627E+03  0.12699999809E+01 0.  1.
       -4    1    3    3    0  502  0.18063427108E+03 -0.64110714585E+03  0.32033391017E+02  0.66683945849E+03  0.12699999809E+01 0. -1.
</event>
<event>
 5   0  0.1552067E-03  0.1522259E+04  0.7818609E-02  0.8869784E-01
        2   -1    0    0  501    0  0.00000000000E+00  0.00000000000E+00  0.14025669961E+04  0.14025669961E+04  0.25500000920E-02 0. -1.
       -2   -1    0    0    0  501  0.00000000000E+00  0.00000000000E+00 -0.41304129844E+03  0.41304129845E+03  0.25500000920E-02 0.  1.
    10030    2    1    2    0    0  0.00000000000E+00  0.00000000000E+00  0.98952569769E+03  0.18156082946E+04  0.15222589704E+04 0.  0.
        3    1    3    3  502    0  0.14468175775E+03 -0.98008935072E+02 -0.38879006648E+03  0.42625847602E+03  0.10100000352E+00 0.  1.
       -3    1    3    3    0  502 -0.14468175775E+03  0.98008935072E+02  0.13783157642E+04  0.13893498186E+04  0.10100000352E+00 0. -1.
</event>
<event>
 5   0  0.8191876E-04  0.1490555E+04  0.7818609E-02  0.8890758E-01
        1   -1    0    0  501    0  0.00000000000E+00  0.00000000000E+00  0.14462640940E+04  0.14462640940E+04  0.50400001928E-02 0.  1.
       -1   -1    0    0    0  501  0.00000000000E+00  0.00000000000E+00 -0.38405064855E+03  0.38405064858E+03  0.50400001928E-02 0. -1.
    10030    2    1    2    0    0  0.00000000000E+00  0.00000000000E+00  0.10622134455E+04  0.18303147426E+04  0.14905551494E+04 0.  0.
        2    1    3    3  502    0  0.53380332989E+02  0.56169384391E+03  0.11290137268E+04  0.12621495274E+04  0.25500000920E-02 0.  1.
       -2    1    3    3    0  502 -0.53380332989E+02 -0.56169384391E+03 -0.66800281274E+02  0.56816521525E+03  0.25500000920E-02 0. -1.
</event>
<event>
 5   0  0.8306301E-04  0.1383633E+04  0.7818609E-02  0.8965752E-01
       -1   -1    0    0    0  501  0.00000000000E+00  0.00000000000E+00  0.22898508037E+04  0.22898508037E+04  0.50400001928E-02 0.  1.
        1   -1    0    0  501    0  0.00000000000E+00  0.00000000000E+00 -0.20901355005E+03  0.20901355011E+03  0.50400001928E-02 0. -1.
    10030    2    1    2    0    0  0.00000000000E+00  0.00000000000E+00  0.20808372537E+04  0.24988643538E+04  0.13836326762E+04 0.  0.
        4    1    3    3  502    0  0.41680595658E+03  0.43141753305E+03  0.16628003861E+04  0.17676976637E+04  0.12699999809E+01 0. -1.
       -4    1    3    3    0  502 -0.41680595658E+03 -0.43141753305E+03  0.41803686759E+03  0.73116669018E+03  0.12699999809E+01 0.  1.
</event>
<event>
 5   0  0.8365016E-04  0.1493594E+04  0.7818609E-02  0.8888724E-01
       -1   -1    0    0    0  501  0.00000000000E+00  0.00000000000E+00  0.11129689355E+04  0.11129689355E+04  0.50400001928E-02 0. -1.
        1   -1    0    0  501    0  0.00000000000E+00  0.00000000000E+00 -0.50109765079E+03  0.50109765081E+03  0.50400001928E-02 0.  1.
    10030    2    1    2    0    0  0.00000000000E+00  0.00000000000E+00  0.61187128473E+03  0.16140665863E+04  0.14935944818E+04 0.  0.
        3    1    3    3  502    0 -0.24955170260E+03  0.69218445271E+03  0.16792086829E+03  0.75471371860E+03  0.10100000352E+00 0. -1.
       -3    1    3    3    0  502  0.24955170260E+03 -0.69218445271E+03  0.44395041644E+03  0.85935286774E+03  0.10100000352E+00 0.  1.
</event>
<event>
 5   0  0.8365016E-04  0.1493519E+04  0.7818609E-02  0.8888774E-01
       -1   -1    0    0    0  501  0.00000000000E+00  0.00000000000E+00  0.65457780316E+03  0.65457780318E+03  0.50400001928E-02 0.  1.
        1   -1    0    0  501    0  0.00000000000E+00  0.00000000000E+00 -0.85192281926E+03  0.85192281927E+03  0.50400001928E-02 0. -1.
    10030    2    1    2    0    0  0.00000000000E+00  0.00000000000E+00 -0.19734501610E+03  0.15065006224E+04  0.14935190223E+04 0.  0.
        3    1    3    3  502    0 -0.27892568217E+02 -0.55367182366E+03  0.40599541544E+03  0.68714101263E+03  0.10100000352E+00 0.  1.
       -3    1    3    3    0  502  0.27892568217E+02  0.55367182366E+03 -0.60334043153E+03  0.81935960982E+03  0.10100000352E+00 0. -1.
</event>
<event>
 5   0  0.1552067E-03  0.1510281E+04  0.7818609E-02  0.8877645E-01
        2   -1    0    0  501    0  0.00000000000E+00  0.00000000000E+00  0.93749387615E+03  0.93749387616E+03  0.25500000920E-02 0. -1.
       -2   -1    0    0    0  501  0.00000000000E+00  0.00000000000E+00 -0.60825704899E+03  0.60825704900E+03  0.25500000920E-02 0.  1.
    10030    2    1    2    0    0  0.00000000000E+00  0.00000000000E+00  0.32923682716E+03  0.15457509252E+04  0.15102811110E+04 0.  0.
        3    1    3    3  502    0 -0.40457104266E+03  0.41315358565E+02 -0.48660524490E+03  0.63416824422E+03  0.10100000352E+00 0.  1.
       -3    1    3    3    0  502  0.40457104266E+03 -0.41315358565E+02  0.81584207207E+03  0.91158268093E+03  0.10100000352E+00 0. -1.
</event>
<event>
 5   0  0.1484056E-03  0.1502323E+04  0.7818609E-02  0.8882910E-01
       -2   -1    0    0    0  501  0.00000000000E+00  0.00000000000E+00  0.89972296210E+03  0.89972296210E+03  0.25500000920E-02 0. -1.
        2   -1    0    0  501    0  0.00000000000E+00  0.00000000000E+00 -0.62713007861E+03  0.62713007862E+03  0.25500000920E-02 0.  1.
    10030    2    1    2    0    0  0.00000000000E+00  0.00000000000E+00  0.27259288348E+03  0.15268530407E+04  0.15023226444E+04 0.  0.
        5    1    3    3  502    0 -0.92761846174E+01 -0.13496199678E+02 -0.62693367418E+03  0.62716514319E+03  0.46999998093E+01 0.  1.
       -5    1    3    3    0  502  0.92761846174E+01  0.13496199678E+02  0.89952655767E+03  0.89968789753E+03  0.46999998093E+01 0. -1.
</event>
<event>
 5   0  0.1526126E-03  0.1516902E+04  0.7818609E-02  0.8873290E-01
        2   -1    0    0  501    0  0.00000000000E+00  0.00000000000E+00  0.10486874816E+04  0.10486874816E+04  0.25500000920E-02 0.  1.
       -2   -1    0    0    0  501  0.00000000000E+00  0.00000000000E+00 -0.54854118768E+03  0.54854118769E+03  0.25500000920E-02 0. -1.
    10030    2    1    2    0    0  0.00000000000E+00  0.00000000000E+00  0.50014629392E+03  0.15972286693E+04  0.15169024710E+04 0.  0.
        2    1    3    3  502    0 -0.27386289674E+03  0.88440570246E+02  0.98896312184E+03  0.10299857655E+04  0.25500000920E-02 0.  1.
       -2    1    3    3    0  502  0.27386289674E+03 -0.88440570246E+02 -0.48881682792E+03  0.56724290383E+03  0.25500000920E-02 0. -1.
</event>
<event>
 5   0  0.7870317E-04  0.1502786E+04  0.7818609E-02  0.8882603E-01
       -1   -1    0    0    0  501  0.00000000000E+00  0.00000000000E+00  0.52902431742E+03  0.52902431744E+03  0.50400001928E-02 0. -1.
        1   -1    0    0  501    0  0.00000000000E+00  0.00000000000E+00 -0.10672309840E+04  0.10672309840E+04  0.50400001928E-02 0.  1.
    10030    2    1    2    0    0  0.00000000000E+00  0.00000000000E+00 -0.53820666660E+03  0.15962553015E+04  0.15027856040E+04 0.  0.
        1    1    3    3  502    0  0.29310802038E+03  0.30517656740E+03 -0.92864688762E+03  0.10205048216E+04  0.50400001928E-02 0.  1.
       -1    1    3    3    0  502 -0.29310802038E+03 -0.30517656740E+03  0.39044022102E+03  0.57575047991E+03  0.50400001928E-02 0. -1.
</event>
<event>
 5   0  0.1526126E-03  0.1500495E+04  0.7818609E-02  0.8884124E-01
       -2   -1    0    0    0  501  0.00000000000E+00  0.00000000000E+00  0.43250749678E+03  0.43250749678E+03  0.25500000920E-02 0.  1.
        2   -1    0    0  501    0  0.00000000000E+00  0.00000000000E+00 -0.13014134332E+04  0.13014134332E+04  0.25500000920E-02 0. -1.
    10030    2    1    2    0    0  0.00000000000E+00  0.00000000000E+00 -0.86890593641E+03  0.17339209300E+04  0.15004946735E+04 0.  0.
        2    1    3    3  502    0 -0.14207021047E+03 -0.21990801527E+03  0.37800752953E+03  0.45981862975E+03  0.25500000920E-02 0.  1.
       -2    1    3    3    0  502  0.14207021047E+03  0.21990801527E+03 -0.12469134659E+04  0.12741023002E+04  0.25500000920E-02 0. -1.
</event>
<event>
 5   0  0.7870317E-04  0.1413112E+04  0.7818609E-02  0.8944382E-01
        1   -1    0    0  501    0  0.00000000000E+00  0.00000000000E+00  0.19367126369E+04  0.19367126369E+04  0.50400001928E-02 0. -1.
       -1   -1    0    0    0  501  0.00000000000E+00  0.00000000000E+00 -0.25776742561E+03  0.25776742566E+03  0.50400001928E-02 0.  1.
    10030    2    1    2    0    0  0.00000000000E+00  0.00000000000E+00  0.16789452113E+04  0.21944800626E+04  0.14131120700E+04 0.  0.
        1    1    3    3  502    0 -0.36713740048E+03 -0.11253351426E+03  0.17605222838E+04  0.18019135313E+04  0.50400001928E-02 0. -1.
       -1    1    3    3    0  502  0.36713740048E+03  0.11253351426E+03 -0.81577072494E+02  0.39256653123E+03  0.50400001928E-02 0.  1.
</event>
<event>
 5   0  0.8058234E-04  0.1487873E+04  0.7818609E-02  0.8892557E-01
       -1   -1    0    0    0  501  0.00000000000E+00  0.00000000000E+00  0.12784890440E+04  0.12784890440E+04  0.50400001928E-02 0. -1.
        1   -1    0    0  501    0  0.00000000000E+00  0.00000000000E+00 -0.43288726487E+03  0.43288726490E+03  0.50400001928E-02 0.  1.
    10030    2    1    2    0    0  0.00000000000E+00  0.00000000000E+00  0.84560177914E+03  0.17113763089E+04  0.14878731471E+04 0.  0.
        5    1    3    3  502    0  0.11713401610E+02 -0.16954194091E+03  0.12558450622E+04  0.12673005104E+04  0.46999998093E+01 0. -1.
       -5    1    3    3    0  502 -0.11713401610E+02  0.16954194091E+03 -0.41024328306E+03  0.44407579848E+03  0.46999998093E+01 0.  1.
</event>
<event>
 5   0  0.1500956E-03  0.1515056E+04  0.7818609E-02  0.8874502E-01
        2   -1    0    0  501    0  0.00000000000E+00  0.00000000000E+00  0.51232867891E+03  0.51232867891E+03  0.25500000920E-02 0.  1.
       -2   -1    0    0    0  501  0.00000000000E+00  0.00000000000E+00 -0.11200787942E+04  0.11200787942E+04  0.25500000920E-02 0. -1.
    10030    2    1    2    0    0  0.00000000000E+00  0.00000000000E+00 -0.60775011530E+03  0.16324074731E+04  0.15150557599E+04 0.  0.
        4    1    3    3  502    0 -0.25671435918E+03 -0.26061956860E+03  0.41084699032E+03  0.55011061079E+03  0.12699999809E+01 0.  1.
       -4    1    3    3    0  502  0.25671435918E+03  0.26061956860E+03 -0.10185971056E+04  0.10822968623E+04  0.12699999809E+01 0. -1.
</event>
<event>
 5   0  0.8365016E-04  0.1386454E+04  0.7818609E-02  0.8963682E-01
        1   -1    0    0  501    0  0.00000000000E+00  0.00000000000E+00  0.12474281993E+04  0.12474281993E+04  0.50400001928E-02 0. -1.
       -1   -1    0    0    0  501  0.00000000000E+00  0.00000000000E+00 -0.38524381362E+03  0.38524381365E+03  0.50400001928E-02 0.  1.
    10030    2    1    2    0    0  0.00000000000E+00  0.00000000000E+00  0.86218438571E+03  0.16326720130E+04  0.13864544663E+04 0.  0.
        3    1    3    3  502    0  0.39111688532E+03  0.33397935980E+03 -0.11626373386E+03  0.52728730003E+03  0.10100000352E+00 0.  1.
       -3    1    3    3    0  502 -0.39111688532E+03 -0.33397935980E+03  0.97844811957E+03  0.11053847130E+04  0.10100000352E+00 0. -1.
</event>
<event>
 5   0  0.5603875E-04  0.1523056E+04  0.7818609E-02  0.8869264E-01
        3   -1    0    0  501    0  0.00000000000E+00  0.00000000000E+00  0.20243370587E+04  0.20243370612E+04  0.10100000352E+00 0.  1.
       -3   -1    0    0    0  501  0.00000000000E+00  0.00000000000E+00 -0.28647626376E+03  0.28647628156E+03  0.10100000352E+00 0. -1.
    10030    2    1    2    0    0  0.00000000000E+00  0.00000000000E+00  0.17378607949E+04  0.23108133427E+04  0.15230555350E+04 0.  0.
        1    1    3    3  502    0  0.63353236978E+03 -0.35514629670E+03  0.12163456919E+04  0.14166823913E+04  0.50400001928E-02 0.  1.
       -1    1    3    3    0  502 -0.63353236978E+03  0.35514629670E+03  0.52151510299E+03  0.89413095142E+03  0.50400001928E-02 0. -1.
</event>
<event>
 5   0  0.7870317E-04  0.1534892E+04  0.7818609E-02  0.8861576E-01
       -1   -1    0    0    0  501  0.00000000000E+00  0.00000000000E+00  0.86301466451E+03  0.86301466453E+03  0.50400001928E-02 0.  1.
        1   -1    0    0  501    0  0.00000000000E+00  0.00000000000E+00 -0.68246007263E+03  0.68246007265E+03  0.50400001928E-02 0. -1.
    10030    2    1    2    0    0  0.00000000000E+00  0.00000000000E+00  0.18055459188E+03  0.15454747372E+04  0.15348915931E+04 0.  0.
        1    1    3    3  502    0 -0.28055853722E+02  0.55738316677E+03  0.62070165840E+03  0.83470574114E+03  0.50400001928E-02 0.  1.
       -1    1    3    3    0  502  0.28055853722E+02 -0.55738316677E+03 -0.44014706652E+03  0.71076899603E+03  0.50400001928E-02 0. -1.
</event>
<event>
 5   0  0.8191876E-04  0.1155619E+04  0.7818609E-02  0.9152615E-01
        1   -1    0    0  501    0  0.00000000000E+00  0.00000000000E+00  0.15657336349E+04  0.15657336349E+04  0.50400001928E-02 0.  1.
       -1   -1    0    0    0  501  0.00000000000E+00  0.00000000000E+00 -0.21323168602E+03  0.21323168607E+03  0.50400001928E-02 0. -1.
    10030    2    1    2    0    0  0.00000000000E+00  0.00000000000E+00  0.13525019489E+04  0.17789653210E+04  0.11556193541E+04 0.  0.
        2    1    3    3  502    0  0.30152988095E+03 -0.23001633246E+03  0.51762364275E+01  0.37928165752E+03  0.25500000920E-02 0. -1.
       -2    1    3    3    0  502 -0.30152988095E+03  0.23001633246E+03  0.13473257125E+04  0.13996836635E+04  0.25500000920E-02 0.  1.
</event>
<event>
 5   0  0.8306301E-04  0.1563894E+04  0.7818609E-02  0.8843041E-01
        1   -1    0    0  501    0  0.00000000000E+00  0.00000000000E+00  0.11697626886E+04  0.11697626886E+04  0.50400001928E-02 0. -1.
       -1   -1    0    0    0  501  0.00000000000E+00  0.00000000000E+00 -0.52270544409E+03  0.52270544412E+03  0.50400001928E-02 0.  1.
    10030    2    1    2    0    0  0.00000000000E+00  0.00000000000E+00  0.64705724450E+03  0.16924681327E+04  0.15638942748E+04 0.  0.
        4    1    3    3  502    0  0.17699021368E+03  0.62372677828E+02 -0.49797355030E+03  0.53216083694E+03  0.12699999809E+01 0.  1.
       -4    1    3    3    0  502 -0.17699021368E+03 -0.62372677828E+02  0.11450307948E+04  0.11603072958E+04  0.12699999809E+01 0. -1.
</event>
<event>
 5   0  0.5603875E-04  0.1338292E+04  0.7818609E-02  0.8999739E-01
       -3   -1    0    0    0  501  0.00000000000E+00  0.00000000000E+00  0.33007314868E+03  0.33007316413E+03  0.10100000352E+00 0. -1.
        3   -1    0    0  501    0  0.00000000000E+00  0.00000000000E+00 -0.13565360735E+04  0.13565360773E+04  0.10100000352E+00 0.  1.
    10030    2    1    2    0    0  0.00000000000E+00  0.00000000000E+00 -0.10264629248E+04  0.16866092414E+04  0.13382916712E+04 0.  0.
        2    1    3    3  502    0 -0.53132905129E+03 -0.38795267253E+03 -0.66726470902E+03  0.93704857333E+03  0.25500000920E-02 0. -1.
       -2    1    3    3    0  502  0.53132905129E+03  0.38795267253E+03 -0.35919821582E+03  0.74956066807E+03  0.25500000920E-02 0.  1.
</event>
<event>
 5   0  0.1511546E-03  0.1504804E+04  0.7818609E-02  0.8881265E-01
       -2   -1    0    0    0  501  0.00000000000E+00  0.00000000000E+00  0.43479401417E+03  0.43479401418E+03  0.25500000920E-02 0.  1.
        2   -1    0    0  501    0  0.00000000000E+00  0.00000000000E+00 -0.13020152750E+04  0.13020152750E+04  0.25500000920E-02 0. -1.
    10030    2    1    2    0    0  0.00000000000E+00  0.00000000000E+00 -0.86722126084E+03  0.17368092892E+04  0.15048035725E+04 0.  0.
        1    1    3    3  502    0  0.21316229501E+03  0.59039345330E+03  0.45207009001E+02  0.62932206969E+03  0.50400001928E-02 0.  1.
       -1    1    3    3    0  502 -0.21316229501E+03 -0.59039345330E+03 -0.91242826984E+03  0.11074872195E+04  0.50400001928E-02 0. -1.
</event>
<event>
 5   0  0.8191876E-04  0.1421725E+04  0.7818609E-02  0.8938242E-01
        1   -1    0    0  501    0  0.00000000000E+00  0.00000000000E+00  0.35627636437E+03  0.35627636441E+03  0.50400001928E-02 0. -1.
       -1   -1    0    0    0  501  0.00000000000E+00  0.00000000000E+00 -0.14183517172E+04  0.14183517172E+04  0.50400001928E-02 0.  1.
    10030    2    1    2    0    0  0.00000000000E+00  0.00000000000E+00 -0.10620753528E+04  0.17746280816E+04  0.14217245770E+04 0.  0.
        2    1    3    3  502    0  0.43923156315E+03 -0.33468474792E+03  0.27723975223E+02  0.55290764633E+03  0.25500000920E-02 0. -1.
       -2    1    3    3    0  502 -0.43923156315E+03  0.33468474792E+03 -0.10897993280E+04  0.12217204353E+04  0.25500000920E-02 0.  1.
</event>
<event>
 5   0  0.1552067E-03  0.1489321E+04  0.7818609E-02  0.8891585E-01
        2   -1    0    0  501    0  0.00000000000E+00  0.00000000000E+00  0.74829813832E+03  0.74829813832E+03  0.25500000920E-02 0. -1.
       -2   -1    0    0    0  501  0.00000000000E+00  0.00000000000E+00 -0.74104063050E+03  0.74104063050E+03  0.25500000920E-02 0.  1.
    10030    2    1    2    0    0  0.00000000000E+00  0.00000000000E+00  0.72575078218E+01  0.14893387688E+04  0.14893210859E+04 0.  0.
        3    1    3    3  502    0  0.36519134585E+03  0.22663808492E+03  0.61173939729E+03  0.74763269124E+03  0.10100000352E+00 0. -1.
       -3    1    3    3    0  502 -0.36519134585E+03 -0.22663808492E+03 -0.60448188947E+03  0.74170607758E+03  0.10100000352E+00 0.  1.
</event>
<event>
 5   0  0.8306301E-04  0.1477783E+04  0.7818609E-02  0.8899363E-01
        1   -1    0    0  501    0  0.00000000000E+00  0.00000000000E+00  0.70269170126E+03  0.70269170128E+03  0.50400001928E-02 0. -1.
       -1   -1    0    0    0  501  0.00000000000E+00  0.00000000000E+00 -0.77695565654E+03  0.77695565655E+03  0.50400001928E-02 0.  1.
    10030    2    1    2    0    0  0.00000000000E+00  0.00000000000E+00 -0.74263955276E+02  0.14796473578E+04  0.14777825173E+04 0.  0.
        4    1    3    3  502    0  0.29040896776E+03 -0.66181826933E+03  0.11674308317E+03  0.73210064236E+03  0.12699999809E+01 0. -1.
       -4    1    3    3    0  502 -0.29040896776E+03  0.66181826933E+03 -0.19100703844E+03  0.74754671547E+03  0.12699999809E+01 0.  1.
</event>
<event>
 5   0  0.1511546E-03  0.1485493E+04  0.7818609E-02  0.8894158E-01
       -2   -1    0    0    0  501  0.00000000000E+00  0.00000000000E+00  0.26750386893E+03  0.26750386894E+03  0.25500000920E-02 0. -1.
        2   -1    0    0  501    0  0.00000000000E+00  0.00000000000E+00 -0.20622957531E+04  0.20622957531E+04  0.25500000920E-02 0.  1.
    10030    2    1    2    0    0  0.00000000000E+00  0.00000000000E+00 -0.17947918842E+04  0.23297996221E+04  0.14854926359E+04 0.  0.
        1    1    3    3  502    0 -0.52010176067E+03  0.14625884639E+03 -0.98028582758E+02  0.54909661687E+03  0.50400001928E-02 0. -1.
       -1    1    3    3    0  502  0.52010176067E+03 -0.14625884639E+03 -0.16967633015E+04  0.17807030052E+04  0.50400001928E-02 0.  1.
</event>
<event>
 5   0  0.8365016E-04  0.1495099E+04  0.7818609E-02  0.8887718E-01
        1   -1    0    0  501    0  0.00000000000E+00  0.00000000000E+00  0.49117953092E+03  0.49117953095E+03  0.50400001928E-02 0. -1.
       -1   -1    0    0    0  501  0.00000000000E+00  0.00000000000E+00 -0.11377313724E+04  0.11377313724E+04  0.50400001928E-02 0.  1.
    10030    2    1    2    0    0  0.00000000000E+00  0.00000000000E+00 -0.64655184147E+03  0.16289109034E+04  0.14950991430E+04 0.  0.
        3    1    3    3  502    0 -0.71529627345E+03  0.17597102665E+02 -0.55915193370E+03  0.90808001409E+03  0.10100000352E+00 0.  1.
       -3    1    3    3    0  502  0.71529627345E+03 -0.17597102665E+02 -0.87399907772E+02  0.72083088926E+03  0.10100000352E+00 0. -1.
</event>
<event>
 5   0  0.1500956E-03  0.1415194E+04  0.7818609E-02  0.8942893E-01
       -2   -1    0    0    0  501  0.00000000000E+00  0.00000000000E+00  0.74347642287E+03  0.74347642288E+03  0.25500000920E-02 0.  1.
        2   -1    0    0  501    0  0.00000000000E+00  0.00000000000E+00 -0.67344885518E+03  0.67344885519E+03  0.25500000920E-02 0. -1.
    10030    2    1    2    0    0  0.00000000000E+00  0.00000000000E+00  0.70027567688E+02  0.14169252781E+04  0.14151937618E+04 0.  0.
        4    1    3    3  502    0  0.66454102834E+03  0.24294061440E+03  0.42560411033E+02  0.70883560997E+03  0.12699999809E+01 0.  1.
       -4    1    3    3    0  502 -0.66454102834E+03 -0.24294061440E+03  0.27467156655E+02  0.70808966810E+03  0.12699999809E+01 0. -1.
</event>
<event>
 5   0  0.1500956E-03  0.1513583E+04  0.7818609E-02  0.8875470E-01
        2   -1    0    0  501    0  0.00000000000E+00  0.00000000000E+00  0.13467838748E+04  0.13467838748E+04  0.25500000920E-02 0. -1.
       -2   -1    0    0    0  501  0.00000000000E+00  0.00000000000E+00 -0.42526010714E+03  0.42526010714E+03  0.25500000920E-02 0.  1.
    10030    2    1    2    0    0  0.00000000000E+00  0.00000000000E+00  0.92152376768E+03  0.17720439820E+04  0.15135831063E+04 0.  0.
        4    1    3    3  502    0  0.33576375810E+03  0.19146452639E+03 -0.30098513349E+03  0.48988736420E+03  0.12699999809E+01 0.  1.
       -4    1    3    3    0  502 -0.33576375810E+03 -0.19146452639E+03  0.12225089012E+04  0.12821566178E+04  0.12699999809E+01 0. -1.
</event>
<event>
 5   0  0.1484056E-03  0.1488514E+04  0.7818609E-02  0.8892127E-01
       -2   -1    0    0    0  501  0.00000000000E+00  0.00000000000E+00  0.12174653151E+04  0.12174653151E+04  0.25500000920E-02 0. -1.
        2   -1    0    0  501    0  0.00000000000E+00  0.00000000000E+00 -0.45497690275E+03  0.45497690276E+03  0.25500000920E-02 0.  1.
    10030    2    1    2    0    0  0.00000000000E+00  0.00000000000E+00  0.76248841236E+03  0.16724422179E+04  0.14885141562E+04 0.  0.
        5    1    3    3  502    0 -0.28156073594E+03 -0.18317661323E+03  0.11274354261E+04  0.11764195042E+04  0.46999998093E+01 0. -1.
       -5    1    3    3    0  502  0.28156073594E+03  0.18317661323E+03 -0.36494701377E+03  0.49602271371E+03  0.46999998093E+01 0.  1.
</event>
<event>
 5   0  0.1526126E-03  0.1512867E+04  0.7818609E-02  0.8875941E-01
        2   -1    0    0  501    0  0.00000000000E+00  0.00000000000E+00  0.22128102955E+04  0.22128102955E+04  0.25500000920E-02 0.  1.
       -2   -1    0    0    0  501  0.00000000000E+00  0.00000000000E+00 -0.25858146587E+03  0.25858146588E+03  0.25500000920E-02 0. -1.
    10030    2    1    2    0    0  0.00000000000E+00  0.00000000000E+00  0.19542288297E+04  0.24713917614E+04  0.15128671190E+04 0.  0.
        2    1    3    3  502    0 -0.59101444065E+03 -0.19447081733E+03  0.16798863511E+04  0.17914059061E+04  0.25500000920E-02 0.  1.
       -2    1    3    3    0  502  0.59101444065E+03  0.19447081733E+03  0.27434247854E+03  0.67998585528E+03  0.25500000920E-02 0. -1.
</event>
<event>
 5   0  0.1552067E-03  0.1497554E+04  0.7818609E-02  0.8886081E-01
       -2   -1    0    0    0  501  0.00000000000E+00  0.00000000000E+00  0.11912655571E+04  0.11912655571E+04  0.25500000920E-02 0. -1.
        2   -1    0    0  501    0  0.00000000000E+00  0.00000000000E+00 -0.47064802067E+03  0.47064802068E+03  0.25500000920E-02 0.  1.
    10030    2    1    2    0    0  0.00000000000E+00  0.00000000000E+00  0.72061753642E+03  0.16619135778E+04  0.14975537073E+04 0.  0.
        3    1    3    3  502    0 -0.44980730974E+03 -0.54737499931E+03  0.91389534208E+02  0.71435149816E+03  0.10100000352E+00 0.  1.
       -3    1    3    3    0  502  0.44980730974E+03  0.54737499931E+03  0.62922800221E+03  0.94756207962E+03  0.10100000352E+00 0. -1.
</event>
<event>
 5   0  0.1552067E-03  0.1565538E+04  0.7818609E-02  0.8842004E-01
        2   -1    0    0  501    0  0.00000000000E+00  0.00000000000E+00  0.61505635310E+03  0.61505635311E+03  0.25500000920E-02 0. -1.
       -2   -1    0    0    0  501  0.00000000000E+00  0.00000000000E+00 -0.99621279790E+03  0.99621279791E+03  0.25500000920E-02 0.  1.
    10030    2    1    2    0    0  0.00000000000E+00  0.00000000000E+00 -0.38115644480E+03  0.16112691510E+04  0.15655376206E+04 0.  0.
        3    1    3    3  502    0  0.74503442645E+03 -0.22479990542E+03 -0.27739698384E+03  0.82617213153E+03  0.10100000352E+00 0. -1.
       -3    1    3    3    0  502 -0.74503442645E+03  0.22479990542E+03 -0.10375946096E+03  0.78509701949E+03  0.10100000352E+00 0.  1.
</event>
<event>
 5   0  0.1526126E-03  0.1455462E+04  0.7818609E-02  0.8914623E-01
        2   -1    0    0  501    0  0.00000000000E+00  0.00000000000E+00  0.99753129466E+03  0.99753129466E+03  0.25500000920E-02 0.  1.
       -2   -1    0    0    0  501  0.00000000000E+00  0.00000000000E+00 -0.53090273986E+03  0.53090273987E+03  0.25500000920E-02 0. -1.
    10030    2    1    2    0    0  0.00000000000E+00  0.00000000000E+00  0.46662855480E+03  0.15284340345E+04  0.14554615727E+04 0.  0.
        2    1    3    3  502    0 -0.53944043889E+03  0.16651357923E+03 -0.24891400039E+03  0.61699346737E+03  0.25500000920E-02 0. -1.
       -2    1    3    3    0  502  0.53944043889E+03 -0.16651357923E+03  0.71554255519E+03  0.91144056716E+03  0.25500000920E-02 0.  1.
</event>
<event>
 5   0  0.5603875E-04  0.1527601E+04  0.7818609E-02  0.8866303E-01
       -3   -1    0    0    0  501  0.00000000000E+00  0.00000000000E+00  0.80235333503E+03  0.80235334139E+03  0.10100000352E+00 0. -1.
        3   -1    0    0  501    0  0.00000000000E+00  0.00000000000E+00 -0.72710039285E+03  0.72710039986E+03  0.10100000352E+00 0.  1.
    10030    2    1    2    0    0  0.00000000000E+00  0.00000000000E+00  0.75252942188E+02  0.15294537413E+04  0.15276013031E+04 0.  0.
        3    1    3    3  502    0  0.72304049790E+03 -0.55219407568E+02 -0.20257001511E+03  0.75290860388E+03  0.10100000352E+00 0.  1.
       -3    1    3    3    0  502 -0.72304049790E+03  0.55219407568E+02  0.27782295730E+03  0.77654513737E+03  0.10100000352E+00 0. -1.
</event>
<event>
 5   0  0.5603875E-04  0.1463795E+04  0.7818609E-02  0.8908892E-01
       -4   -1    0    0    0  501  0.00000000000E+00  0.00000000000E+00  0.92904350283E+03  0.92904437088E+03  0.12699999809E+01 0. -1.
        4   -1    0    0  501    0  0.00000000000E+00  0.00000000000E+00 -0.57658494205E+03  0.57658634071E+03  0.12699999809E+01 0.  1.
    10030    2    1    2    0    0  0.00000000000E+00  0.00000000000E+00  0.35245856078E+03  0.15056307116E+04  0.14637953418E+04 0.  0.
        4    1    3    3  502    0  0.50158949194E+03 -0.49288543120E+03  0.38486761605E+03  0.80165626143E+03  0.12699999809E+01 0. -1.
       -4    1    3    3    0  502 -0.50158949194E+03  0.49288543120E+03 -0.32409055266E+02  0.70397445016E+03  0.12699999809E+01 0.  1.
</event>
<event>
 5   0  0.1552067E-03  0.1389671E+04  0.7818609E-02  0.8961329E-01
       -2   -1    0    0    0  501  0.00000000000E+00  0.00000000000E+00  0.86158003001E+03  0.86158003001E+03  0.25500000920E-02 0. -1.
        2   -1    0    0  501    0  0.00000000000E+00  0.00000000000E+00 -0.56036165259E+03  0.56036165259E+03  0.25500000920E-02 0.  1.
    10030    2    1    2    0    0  0.00000000000E+00  0.00000000000E+00  0.30121837742E+03  0.14219416826E+04  0.13896710538E+04 0.  0.
        3    1    3    3  502    0  0.41919383240E+03 -0.50338242890E+03 -0.86458424086E+02  0.66075139662E+03  0.10100000352E+00 0.  1.
       -3    1    3    3    0  502 -0.41919383240E+03  0.50338242890E+03  0.38767680151E+03  0.76119028598E+03  0.10100000352E+00 0. -1.
</event>
<event>
 5   0  0.8306301E-04  0.1277646E+04  0.7818609E-02  0.9047482E-01
       -1   -1    0    0    0  501  0.00000000000E+00  0.00000000000E+00  0.44739869664E+03  0.44739869667E+03  0.50400001928E-02 0. -1.
        1   -1    0    0  501    0  0.00000000000E+00  0.00000000000E+00 -0.91215025724E+03  0.91215025725E+03  0.50400001928E-02 0.  1.
    10030    2    1    2    0    0  0.00000000000E+00  0.00000000000E+00 -0.46475156060E+03  0.13595489539E+04  0.12776460171E+04 0.  0.
        4    1    3    3  502    0  0.25448541558E+03 -0.58451848508E+03 -0.27584203830E+03  0.69463308958E+03  0.12699999809E+01 0.  1.
       -4    1    3    3    0  502 -0.25448541558E+03  0.58451848508E+03 -0.18890952230E+03  0.66491586434E+03  0.12699999809E+01 0. -1.
</event>
<event>
 5   0  0.1511546E-03  0.1044026E+04  0.7818609E-02  0.9261533E-01
       -2   -1    0    0    0  501  0.00000000000E+00  0.00000000000E+00  0.27370407410E+03  0.27370407411E+03  0.25500000920E-02 0. -1.
        2   -1    0    0  501    0  0.00000000000E+00  0.00000000000E+00 -0.99559224394E+03  0.99559224395E+03  0.25500000920E-02 0.  1.
    10030    2    1    2    0    0  0.00000000000E+00  0.00000000000E+00 -0.72188816984E+03  0.12692963181E+04  0.10440261555E+04 0.  0.
        1    1    3    3  502    0 -0.17119938827E+03  0.19427729387E+03  0.19011627470E+03  0.32124304722E+03  0.50400001928E-02 0. -1.
       -1    1    3    3    0  502  0.17119938827E+03 -0.19427729387E+03 -0.91200444454E+03  0.94805327084E+03  0.50400001928E-02 0.  1.
</event>
<event>
 5   0  0.1526126E-03  0.1514097E+04  0.7818609E-02  0.8875133E-01
       -2   -1    0    0    0  501  0.00000000000E+00  0.00000000000E+00  0.61484941932E+03  0.61484941932E+03  0.25500000920E-02 0. -1.
        2   -1    0    0  501    0  0.00000000000E+00  0.00000000000E+00 -0.93213428701E+03  0.93213428701E+03  0.25500000920E-02 0.  1.
    10030    2    1    2    0    0  0.00000000000E+00  0.00000000000E+00 -0.31728486769E+03  0.15469837063E+04  0.15140967276E+04 0.  0.
        2    1    3    3  502    0 -0.24898215248E+03 -0.37003233757E+03  0.46636847518E+03  0.64530271791E+03  0.25500000920E-02 0. -1.
       -2    1    3    3    0  502  0.24898215248E+03  0.37003233757E+03 -0.78365334286E+03  0.90168098842E+03  0.25500000920E-02 0.  1.
</event>
<event>
 5   0  0.8191876E-04  0.1454215E+04  0.7818609E-02  0.8915484E-01
       -1   -1    0    0    0  501  0.00000000000E+00  0.00000000000E+00  0.54670837010E+03  0.54670837012E+03  0.50400001928E-02 0.  1.
        1   -1    0    0  501    0  0.00000000000E+00  0.00000000000E+00 -0.96703325179E+03  0.96703325180E+03  0.50400001928E-02 0. -1.
    10030    2    1    2    0    0  0.00000000000E+00  0.00000000000E+00 -0.42032488169E+03  0.15137416219E+04  0.14542148025E+04 0.  0.
        2    1    3    3  502    0 -0.68241578672E+03  0.17645465077E+03 -0.39595566746E+03  0.80846053728E+03  0.25500000920E-02 0. -1.
       -2    1    3    3    0  502  0.68241578672E+03 -0.17645465077E+03 -0.24369214231E+02  0.70528108464E+03  0.25500000920E-02 0.  1.
</event>
<event>
 5   0  0.1484056E-03  0.1490305E+04  0.7818609E-02  0.8890926E-01
       -2   -1    0    0    0  501  0.00000000000E+00  0.00000000000E+00  0.76794751279E+03  0.76794751279E+03  0.25500000920E-02 0.  1.
        2   -1    0    0  501    0  0.00000000000E+00  0.00000000000E+00 -0.72303394198E+03  0.72303394199E+03  0.25500000920E-02 0. -1.
    10030    2    1    2    0    0  0.00000000000E+00  0.00000000000E+00  0.44913570806E+02  0.14909814548E+04  0.14903048244E+04 0.  0.
        5    1    3    3  502    0 -0.26853778821E+03 -0.68969305174E+03 -0.63843483264E+02  0.74289106177E+03  0.46999998093E+01 0. -1.
       -5    1    3    3    0  502  0.26853778821E+03  0.68969305174E+03  0.10875705407E+03  0.74809039301E+03  0.46999998093E+01 0.  1.
</event>
<event>
 5   0  0.8365016E-04  0.1509017E+04  0.7818609E-02  0.8878479E-01
        1   -1    0    0  501    0  0.00000000000E+00  0.00000000000E+00  0.16908420444E+04  0.16908420444E+04  0.50400001928E-02 0.  1.
       -1   -1    0    0    0  501  0.00000000000E+00  0.00000000000E+00 -0.33668615866E+03  0.33668615870E+03  0.50400001928E-02 0. -1.
    10030    2    1    2    0    0  0.00000000000E+00  0.00000000000E+00  0.13541558858E+04  0.20275282031E+04  0.15090170481E+04 0.  0.
        3    1    3    3  502    0  0.45062971721E+03  0.28982613909E+03 -0.36701713854E+02  0.53704130096E+03  0.10100000352E+00 0. -1.
       -3    1    3    3    0  502 -0.45062971721E+03 -0.28982613909E+03  0.13908575996E+04  0.14904869022E+04  0.10100000352E+00 0.  1.
</event>
<event>
 5   0  0.8365016E-04  0.1519212E+04  0.7818609E-02  0.8871777E-01
       -1   -1    0    0    0  501  0.00000000000E+00  0.00000000000E+00  0.70013084628E+03  0.70013084629E+03  0.50400001928E-02 0. -1.
        1   -1    0    0  501    0  0.00000000000E+00  0.00000000000E+00 -0.82413327419E+03  0.82413327421E+03  0.50400001928E-02 0.  1.
    10030    2    1    2    0    0  0.00000000000E+00  0.00000000000E+00 -0.12400242792E+03  0.15242641205E+04  0.15192118045E+04 0.  0.
        3    1    3    3  502    0 -0.59770311183E+03 -0.20807904237E+03  0.35946149510E+03  0.72784508958E+03  0.10100000352E+00 0. -1.
       -3    1    3    3    0  502  0.59770311183E+03  0.20807904237E+03 -0.48346392302E+03  0.79641903093E+03  0.10100000352E+00 0.  1.
</event>
<event>
 5   0  0.8306301E-04  0.1509146E+04  0.7818609E-02  0.8878394E-01
       -1   -1    0    0    0  501  0.00000000000E+00  0.00000000000E+00  0.11247285699E+04  0.11247285700E+04  0.50400001928E-02 0.  1.
        1   -1    0    0  501    0  0.00000000000E+00  0.00000000000E+00 -0.50623817977E+03  0.50623817980E+03  0.50400001928E-02 0. -1.
    10030    2    1    2    0    0  0.00000000000E+00  0.00000000000E+00  0.61849039017E+03  0.16309667498E+04  0.15091461745E+04 0.  0.
        4    1    3    3  502    0 -0.22925772722E+03  0.68760514162E+03  0.82502209536E+02  0.72949857008E+03  0.12699999809E+01 0. -1.
       -4    1    3    3    0  502  0.22925772722E+03 -0.68760514162E+03  0.53598818064E+03  0.90146817967E+03  0.12699999809E+01 0.  1.
</event>
<event>
 5   0  0.1500956E-03  0.1490499E+04  0.7818609E-02  0.8890796E-01
        2   -1    0    0  501    0  0.00000000000E+00  0.00000000000E+00  0.20585370275E+04  0.20585370275E+04  0.25500000920E-02 0.  1.
       -2   -1    0    0    0  501  0.00000000000E+00  0.00000000000E+00 -0.26980173376E+03  0.26980173377E+03  0.25500000920E-02 0. -1.
    10030    2    1    2    0    0  0.00000000000E+00  0.00000000000E+00  0.17887352937E+04  0.23283387612E+04  0.14904990561E+04 0.  0.
        4    1    3    3  502    0  0.17590489737E+03 -0.36345316821E+02  0.20242155776E+04  0.20321697352E+04  0.12699999809E+01 0.  1.
       -4    1    3    3    0  502 -0.17590489737E+03  0.36345316821E+02 -0.23548028393E+03  0.29616902605E+03  0.12699999809E+01 0. -1.
</event>
<event>
 5   0  0.1526126E-03  0.1547445E+04  0.7818609E-02  0.8853501E-01
       -2   -1    0    0    0  501  0.00000000000E+00  0.00000000000E+00  0.10871084741E+04  0.10871084741E+04  0.25500000920E-02 0. -1.
        2   -1    0    0  501    0  0.00000000000E+00  0.00000000000E+00 -0.55067782966E+03  0.55067782967E+03  0.25500000920E-02 0.  1.
    10030    2    1    2    0    0  0.00000000000E+00  0.00000000000E+00  0.53643064447E+03  0.16377863038E+04  0.15474450364E+04 0.  0.
        2    1    3    3  502    0  0.54913339264E+03 -0.44433417306E+03  0.60234568450E+03  0.92833219480E+03  0.25500000920E-02 0. -1.
       -2    1    3    3    0  502 -0.54913339264E+03  0.44433417306E+03 -0.65915040030E+02  0.70945410900E+03  0.25500000920E-02 0.  1.
</event>
<event>
 5   0  0.1500956E-03  0.1498137E+04  0.7818609E-02  0.8885693E-01
        2   -1    0    0  501    0  0.00000000000E+00  0.00000000000E+00  0.27378663375E+04  0.27378663375E+04  0.25500000920E-02 0.  1.
       -2   -1    0    0    0  501  0.00000000000E+00  0.00000000000E+00 -0.20494190402E+03  0.20494190404E+03  0.25500000920E-02 0. -1.
    10030    2    1    2    0    0  0.00000000000E+00  0.00000000000E+00  0.25329244334E+04  0.29428082415E+04  0.14981368965E+04 0.  0.
        4    1    3    3  502    0  0.50502680805E+03 -0.44610928642E+03  0.19091145952E+04  0.20245458065E+04  0.12699999809E+01 0.  1.
       -4    1    3    3    0  502 -0.50502680805E+03  0.44610928642E+03  0.62380983824E+03  0.91826243496E+03  0.12699999809E+01 0. -1.
</event>
<event>
 5   0  0.1511546E-03  0.1515684E+04  0.7818609E-02  0.8874090E-01
       -2   -1    0    0    0  501  0.00000000000E+00  0.00000000000E+00  0.15784833061E+04  0.15784833061E+04  0.25500000920E-02 0.  1.
        2   -1    0    0  501    0  0.00000000000E+00  0.00000000000E+00 -0.36384556932E+03  0.36384556933E+03  0.25500000920E-02 0. -1.
    10030    2    1    2    0    0  0.00000000000E+00  0.00000000000E+00  0.12146377368E+04  0.19423288755E+04  0.15156835517E+04 0.  0.
        1    1    3    3  502    0  0.10578065607E+03  0.39357723792E+03 -0.21146168890E+03  0.45913901524E+03  0.50400001928E-02 0. -1.
       -1    1    3    3    0  502 -0.10578065607E+03 -0.39357723792E+03  0.14260994257E+04  0.14831898602E+04  0.50400001928E-02 0.  1.
</event>
<event>
 5   0  0.1552067E-03  0.1570669E+04  0.7818609E-02  0.8838772E-01
        2   -1    0    0  501    0  0.00000000000E+00  0.00000000000E+00  0.23488716966E+04  0.23488716966E+04  0.25500000920E-02 0.  1.
       -2   -1    0    0    0  501  0.00000000000E+00  0.00000000000E+00 -0.26257306354E+03  0.26257306356E+03  0.25500000920E-02 0. -1.
    10030    2    1    2    0    0  0.00000000000E+00  0.00000000000E+00  0.20862986330E+04  0.26114447601E+04  0.15706692042E+04 0.  0.
        3    1    3    3  502    0 -0.61983443942E+03  0.27226311362E+02  0.24264009095E+03  0.66619083472E+03  0.10100000352E+00 0. -1.
       -3    1    3    3    0  502  0.61983443942E+03 -0.27226311362E+02  0.18436585421E+04  0.19452539254E+04  0.10100000352E+00 0.  1.
</event>
<event>
 5   0  0.7870317E-04  0.1517454E+04  0.7818609E-02  0.8872928E-01
        1   -1    0    0  501    0  0.00000000000E+00  0.00000000000E+00  0.17294047496E+04  0.17294047497E+04  0.50400001928E-02 0. -1.
       -1   -1    0    0    0  501  0.00000000000E+00  0.00000000000E+00 -0.33287002589E+03  0.33287002593E+03  0.50400001928E-02 0.  1.
    10030    2    1    2    0    0  0.00000000000E+00  0.00000000000E+00  0.13965347237E+04  0.20622747756E+04  0.15174544525E+04 0.  0.
        1    1    3    3  502    0  0.94839090880E+02 -0.67126211514E+03  0.23523744958E+03  0.71758200792E+03  0.50400001928E-02 0.  1.
       -1    1    3    3    0  502 -0.94839090880E+02  0.67126211514E+03  0.11612972742E+04  0.13446927677E+04  0.50400001928E-02 0. -1.
</event>
<event>
 5   0  0.1526126E-03  0.1500370E+04  0.7818609E-02  0.8884207E-01
       -2   -1    0    0    0  501  0.00000000000E+00  0.00000000000E+00  0.63705275565E+03  0.63705275565E+03  0.25500000920E-02 0.  1.
        2   -1    0    0  501    0  0.00000000000E+00  0.00000000000E+00 -0.88340759188E+03  0.88340759188E+03  0.25500000920E-02 0. -1.
    10030    2    1    2    0    0  0.00000000000E+00  0.00000000000E+00 -0.24635483623E+03  0.15204603475E+04  0.15003696088E+04 0.  0.
        2    1    3    3  502    0  0.63347303271E+03  0.15318458620E+03  0.25331269729E+03  0.69922880607E+03  0.25500000920E-02 0.  1.
       -2    1    3    3    0  502 -0.63347303271E+03 -0.15318458620E+03 -0.49966753352E+03  0.82123154146E+03  0.25500000920E-02 0. -1.
</event>
<event>
 5   0  0.8191876E-04  0.1484763E+04  0.7818609E-02  0.8894649E-01
        1   -1    0    0  501    0  0.00000000000E+00  0.00000000000E+00  0.12296680417E+04  0.12296680417E+04  0.50400001928E-02 0. -1.
       -1   -1    0    0    0  501  0.00000000000E+00  0.00000000000E+00 -0.44819463232E+03  0.44819463235E+03  0.50400001928E-02 0.  1.
    10030    2    1    2    0    0  0.00000000000E+00  0.00000000000E+00  0.78147340939E+03  0.16778626741E+04  0.14847634369E+04 0.  0.
        2    1    3    3  502    0 -0.72500621613E+03  0.13227859974E+03  0.28966809214E+03  0.79185809650E+03  0.25500000920E-02 0.  1.
       -2    1    3    3    0  502  0.72500621613E+03 -0.13227859974E+03  0.49180531725E+03  0.88600457756E+03  0.25500000920E-02 0. -1.
</event>
<event>
 5   0  0.1500956E-03  0.1487719E+04  0.7818609E-02  0.8892661E-01
       -2   -1    0    0    0  501  0.00000000000E+00  0.00000000000E+00  0.33531143475E+03  0.33531143476E+03  0.25500000920E-02 0.  1.
        2   -1    0    0  501    0  0.00000000000E+00  0.00000000000E+00 -0.16501887464E+04  0.16501887464E+04  0.25500000920E-02 0. -1.
    10030    2    1    2    0    0  0.00000000000E+00  0.00000000000E+00 -0.13148773116E+04  0.19855001811E+04  0.14877192694E+04 0.  0.
        4    1    3    3  502    0  0.65610513671E+03  0.29345828466E+03 -0.40164955398E+03  0.82335635807E+03  0.12699999809E+01 0.  1.
       -4    1    3    3    0  502 -0.65610513671E+03 -0.29345828466E+03 -0.91322775763E+03  0.11621438231E+04  0.12699999809E+01 0. -1.
</event>
<event>
 5   0  0.1500956E-03  0.1503563E+04  0.7818609E-02  0.8882087E-01
       -2   -1    0    0    0  501  0.00000000000E+00  0.00000000000E+00  0.43798295492E+03  0.43798295493E+03  0.25500000920E-02 0. -1.
        2   -1    0    0  501    0  0.00000000000E+00  0.00000000000E+00 -0.12904051372E+04  0.12904051372E+04  0.25500000920E-02 0.  1.
    10030    2    1    2    0    0  0.00000000000E+00  0.00000000000E+00 -0.85242218227E+03  0.17283880921E+04  0.15035630416E+04 0.  0.
        4    1    3    3  502    0 -0.50874965720E+03 -0.43103639515E+03 -0.27082631817E+02  0.66734823704E+03  0.12699999809E+01 0.  1.
       -4    1    3    3    0  502  0.50874965720E+03  0.43103639515E+03 -0.82533955045E+03  0.10610398551E+04  0.12699999809E+01 0. -1.
</event>
<event>
 5   0  0.7870317E-04  0.1408910E+04  0.7818609E-02  0.8947394E-01
        1   -1    0    0  501    0  0.00000000000E+00  0.00000000000E+00  0.89335480995E+03  0.89335480997E+03  0.50400001928E-02 0. -1.
       -1   -1    0    0    0  501  0.00000000000E+00  0.00000000000E+00 -0.55549826568E+03  0.55549826570E+03  0.50400001928E-02 0.  1.
    10030    2    1    2    0    0  0.00000000000E+00  0.00000000000E+00  0.33785654427E+03  0.14488530757E+04  0.14089102847E+04 0.  0.
        1    1    3    3  502    0  0.64732693944E+03  0.23322606934E+03  0.32430949829E+03  0.76065972462E+03  0.50400001928E-02 0. -1.
       -1    1    3    3    0  502 -0.64732693944E+03 -0.23322606934E+03  0.13547045984E+02  0.68819335105E+03  0.50400001928E-02 0.  1.
</event>
<event>
 5   0  0.8365016E-04  0.1512853E+04  0.7818609E-02  0.8875951E-01
       -1   -1    0    0    0  501  0.00000000000E+00  0.00000000000E+00  0.87262248488E+03  0.87262248489E+03  0.50400001928E-02 0.  1.
        1   -1    0    0  501    0  0.00000000000E+00  0.00000000000E+00 -0.65570274556E+03  0.65570274558E+03  0.50400001928E-02 0. -1.
    10030    2    1    2    0    0  0.00000000000E+00  0.00000000000E+00  0.21691973932E+03  0.15283252305E+04  0.15128528801E+04 0.  0.
        3    1    3    3  502    0 -0.56258551354E+02  0.39522071736E+03 -0.54061921464E+03  0.67203689294E+03  0.10100000352E+00 0. -1.
       -3    1    3    3    0  502  0.56258551354E+02 -0.39522071736E+03  0.75753895395E+03  0.85628833753E+03  0.10100000352E+00 0.  1.
</event>
<event>
 5   0  0.1552067E-03  0.1523183E+04  0.7818609E-02  0.8869181E-01
        2   -1    0    0  501    0  0.00000000000E+00  0.00000000000E+00  0.23557001290E+04  0.23557001290E+04  0.25500000920E-02 0. -1.
       -2   -1    0    0    0  501  0.00000000000E+00  0.00000000000E+00 -0.24622035588E+03  0.24622035589E+03  0.25500000920E-02 0.  1.
    10030    2    1    2    0    0  0.00000000000E+00  0.00000000000E+00  0.21094797731E+04  0.26019204849E+04  0.15231826209E+04 0.  0.
        3    1    3    3  502    0 -0.60440097237E+03 -0.28490374057E+03  0.16789991945E+04  0.18070719361E+04  0.10100000352E+00 0. -1.
       -3    1    3    3    0  502  0.60440097237E+03  0.28490374057E+03  0.43048057864E+03  0.79484854884E+03  0.10100000352E+00 0.  1.
</event>
<event>
 5   0  0.8058234E-04  0.1506589E+04  0.7818609E-02  0.8880083E-01
       -1   -1    0    0    0  501  0.00000000000E+00  0.00000000000E+00  0.89076073956E+03  0.89076073958E+03  0.50400001928E-02 0. -1.
        1   -1    0    0  501    0  0.00000000000E+00  0.00000000000E+00 -0.63704305464E+03  0.63704305466E+03  0.50400001928E-02 0.  1.
    10030    2    1    2    0    0  0.00000000000E+00  0.00000000000E+00  0.25371768492E+03  0.15278037942E+04  0.15065894497E+04 0.  0.
        5    1    3    3  502    0  0.50121035410E+03 -0.23289631593E+02 -0.44290367575E+03  0.66928318520E+03  0.46999998093E+01 0. -1.
       -5    1    3    3    0  502 -0.50121035410E+03  0.23289631593E+02  0.69662136067E+03  0.85852060904E+03  0.46999998093E+01 0.  1.
</event>
<event>
 5   0  0.8306301E-04  0.1522262E+04  0.7818609E-02  0.8869783E-01
       -1   -1    0    0    0  501  0.00000000000E+00  0.00000000000E+00  0.14145794808E+04  0.14145794808E+04  0.50400001928E-02 0.  1.
        1   -1    0    0  501    0  0.00000000000E+00  0.00000000000E+00 -0.40953523241E+03  0.40953523244E+03  0.50400001928E-02 0. -1.
    10030    2    1    2    0    0  0.00000000000E+00  0.00000000000E+00  0.10050442483E+04  0.18241147132E+04  0.15222616548E+04 0.  0.
        4    1    3    3  502    0 -0.26587730583E+03  0.42852419517E+03 -0.18060423272E+03  0.53567082185E+03  0.12699999809E+01 0. -1.
       -4    1    3    3    0  502  0.26587730583E+03 -0.42852419517E+03  0.11856484811E+04  0.12884438914E+04  0.12699999809E+01 0.  1.
</event>
<event>
 5   0  0.1500956E-03  0.1475294E+04  0.7818609E-02  0.8901051E-01
       -2   -1    0    0    0  501  0.00000000000E+00  0.00000000000E+00  0.97849336707E+03  0.97849336707E+03  0.25500000920E-02 0. -1.
        2   -1    0    0  501    0  0.00000000000E+00  0.00000000000E+00 -0.55608231058E+03  0.55608231058E+03  0.25500000920E-02 0.  1.
    10030    2    1    2    0    0  0.00000000000E+00  0.00000000000E+00  0.42241105649E+03  0.15345756777E+04  0.14752936690E+04 0.  0.
        4    1    3    3  502    0 -0.11078564568E+03  0.20711662789E+03 -0.51614250937E+03  0.56707623801E+03  0.12699999809E+01 0.  1.
       -4    1    3    3    0  502  0.11078564568E+03 -0.20711662789E+03  0.93855356586E+03  0.96749943965E+03  0.12699999809E+01 0. -1.
</event>
<event>
 5   0  0.1511546E-03  0.1502639E+04  0.7818609E-02  0.8882700E-01
        2   -1    0    0  501    0  0.00000000000E+00  0.00000000000E+00  0.80258218975E+03  0.80258218975E+03  0.25500000920E-02 0.  1.
       -2   -1    0    0    0  501  0.00000000000E+00  0.00000000000E+00 -0.70333116591E+03  0.70333116592E+03  0.25500000920E-02 0. -1.
    10030    2    1    2    0    0  0.00000000000E+00  0.00000000000E+00  0.99251023838E+02  0.15059133557E+04  0.15026391014E+04 0.  0.
        1    1    3    3  502    0  0.52608461995E+01  0.60792830585E+03 -0.39278466426E+03  0.72379851759E+03  0.50400001928E-02 0. -1.
       -1    1    3    3    0  502 -0.52608461995E+01 -0.60792830585E+03  0.49203568810E+03  0.78211483808E+03  0.50400001928E-02 0.  1.
</event>
<event>
 5   0  0.8191876E-04  0.1517629E+04  0.7818609E-02  0.8872813E-01
       -1   -1    0    0    0  501  0.00000000000E+00  0.00000000000E+00  0.11926528795E+04  0.11926528795E+04  0.50400001928E-02 0. -1.
        1   -1    0    0  501    0  0.00000000000E+00  0.00000000000E+00 -0.48278908549E+03  0.48278908552E+03  0.50400001928E-02 0.  1.
    10030    2    1    2    0    0  0.00000000000E+00  0.00000000000E+00  0.70986379404E+03  0.16754419651E+04  0.15176294581E+04 0.  0.
        2    1    3    3  502    0 -0.25136681998E+03 -0.15361870218E+03 -0.41708195164E+03  0.51062837587E+03  0.25500000920E-02 0.  1.
       -2    1    3    3    0  502  0.25136681998E+03  0.15361870218E+03  0.11269457457E+04  0.11648135892E+04  0.25500000920E-02 0. -1.
</event>
<event>
 5   0  0.1526126E-03  0.1622817E+04  0.7818609E-02  0.8806652E-01
        2   -1    0    0  501    0  0.00000000000E+00  0.00000000000E+00  0.71008927571E+03  0.71008927571E+03  0.25500000920E-02 0.  1.
       -2   -1    0    0    0  501  0.00000000000E+00  0.00000000000E+00 -0.92718465410E+03  0.92718465411E+03  0.25500000920E-02 0. -1.
    10030    2    1    2    0    0  0.00000000000E+00  0.00000000000E+00 -0.21709537840E+03  0.16372739298E+04  0.16228171548E+04 0.  0.
        2    1    3    3  502    0 -0.66479663345E+03  0.45113921098E+03 -0.22314977628E+03  0.83383270156E+03  0.25500000920E-02 0.  1.
       -2    1    3    3    0  502  0.66479663345E+03 -0.45113921098E+03  0.60543978819E+01  0.80344122826E+03  0.25500000920E-02 0. -1.
</event>
<event>
 5   0  0.1511546E-03  0.1505127E+04  0.7818609E-02  0.8881051E-01
        2   -1    0    0  501    0  0.00000000000E+00  0.00000000000E+00  0.14571251051E+04  0.14571251051E+04  0.25500000920E-02 0. -1.
       -2   -1    0    0    0  501  0.00000000000E+00  0.00000000000E+00 -0.38867738094E+03  0.38867738094E+03  0.25500000920E-02 0.  1.
    10030    2    1    2    0    0  0.00000000000E+00  0.00000000000E+00  0.10684477242E+04  0.18458024860E+04  0.15051266652E+04 0.  0.
        1    1    3    3  502    0 -0.13699208782E+03 -0.44388321573E+03  0.12603108712E+04  0.13431986574E+04  0.50400001928E-02 0. -1.
       -1    1    3    3    0  502  0.13699208782E+03  0.44388321573E+03 -0.19186314700E+03  0.50260382861E+03  0.50400001928E-02 0.  1.
</event>
<event>
 5   0  0.1552067E-03  0.1541673E+04  0.7818609E-02  0.8857204E-01
        2   -1    0    0  501    0  0.00000000000E+00  0.00000000000E+00  0.19418421936E+04  0.19418421936E+04  0.25500000920E-02 0.  1.
       -2   -1    0    0    0  501  0.00000000000E+00  0.00000000000E+00 -0.30599255230E+03  0.30599255231E+03  0.25500000920E-02 0. -1.
    10030    2    1    2    0    0  0.00000000000E+00  0.00000000000E+00  0.16358496413E+04  0.22478347459E+04  0.15416734401E+04 0.  0.
        3    1    3    3  502    0  0.33248408517E+03 -0.39010378215E+03 -0.21514412552E+02  0.51301998780E+03  0.10100000352E+00 0. -1.
       -3    1    3    3    0  502 -0.33248408517E+03  0.39010378215E+03  0.16573640539E+04  0.17348147581E+04  0.10100000352E+00 0.  1.
</event>
<event>
 5   0  0.1526126E-03  0.1475064E+04  0.7818609E-02  0.8901206E-01
        2   -1    0    0  501    0  0.00000000000E+00  0.00000000000E+00  0.17111832810E+04  0.17111832810E+04  0.25500000920E-02 0.  1.
       -2   -1    0    0    0  501  0.00000000000E+00  0.00000000000E+00 -0.31788148711E+03  0.31788148712E+03  0.25500000920E-02 0. -1.
    10030    2    1    2    0    0  0.00000000000E+00  0.00000000000E+00  0.13933017939E+04  0.20290647681E+04  0.14750640476E+04 0.  0.
        2    1    3    3  502    0  0.54444411520E+03 -0.49243858504E+03  0.59901075537E+03  0.94748564088E+03  0.25500000920E-02 0. -1.
       -2    1    3    3    0  502 -0.54444411520E+03  0.49243858504E+03  0.79429103849E+03  0.10815791272E+04  0.25500000920E-02 0.  1.
</event>
<event>
 5   0  0.8058234E-04  0.1483398E+04  0.7818609E-02  0.8895569E-01
       -1   -1    0    0    0  501  0.00000000000E+00  0.00000000000E+00  0.22179849753E+03  0.22179849759E+03  0.50400001928E-02 0.  1.
        1   -1    0    0  501    0  0.00000000000E+00  0.00000000000E+00 -0.24802579555E+04  0.24802579555E+04  0.50400001928E-02 0. -1.
    10030    2    1    2    0    0  0.00000000000E+00  0.00000000000E+00 -0.22584594580E+04  0.27020564531E+04  0.14833981099E+04 0.  0.
        5    1    3    3  502    0 -0.48681508841E+03  0.45355703636E+03 -0.53229940981E+03  0.85209604342E+03  0.46999998093E+01 0.  1.
       -5    1    3    3    0  502  0.48681508841E+03 -0.45355703636E+03 -0.17261600482E+04  0.18499604097E+04  0.46999998093E+01 0. -1.
</event>
<event>
 5   0  0.1500956E-03  0.1503346E+04  0.7818609E-02  0.8882231E-01
        2   -1    0    0  501    0  0.00000000000E+00  0.00000000000E+00  0.20109101595E+04  0.20109101595E+04  0.25500000920E-02 0. -1.
       -2   -1    0    0    0  501  0.00000000000E+00  0.00000000000E+00 -0.28097341269E+03  0.28097341271E+03  0.25500000920E-02 0.  1.
    10030    2    1    2    0    0  0.00000000000E+00  0.00000000000E+00  0.17299367468E+04  0.22918835722E+04  0.15033459883E+04 0.  0.
        4    1    3    3  502    0  0.21170346900E+03  0.24604263353E+03  0.18985618604E+04  0.19261085346E+04  0.12699999809E+01 0. -1.
       -4    1    3    3    0  502 -0.21170346900E+03 -0.24604263353E+03 -0.16862511361E+03  0.36577503762E+03  0.12699999809E+01 0.  1.
</event>
<event>
 5   0  0.8365016E-04  0.1505002E+04  0.7818609E-02  0.8881133E-01
        1   -1    0    0  501    0  0.00000000000E+00  0.00000000000E+00  0.10562553042E+04  0.10562553042E+04  0.50400001928E-02 0.  1.
       -1   -1    0    0    0  501  0.00000000000E+00  0.00000000000E+00 -0.53609948151E+03  0.53609948153E+03  0.50400001928E-02 0. -1.
    10030    2    1    2    0    0  0.00000000000E+00  0.00000000000E+00  0.52015582266E+03  0.15923547857E+04  0.15050022205E+04 0.  0.
        3    1    3    3  502    0 -0.57784545148E+03  0.45971982827E+03  0.41344000988E+03  0.84627438710E+03  0.10100000352E+00 0.  1.
       -3    1    3    3    0  502  0.57784545148E+03 -0.45971982827E+03  0.10671581278E+03  0.74608039861E+03  0.10100000352E+00 0. -1.
</event>
<event>
 5   0  0.7870317E-04  0.1483376E+04  0.7818609E-02  0.8895583E-01
        1   -1    0    0  501    0  0.00000000000E+00  0.00000000000E+00  0.73064961737E+03  0.73064961739E+03  0.50400001928E-02 0.  1.
       -1   -1    0    0    0  501  0.00000000000E+00  0.00000000000E+00 -0.75289340324E+03  0.75289340326E+03  0.50400001928E-02 0. -1.
    10030    2    1    2    0    0  0.00000000000E+00  0.00000000000E+00 -0.22243785870E+02  0.14835430207E+04  0.14833762530E+04 0.  0.
        1    1    3    3  502    0  0.69307545814E+03  0.21850441626E+03 -0.15947435886E+03  0.74399586138E+03  0.50400001928E-02 0.  1.
       -1    1    3    3    0  502 -0.69307545814E+03 -0.21850441626E+03  0.13723057299E+03  0.73954715927E+03  0.50400001928E-02 0. -1.
</event>
<event>
 5   0  0.1552067E-03  0.1506453E+04  0.7818609E-02  0.8880173E-01
       -2   -1    0    0    0  501  0.00000000000E+00  0.00000000000E+00  0.10902070660E+04  0.10902070660E+04  0.25500000920E-02 0.  1.
        2   -1    0    0  501    0  0.00000000000E+00  0.00000000000E+00 -0.52040613113E+03  0.52040613113E+03  0.25500000920E-02 0. -1.
    10030    2    1    2    0    0  0.00000000000E+00  0.00000000000E+00  0.56980093485E+03  0.16106131971E+04  0.15064533731E+04 0.  0.
        3    1    3    3  502    0  0.18552135234E+03  0.37392602402E+03 -0.38543698087E+03  0.56815536610E+03  0.10100000352E+00 0. -1.
       -3    1    3    3    0  502 -0.18552135234E+03 -0.37392602402E+03  0.95523791572E+03  0.10424578310E+04  0.10100000352E+00 0.  1.
</event>
<event>
 5   0  0.5603875E-04  0.1484570E+04  0.7818609E-02  0.8894779E-01
        3   -1    0    0  501    0  0.00000000000E+00  0.00000000000E+00  0.11419062155E+04  0.11419062200E+04  0.10100000352E+00 0. -1.
       -3   -1    0    0    0  501  0.00000000000E+00  0.00000000000E+00 -0.48251507815E+03  0.48251508872E+03  0.10100000352E+00 0.  1.
    10030    2    1    2    0    0  0.00000000000E+00  0.00000000000E+00  0.65939113735E+03  0.16244213087E+04  0.14845699431E+04 0.  0.
        1    1    3    3  502    0  0.36779424984E+03 -0.23162534370E+03 -0.32870580482E+03  0.54494992082E+03  0.50400001928E-02 0.  1.
       -1    1    3    3    0  502 -0.36779424984E+03  0.23162534370E+03  0.98809694217E+03  0.10794713879E+04  0.50400001928E-02 0. -1.
</event>
<event>
 5   0  0.8365016E-04  0.1510409E+04  0.7818609E-02  0.8877560E-01
        1   -1    0    0  501    0  0.00000000000E+00  0.00000000000E+00  0.47821767121E+03  0.47821767123E+03  0.50400001928E-02 0.  1.
       -1   -1    0    0    0  501  0.00000000000E+00  0.00000000000E+00 -0.11926238155E+04  0.11926238155E+04  0.50400001928E-02 0. -1.
    10030    2    1    2    0    0  0.00000000000E+00  0.00000000000E+00 -0.71440614430E+03  0.16708414868E+04  0.15104089297E+04 0.  0.
        3    1    3    3  502    0  0.45601270439E+03  0.56371942080E+03 -0.59083934753E+03  0.93531722786E+03  0.10100000352E+00 0.  1.
       -3    1    3    3    0  502 -0.45601270439E+03 -0.56371942080E+03 -0.12356679678E+03  0.73552425889E+03  0.10100000352E+00 0. -1.
</event>
<event>
 5   0  0.8306301E-04  0.1528423E+04  0.7818609E-02  0.8865769E-01
       -1   -1    0    0    0  501  0.00000000000E+00  0.00000000000E+00  0.73232150076E+03  0.73232150078E+03  0.50400001928E-02 0.  1.
        1   -1    0    0  501    0  0.00000000000E+00  0.00000000000E+00 -0.79748985904E+03  0.79748985906E+03  0.50400001928E-02 0. -1.
    10030    2    1    2    0    0  0.00000000000E+00  0.00000000000E+00 -0.65168358280E+02  0.15298113598E+04  0.15284226777E+04 0.  0.
        4    1    3    3  502    0 -0.15669677365E+03 -0.59614884782E+03 -0.48473572787E+03  0.78416686133E+03  0.12699999809E+01 0. -1.
       -4    1    3    3    0  502  0.15669677365E+03  0.59614884782E+03  0.41956736959E+03  0.74564449851E+03  0.12699999809E+01 0.  1.
</event>
<event>
 5   0  0.8058234E-04  0.1329294E+04  0.7818609E-02  0.9006652E-01
       -1   -1    0    0    0  501  0.00000000000E+00  0.00000000000E+00  0.67383962859E+03  0.67383962861E+03  0.50400001928E-02 0.  1.
        1   -1    0    0  501    0  0.00000000000E+00  0.00000000000E+00 -0.65557954357E+03  0.65557954359E+03  0.50400001928E-02 0. -1.
    10030    2    1    2    0    0  0.00000000000E+00  0.00000000000E+00  0.18260085027E+02  0.13294191722E+04  0.13292937616E+04 0.  0.
        5    1    3    3  502    0 -0.23091783234E+03  0.44273208672E+03  0.44780411880E+03  0.67073494371E+03  0.46999998093E+01 0. -1.
       -5    1    3    3    0  502  0.23091783234E+03 -0.44273208672E+03 -0.42954403378E+03  0.65868422848E+03  0.46999998093E+01 0.  1.
</event>
<event>
 5   0  0.8306301E-04  0.1444840E+04  0.7818609E-02  0.8921986E-01
       -1   -1    0    0    0  501  0.00000000000E+00  0.00000000000E+00  0.25736450063E+03  0.25736450068E+03  0.50400001928E-02 0. -1.
        1   -1    0    0  501    0  0.00000000000E+00  0.00000000000E+00 -0.20278262510E+04  0.20278262510E+04  0.50400001928E-02 0.  1.
    10030    2    1    2    0    0  0.00000000000E+00  0.00000000000E+00 -0.17704617504E+04  0.22851907517E+04  0.14448397704E+04 0.  0.
        4    1    3    3  502    0  0.36707071493E+02  0.72034044597E+03 -0.82096346042E+03  0.10928039090E+04  0.12699999809E+01 0. -1.
       -4    1    3    3    0  502 -0.36707071493E+02 -0.72034044597E+03 -0.94949828995E+03  0.11923868427E+04  0.12699999809E+01 0.  1.
</event>
<event>
 5   0  0.1552067E-03  0.1541364E+04  0.7818609E-02  0.8857403E-01
        2   -1    0    0  501    0  0.00000000000E+00  0.00000000000E+00  0.15177916481E+04  0.15177916481E+04  0.25500000920E-02 0. -1.
       -2   -1    0    0    0  501  0.00000000000E+00  0.00000000000E+00 -0.39132546244E+03  0.39132546245E+03  0.25500000920E-02 0.  1.
    10030    2    1    2    0    0  0.00000000000E+00  0.00000000000E+00  0.11264661856E+04  0.19091171105E+04  0.15413637060E+04 0.  0.
        3    1    3    3  502    0  0.24298053096E+02 -0.71240033004E+03  0.20033291847E+03  0.74043089755E+03  0.10100000352E+00 0.  1.
       -3    1    3    3    0  502 -0.24298053096E+02  0.71240033004E+03  0.92613326716E+03  0.11686862130E+04  0.10100000352E+00 0. -1.
</event>
<event>
 5   0  0.7870317E-04  0.1494711E+04  0.7818609E-02  0.8887978E-01
       -1   -1    0    0    0  501  0.00000000000E+00  0.00000000000E+00  0.93230478612E+03  0.93230478614E+03  0.50400001928E-02 0. -1.
        1   -1    0    0  501    0  0.00000000000E+00  0.00000000000E+00 -0.59909609877E+03  0.59909609879E+03  0.50400001928E-02 0.  1.
    10030    2    1    2    0    0  0.00000000000E+00  0.00000000000E+00  0.33320868735E+03  0.15314008849E+04  0.14947108888E+04 0.  0.
        1    1    3    3  502    0  0.72006074418E+03 -0.18250739083E+03  0.25074037347E+03  0.78400711600E+03  0.50400001928E-02 0. -1.
       -1    1    3    3    0  502 -0.72006074418E+03  0.18250739083E+03  0.82468313877E+02  0.74739376893E+03  0.50400001928E-02 0.  1.
</event>
<event>
 5   0  0.1552067E-03  0.1516367E+04  0.7818609E-02  0.8873641E-01
       -2   -1    0    0    0  501  0.00000000000E+00  0.00000000000E+00  0.59303196225E+03  0.59303196226E+03  0.25500000920E-02 0.  1.
        2   -1    0    0  501    0  0.00000000000E+00  0.00000000000E+00 -0.96932786312E+03  0.96932786312E+03  0.25500000920E-02 0. -1.
    10030    2    1    2    0    0  0.00000000000E+00  0.00000000000E+00 -0.37629590086E+03  0.15623598254E+04  0.15163672441E+04 0.  0.
        3    1    3    3  502    0 -0.66439950324E+02  0.46462321450E+03  0.42535618335E+03  0.63341683855E+03  0.10100000352E+00 0.  1.
       -3    1    3    3    0  502  0.66439950324E+02 -0.46462321450E+03 -0.80165208421E+03  0.92894298682E+03  0.10100000352E+00 0. -1.
</event>
<event>
 5   0  0.1500956E-03  0.1487600E+04  0.7818609E-02  0.8892741E-01
       -2   -1    0    0    0  501  0.00000000000E+00  0.00000000000E+00  0.11180558769E+04  0.11180558769E+04  0.25500000920E-02 0.  1.
        2   -1    0    0  501    0  0.00000000000E+00  0.00000000000E+00 -0.49482205392E+03  0.49482205393E+03  0.25500000920E-02 0. -1.
    10030    2    1    2    0    0  0.00000000000E+00  0.00000000000E+00  0.62323382300E+03  0.16128779308E+04  0.14876003568E+04 0.  0.
        4    1    3    3  502    0  0.56363687869E+03 -0.35530425600E+03 -0.46845873422E+02  0.66792499138E+03  0.12699999809E+01 0. -1.
       -4    1    3    3    0  502 -0.56363687869E+03  0.35530425600E+03  0.67007969642E+03  0.94495293947E+03  0.12699999809E+01 0.  1.
</event>
<event>
 5   0  0.8306301E-04  0.1502569E+04  0.7818609E-02  0.8882747E-01
       -1   -1    0    0    0  501  0.00000000000E+00  0.00000000000E+00  0.53107321286E+03  0.53107321288E+03  0.50400001928E-02 0. -1.
        1   -1    0    0  501    0  0.00000000000E+00  0.00000000000E+00 -0.10628065890E+04  0.10628065890E+04  0.50400001928E-02 0.  1.
    10030    2    1    2    0    0  0.00000000000E+00  0.00000000000E+00 -0.53173337615E+03  0.15938798019E+04  0.15025686139E+04 0.  0.
        4    1    3    3  502    0 -0.15386610148E+03 -0.65297663386E+03  0.92876330109E+02  0.67725983724E+03  0.12699999809E+01 0. -1.
       -4    1    3    3    0  502  0.15386610148E+03  0.65297663386E+03 -0.62460970626E+03  0.91661996465E+03  0.12699999809E+01 0.  1.
</event>
<event>
 5   0  0.7870317E-04  0.1427650E+04  0.7818609E-02  0.8934044E-01
        1   -1    0    0  501    0  0.00000000000E+00  0.00000000000E+00  0.68344850876E+03  0.68344850878E+03  0.50400001928E-02 0. -1.
       -1   -1    0    0    0  501  0.00000000000E+00  0.00000000000E+00 -0.74555165496E+03  0.74555165497E+03  0.50400001928E-02 0.  1.
    10030    2    1    2    0    0  0.00000000000E+00  0.00000000000E+00 -0.62103146196E+02  0.14290001638E+04  0.14276500507E+04 0.  0.
        1    1    3    3  502    0  0.22751206714E+03  0.25507962629E+03  0.59621387417E+03  0.68723965269E+03  0.50400001928E-02 0. -1.
       -1    1    3    3    0  502 -0.22751206714E+03 -0.25507962629E+03 -0.65831702037E+03  0.74176051107E+03  0.50400001928E-02 0.  1.
</event>
<event>
 5   0  0.1526126E-03  0.1267772E+04  0.7818609E-02  0.9055520E-01
       -2   -1    0    0    0  501  0.00000000000E+00  0.00000000000E+00  0.36447424279E+03  0.36447424280E+03  0.25500000920E-02 0.  1.
        2   -1    0    0  501    0  0.00000000000E+00  0.00000000000E+00 -0.11024406448E+04  0.11024406448E+04  0.25500000920E-02 0. -1.
    10030    2    1    2    0    0  0.00000000000E+00  0.00000000000E+00 -0.73796640197E+03  0.14669148876E+04  0.12677716186E+04 0.  0.
        2    1    3    3  502    0 -0.22284876559E+03 -0.25584469474E+03 -0.98852775119E+03  0.10451340560E+04  0.25500000920E-02 0.  1.
       -2    1    3    3    0  502  0.22284876559E+03  0.25584469474E+03  0.25056134921E+03  0.42178083156E+03  0.25500000920E-02 0. -1.
</event>
<event>
 5   0  0.1552067E-03  0.1500047E+04  0.7818609E-02  0.8884422E-01
        2   -1    0    0  501    0  0.00000000000E+00  0.00000000000E+00  0.63387646814E+03  0.63387646814E+03  0.25500000920E-02 0. -1.
       -2   -1    0    0    0  501  0.00000000000E+00  0.00000000000E+00 -0.88745193183E+03  0.88745193183E+03  0.25500000920E-02 0.  1.
    10030    2    1    2    0    0  0.00000000000E+00  0.00000000000E+00 -0.25357546369E+03  0.15213284000E+04  0.15000465275E+04 0.  0.
        3    1    3    3  502    0 -0.53572398034E+03 -0.11221918356E+03  0.39326557049E+03  0.67398156310E+03  0.10100000352E+00 0. -1.
       -3    1    3    3    0  502  0.53572398034E+03  0.11221918356E+03 -0.64684103418E+03  0.84734683688E+03  0.10100000352E+00 0.  1.
</event>
<event>
 5   0  0.8306301E-04  0.1504666E+04  0.7818609E-02  0.8881356E-01
        1   -1    0    0  501    0  0.00000000000E+00  0.00000000000E+00  0.11595681295E+04  0.11595681295E+04  0.50400001928E-02 0.  1.
       -1   -1    0    0    0  501  0.00000000000E+00  0.00000000000E+00 -0.48811688963E+03  0.48811688965E+03  0.50400001928E-02 0. -1.
    10030    2    1    2    0    0  0.00000000000E+00  0.00000000000E+00  0.67145123982E+03  0.16476850191E+04  0.15046657950E+04 0.  0.
        4    1    3    3  502    0 -0.71617877844E+03  0.36686365516E+02  0.58482311649E+03  0.92535270172E+03  0.12699999809E+01 0.  1.
       -4    1    3    3    0  502  0.71617877844E+03 -0.36686365516E+02  0.86628123337E+02  0.72233231740E+03  0.12699999809E+01 0. -1.
</event>
<event>
 5   0  0.8191876E-04  0.1323640E+04  0.7818609E-02  0.9011026E-01
       -1   -1    0    0    0  501  0.00000000000E+00  0.00000000000E+00  0.38671385210E+03  0.38671385214E+03  0.50400001928E-02 0. -1.
        1   -1    0    0  501    0  0.00000000000E+00  0.00000000000E+00 -0.11326349924E+04  0.11326349924E+04  0.50400001928E-02 0.  1.
    10030    2    1    2    0    0  0.00000000000E+00  0.00000000000E+00 -0.74592114026E+03  0.15193488445E+04  0.13236398920E+04 0.  0.
        2    1    3    3  502    0 -0.50411466700E+03  0.38146095285E+03 -0.59778107735E+03  0.87004958047E+03  0.25500000920E-02 0.  1.
       -2    1    3    3    0  502  0.50411466700E+03 -0.38146095285E+03 -0.14814006291E+03  0.64929926404E+03  0.25500000920E-02 0. -1.
</event>
<event>
 5   0  0.7870317E-04  0.1486149E+04  0.7818609E-02  0.8893716E-01
       -1   -1    0    0    0  501  0.00000000000E+00  0.00000000000E+00  0.24452775539E+03  0.24452775545E+03  0.50400001928E-02 0.  1.
        1   -1    0    0  501    0  0.00000000000E+00  0.00000000000E+00 -0.22580655523E+04  0.22580655523E+04  0.50400001928E-02 0. -1.
    10030    2    1    2    0    0  0.00000000000E+00  0.00000000000E+00 -0.20135377969E+04  0.25025933077E+04  0.14861489846E+04 0.  0.
        1    1    3    3  502    0 -0.34278270086E+03  0.23479523459E+02 -0.21162682201E+04  0.21439781826E+04  0.50400001928E-02 0. -1.
       -1    1    3    3    0  502  0.34278270086E+03 -0.23479523459E+02  0.10273042328E+03  0.35861512506E+03  0.50400001928E-02 0.  1.
</event>
<event>
 5   0  0.1526126E-03  0.1484414E+04  0.7818609E-02  0.8894884E-01
        2   -1    0    0  501    0  0.00000000000E+00  0.00000000000E+00  0.10241069199E+04  0.10241069199E+04  0.25500000920E-02 0.  1.
       -2   -1    0    0    0  501  0.00000000000E+00  0.00000000000E+00 -0.53790403095E+03  0.53790403096E+03  0.25500000920E-02 0. -1.
    10030    2    1    2    0    0  0.00000000000E+00  0.00000000000E+00  0.48620288894E+03  0.15620109509E+04  0.14844140128E+04 0.  0.
        2    1    3    3  502    0  0.11323491167E+02 -0.68901749089E+03 -0.46986627048E+02  0.69071055250E+03  0.25500000920E-02 0. -1.
       -2    1    3    3    0  502 -0.11323491167E+02  0.68901749089E+03  0.53318951598E+03  0.87130039835E+03  0.25500000920E-02 0.  1.
</event>
<event>
 5   0  0.8058234E-04  0.1485952E+04  0.7818609E-02  0.8893849E-01
       -1   -1    0    0    0  501  0.00000000000E+00  0.00000000000E+00  0.51077378221E+03  0.51077378223E+03  0.50400001928E-02 0.  1.
        1   -1    0    0  501    0  0.00000000000E+00  0.00000000000E+00 -0.10807394920E+04  0.10807394920E+04  0.50400001928E-02 0. -1.
    10030    2    1    2    0    0  0.00000000000E+00  0.00000000000E+00 -0.56996570976E+03  0.15915132742E+04  0.14859520826E+04 0.  0.
        5    1    3    3  502    0  0.48339061824E+03 -0.50838029204E+03 -0.54705790236E+03  0.88961308987E+03  0.46999998093E+01 0. -1.
       -5    1    3    3    0  502 -0.48339061824E+03  0.50838029204E+03 -0.22907807396E+02  0.70190018434E+03  0.46999998093E+01 0.  1.
</event>
<event>
 5   0  0.8365016E-04  0.1368911E+04  0.7818609E-02  0.8976635E-01
       -1   -1    0    0    0  501  0.00000000000E+00  0.00000000000E+00  0.46125864212E+03  0.46125864215E+03  0.50400001928E-02 0.  1.
        1   -1    0    0  501    0  0.00000000000E+00  0.00000000000E+00 -0.10156542997E+04  0.10156542997E+04  0.50400001928E-02 0. -1.
    10030    2    1    2    0    0  0.00000000000E+00  0.00000000000E+00 -0.55439565753E+03  0.14769129418E+04  0.13689109878E+04 0.  0.
        3    1    3    3  502    0  0.52757639166E+03 -0.18503135406E+03 -0.70319911362E+03  0.89836654803E+03  0.10100000352E+00 0. -1.
       -3    1    3    3    0  502 -0.52757639166E+03  0.18503135406E+03  0.14880345609E+03  0.57854639379E+03  0.10100000352E+00 0.  1.
</event>
<event>
 5   0  0.1552067E-03  0.1490808E+04  0.7818609E-02  0.8890589E-01
       -2   -1    0    0    0  501  0.00000000000E+00  0.00000000000E+00  0.74186493454E+03  0.74186493455E+03  0.25500000920E-02 0. -1.
        2   -1    0    0  501    0  0.00000000000E+00  0.00000000000E+00 -0.74895965432E+03  0.74895965432E+03  0.25500000920E-02 0.  1.
    10030    2    1    2    0    0  0.00000000000E+00  0.00000000000E+00 -0.70947197723E+01  0.14908245889E+04  0.14908077072E+04 0.  0.
        3    1    3    3  502    0 -0.49564707526E+03  0.28965258066E+03 -0.47901278856E+03  0.74767499791E+03  0.10100000352E+00 0. -1.
       -3    1    3    3    0  502  0.49564707526E+03 -0.28965258066E+03  0.47191806879E+03  0.74314959096E+03  0.10100000352E+00 0.  1.
</event>
<event>
 5   0  0.1552067E-03  0.1463204E+04  0.7818609E-02  0.8909297E-01
        2   -1    0    0  501    0  0.00000000000E+00  0.00000000000E+00  0.24559455102E+04  0.24559455102E+04  0.25500000920E-02 0.  1.
       -2   -1    0    0    0  501  0.00000000000E+00  0.00000000000E+00 -0.21793715562E+03  0.21793715564E+03  0.25500000920E-02 0. -1.
    10030    2    1    2    0    0  0.00000000000E+00  0.00000000000E+00  0.22380083546E+04  0.26738826659E+04  0.14632043998E+04 0.  0.
        3    1    3    3  502    0  0.28246872094E+03 -0.24532346815E+03  0.22679089858E+04  0.22985611500E+04  0.10100000352E+00 0.  1.
       -3    1    3    3    0  502 -0.28246872094E+03  0.24532346815E+03 -0.29900631166E+02  0.37532151587E+03  0.10100000352E+00 0. -1.
</event>
<event>
 5   0  0.7870317E-04  0.1519704E+04  0.7818609E-02  0.8871454E-01
       -1   -1    0    0    0  501  0.00000000000E+00  0.00000000000E+00  0.39433758592E+03  0.39433758596E+03  0.50400001928E-02 0.  1.
        1   -1    0    0  501    0  0.00000000000E+00  0.00000000000E+00 -0.14641652357E+04  0.14641652357E+04  0.50400001928E-02 0. -1.
    10030    2    1    2    0    0  0.00000000000E+00  0.00000000000E+00 -0.10698276498E+04  0.18585028217E+04  0.15197044245E+04 0.  0.
        1    1    3    3  502    0 -0.35720704939E+03  0.48286108504E+03  0.34275914328E+02  0.60160330942E+03  0.50400001928E-02 0.  1.
       -1    1    3    3    0  502  0.35720704939E+03 -0.48286108504E+03 -0.11041035641E+04  0.12568995123E+04  0.50400001928E-02 0. -1.
</event>
<event>
 5   0  0.1511546E-03  0.1453022E+04  0.7818609E-02  0.8916308E-01
        2   -1    0    0  501    0  0.00000000000E+00  0.00000000000E+00  0.13052405017E+04  0.13052405018E+04  0.25500000920E-02 0.  1.
       -2   -1    0    0    0  501  0.00000000000E+00  0.00000000000E+00 -0.40438363405E+03  0.40438363405E+03  0.25500000920E-02 0. -1.
    10030    2    1    2    0    0  0.00000000000E+00  0.00000000000E+00  0.90085686770E+03  0.17096241358E+04  0.14530215379E+04 0.  0.
        1    1    3    3  502    0  0.64128520865E+03  0.25263641811E+03  0.72065213072E+03  0.99720177102E+03  0.50400001928E-02 0.  1.
       -1    1    3    3    0  502 -0.64128520865E+03 -0.25263641811E+03  0.18020473698E+03  0.71242236478E+03  0.50400001928E-02 0. -1.
</event>
<event>
 5   0  0.8191876E-04  0.1378480E+04  0.7818609E-02  0.8969545E-01
       -1   -1    0    0    0  501  0.00000000000E+00  0.00000000000E+00  0.11222935213E+04  0.11222935213E+04  0.50400001928E-02 0. -1.
        1   -1    0    0  501    0  0.00000000000E+00  0.00000000000E+00 -0.42328666745E+03  0.42328666748E+03  0.50400001928E-02 0.  1.
    10030    2    1    2    0    0  0.00000000000E+00  0.00000000000E+00  0.69900685383E+03  0.15455801888E+04  0.13784801552E+04 0.  0.
        2    1    3    3  502    0 -0.18537885606E+02  0.66052496946E+03  0.56925977054E+03  0.87217749045E+03  0.25500000920E-02 0. -1.
       -2    1    3    3    0  502  0.18537885606E+02 -0.66052496946E+03  0.12974708329E+03  0.67340269832E+03  0.25500000920E-02 0.  1.
</event>
<event>
 5   0  0.7870317E-04  0.1525399E+04  0.7818609E-02  0.8867736E-01
       -1   -1    0    0    0  501  0.00000000000E+00  0.00000000000E+00  0.51679827107E+03  0.51679827109E+03  0.50400001928E-02 0.  1.
        1   -1    0    0  501    0  0.00000000000E+00  0.00000000000E+00 -0.11256050188E+04  0.11256050188E+04  0.50400001928E-02 0. -1.
    10030    2    1    2    0    0  0.00000000000E+00  0.00000000000E+00 -0.60880674772E+03  0.16424032899E+04  0.15253992627E+04 0.  0.
        1    1    3    3  502    0  0.29505384131E+03 -0.64977195454E+03 -0.59421550757E+03  0.92862932952E+03  0.50400001928E-02 0. -1.
       -1    1    3    3    0  502 -0.29505384131E+03  0.64977195454E+03 -0.14591240144E+02  0.71377396037E+03  0.50400001928E-02 0.  1.
</event>
<event>
 5   0  0.5603875E-04  0.1430517E+04  0.7818609E-02  0.8932020E-01
       -4   -1    0    0    0  501  0.00000000000E+00  0.00000000000E+00  0.73813920174E+03  0.73814029428E+03  0.12699999809E+01 0. -1.
        4   -1    0    0  501    0  0.00000000000E+00  0.00000000000E+00 -0.69308496206E+03  0.69308612562E+03  0.12699999809E+01 0.  1.
    10030    2    1    2    0    0  0.00000000000E+00  0.00000000000E+00  0.45054239681E+02  0.14312264199E+04  0.14305171025E+04 0.  0.
        3    1    3    3  502    0 -0.17584939795E+03  0.44803059248E+03 -0.50682913667E+03  0.69894935906E+03  0.10100000352E+00 0.  1.
       -3    1    3    3    0  502  0.17584939795E+03 -0.44803059248E+03  0.55188337635E+03  0.73227706085E+03  0.10100000352E+00 0. -1.
</event>
<event>
 5   0  0.1511546E-03  0.1479269E+04  0.7818609E-02  0.8898357E-01
       -2   -1    0    0    0  501  0.00000000000E+00  0.00000000000E+00  0.37961826085E+03  0.37961826086E+03  0.25500000920E-02 0. -1.
        2   -1    0    0  501    0  0.00000000000E+00  0.00000000000E+00 -0.14410770814E+04  0.14410770814E+04  0.25500000920E-02 0.  1.
    10030    2    1    2    0    0  0.00000000000E+00  0.00000000000E+00 -0.10614588205E+04  0.18206953422E+04  0.14792689754E+04 0.  0.
        1    1    3    3  502    0 -0.23885967179E+03  0.15579141065E+03  0.30923179801E+03  0.42065331493E+03  0.50400001928E-02 0. -1.
       -1    1    3    3    0  502  0.23885967179E+03 -0.15579141065E+03 -0.13706906185E+04  0.14000420273E+04  0.50400001928E-02 0.  1.
</event>
<event>
 5   0  0.8306301E-04  0.1468252E+04  0.7818609E-02  0.8905844E-01
       -1   -1    0    0    0  501  0.00000000000E+00  0.00000000000E+00  0.92622354202E+03  0.92622354203E+03  0.50400001928E-02 0.  1.
        1   -1    0    0  501    0  0.00000000000E+00  0.00000000000E+00 -0.58186923785E+03  0.58186923787E+03  0.50400001928E-02 0. -1.
    10030    2    1    2    0    0  0.00000000000E+00  0.00000000000E+00  0.34435430417E+03  0.15080927799E+04  0.14682520036E+04 0.  0.
        4    1    3    3  502    0 -0.46217747881E+03 -0.26393254139E+03  0.69153675265E+03  0.87263572096E+03  0.12699999809E+01 0.  1.
       -4    1    3    3    0  502  0.46217747881E+03  0.26393254139E+03 -0.34718244848E+03  0.63545705894E+03  0.12699999809E+01 0. -1.
</event>
<event>
 5   0  0.8191876E-04  0.1455788E+04  0.7818609E-02  0.8914398E-01
        1   -1    0    0  501    0  0.00000000000E+00  0.00000000000E+00  0.78141564698E+03  0.78141564700E+03  0.50400001928E-02 0. -1.
       -1   -1    0    0    0  501  0.00000000000E+00  0.00000000000E+00 -0.67803787712E+03  0.67803787714E+03  0.50400001928E-02 0.  1.
    10030    2    1    2    0    0  0.00000000000E+00  0.00000000000E+00  0.10337776986E+03  0.14594535241E+04  0.14557876307E+04 0.  0.
        2    1    3    3  502    0  0.48204980835E+03 -0.29572774215E+03 -0.40772537142E+03  0.69718497812E+03  0.25500000920E-02 0.  1.
       -2    1    3    3    0  502 -0.48204980835E+03  0.29572774215E+03  0.51110314129E+03  0.76226854602E+03  0.25500000920E-02 0. -1.
</event>
<event>
 5   0  0.1526126E-03  0.1510655E+04  0.7818609E-02  0.8877398E-01
        2   -1    0    0  501    0  0.00000000000E+00  0.00000000000E+00  0.13716974897E+04  0.13716974897E+04  0.25500000920E-02 0. -1.
       -2   -1    0    0    0  501  0.00000000000E+00  0.00000000000E+00 -0.41592242163E+03  0.41592242163E+03  0.25500000920E-02 0.  1.
    10030    2    1    2    0    0  0.00000000000E+00  0.00000000000E+00  0.95577506805E+03  0.17876199113E+04  0.15106551448E+04 0.  0.
        2    1    3    3  502    0 -0.70108961157E+02 -0.63858305186E+03  0.94798248502E+03  0.11451525542E+04  0.25500000920E-02 0. -1.
       -2    1    3    3    0  502  0.70108961157E+02  0.63858305186E+03  0.77925830258E+01  0.64246735708E+03  0.25500000920E-02 0.  1.
</event>
<event>
 5   0  0.8365016E-04  0.1502392E+04  0.7818609E-02  0.8882864E-01
       -1   -1    0    0    0  501  0.00000000000E+00  0.00000000000E+00  0.45012569565E+03  0.45012569568E+03  0.50400001928E-02 0.  1.
        1   -1    0    0  501    0  0.00000000000E+00  0.00000000000E+00 -0.12536393965E+04  0.12536393965E+04  0.50400001928E-02 0. -1.
    10030    2    1    2    0    0  0.00000000000E+00  0.00000000000E+00 -0.80351370080E+03  0.17037650921E+04  0.15023918336E+04 0.  0.
        3    1    3    3  502    0  0.67144195139E+03  0.22533093361E+03 -0.68568937639E+03  0.98578813891E+03  0.10100000352E+00 0.  1.
       -3    1    3    3    0  502 -0.67144195139E+03 -0.22533093361E+03 -0.11782432442E+03  0.71797695322E+03  0.10100000352E+00 0. -1.
</event>
<event>
 5   0  0.1484056E-03  0.1533307E+04  0.7818609E-02  0.8862601E-01
       -2   -1    0    0    0  501  0.00000000000E+00  0.00000000000E+00  0.55765966355E+03  0.55765966356E+03  0.25500000920E-02 0.  1.
        2   -1    0    0  501    0  0.00000000000E+00  0.00000000000E+00 -0.10539724420E+04  0.10539724420E+04  0.25500000920E-02 0. -1.
    10030    2    1    2    0    0  0.00000000000E+00  0.00000000000E+00 -0.49631277845E+03  0.16116321056E+04  0.15333074283E+04 0.  0.
        5    1    3    3  502    0 -0.37056213770E+03  0.53887748751E+03  0.17231666009E+03  0.67632859305E+03  0.46999998093E+01 0.  1.
       -5    1    3    3    0  502  0.37056213770E+03 -0.53887748751E+03 -0.66862943853E+03  0.93530351251E+03  0.46999998093E+01 0. -1.
</event>
<event>
 5   0  0.8365016E-04  0.1278595E+04  0.7818609E-02  0.9046714E-01
        1   -1    0    0  501    0  0.00000000000E+00  0.00000000000E+00  0.52800031740E+03  0.52800031742E+03  0.50400001928E-02 0.  1.
       -1   -1    0    0    0  501  0.00000000000E+00  0.00000000000E+00 -0.77405516807E+03  0.77405516809E+03  0.50400001928E-02 0. -1.
    10030    2    1    2    0    0  0.00000000000E+00  0.00000000000E+00 -0.24605485068E+03  0.13020554855E+04  0.12785951266E+04 0.  0.
        3    1    3    3  502    0 -0.46964823152E+02  0.37059257865E+03 -0.65134995769E+03  0.75086705318E+03  0.10100000352E+00 0. -1.
       -3    1    3    3    0  502  0.46964823152E+02 -0.37059257865E+03  0.40529510701E+03  0.55118843233E+03  0.10100000352E+00 0.  1.
</event>
<event>
 5   0  0.1526126E-03  0.1473947E+04  0.7818609E-02  0.8901965E-01
        2   -1    0    0  501    0  0.00000000000E+00  0.00000000000E+00  0.78041532797E+03  0.78041532797E+03  0.25500000920E-02 0. -1.
       -2   -1    0    0    0  501  0.00000000000E+00  0.00000000000E+00 -0.69595000554E+03  0.69595000554E+03  0.25500000920E-02 0.  1.
    10030    2    1    2    0    0  0.00000000000E+00  0.00000000000E+00  0.84465322429E+02  0.14763653335E+04  0.14739471521E+04 0.  0.
        2    1    3    3  502    0 -0.66937607660E+03  0.17492433374E+03 -0.21208781128E+03  0.72363256847E+03  0.25500000920E-02 0.  1.
       -2    1    3    3    0  502  0.66937607660E+03 -0.17492433374E+03  0.29655313371E+03  0.75273276504E+03  0.25500000920E-02 0. -1.
</event>
<event>
 5   0  0.1526126E-03  0.1515150E+04  0.7818609E-02  0.8874440E-01
       -2   -1    0    0    0  501  0.00000000000E+00  0.00000000000E+00  0.45808264448E+03  0.45808264449E+03  0.25500000920E-02 0. -1.
        2   -1    0    0  501    0  0.00000000000E+00  0.00000000000E+00 -0.12528745921E+04  0.12528745922E+04  0.25500000920E-02 0.  1.
    10030    2    1    2    0    0  0.00000000000E+00  0.00000000000E+00 -0.79479194767E+03  0.17109572366E+04  0.15151502980E+04 0.  0.
        2    1    3    3  502    0 -0.12484535016E+03  0.10035539686E+03  0.43874157317E+03  0.46706716345E+03  0.25500000920E-02 0. -1.
       -2    1    3    3    0  502  0.12484535016E+03 -0.10035539686E+03 -0.12335335208E+04  0.12438900732E+04  0.25500000920E-02 0.  1.
</event>
<event>
 5   0  0.7870317E-04  0.1498537E+04  0.7818609E-02  0.8885426E-01
       -1   -1    0    0    0  501  0.00000000000E+00  0.00000000000E+00  0.43800201452E+03  0.43800201455E+03  0.50400001928E-02 0. -1.
        1   -1    0    0  501    0  0.00000000000E+00  0.00000000000E+00 -0.12817374630E+04  0.12817374630E+04  0.50400001928E-02 0.  1.
    10030    2    1    2    0    0  0.00000000000E+00  0.00000000000E+00 -0.84373544844E+03  0.17197394775E+04  0.14985374081E+04 0.  0.
        1    1    3    3  502    0 -0.65358230040E+03  0.26971323837E+03 -0.13729573453E+03  0.72025354778E+03  0.50400001928E-02 0. -1.
       -1    1    3    3    0  502  0.65358230040E+03 -0.26971323837E+03 -0.70643971391E+03  0.99948592974E+03  0.50400001928E-02 0.  1.
</event>
<event>
 5   0  0.1552067E-03  0.1513109E+04  0.7818609E-02  0.8875782E-01
        2   -1    0    0  501    0  0.00000000000E+00  0.00000000000E+00  0.81512217676E+03  0.81512217676E+03  0.25500000920E-02 0.  1.
       -2   -1    0    0    0  501  0.00000000000E+00  0.00000000000E+00 -0.70219540636E+03  0.70219540637E+03  0.25500000920E-02 0. -1.
    10030    2    1    2    0    0  0.00000000000E+00  0.00000000000E+00  0.11292677039E+03  0.15173175831E+04  0.15131094450E+04 0.  0.
        3    1    3    3  502    0  0.47900049908E+02 -0.14457114736E+03 -0.68666427780E+03  0.70335131480E+03  0.10100000352E+00 0. -1.
       -3    1    3    3    0  502 -0.47900049908E+02  0.14457114736E+03  0.79959104819E+03  0.81396626833E+03  0.10100000352E+00 0.  1.
</event>
<event>
 5   0  0.1526126E-03  0.1475523E+04  0.7818609E-02  0.8900895E-01
       -2   -1    0    0    0  501  0.00000000000E+00  0.00000000000E+00  0.54312339931E+03  0.54312339931E+03  0.25500000920E-02 0. -1.
        2   -1    0    0  501    0  0.00000000000E+00  0.00000000000E+00 -0.10021520824E+04  0.10021520824E+04  0.25500000920E-02 0.  1.
    10030    2    1    2    0    0  0.00000000000E+00  0.00000000000E+00 -0.45902868309E+03  0.15452754817E+04  0.14755232911E+04 0.  0.
        2    1    3    3  502    0 -0.31739497051E+03 -0.45564646798E+03  0.27918325816E+03  0.62152760415E+03  0.25500000920E-02 0. -1.
       -2    1    3    3    0  502  0.31739497051E+03  0.45564646798E+03 -0.73821194124E+03  0.92374787755E+03  0.25500000920E-02 0.  1.
</event>
<event>
 5   0  0.8365016E-04  0.1520570E+04  0.7818609E-02  0.8870888E-01
        1   -1    0    0  501    0  0.00000000000E+00  0.00000000000E+00  0.10693305528E+04  0.10693305528E+04  0.50400001928E-02 0. -1.
       -1   -1    0    0    0  501  0.00000000000E+00  0.00000000000E+00 -0.54055650711E+03  0.54055650714E+03  0.50400001928E-02 0.  1.
    10030    2    1    2    0    0  0.00000000000E+00  0.00000000000E+00  0.52877404567E+03  0.16098870599E+04  0.15205704043E+04 0.  0.
        3    1    3    3  502    0  0.26881247884E+03  0.60915976189E+03 -0.12418287241E+03  0.67731614501E+03  0.10100000352E+00 0.  1.
       -3    1    3    3    0  502 -0.26881247884E+03 -0.60915976189E+03  0.65295691809E+03  0.93257091493E+03  0.10100000352E+00 0. -1.
</event>
<event>
 5   0  0.8365016E-04  0.1505899E+04  0.7818609E-02  0.8880540E-01
        1   -1    0    0  501    0  0.00000000000E+00  0.00000000000E+00  0.55791388252E+03  0.55791388254E+03  0.50400001928E-02 0. -1.
       -1   -1    0    0    0  501  0.00000000000E+00  0.00000000000E+00 -0.10161650289E+04  0.10161650289E+04  0.50400001928E-02 0.  1.
    10030    2    1    2    0    0  0.00000000000E+00  0.00000000000E+00 -0.45825114636E+03  0.15740789114E+04  0.15058985046E+04 0.  0.
        3    1    3    3  502    0  0.25759833254E+03  0.36148512742E+03 -0.86485953253E+03  0.97211646395E+03  0.10100000352E+00 0.  1.
       -3    1    3    3    0  502 -0.25759833254E+03 -0.36148512742E+03  0.40660838617E+03  0.60196244748E+03  0.10100000352E+00 0. -1.
</event>
<event>
 5   0  0.8306301E-04  0.1289941E+04  0.7818609E-02  0.9037580E-01
        1   -1    0    0  501    0  0.00000000000E+00  0.00000000000E+00  0.29138320076E+03  0.29138320080E+03  0.50400001928E-02 0.  1.
       -1   -1    0    0    0  501  0.00000000000E+00  0.00000000000E+00 -0.14276294521E+04  0.14276294521E+04  0.50400001928E-02 0. -1.
    10030    2    1    2    0    0  0.00000000000E+00  0.00000000000E+00 -0.11362462513E+04  0.17190126529E+04  0.12899414549E+04 0.  0.
        4    1    3    3  502    0 -0.64672532928E+02 -0.37177585255E+03  0.12891390958E+03  0.39877340688E+03  0.12699999809E+01 0.  1.
       -4    1    3    3    0  502  0.64672532928E+02  0.37177585255E+03 -0.12651601609E+04  0.13202392460E+04  0.12699999809E+01 0. -1.
</event>
<event>
 5   0  0.1552067E-03  0.1539240E+04  0.7818609E-02  0.8858770E-01
       -2   -1    0    0    0  501  0.00000000000E+00  0.00000000000E+00  0.16489163664E+04  0.16489163664E+04  0.25500000920E-02 0.  1.
        2   -1    0    0  501    0  0.00000000000E+00  0.00000000000E+00 -0.35921478313E+03  0.35921478314E+03  0.25500000920E-02 0. -1.
    10030    2    1    2    0    0  0.00000000000E+00  0.00000000000E+00  0.12897015833E+04  0.20081311495E+04  0.15392402476E+04 0.  0.
        3    1    3    3  502    0  0.15803138650E+03  0.56521818051E+03 -0.46763558895E+01  0.58691344268E+03  0.10100000352E+00 0. -1.
       -3    1    3    3    0  502 -0.15803138650E+03 -0.56521818051E+03  0.12943779391E+04  0.14212177068E+04  0.10100000352E+00 0.  1.
</event>
<event>
 5   0  0.1526126E-03  0.1481272E+04  0.7818609E-02  0.8897003E-01
        2   -1    0    0  501    0  0.00000000000E+00  0.00000000000E+00  0.69767827377E+03  0.69767827378E+03  0.25500000920E-02 0. -1.
       -2   -1    0    0    0  501  0.00000000000E+00  0.00000000000E+00 -0.78623842179E+03  0.78623842179E+03  0.25500000920E-02 0.  1.
    10030    2    1    2    0    0  0.00000000000E+00  0.00000000000E+00 -0.88560148017E+02  0.14839166956E+04  0.14812717035E+04 0.  0.
        2    1    3    3  502    0 -0.27826442509E+03  0.68066420374E+03 -0.13279290132E+03  0.74724079330E+03  0.25500000920E-02 0. -1.
       -2    1    3    3    0  502  0.27826442509E+03 -0.68066420374E+03  0.44232753305E+02  0.73667590227E+03  0.25500000920E-02 0.  1.
</event>
<event>
 5   0  0.1500956E-03  0.1508870E+04  0.7818609E-02  0.8878576E-01
       -2   -1    0    0    0  501  0.00000000000E+00  0.00000000000E+00  0.68216467335E+03  0.68216467335E+03  0.25500000920E-02 0. -1.
        2   -1    0    0  501    0  0.00000000000E+00  0.00000000000E+00 -0.83436180272E+03  0.83436180272E+03  0.25500000920E-02 0.  1.
    10030    2    1    2    0    0  0.00000000000E+00  0.00000000000E+00 -0.15219712937E+03  0.15165264761E+04  0.15088699700E+04 0.  0.
        4    1    3    3  502    0  0.52951746793E+03 -0.15790188694E+03  0.44017005240E+03  0.70645101930E+03  0.12699999809E+01 0. -1.
       -4    1    3    3    0  502 -0.52951746793E+03  0.15790188694E+03 -0.59236718176E+03  0.81007545678E+03  0.12699999809E+01 0.  1.
</event>
<event>
 5   0  0.8191876E-04  0.1491691E+04  0.7818609E-02  0.8889997E-01
        1   -1    0    0  501    0  0.00000000000E+00  0.00000000000E+00  0.14837701799E+04  0.14837701799E+04  0.50400001928E-02 0.  1.
       -1   -1    0    0    0  501  0.00000000000E+00  0.00000000000E+00 -0.37491343044E+03  0.37491343047E+03  0.50400001928E-02 0. -1.
    10030    2    1    2    0    0  0.00000000000E+00  0.00000000000E+00  0.11088567494E+04  0.18586836104E+04  0.14916908100E+04 0.  0.
        2    1    3    3  502    0  0.80359600467E+02  0.16632034393E+03 -0.34596157085E+03  0.39218558197E+03  0.25500000920E-02 0. -1.
       -2    1    3    3    0  502 -0.80359600467E+02 -0.16632034393E+03  0.14548183203E+04  0.14664980284E+04  0.25500000920E-02 0.  1.
</event>
<event>
 5   0  0.5603875E-04  0.1443510E+04  0.7818609E-02  0.8922912E-01
       -3   -1    0    0    0  501  0.00000000000E+00  0.00000000000E+00  0.96518203433E+03  0.96518203962E+03  0.10100000352E+00 0. -1.
        3   -1    0    0  501    0  0.00000000000E+00  0.00000000000E+00 -0.53972251444E+03  0.53972252389E+03  0.10100000352E+00 0.  1.
    10030    2    1    2    0    0  0.00000000000E+00  0.00000000000E+00  0.42545951989E+03  0.15049045635E+04  0.14435102848E+04 0.  0.
        3    1    3    3  502    0 -0.56787531513E+03  0.42281598487E+03  0.35896216747E+03  0.79379441826E+03  0.10100000352E+00 0. -1.
       -3    1    3    3    0  502  0.56787531513E+03 -0.42281598487E+03  0.66497352416E+02  0.71111014525E+03  0.10100000352E+00 0.  1.
</event>
<event>
 5   0  0.1552067E-03  0.1148300E+04  0.7818609E-02  0.9159354E-01
       -2   -1    0    0    0  501  0.00000000000E+00  0.00000000000E+00  0.15937893014E+03  0.15937893016E+03  0.25500000920E-02 0.  1.
        2   -1    0    0  501    0  0.00000000000E+00  0.00000000000E+00 -0.20683288639E+04  0.20683288639E+04  0.25500000920E-02 0. -1.
    10030    2    1    2    0    0  0.00000000000E+00  0.00000000000E+00 -0.19089499338E+04  0.22277077941E+04  0.11482996848E+04 0.  0.
        3    1    3    3  502    0 -0.15128189348E+03 -0.24252611758E+02  0.11898751679E+03  0.19399082407E+03  0.10100000352E+00 0.  1.
       -3    1    3    3    0  502  0.15128189348E+03  0.24252611758E+02 -0.20279374506E+04  0.20337169700E+04  0.10100000352E+00 0. -1.
</event>
<event>
 5   0  0.1526126E-03  0.1448678E+04  0.7818609E-02  0.8919318E-01
        2   -1    0    0  501    0  0.00000000000E+00  0.00000000000E+00  0.10039264949E+04  0.10039264949E+04  0.25500000920E-02 0.  1.
       -2   -1    0    0    0  501  0.00000000000E+00  0.00000000000E+00 -0.52261459002E+03  0.52261459003E+03  0.25500000920E-02 0. -1.
    10030    2    1    2    0    0  0.00000000000E+00  0.00000000000E+00  0.48131190483E+03  0.15265410849E+04  0.14486775121E+04 0.  0.
        2    1    3    3  502    0  0.13209573095E+03 -0.46760401224E+03 -0.32539787639E+03  0.58479618019E+03  0.25500000920E-02 0.  1.
       -2    1    3    3    0  502 -0.13209573095E+03  0.46760401224E+03  0.80670978122E+03  0.94174490470E+03  0.25500000920E-02 0. -1.
</event>
<event>
 5   0  0.7870317E-04  0.1493215E+04  0.7818609E-02  0.8888977E-01
        1   -1    0    0  501    0  0.00000000000E+00  0.00000000000E+00  0.18246284837E+04  0.18246284837E+04  0.50400001928E-02 0. -1.
       -1   -1    0    0    0  501  0.00000000000E+00  0.00000000000E+00 -0.30549945693E+03  0.30549945697E+03  0.50400001928E-02 0.  1.
    10030    2    1    2    0    0  0.00000000000E+00  0.00000000000E+00  0.15191290268E+04  0.21301279407E+04  0.14932153373E+04 0.  0.
        1    1    3    3  502    0  0.18102161376E+03  0.59778529756E+03  0.17606539447E+03  0.64893382543E+03  0.50400001928E-02 0.  1.
       -1    1    3    3    0  502 -0.18102161376E+03 -0.59778529756E+03  0.13430636323E+04  0.14811941152E+04  0.50400001928E-02 0. -1.
</event>
<event>
 5   0  0.8365016E-04  0.1541648E+04  0.7818609E-02  0.8857220E-01
       -1   -1    0    0    0  501  0.00000000000E+00  0.00000000000E+00  0.77923671479E+03  0.77923671480E+03  0.50400001928E-02 0.  1.
        1   -1    0    0  501    0  0.00000000000E+00  0.00000000000E+00 -0.76250220484E+03  0.76250220485E+03  0.50400001928E-02 0. -1.
    10030    2    1    2    0    0  0.00000000000E+00  0.00000000000E+00  0.16734509947E+02  0.15417389197E+04  0.15416480962E+04 0.  0.
        3    1    3    3  502    0  0.59343968159E+03 -0.17023144899E+03  0.46993566939E+03  0.77587946582E+03  0.10100000352E+00 0.  1.
       -3    1    3    3    0  502 -0.59343968159E+03  0.17023144899E+03 -0.45320115944E+03  0.76585945384E+03  0.10100000352E+00 0. -1.
</event>
<event>
 5   0  0.8306301E-04  0.1497095E+04  0.7818609E-02  0.8886387E-01
        1   -1    0    0  501    0  0.00000000000E+00  0.00000000000E+00  0.81090123123E+03  0.81090123124E+03  0.50400001928E-02 0.  1.
       -1   -1    0    0    0  501  0.00000000000E+00  0.00000000000E+00 -0.69098848273E+03  0.69098848275E+03  0.50400001928E-02 0. -1.
    10030    2    1    2    0    0  0.00000000000E+00  0.00000000000E+00  0.11991274849E+03  0.15018897140E+04  0.14970950690E+04 0.  0.
        4    1    3    3  502    0 -0.14962729187E+03  0.71887555869E+03 -0.85944621183E+02  0.73929593950E+03  0.12699999809E+01 0. -1.
       -4    1    3    3    0  502  0.14962729187E+03 -0.71887555869E+03  0.20585736968E+03  0.76259377450E+03  0.12699999809E+01 0.  1.
</event>
<event>
 5   0  0.8365016E-04  0.1522919E+04  0.7818609E-02  0.8869353E-01
       -1   -1    0    0    0  501  0.00000000000E+00  0.00000000000E+00  0.54133722499E+03  0.54133722502E+03  0.50400001928E-02 0.  1.
        1   -1    0    0  501    0  0.00000000000E+00  0.00000000000E+00 -0.10710897672E+04  0.10710897672E+04  0.50400001928E-02 0. -1.
    10030    2    1    2    0    0  0.00000000000E+00  0.00000000000E+00 -0.52975254220E+03  0.16124269922E+04  0.15229192524E+04 0.  0.
        3    1    3    3  502    0  0.45283448719E+03  0.60984694339E+01  0.38324939514E+03  0.59327596715E+03  0.10100000352E+00 0.  1.
       -3    1    3    3    0  502 -0.45283448719E+03 -0.60984694339E+01 -0.91300193734E+03  0.10191510251E+04  0.10100000352E+00 0. -1.
</event>
<event>
 5   0  0.1552067E-03  0.1495607E+04  0.7818609E-02  0.8887379E-01
       -2   -1    0    0    0  501  0.00000000000E+00  0.00000000000E+00  0.30027312749E+03  0.30027312750E+03  0.25500000920E-02 0. -1.
        2   -1    0    0  501    0  0.00000000000E+00  0.00000000000E+00 -0.18623390246E+04  0.18623390246E+04  0.25500000920E-02 0.  1.
    10030    2    1    2    0    0  0.00000000000E+00  0.00000000000E+00 -0.15620658971E+04  0.21626121521E+04  0.14956073862E+04 0.  0.
        3    1    3    3  502    0 -0.60193918296E+03  0.21711108467E+03 -0.13405758110E+04  0.14854667678E+04  0.10100000352E+00 0.  1.
       -3    1    3    3    0  502  0.60193918296E+03 -0.21711108467E+03 -0.22149008617E+03  0.67714538435E+03  0.10100000352E+00 0. -1.
</event>
<event>
 5   0  0.8191876E-04  0.1463984E+04  0.7818609E-02  0.8908763E-01
       -1   -1    0    0    0  501  0.00000000000E+00  0.00000000000E+00  0.39777684263E+03  0.39777684266E+03  0.50400001928E-02 0.  1.
        1   -1    0    0  501    0  0.00000000000E+00  0.00000000000E+00 -0.13470164236E+04  0.13470164236E+04  0.50400001928E-02 0. -1.
    10030    2    1    2    0    0  0.00000000000E+00  0.00000000000E+00 -0.94923958101E+03  0.17447932663E+04  0.14639835245E+04 0.  0.
        2    1    3    3  502    0  0.44461497581E+02 -0.46268316150E+03 -0.11485570264E+04  0.12390463170E+04  0.25500000920E-02 0. -1.
       -2    1    3    3    0  502 -0.44461497581E+02  0.46268316150E+03  0.19931744540E+03  0.50574694933E+03  0.25500000920E-02 0.  1.
</event>
<event>
 5   0  0.1511546E-03  0.1462350E+04  0.7818609E-02  0.8909883E-01
        2   -1    0    0  501    0  0.00000000000E+00  0.00000000000E+00  0.21412397789E+04  0.21412397789E+04  0.25500000920E-02 0.  1.
       -2   -1    0    0    0  501  0.00000000000E+00  0.00000000000E+00 -0.24967642142E+03  0.24967642144E+03  0.25500000920E-02 0. -1.
    10030    2    1    2    0    0  0.00000000000E+00  0.00000000000E+00  0.18915633575E+04  0.23909162003E+04  0.14623502801E+04 0.  0.
        1    1    3    3  502    0 -0.15503826307E+03  0.63476673525E+02 -0.21787402465E+03  0.27483675471E+03  0.50400001928E-02 0. -1.
       -1    1    3    3    0  502  0.15503826307E+03 -0.63476673525E+02  0.21094373821E+04  0.21160794456E+04  0.50400001928E-02 0.  1.
</event>
<event>
 5   0  0.8191876E-04  0.1502416E+04  0.7818609E-02  0.8882848E-01
        1   -1    0    0  501    0  0.00000000000E+00  0.00000000000E+00  0.83284717095E+03  0.83284717097E+03  0.50400001928E-02 0. -1.
       -1   -1    0    0    0  501  0.00000000000E+00  0.00000000000E+00 -0.67757100738E+03  0.67757100740E+03  0.50400001928E-02 0.  1.
    10030    2    1    2    0    0  0.00000000000E+00  0.00000000000E+00  0.15527616357E+03  0.15104181784E+04  0.15024155173E+04 0.  0.
        2    1    3    3  502    0  0.15200370131E+02  0.72124940456E+03 -0.13295645128E+03  0.73355924967E+03  0.25500000920E-02 0.  1.
       -2    1    3    3    0  502 -0.15200370131E+02 -0.72124940456E+03  0.28823261485E+03  0.77685892870E+03  0.25500000920E-02 0. -1.
</event>
<event>
 5   0  0.8365016E-04  0.1549865E+04  0.7818609E-02  0.8851954E-01
       -1   -1    0    0    0  501  0.00000000000E+00  0.00000000000E+00  0.75972933630E+03  0.75972933631E+03  0.50400001928E-02 0. -1.
        1   -1    0    0  501    0  0.00000000000E+00  0.00000000000E+00 -0.79044022052E+03  0.79044022054E+03  0.50400001928E-02 0.  1.
    10030    2    1    2    0    0  0.00000000000E+00  0.00000000000E+00 -0.30710884222E+02  0.15501695569E+04  0.15498653156E+04 0.  0.
        3    1    3    3  502    0  0.32234023125E+03  0.56887891207E+03 -0.43136277070E+03  0.78332642712E+03  0.10100000352E+00 0.  1.
       -3    1    3    3    0  502 -0.32234023125E+03 -0.56887891207E+03  0.40065188648E+03  0.76684312973E+03  0.10100000352E+00 0. -1.
</event>
<event>
 5   0  0.1511546E-03  0.1548371E+04  0.7818609E-02  0.8852909E-01
        2   -1    0    0  501    0  0.00000000000E+00  0.00000000000E+00  0.21515424716E+04  0.21515424716E+04  0.25500000920E-02 0.  1.
       -2   -1    0    0    0  501  0.00000000000E+00  0.00000000000E+00 -0.27857385946E+03  0.27857385948E+03  0.25500000920E-02 0. -1.
    10030    2    1    2    0    0  0.00000000000E+00  0.00000000000E+00  0.18729686121E+04  0.24301163310E+04  0.15483713897E+04 0.  0.
        1    1    3    3  502    0  0.59446308549E+02  0.38517064703E+03  0.19863540995E+04  0.20242264941E+04  0.50400001928E-02 0.  1.
       -1    1    3    3    0  502 -0.59446308549E+02 -0.38517064703E+03 -0.11338548739E+03  0.40588983691E+03  0.50400001928E-02 0. -1.
</event>
<event>
 5   0  0.8306301E-04  0.1478849E+04  0.7818609E-02  0.8898641E-01
        1   -1    0    0  501    0  0.00000000000E+00  0.00000000000E+00  0.14264996223E+04  0.14264996223E+04  0.50400001928E-02 0.  1.
       -1   -1    0    0    0  501  0.00000000000E+00  0.00000000000E+00 -0.38327973664E+03  0.38327973667E+03  0.50400001928E-02 0. -1.
    10030    2    1    2    0    0  0.00000000000E+00  0.00000000000E+00  0.10432198857E+04  0.18097793590E+04  0.14788487409E+04 0.  0.
        4    1    3    3  502    0 -0.93797211030E+02  0.59515682497E+03  0.10461763190E+04  0.12072680176E+04  0.12699999809E+01 0.  1.
       -4    1    3    3    0  502  0.93797211030E+02 -0.59515682497E+03 -0.29564332645E+01  0.60251134139E+03  0.12699999809E+01 0. -1.
</event>
<event>
 5   0  0.1526126E-03  0.1503290E+04  0.7818609E-02  0.8882268E-01
       -2   -1    0    0    0  501  0.00000000000E+00  0.00000000000E+00  0.33205017432E+03  0.33205017433E+03  0.25500000920E-02 0. -1.
        2   -1    0    0  501    0  0.00000000000E+00  0.00000000000E+00 -0.17014595406E+04  0.17014595406E+04  0.25500000920E-02 0.  1.
    10030    2    1    2    0    0  0.00000000000E+00  0.00000000000E+00 -0.13694093663E+04  0.20335097149E+04  0.15032896422E+04 0.  0.
        2    1    3    3  502    0  0.15304815467E+03 -0.63568892601E+03 -0.18320656767E+03  0.67903519404E+03  0.25500000920E-02 0. -1.
       -2    1    3    3    0  502 -0.15304815467E+03  0.63568892601E+03 -0.11862027986E+04  0.13544745209E+04  0.25500000920E-02 0.  1.
</event>
<event>
 5   0  0.8058234E-04  0.1506205E+04  0.7818609E-02  0.8880337E-01
       -1   -1    0    0    0  501  0.00000000000E+00  0.00000000000E+00  0.82273590428E+03  0.82273590430E+03  0.50400001928E-02 0.  1.
        1   -1    0    0  501    0  0.00000000000E+00  0.00000000000E+00 -0.68936245654E+03  0.68936245656E+03  0.50400001928E-02 0. -1.
    10030    2    1    2    0    0  0.00000000000E+00  0.00000000000E+00  0.13337344774E+03  0.15120983609E+04  0.15062048255E+04 0.  0.
        5    1    3    3  502    0  0.11029024292E+03 -0.34006800588E+03 -0.59872724939E+03  0.69735686379E+03  0.46999998093E+01 0. -1.
       -5    1    3    3    0  502 -0.11029024292E+03  0.34006800588E+03  0.73210069713E+03  0.81474149707E+03  0.46999998093E+01 0.  1.
</event>
<event>
 5   0  0.1552067E-03  0.1472805E+04  0.7818609E-02  0.8902741E-01
       -2   -1    0    0    0  501  0.00000000000E+00  0.00000000000E+00  0.41634376325E+03  0.41634376325E+03  0.25500000920E-02 0. -1.
        2   -1    0    0  501    0  0.00000000000E+00  0.00000000000E+00 -0.13025022339E+04  0.13025022339E+04  0.25500000920E-02 0.  1.
    10030    2    1    2    0    0  0.00000000000E+00  0.00000000000E+00 -0.88615847068E+03  0.17188459972E+04  0.14728050539E+04 0.  0.
        3    1    3    3  502    0  0.15380962648E+03 -0.53478777318E+03 -0.10059745704E+04  0.11496261175E+04  0.10100000352E+00 0.  1.
       -3    1    3    3    0  502 -0.15380962648E+03  0.53478777318E+03  0.11981609967E+03  0.56921987973E+03  0.10100000352E+00 0. -1.
</event>
<event>
 5   0  0.8191876E-04  0.1371449E+04  0.7818609E-02  0.8974748E-01
        1   -1    0    0  501    0  0.00000000000E+00  0.00000000000E+00  0.72200680291E+03  0.72200680293E+03  0.50400001928E-02 0.  1.
       -1   -1    0    0    0  501  0.00000000000E+00  0.00000000000E+00 -0.65126566176E+03  0.65126566178E+03  0.50400001928E-02 0. -1.
    10030    2    1    2    0    0  0.00000000000E+00  0.00000000000E+00  0.70741141152E+02  0.13732724647E+04  0.13714492164E+04 0.  0.
        2    1    3    3  502    0  0.17343478549E+03  0.65803297841E+03  0.11992934506E+03  0.69099209352E+03  0.25500000920E-02 0.  1.
       -2    1    3    3    0  502 -0.17343478549E+03 -0.65803297841E+03 -0.49188203905E+02  0.68228037118E+03  0.25500000920E-02 0. -1.
</event>
<event>
 5   0  0.1526126E-03  0.1446382E+04  0.7818609E-02  0.8920913E-01
       -2   -1    0    0    0  501  0.00000000000E+00  0.00000000000E+00  0.26057355520E+03  0.26057355521E+03  0.25500000920E-02 0. -1.
        2   -1    0    0  501    0  0.00000000000E+00  0.00000000000E+00 -0.20071299085E+04  0.20071299085E+04  0.25500000920E-02 0.  1.
    10030    2    1    2    0    0  0.00000000000E+00  0.00000000000E+00 -0.17465563533E+04  0.22677034637E+04  0.14463816592E+04 0.  0.
        2    1    3    3  502    0 -0.42806939447E+03 -0.58213829589E+03 -0.91969737616E+03  0.11696032087E+04  0.25500000920E-02 0. -1.
       -2    1    3    3    0  502  0.42806939447E+03  0.58213829589E+03 -0.82685897713E+03  0.10981002550E+04  0.25500000920E-02 0.  1.
</event>
<event>
 5   0  0.1511546E-03  0.1486446E+04  0.7818609E-02  0.8893516E-01
       -2   -1    0    0    0  501  0.00000000000E+00  0.00000000000E+00  0.57591659695E+03  0.57591659696E+03  0.25500000920E-02 0.  1.
        2   -1    0    0  501    0  0.00000000000E+00  0.00000000000E+00 -0.95913294320E+03  0.95913294320E+03  0.25500000920E-02 0. -1.
    10030    2    1    2    0    0  0.00000000000E+00  0.00000000000E+00 -0.38321634624E+03  0.15350495402E+04  0.14864462058E+04 0.  0.
        1    1    3    3  502    0  0.76723215356E+02 -0.37223776930E+03 -0.85118852536E+03  0.93218523610E+03  0.50400001928E-02 0. -1.
       -1    1    3    3    0  502 -0.76723215356E+02  0.37223776930E+03  0.46797217911E+03  0.60286430407E+03  0.50400001928E-02 0.  1.
</event>
<event>
 5   0  0.8365016E-04  0.1173711E+04  0.7818609E-02  0.9136184E-01
       -1   -1    0    0    0  501  0.00000000000E+00  0.00000000000E+00  0.98787933822E+03  0.98787933823E+03  0.50400001928E-02 0.  1.
        1   -1    0    0  501    0  0.00000000000E+00  0.00000000000E+00 -0.34862475508E+03  0.34862475512E+03  0.50400001928E-02 0. -1.
    10030    2    1    2    0    0  0.00000000000E+00  0.00000000000E+00  0.63925458314E+03  0.13365040933E+04  0.11737106839E+04 0.  0.
        3    1    3    3  502    0 -0.17397028167E+03  0.35936804760E+03  0.80938487129E+03  0.90250481030E+03  0.10100000352E+00 0.  1.
       -3    1    3    3    0  502  0.17397028167E+03 -0.35936804760E+03 -0.17013028815E+03  0.43399928305E+03  0.10100000352E+00 0. -1.
</event>
<event>
 5   0  0.8306301E-04  0.1445420E+04  0.7818609E-02  0.8921582E-01
       -1   -1    0    0    0  501  0.00000000000E+00  0.00000000000E+00  0.79795551080E+03  0.79795551081E+03  0.50400001928E-02 0.  1.
        1   -1    0    0  501    0  0.00000000000E+00  0.00000000000E+00 -0.65456011496E+03  0.65456011498E+03  0.50400001928E-02 0. -1.
    10030    2    1    2    0    0  0.00000000000E+00  0.00000000000E+00  0.14339539584E+03  0.14525156258E+04  0.14454201478E+04 0.  0.
        4    1    3    3  502    0 -0.13871875107E+02 -0.56034543822E+03  0.53014856458E+03  0.77151704614E+03  0.12699999809E+01 0.  1.
       -4    1    3    3    0  502  0.13871875107E+02  0.56034543822E+03 -0.38675316874E+03  0.68099857965E+03  0.12699999809E+01 0. -1.
</event>
<event>
 5   0  0.1526126E-03  0.1006370E+04  0.7818609E-02  0.9301585E-01
        2   -1    0    0  501    0  0.00000000000E+00  0.00000000000E+00  0.10010491768E+04  0.10010491768E+04  0.25500000920E-02 0. -1.
       -2   -1    0    0    0  501  0.00000000000E+00  0.00000000000E+00 -0.25292996084E+03  0.25292996085E+03  0.25500000920E-02 0.  1.
    10030    2    1    2    0    0  0.00000000000E+00  0.00000000000E+00  0.74811921591E+03  0.12539791376E+04  0.10063703674E+04 0.  0.
        2    1    3    3  502    0 -0.63891314470E+02 -0.12516841928E+03 -0.22798098986E+03  0.26781442268E+03  0.25500000920E-02 0.  1.
       -2    1    3    3    0  502  0.63891314470E+02  0.12516841928E+03  0.97610020577E+03  0.98616471493E+03  0.25500000920E-02 0. -1.
</event>
<event>
 5   0  0.1500956E-03  0.1501782E+04  0.7818609E-02  0.8883269E-01
       -2   -1    0    0    0  501  0.00000000000E+00  0.00000000000E+00  0.26487816338E+03  0.26487816339E+03  0.25500000920E-02 0.  1.
        2   -1    0    0  501    0  0.00000000000E+00  0.00000000000E+00 -0.21286654743E+04  0.21286654743E+04  0.25500000920E-02 0. -1.
    10030    2    1    2    0    0  0.00000000000E+00  0.00000000000E+00 -0.18637873109E+04  0.23935436377E+04  0.15017816103E+04 0.  0.
        4    1    3    3  502    0 -0.97777122423E+02  0.17783819055E+03  0.22033710111E+03  0.29956107677E+03  0.12699999809E+01 0.  1.
       -4    1    3    3    0  502  0.97777122423E+02 -0.17783819055E+03 -0.20841244120E+04  0.20939825609E+04  0.12699999809E+01 0. -1.
</event>
<event>
 5   0  0.1552067E-03  0.1519129E+04  0.7818609E-02  0.8871831E-01
       -2   -1    0    0    0  501  0.00000000000E+00  0.00000000000E+00  0.39156236960E+03  0.39156236961E+03  0.25500000920E-02 0. -1.
        2   -1    0    0  501    0  0.00000000000E+00  0.00000000000E+00 -0.14734263128E+04  0.14734263128E+04  0.25500000920E-02 0.  1.
    10030    2    1    2    0    0  0.00000000000E+00  0.00000000000E+00 -0.10818639432E+04  0.18649886824E+04  0.15191290906E+04 0.  0.
        3    1    3    3  502    0 -0.18909595838E+03  0.62559625427E+03 -0.10161056829E+04  0.12081385367E+04  0.10100000352E+00 0.  1.
       -3    1    3    3    0  502  0.18909595838E+03 -0.62559625427E+03 -0.65758260217E+02  0.65685014564E+03  0.10100000352E+00 0. -1.
</event>
<event>
 5   0  0.1484056E-03  0.1428819E+04  0.7818609E-02  0.8933218E-01
       -2   -1    0    0    0  501  0.00000000000E+00  0.00000000000E+00  0.26184398579E+03  0.26184398580E+03  0.25500000920E-02 0. -1.
        2   -1    0    0  501    0  0.00000000000E+00  0.00000000000E+00 -0.19491803867E+04  0.19491803867E+04  0.25500000920E-02 0.  1.
    10030    2    1    2    0    0  0.00000000000E+00  0.00000000000E+00 -0.16873364009E+04  0.22110243725E+04  0.14288193189E+04 0.  0.
        5    1    3    3  502    0 -0.61427469136E+02  0.14133080178E+03 -0.19231301292E+04  0.19293002134E+04  0.46999998093E+01 0.  1.
       -5    1    3    3    0  502  0.61427469136E+02 -0.14133080178E+03  0.23579372833E+03  0.28172415909E+03  0.46999998093E+01 0. -1.
</event>
<event>
 5   0  0.8306301E-04  0.1527979E+04  0.7818609E-02  0.8866058E-01
       -1   -1    0    0    0  501  0.00000000000E+00  0.00000000000E+00  0.71320794703E+03  0.71320794705E+03  0.50400001928E-02 0.  1.
        1   -1    0    0  501    0  0.00000000000E+00  0.00000000000E+00 -0.81838668120E+03  0.81838668122E+03  0.50400001928E-02 0. -1.
    10030    2    1    2    0    0  0.00000000000E+00  0.00000000000E+00 -0.10517873417E+03  0.15315946283E+04  0.15279789067E+04 0.  0.
        4    1    3    3  502    0  0.12263190982E+03 -0.20390858823E+03 -0.78029695894E+03  0.81577095725E+03  0.12699999809E+01 0. -1.
       -4    1    3    3    0  502 -0.12263190982E+03  0.20390858823E+03  0.67511822477E+03  0.71582367101E+03  0.12699999809E+01 0.  1.
</event>
<event>
 5   0  0.8058234E-04  0.1472235E+04  0.7818609E-02  0.8903129E-01
       -1   -1    0    0    0  501  0.00000000000E+00  0.00000000000E+00  0.53178425059E+03  0.53178425061E+03  0.50400001928E-02 0. -1.
        1   -1    0    0  501    0  0.00000000000E+00  0.00000000000E+00 -0.10189633566E+04  0.10189633566E+04  0.50400001928E-02 0.  1.
    10030    2    1    2    0    0  0.00000000000E+00  0.00000000000E+00 -0.48717910597E+03  0.15507476072E+04  0.14722345805E+04 0.  0.
        5    1    3    3  502    0  0.41400495469E+03  0.28593516700E+03 -0.80953964488E+03  0.95317131140E+03  0.46999998093E+01 0.  1.
       -5    1    3    3    0  502 -0.41400495469E+03 -0.28593516700E+03  0.32236053891E+03  0.59757629578E+03  0.46999998093E+01 0. -1.
</event>
<event>
 5   0  0.7870317E-04  0.1520891E+04  0.7818609E-02  0.8870678E-01
        1   -1    0    0  501    0  0.00000000000E+00  0.00000000000E+00  0.17224313110E+04  0.17224313110E+04  0.50400001928E-02 0.  1.
       -1   -1    0    0    0  501  0.00000000000E+00  0.00000000000E+00 -0.33573332888E+03  0.33573332891E+03  0.50400001928E-02 0. -1.
    10030    2    1    2    0    0  0.00000000000E+00  0.00000000000E+00  0.13866979821E+04  0.20581646399E+04  0.15208913148E+04 0.  0.
        1    1    3    3  502    0 -0.21127141045E+03 -0.97243417298E+02  0.16731198542E+04  0.16892074880E+04  0.50400001928E-02 0.  1.
       -1    1    3    3    0  502  0.21127141045E+03  0.97243417298E+02 -0.28642187209E+03  0.36895715187E+03  0.50400001928E-02 0. -1.
</event>
<event>
 5   0  0.1500956E-03  0.1508467E+04  0.7818609E-02  0.8878842E-01
       -2   -1    0    0    0  501  0.00000000000E+00  0.00000000000E+00  0.25930414960E+03  0.25930414962E+03  0.25500000920E-02 0. -1.
        2   -1    0    0  501    0  0.00000000000E+00  0.00000000000E+00 -0.21938260795E+04  0.21938260795E+04  0.25500000920E-02 0.  1.
    10030    2    1    2    0    0  0.00000000000E+00  0.00000000000E+00 -0.19345219299E+04  0.24531302291E+04  0.15084670443E+04 0.  0.
        4    1    3    3  502    0  0.25633915929E+03  0.17130243054E+03  0.15214584756E+03  0.34380846285E+03  0.12699999809E+01 0. -1.
       -4    1    3    3    0  502 -0.25633915929E+03 -0.17130243054E+03 -0.20866677774E+04  0.21093217662E+04  0.12699999809E+01 0.  1.
</event>
<event>
 5   0  0.1500956E-03  0.1540533E+04  0.7818609E-02  0.8857938E-01
       -2   -1    0    0    0  501  0.00000000000E+00  0.00000000000E+00  0.90931981951E+03  0.90931981951E+03  0.25500000920E-02 0. -1.
        2   -1    0    0  501    0  0.00000000000E+00  0.00000000000E+00 -0.65247688822E+03  0.65247688823E+03  0.25500000920E-02 0.  1.
    10030    2    1    2    0    0  0.00000000000E+00  0.00000000000E+00  0.25684293128E+03  0.15617967077E+04  0.15405325913E+04 0.  0.
        4    1    3    3  502    0  0.47777266011E+02 -0.47402217554E+02  0.90633215134E+03  0.90882848703E+03  0.12699999809E+01 0. -1.
       -4    1    3    3    0  502 -0.47777266011E+02  0.47402217554E+02 -0.64948922006E+03  0.65296822071E+03  0.12699999809E+01 0.  1.
</event>
<event>
 5   0  0.5603875E-04  0.1492138E+04  0.7818609E-02  0.8889698E-01
       -3   -1    0    0    0  501  0.00000000000E+00  0.00000000000E+00  0.57522835052E+03  0.57522835938E+03  0.10100000352E+00 0. -1.
        3   -1    0    0  501    0  0.00000000000E+00  0.00000000000E+00 -0.96764840814E+03  0.96764841341E+03  0.10100000352E+00 0.  1.
    10030    2    1    2    0    0  0.00000000000E+00  0.00000000000E+00 -0.39242005762E+03  0.15428767728E+04  0.14921378068E+04 0.  0.
        4    1    3    3  502    0  0.30626971144E+03 -0.11481377355E+02  0.50712890519E+03  0.59254898325E+03  0.12699999809E+01 0. -1.
       -4    1    3    3    0  502 -0.30626971144E+03  0.11481377355E+02 -0.89954896281E+03  0.95032778954E+03  0.12699999809E+01 0.  1.
</event>
<event>
 5   0  0.1526126E-03  0.1446330E+04  0.7818609E-02  0.8920948E-01
        2   -1    0    0  501    0  0.00000000000E+00  0.00000000000E+00  0.33398287670E+04  0.33398287670E+04  0.25500000920E-02 0.  1.
       -2   -1    0    0    0  501  0.00000000000E+00  0.00000000000E+00 -0.15658525988E+03  0.15658525990E+03  0.25500000920E-02 0. -1.
    10030    2    1    2    0    0  0.00000000000E+00  0.00000000000E+00  0.31832435072E+04  0.34964140269E+04  0.14463304678E+04 0.  0.
        2    1    3    3  502    0  0.78837472345E+02  0.43639377430E+03  0.29725546060E+04  0.30054510076E+04  0.25500000920E-02 0.  1.
       -2    1    3    3    0  502 -0.78837472345E+02 -0.43639377430E+03  0.21068890113E+03  0.49096301934E+03  0.25500000920E-02 0. -1.
</event>
<event>
 5   0  0.8191876E-04  0.1509786E+04  0.7818609E-02  0.8877971E-01
       -1   -1    0    0    0  501  0.00000000000E+00  0.00000000000E+00  0.41829704050E+03  0.41829704053E+03  0.50400001928E-02 0. -1.
        1   -1    0    0  501    0  0.00000000000E+00  0.00000000000E+00 -0.13623419494E+04  0.13623419494E+04  0.50400001928E-02 0.  1.
    10030    2    1    2    0    0  0.00000000000E+00  0.00000000000E+00 -0.94404490888E+03  0.17806389899E+04  0.15097862175E+04 0.  0.
        2    1    3    3  502    0 -0.64354525243E+02 -0.51416564835E+02 -0.13570257148E+04  0.13595234308E+04  0.25500000920E-02 0.  1.
       -2    1    3    3    0  502  0.64354525243E+02  0.51416564835E+02  0.41298080596E+03  0.42111555915E+03  0.25500000920E-02 0. -1.
</event>
<event>
 5   0  0.8365016E-04  0.1525163E+04  0.7818609E-02  0.8867890E-01
       -1   -1    0    0    0  501  0.00000000000E+00  0.00000000000E+00  0.33373386712E+03  0.33373386716E+03  0.50400001928E-02 0.  1.
        1   -1    0    0  501    0  0.00000000000E+00  0.00000000000E+00 -0.17424977248E+04  0.17424977248E+04  0.50400001928E-02 0. -1.
    10030    2    1    2    0    0  0.00000000000E+00  0.00000000000E+00 -0.14087638577E+04  0.20762315920E+04  0.15251629476E+04 0.  0.
        3    1    3    3  502    0 -0.33813183143E+03 -0.11794978068E+03  0.21214519580E+03  0.41623416546E+03  0.10100000352E+00 0.  1.
       -3    1    3    3    0  502  0.33813183143E+03  0.11794978068E+03 -0.16209090535E+04  0.16599974265E+04  0.10100000352E+00 0. -1.
</event>
<event>
 5   0  0.1484056E-03  0.1509713E+04  0.7818609E-02  0.8878020E-01
        2   -1    0    0  501    0  0.00000000000E+00  0.00000000000E+00  0.84710781910E+03  0.84710781910E+03  0.25500000920E-02 0. -1.
       -2   -1    0    0    0  501  0.00000000000E+00  0.00000000000E+00 -0.67265111986E+03  0.67265111986E+03  0.25500000920E-02 0.  1.
    10030    2    1    2    0    0  0.00000000000E+00  0.00000000000E+00  0.17445669924E+03  0.15197589390E+04  0.15097125861E+04 0.  0.
        5    1    3    3  502    0 -0.47334449264E+03  0.57179134760E+03  0.22520091093E+03  0.77571766396E+03  0.46999998093E+01 0. -1.
       -5    1    3    3    0  502  0.47334449264E+03 -0.57179134760E+03 -0.50744211693E+02  0.74404127501E+03  0.46999998093E+01 0.  1.
</event>
<event>
 5   0  0.1511546E-03  0.1495192E+04  0.7818609E-02  0.8887656E-01
        2   -1    0    0  501    0  0.00000000000E+00  0.00000000000E+00  0.14010303642E+04  0.14010303642E+04  0.25500000920E-02 0.  1.
       -2   -1    0    0    0  501  0.00000000000E+00  0.00000000000E+00 -0.39892067773E+03  0.39892067774E+03  0.25500000920E-02 0. -1.
    10030    2    1    2    0    0  0.00000000000E+00  0.00000000000E+00  0.10021096864E+04  0.17999510419E+04  0.14951922718E+04 0.  0.
        1    1    3    3  502    0  0.66563192884E+03  0.30182039255E+02  0.90915563058E+03  0.11271826741E+04  0.50400001928E-02 0.  1.
       -1    1    3    3    0  502 -0.66563192884E+03 -0.30182039255E+02  0.92954055860E+02  0.67276836780E+03  0.50400001928E-02 0. -1.
</event>
<event>
 5   0  0.8306301E-04  0.1425795E+04  0.7818609E-02  0.8935355E-01
       -1   -1    0    0    0  501  0.00000000000E+00  0.00000000000E+00  0.11307235322E+04  0.11307235322E+04  0.50400001928E-02 0.  1.
        1   -1    0    0  501    0  0.00000000000E+00  0.00000000000E+00 -0.44946708250E+03  0.44946708253E+03  0.50400001928E-02 0. -1.
    10030    2    1    2    0    0  0.00000000000E+00  0.00000000000E+00  0.68125644968E+03  0.15801906147E+04  0.14257952268E+04 0.  0.
        4    1    3    3  502    0 -0.23409593428E+03 -0.63956329214E+03  0.57410434249E+03  0.89075222148E+03  0.12699999809E+01 0.  1.
       -4    1    3    3    0  502  0.23409593428E+03  0.63956329214E+03  0.10715210719E+03  0.68943839324E+03  0.12699999809E+01 0. -1.
</event>
<event>
 5   0  0.8306301E-04  0.1491626E+04  0.7818609E-02  0.8890041E-01
        1   -1    0    0  501    0  0.00000000000E+00  0.00000000000E+00  0.12489140546E+04  0.12489140547E+04  0.50400001928E-02 0.  1.
       -1   -1    0    0    0  501  0.00000000000E+00  0.00000000000E+00 -0.44537644687E+03  0.44537644690E+03  0.50400001928E-02 0. -1.
    10030    2    1    2    0    0  0.00000000000E+00  0.00000000000E+00  0.80353760777E+03  0.16942905015E+04  0.14916258299E+04 0.  0.
        4    1    3    3  502    0  0.11630317046E+03 -0.49812731307E+03 -0.21472422165E+03  0.55476603334E+03  0.12699999809E+01 0. -1.
       -4    1    3    3    0  502 -0.11630317046E+03  0.49812731307E+03  0.10182618294E+04  0.11395244682E+04  0.12699999809E+01 0.  1.
</event>
<event>
 5   0  0.8058234E-04  0.1536415E+04  0.7818609E-02  0.8860592E-01
       -1   -1    0    0    0  501  0.00000000000E+00  0.00000000000E+00  0.57701250701E+03  0.57701250703E+03  0.50400001928E-02 0. -1.
        1   -1    0    0  501    0  0.00000000000E+00  0.00000000000E+00 -0.10227554801E+04  0.10227554801E+04  0.50400001928E-02 0.  1.
    10030    2    1    2    0    0  0.00000000000E+00  0.00000000000E+00 -0.44574297306E+03  0.15997679871E+04  0.15364149227E+04 0.  0.
        5    1    3    3  502    0 -0.26876404480E+03 -0.37124537696E+03  0.41904199044E+03  0.62102779442E+03  0.46999998093E+01 0. -1.
       -5    1    3    3    0  502  0.26876404480E+03  0.37124537696E+03 -0.86478496350E+03  0.97874019269E+03  0.46999998093E+01 0.  1.
</event>
<event>
 5   0  0.1500956E-03  0.1549064E+04  0.7818609E-02  0.8852466E-01
        2   -1    0    0  501    0  0.00000000000E+00  0.00000000000E+00  0.15567458297E+04  0.15567458297E+04  0.25500000920E-02 0.  1.
       -2   -1    0    0    0  501  0.00000000000E+00  0.00000000000E+00 -0.38535508774E+03  0.38535508775E+03  0.25500000920E-02 0. -1.
    10030    2    1    2    0    0  0.00000000000E+00  0.00000000000E+00  0.11713907420E+04  0.19421009174E+04  0.15490641379E+04 0.  0.
        4    1    3    3  502    0 -0.31710987255E+02 -0.37893758435E+02  0.15547664752E+04  0.15555519692E+04  0.12699999809E+01 0.  1.
       -4    1    3    3    0  502  0.31710987255E+02  0.37893758435E+02 -0.38337573324E+03  0.38654894823E+03  0.12699999809E+01 0. -1.
</event>
<event>
 5   0  0.8058234E-04  0.1489042E+04  0.7818609E-02  0.8891773E-01
       -1   -1    0    0    0  501  0.00000000000E+00  0.00000000000E+00  0.56844875853E+03  0.56844875855E+03  0.50400001928E-02 0. -1.
        1   -1    0    0  501    0  0.00000000000E+00  0.00000000000E+00 -0.97512996035E+03  0.97512996036E+03  0.50400001928E-02 0.  1.
    10030    2    1    2    0    0  0.00000000000E+00  0.00000000000E+00 -0.40668120182E+03  0.15435787189E+04  0.14890418602E+04 0.  0.
        5    1    3    3  502    0  0.64414099243E+01 -0.63664539073E+03 -0.60339004408E+03  0.87718896515E+03  0.46999998093E+01 0.  1.
       -5    1    3    3    0  502 -0.64414099243E+01  0.63664539073E+03  0.19670884226E+03  0.66638975376E+03  0.46999998093E+01 0. -1.
</event>
<event>
 5   0  0.1552067E-03  0.1520068E+04  0.7818609E-02  0.8871216E-01
       -2   -1    0    0    0  501  0.00000000000E+00  0.00000000000E+00  0.46435299219E+03  0.46435299220E+03  0.25500000920E-02 0. -1.
        2   -1    0    0  501    0  0.00000000000E+00  0.00000000000E+00 -0.12439930286E+04  0.12439930286E+04  0.25500000920E-02 0.  1.
    10030    2    1    2    0    0  0.00000000000E+00  0.00000000000E+00 -0.77964003636E+03  0.17083460208E+04  0.15200682683E+04 0.  0.
        3    1    3    3  502    0 -0.84806269201E+02  0.68309697627E+03 -0.27667494031E+02  0.68889700443E+03  0.10100000352E+00 0. -1.
       -3    1    3    3    0  502  0.84806269201E+02 -0.68309697627E+03 -0.75197254233E+03  0.10194490163E+04  0.10100000352E+00 0.  1.
</event>
<event>
 5   0  0.1552067E-03  0.1533180E+04  0.7818609E-02  0.8862683E-01
       -2   -1    0    0    0  501  0.00000000000E+00  0.00000000000E+00  0.36251421153E+03  0.36251421154E+03  0.25500000920E-02 0.  1.
        2   -1    0    0  501    0  0.00000000000E+00  0.00000000000E+00 -0.16210683886E+04  0.16210683886E+04  0.25500000920E-02 0. -1.
    10030    2    1    2    0    0  0.00000000000E+00  0.00000000000E+00 -0.12585541771E+04  0.19835826002E+04  0.15331801313E+04 0.  0.
        3    1    3    3  502    0  0.36079375375E+03  0.26215480519E+03  0.17739976275E+03  0.47996662452E+03  0.10100000352E+00 0.  1.
       -3    1    3    3    0  502 -0.36079375375E+03 -0.26215480519E+03 -0.14359539399E+04  0.15036159756E+04  0.10100000352E+00 0. -1.
</event>
<event>
 5   0  0.5603875E-04  0.1477470E+04  0.7818609E-02  0.8899575E-01
       -3   -1    0    0    0  501  0.00000000000E+00  0.00000000000E+00  0.79696366010E+03  0.79696366650E+03  0.10100000352E+00 0. -1.
        3   -1    0    0  501    0  0.00000000000E+00  0.00000000000E+00 -0.68476064775E+03  0.68476065520E+03  0.10100000352E+00 0.  1.
    10030    2    1    2    0    0  0.00000000000E+00  0.00000000000E+00  0.11220301236E+03  0.14817243217E+04  0.14774699488E+04 0.  0.
        1    1    3    3  502    0  0.16435766706E+03 -0.69962108813E+03 -0.11540629038E+03  0.72787479800E+03  0.50400001928E-02 0. -1.
       -1    1    3    3    0  502 -0.16435766706E+03  0.69962108813E+03  0.22760930274E+03  0.75384952371E+03  0.50400001928E-02 0.  1.
</event>
<event>
 5   0  0.8058234E-04  0.1501931E+04  0.7818609E-02  0.8883170E-01
       -1   -1    0    0    0  501  0.00000000000E+00  0.00000000000E+00  0.55498267530E+03  0.55498267532E+03  0.50400001928E-02 0. -1.
        1   -1    0    0  501    0  0.00000000000E+00  0.00000000000E+00 -0.10161568828E+04  0.10161568828E+04  0.50400001928E-02 0.  1.
    10030    2    1    2    0    0  0.00000000000E+00  0.00000000000E+00 -0.46117420751E+03  0.15711395581E+04  0.15019313771E+04 0.  0.
        5    1    3    3  502    0 -0.60875703801E+03 -0.35151763211E+03 -0.50691369648E+03  0.86667950402E+03  0.46999998093E+01 0.  1.
       -5    1    3    3    0  502  0.60875703801E+03  0.35151763211E+03  0.45739488972E+02  0.70446005413E+03  0.46999998093E+01 0. -1.
</event>
<event>
 5   0  0.1552067E-03  0.1544750E+04  0.7818609E-02  0.8855228E-01
        2   -1    0    0  501    0  0.00000000000E+00  0.00000000000E+00  0.10379857537E+04  0.10379857537E+04  0.25500000920E-02 0.  1.
       -2   -1    0    0    0  501  0.00000000000E+00  0.00000000000E+00 -0.57473130332E+03  0.57473130333E+03  0.25500000920E-02 0. -1.
    10030    2    1    2    0    0  0.00000000000E+00  0.00000000000E+00  0.46325445035E+03  0.16127170570E+04  0.15447496950E+04 0.  0.
        3    1    3    3  502    0  0.39143821641E+03 -0.34267927101E+03 -0.36437634447E+03  0.63515595774E+03  0.10100000352E+00 0. -1.
       -3    1    3    3    0  502 -0.39143821641E+03  0.34267927101E+03  0.82763079482E+03  0.97756109926E+03  0.10100000352E+00 0.  1.
</event>
<event>
 5   0  0.5603875E-04  0.1659836E+04  0.7818609E-02  0.8784609E-01
       -3   -1    0    0    0  501  0.00000000000E+00  0.00000000000E+00  0.47217982310E+03  0.47217983390E+03  0.10100000352E+00 0. -1.
        3   -1    0    0  501    0  0.00000000000E+00  0.00000000000E+00 -0.14586901179E+04  0.14586901214E+04  0.10100000352E+00 0.  1.
    10030    2    1    2    0    0  0.00000000000E+00  0.00000000000E+00 -0.98651029476E+03  0.19308699553E+04  0.16598362035E+04 0.  0.
        5    1    3    3  502    0 -0.45263353955E+03  0.67742222160E+02 -0.12985975361E+04  0.13768964306E+04  0.46999998093E+01 0.  1.
       -5    1    3    3    0  502  0.45263353955E+03 -0.67742222160E+02  0.31208724136E+03  0.55397352465E+03  0.46999998093E+01 0. -1.
</event>
<event>
 5   0  0.1526126E-03  0.1477778E+04  0.7818609E-02  0.8899366E-01
       -2   -1    0    0    0  501  0.00000000000E+00  0.00000000000E+00  0.56385689445E+03  0.56385689446E+03  0.25500000920E-02 0. -1.
        2   -1    0    0  501    0  0.00000000000E+00  0.00000000000E+00 -0.96825456973E+03  0.96825456973E+03  0.25500000920E-02 0.  1.
    10030    2    1    2    0    0  0.00000000000E+00  0.00000000000E+00 -0.40439767527E+03  0.15321114642E+04  0.14777780818E+04 0.  0.
        2    1    3    3  502    0 -0.64899714880E+03  0.35184605231E+03 -0.17000774915E+03  0.75755896038E+03  0.25500000920E-02 0.  1.
       -2    1    3    3    0  502  0.64899714880E+03 -0.35184605231E+03 -0.23438992612E+03  0.77455250380E+03  0.25500000920E-02 0. -1.
</event>
<event>
 5   0  0.1511546E-03  0.1491577E+04  0.7818609E-02  0.8890074E-01
        2   -1    0    0  501    0  0.00000000000E+00  0.00000000000E+00  0.48682705876E+03  0.48682705877E+03  0.25500000920E-02 0. -1.
       -2   -1    0    0    0  501  0.00000000000E+00  0.00000000000E+00 -0.11425011479E+04  0.11425011479E+04  0.25500000920E-02 0.  1.
    10030    2    1    2    0    0  0.00000000000E+00  0.00000000000E+00 -0.65567408911E+03  0.16293282067E+04  0.14915769822E+04 0.  0.
        1    1    3    3  502    0  0.30129025072E+03 -0.23484669514E+03  0.37184169458E+03  0.53309945718E+03  0.50400001928E-02 0. -1.
       -1    1    3    3    0  502 -0.30129025072E+03  0.23484669514E+03 -0.10275157837E+04  0.10962287495E+04  0.50400001928E-02 0.  1.
</event>
<event>
 5   0  0.7870317E-04  0.1519348E+04  0.7818609E-02  0.8871688E-01
       -1   -1    0    0    0  501  0.00000000000E+00  0.00000000000E+00  0.53307338512E+03  0.53307338514E+03  0.50400001928E-02 0. -1.
        1   -1    0    0  501    0  0.00000000000E+00  0.00000000000E+00 -0.10825984589E+04  0.10825984589E+04  0.50400001928E-02 0.  1.
    10030    2    1    2    0    0  0.00000000000E+00  0.00000000000E+00 -0.54952507378E+03  0.16156718441E+04  0.15193477880E+04 0.  0.
        1    1    3    3  502    0 -0.15661028604E+03 -0.46057668958E+03 -0.89523221009E+03  0.10188711296E+04  0.50400001928E-02 0.  1.
       -1    1    3    3    0  502  0.15661028604E+03  0.46057668958E+03  0.34570713631E+03  0.59680071448E+03  0.50400001928E-02 0. -1.
</event>
<event>
 5   0  0.1500956E-03  0.1519341E+04  0.7818609E-02  0.8871692E-01
       -2   -1    0    0    0  501  0.00000000000E+00  0.00000000000E+00  0.32896124317E+03  0.32896124318E+03  0.25500000920E-02 0.  1.
        2   -1    0    0  501    0  0.00000000000E+00  0.00000000000E+00 -0.17543087072E+04  0.17543087072E+04  0.25500000920E-02 0. -1.
    10030    2    1    2    0    0  0.00000000000E+00  0.00000000000E+00 -0.14253474640E+04  0.20832699503E+04  0.15193414010E+04 0.  0.
        4    1    3    3  502    0 -0.70292509600E+03  0.29476772636E+02 -0.31973132716E+03  0.77278865493E+03  0.12699999809E+01 0.  1.
       -4    1    3    3    0  502  0.70292509600E+03 -0.29476772636E+02 -0.11056161368E+04  0.13104812954E+04  0.12699999809E+01 0. -1.
</event>
<event>
 5   0  0.1500956E-03  0.1518140E+04  0.7818609E-02  0.8872479E-01
       -2   -1    0    0    0  501  0.00000000000E+00  0.00000000000E+00  0.43722510207E+03  0.43722510208E+03  0.25500000920E-02 0.  1.
        2   -1    0    0  501    0  0.00000000000E+00  0.00000000000E+00 -0.13178276738E+04  0.13178276738E+04  0.25500000920E-02 0. -1.
    10030    2    1    2    0    0  0.00000000000E+00  0.00000000000E+00 -0.88060257174E+03  0.17550527759E+04  0.15181400979E+04 0.  0.
        4    1    3    3  502    0  0.35298389660E+03  0.31334514215E+03 -0.11275491428E+04  0.12223548960E+04  0.12699999809E+01 0. -1.
       -4    1    3    3    0  502 -0.35298389660E+03 -0.31334514215E+03  0.24694657109E+03  0.53269787989E+03  0.12699999809E+01 0.  1.
</event>
<event>
 5   0  0.1484056E-03  0.1468798E+04  0.7818609E-02  0.8905471E-01
        2   -1    0    0  501    0  0.00000000000E+00  0.00000000000E+00  0.16417840551E+04  0.16417840551E+04  0.25500000920E-02 0. -1.
       -2   -1    0    0    0  501  0.00000000000E+00  0.00000000000E+00 -0.32850974911E+03  0.32850974912E+03  0.25500000920E-02 0.  1.
    10030    2    1    2    0    0  0.00000000000E+00  0.00000000000E+00  0.13132743060E+04  0.19702938042E+04  0.14687982408E+04 0.  0.
        5    1    3    3  502    0 -0.68450619996E+02  0.32305008732E+03 -0.22327833433E+03  0.39865041186E+03  0.46999998093E+01 0.  1.
       -5    1    3    3    0  502  0.68450619996E+02 -0.32305008732E+03  0.15365526403E+04  0.15716433923E+04  0.46999998093E+01 0. -1.
</event>
<event>
 5   0  0.8306301E-04  0.1494538E+04  0.7818609E-02  0.8888093E-01
       -1   -1    0    0    0  501  0.00000000000E+00  0.00000000000E+00  0.25459946079E+03  0.25459946084E+03  0.50400001928E-02 0. -1.
        1   -1    0    0  501    0  0.00000000000E+00  0.00000000000E+00 -0.21932923100E+04  0.21932923100E+04  0.50400001928E-02 0.  1.
    10030    2    1    2    0    0  0.00000000000E+00  0.00000000000E+00 -0.19386928493E+04  0.24478917709E+04  0.14945381087E+04 0.  0.
        4    1    3    3  502    0 -0.32114699300E+03 -0.16153072740E+00 -0.20744974933E+04  0.20992086318E+04  0.12699999809E+01 0.  1.
       -4    1    3    3    0  502  0.32114699300E+03  0.16153072740E+00  0.13580464408E+03  0.34868313906E+03  0.12699999809E+01 0. -1.
</event>
<event>
 5   0  0.8191876E-04  0.1689006E+04  0.7818609E-02  0.8767659E-01
       -1   -1    0    0    0  501  0.00000000000E+00  0.00000000000E+00  0.62750204941E+03  0.62750204943E+03  0.50400001928E-02 0. -1.
        1   -1    0    0  501    0  0.00000000000E+00  0.00000000000E+00 -0.11365471769E+04  0.11365471769E+04  0.50400001928E-02 0.  1.
    10030    2    1    2    0    0  0.00000000000E+00  0.00000000000E+00 -0.50904512744E+03  0.17640492263E+04  0.16890064331E+04 0.  0.
        2    1    3    3  502    0  0.53624477634E+03 -0.18990604060E+03 -0.90640338146E+03  0.10701354374E+04  0.25500000920E-02 0.  1.
       -2    1    3    3    0  502 -0.53624477634E+03  0.18990604060E+03  0.39735825401E+03  0.69391378891E+03  0.25500000920E-02 0. -1.
</event>
<event>
 5   0  0.1552067E-03  0.1507631E+04  0.7818609E-02  0.8879394E-01
        2   -1    0    0  501    0  0.00000000000E+00  0.00000000000E+00  0.17779019937E+04  0.17779019937E+04  0.25500000920E-02 0.  1.
       -2   -1    0    0    0  501  0.00000000000E+00  0.00000000000E+00 -0.31961158486E+03  0.31961158487E+03  0.25500000920E-02 0. -1.
    10030    2    1    2    0    0  0.00000000000E+00  0.00000000000E+00  0.14582904088E+04  0.20975135786E+04  0.15076313527E+04 0.  0.
        3    1    3    3  502    0  0.37935068621E+03 -0.25715195071E+02  0.16347180674E+04  0.16783537722E+04  0.10100000352E+00 0.  1.
       -3    1    3    3    0  502 -0.37935068621E+03  0.25715195071E+02 -0.17642765859E+03  0.41915980640E+03  0.10100000352E+00 0. -1.
</event>
<event>
 5   0  0.1500956E-03  0.1696038E+04  0.7818609E-02  0.8763627E-01
       -2   -1    0    0    0  501  0.00000000000E+00  0.00000000000E+00  0.47569981413E+03  0.47569981414E+03  0.25500000920E-02 0.  1.
        2   -1    0    0  501    0  0.00000000000E+00  0.00000000000E+00 -0.15117443820E+04  0.15117443820E+04  0.25500000920E-02 0. -1.
    10030    2    1    2    0    0  0.00000000000E+00  0.00000000000E+00 -0.10360445679E+04  0.19874441961E+04  0.16960383504E+04 0.  0.
        4    1    3    3  502    0 -0.76455213690E+03  0.34245196287E+02 -0.89993148243E+02  0.77059268303E+03  0.12699999809E+01 0.  1.
       -4    1    3    3    0  502  0.76455213690E+03 -0.34245196287E+02 -0.94605141963E+03  0.12168515131E+04  0.12699999809E+01 0. -1.
</event>
<event>
 5   0  0.1500956E-03  0.1484438E+04  0.7818609E-02  0.8894868E-01
        2   -1    0    0  501    0  0.00000000000E+00  0.00000000000E+00  0.19889643179E+04  0.19889643179E+04  0.25500000920E-02 0. -1.
       -2   -1    0    0    0  501  0.00000000000E+00  0.00000000000E+00 -0.27697273015E+03  0.27697273016E+03  0.25500000920E-02 0.  1.
    10030    2    1    2    0    0  0.00000000000E+00  0.00000000000E+00  0.17119915877E+04  0.22659370480E+04  0.14844377755E+04 0.  0.
        4    1    3    3  502    0 -0.64738478901E+03 -0.30104362525E+03  0.11656566071E+04  0.13669276747E+04  0.12699999809E+01 0. -1.
       -4    1    3    3    0  502  0.64738478901E+03  0.30104362525E+03  0.54633498061E+03  0.89900937330E+03  0.12699999809E+01 0.  1.
</event>
<event>
 5   0  0.8365016E-04  0.1502682E+04  0.7818609E-02  0.8882672E-01
       -1   -1    0    0    0  501  0.00000000000E+00  0.00000000000E+00  0.39043550934E+03  0.39043550937E+03  0.50400001928E-02 0.  1.
        1   -1    0    0  501    0  0.00000000000E+00  0.00000000000E+00 -0.14458546986E+04  0.14458546986E+04  0.50400001928E-02 0. -1.
    10030    2    1    2    0    0  0.00000000000E+00  0.00000000000E+00 -0.10554191892E+04  0.18362902079E+04  0.15026816239E+04 0.  0.
        3    1    3    3  502    0 -0.40474318482E+03 -0.54727171046E+03 -0.91643449147E+03  0.11415671501E+04  0.10100000352E+00 0. -1.
       -3    1    3    3    0  502  0.40474318482E+03  0.54727171046E+03 -0.13898469774E+03  0.69472305787E+03  0.10100000352E+00 0.  1.
</event>
<event>
 5   0  0.7870317E-04  0.1433018E+04  0.7818609E-02  0.8930259E-01
       -1   -1    0    0    0  501  0.00000000000E+00  0.00000000000E+00  0.52080218619E+03  0.52080218622E+03  0.50400001928E-02 0. -1.
        1   -1    0    0  501    0  0.00000000000E+00  0.00000000000E+00 -0.98575875645E+03  0.98575875647E+03  0.50400001928E-02 0.  1.
    10030    2    1    2    0    0  0.00000000000E+00  0.00000000000E+00 -0.46495657026E+03  0.15065609427E+04  0.14330182350E+04 0.  0.
        1    1    3    3  502    0  0.42898622819E+01 -0.69570543886E+03 -0.52334478562E+02  0.69768428264E+03  0.50400001928E-02 0. -1.
       -1    1    3    3    0  502 -0.42898622819E+01  0.69570543886E+03 -0.41262209170E+03  0.80887666004E+03  0.50400001928E-02 0.  1.
</event>
<event>
 5   0  0.8191876E-04  0.1343871E+04  0.7818609E-02  0.8995481E-01
        1   -1    0    0  501    0  0.00000000000E+00  0.00000000000E+00  0.36056924396E+03  0.36056924400E+03  0.50400001928E-02 0. -1.
       -1   -1    0    0    0  501  0.00000000000E+00  0.00000000000E+00 -0.12521790379E+04  0.12521790379E+04  0.50400001928E-02 0.  1.
    10030    2    1    2    0    0  0.00000000000E+00  0.00000000000E+00 -0.89160979396E+03  0.16127482819E+04  0.13438709001E+04 0.  0.
        2    1    3    3  502    0 -0.60136663794E+03  0.16449621866E+03 -0.74653468327E+03  0.97263295879E+03  0.25500000920E-02 0.  1.
       -2    1    3    3    0  502  0.60136663794E+03 -0.16449621866E+03 -0.14507511069E+03  0.64011532315E+03  0.25500000920E-02 0. -1.
</event>
<event>
 5   0  0.1511546E-03  0.1511521E+04  0.7818609E-02  0.8876828E-01
        2   -1    0    0  501    0  0.00000000000E+00  0.00000000000E+00  0.10207628559E+04  0.10207628559E+04  0.25500000920E-02 0.  1.
       -2   -1    0    0    0  501  0.00000000000E+00  0.00000000000E+00 -0.55955596541E+03  0.55955596541E+03  0.25500000920E-02 0. -1.
    10030    2    1    2    0    0  0.00000000000E+00  0.00000000000E+00  0.46120689047E+03  0.15803188213E+04  0.15115210158E+04 0.  0.
        1    1    3    3  502    0  0.89151664443E+02  0.22107114916E+03  0.98043093964E+03  0.10089922198E+04  0.50400001928E-02 0.  1.
       -1    1    3    3    0  502 -0.89151664443E+02 -0.22107114916E+03 -0.51922404917E+03  0.57132660146E+03  0.50400001928E-02 0. -1.
</event>
<event>
 5   0  0.1500956E-03  0.1510043E+04  0.7818609E-02  0.8877802E-01
       -2   -1    0    0    0  501  0.00000000000E+00  0.00000000000E+00  0.23888358541E+03  0.23888358542E+03  0.25500000920E-02 0.  1.
        2   -1    0    0  501    0  0.00000000000E+00  0.00000000000E+00 -0.23863410857E+04  0.23863410857E+04  0.25500000920E-02 0. -1.
    10030    2    1    2    0    0  0.00000000000E+00  0.00000000000E+00 -0.21474575003E+04  0.26252246712E+04  0.15100433300E+04 0.  0.
        4    1    3    3  502    0  0.33597731149E+03 -0.44629275266E+03 -0.19067865023E+03  0.59026937534E+03  0.12699999809E+01 0.  1.
       -4    1    3    3    0  502 -0.33597731149E+03  0.44629275266E+03 -0.19567788501E+04  0.20349552958E+04  0.12699999809E+01 0. -1.
</event>
<event>
 5   0  0.8058234E-04  0.1372593E+04  0.7818609E-02  0.8973900E-01
       -1   -1    0    0    0  501  0.00000000000E+00  0.00000000000E+00  0.27174884036E+03  0.27174884041E+03  0.50400001928E-02 0.  1.
        1   -1    0    0  501    0  0.00000000000E+00  0.00000000000E+00 -0.17332287198E+04  0.17332287198E+04  0.50400001928E-02 0. -1.
    10030    2    1    2    0    0  0.00000000000E+00  0.00000000000E+00 -0.14614798795E+04  0.20049775602E+04  0.13725930129E+04 0.  0.
        5    1    3    3  502    0 -0.51525390891E+03 -0.43430508897E+03 -0.92048382775E+03  0.11407979962E+04  0.46999998093E+01 0. -1.
       -5    1    3    3    0  502  0.51525390891E+03  0.43430508897E+03 -0.54099605170E+03  0.86417956404E+03  0.46999998093E+01 0.  1.
</event>
<event>
 5   0  0.1511546E-03  0.1493165E+04  0.7818609E-02  0.8889011E-01
       -2   -1    0    0    0  501  0.00000000000E+00  0.00000000000E+00  0.63019420255E+03  0.63019420256E+03  0.25500000920E-02 0. -1.
        2   -1    0    0  501    0  0.00000000000E+00  0.00000000000E+00 -0.88446640659E+03  0.88446640660E+03  0.25500000920E-02 0.  1.
    10030    2    1    2    0    0  0.00000000000E+00  0.00000000000E+00 -0.25427220404E+03  0.15146606092E+04  0.14931652310E+04 0.  0.
        1    1    3    3  502    0 -0.24737944917E+03 -0.43248282162E+03  0.43687858785E+03  0.66264687686E+03  0.50400001928E-02 0. -1.
       -1    1    3    3    0  502  0.24737944917E+03  0.43248282162E+03 -0.69115079189E+03  0.85201373229E+03  0.50400001928E-02 0.  1.
</event>
<event>
 5   0  0.8365016E-04  0.1518866E+04  0.7818609E-02  0.8872003E-01
       -1   -1    0    0    0  501  0.00000000000E+00  0.00000000000E+00  0.31334495201E+03  0.31334495205E+03  0.50400001928E-02 0. -1.
        1   -1    0    0  501    0  0.00000000000E+00  0.00000000000E+00 -0.18405876253E+04  0.18405876254E+04  0.50400001928E-02 0.  1.
    10030    2    1    2    0    0  0.00000000000E+00  0.00000000000E+00 -0.15272426733E+04  0.21539325774E+04  0.15188664736E+04 0.  0.
        3    1    3    3  502    0 -0.20620399172E+03 -0.34131008943E+03 -0.16801759543E+04  0.17268479699E+04  0.10100000352E+00 0.  1.
       -3    1    3    3    0  502  0.20620399172E+03  0.34131008943E+03  0.15293328100E+03  0.42708460753E+03  0.10100000352E+00 0. -1.
</event>
<event>
 5   0  0.5603875E-04  0.1471114E+04  0.7818609E-02  0.8903892E-01
       -3   -1    0    0    0  501  0.00000000000E+00  0.00000000000E+00  0.15609013013E+04  0.15609013045E+04  0.10100000352E+00 0. -1.
        3   -1    0    0  501    0  0.00000000000E+00  0.00000000000E+00 -0.34662293433E+03  0.34662294904E+03  0.10100000352E+00 0.  1.
    10030    2    1    2    0    0  0.00000000000E+00  0.00000000000E+00  0.12142783669E+04  0.19075242536E+04  0.14711141443E+04 0.  0.
        2    1    3    3  502    0 -0.61202759951E+03 -0.31385675919E+03  0.94516629017E+03  0.11689410438E+04  0.25500000920E-02 0. -1.
       -2    1    3    3    0  502  0.61202759951E+03  0.31385675919E+03  0.26911207676E+03  0.73858320975E+03  0.25500000920E-02 0.  1.
</event>
<event>
 5   0  0.8058234E-04  0.1489117E+04  0.7818609E-02  0.8891722E-01
       -1   -1    0    0    0  501  0.00000000000E+00  0.00000000000E+00  0.44771305321E+03  0.44771305324E+03  0.50400001928E-02 0. -1.
        1   -1    0    0  501    0  0.00000000000E+00  0.00000000000E+00 -0.12382208234E+04  0.12382208234E+04  0.50400001928E-02 0.  1.
    10030    2    1    2    0    0  0.00000000000E+00  0.00000000000E+00 -0.79050777021E+03  0.16859338767E+04  0.14891173566E+04 0.  0.
        5    1    3    3  502    0 -0.71296760221E+03 -0.17760484496E+03 -0.53148762691E+03  0.90684478844E+03  0.46999998093E+01 0. -1.
       -5    1    3    3    0  502  0.71296760221E+03  0.17760484496E+03 -0.25902014330E+03  0.77908908822E+03  0.46999998093E+01 0.  1.
</event>
<event>
 5   0  0.5603875E-04  0.1503786E+04  0.7818609E-02  0.8881940E-01
       -4   -1    0    0    0  501  0.00000000000E+00  0.00000000000E+00  0.77620420332E+03  0.77620524228E+03  0.12699999809E+01 0. -1.
        4   -1    0    0  501    0  0.00000000000E+00  0.00000000000E+00 -0.72834068249E+03  0.72834178973E+03  0.12699999809E+01 0.  1.
    10030    2    1    2    0    0  0.00000000000E+00  0.00000000000E+00  0.47863520826E+02  0.15045470320E+04  0.15037855083E+04 0.  0.
        4    1    3    3  502    0 -0.38860588480E+03  0.61684564879E+02  0.66497580477E+03  0.77266678010E+03  0.12699999809E+01 0. -1.
       -4    1    3    3    0  502  0.38860588480E+03 -0.61684564879E+02 -0.61711228395E+03  0.73188025191E+03  0.12699999809E+01 0.  1.
</event>
<event>
 5   0  0.1484056E-03  0.1504644E+04  0.7818609E-02  0.8881371E-01
        2   -1    0    0  501    0  0.00000000000E+00  0.00000000000E+00  0.78604653690E+03  0.78604653690E+03  0.25500000920E-02 0.  1.
       -2   -1    0    0    0  501  0.00000000000E+00  0.00000000000E+00 -0.72004417906E+03  0.72004417906E+03  0.25500000920E-02 0. -1.
    10030    2    1    2    0    0  0.00000000000E+00  0.00000000000E+00  0.66002357838E+02  0.15060907160E+04  0.15046437896E+04 0.  0.
        5    1    3    3  502    0  0.18075983676E+03 -0.57234770903E+03  0.48699011420E+03  0.77294079977E+03  0.46999998093E+01 0.  1.
       -5    1    3    3    0  502 -0.18075983676E+03  0.57234770903E+03 -0.42098775636E+03  0.73314991620E+03  0.46999998093E+01 0. -1.
</event>
<event>
 5   0  0.1500956E-03  0.1492118E+04  0.7818609E-02  0.8889711E-01
       -2   -1    0    0    0  501  0.00000000000E+00  0.00000000000E+00  0.48295548181E+03  0.48295548181E+03  0.25500000920E-02 0. -1.
        2   -1    0    0  501    0  0.00000000000E+00  0.00000000000E+00 -0.11524954523E+04  0.11524954523E+04  0.25500000920E-02 0.  1.
    10030    2    1    2    0    0  0.00000000000E+00  0.00000000000E+00 -0.66953997047E+03  0.16354509341E+04  0.14921179530E+04 0.  0.
        4    1    3    3  502    0  0.54699080037E+03  0.22548093374E+03 -0.83291910160E+03  0.10216635600E+04  0.12699999809E+01 0.  1.
       -4    1    3    3    0  502 -0.54699080037E+03 -0.22548093374E+03  0.16337913113E+03  0.61378737407E+03  0.12699999809E+01 0. -1.
</event>
<event>
 5   0  0.7870317E-04  0.1538423E+04  0.7818609E-02  0.8859297E-01
        1   -1    0    0  501    0  0.00000000000E+00  0.00000000000E+00  0.62981505408E+03  0.62981505410E+03  0.50400001928E-02 0.  1.
       -1   -1    0    0    0  501  0.00000000000E+00  0.00000000000E+00 -0.93946029695E+03  0.93946029696E+03  0.50400001928E-02 0. -1.
    10030    2    1    2    0    0  0.00000000000E+00  0.00000000000E+00 -0.30964524287E+03  0.15692753511E+04  0.15384228778E+04 0.  0.
        1    1    3    3  502    0 -0.37195522562E+03  0.49876807223E+02 -0.83974037884E+03  0.91978382767E+03  0.50400001928E-02 0. -1.
       -1    1    3    3    0  502  0.37195522562E+03 -0.49876807223E+02  0.53009513597E+03  0.64949152340E+03  0.50400001928E-02 0.  1.
</event>
<event>
 5   0  0.1484056E-03  0.1498028E+04  0.7818609E-02  0.8885765E-01
       -2   -1    0    0    0  501  0.00000000000E+00  0.00000000000E+00  0.88860962831E+03  0.88860962831E+03  0.25500000920E-02 0. -1.
        2   -1    0    0  501    0  0.00000000000E+00  0.00000000000E+00 -0.63134830626E+03  0.63134830627E+03  0.25500000920E-02 0.  1.
    10030    2    1    2    0    0  0.00000000000E+00  0.00000000000E+00  0.25726132204E+03  0.15199579346E+04  0.14980282825E+04 0.  0.
        5    1    3    3  502    0 -0.34597417285E+03  0.58733129548E+03  0.44356767157E+03  0.81328380544E+03  0.46999998093E+01 0.  1.
       -5    1    3    3    0  502  0.34597417285E+03 -0.58733129548E+03 -0.18630634953E+03  0.70667412914E+03  0.46999998093E+01 0. -1.
</event>
<event>
 5   0  0.8058234E-04  0.1518582E+04  0.7818609E-02  0.8872189E-01
       -1   -1    0    0    0  501  0.00000000000E+00  0.00000000000E+00  0.57535816619E+03  0.57535816621E+03  0.50400001928E-02 0.  1.
        1   -1    0    0  501    0  0.00000000000E+00  0.00000000000E+00 -0.10020240505E+04  0.10020240505E+04  0.50400001928E-02 0. -1.
    10030    2    1    2    0    0  0.00000000000E+00  0.00000000000E+00 -0.42666588428E+03  0.15773822167E+04  0.15185818650E+04 0.  0.
        5    1    3    3  502    0  0.24254082434E+02  0.29213923008E+03 -0.94085792923E+03  0.98547923532E+03  0.46999998093E+01 0. -1.
       -5    1    3    3    0  502 -0.24254082434E+02 -0.29213923008E+03  0.51419204495E+03  0.59190298137E+03  0.46999998093E+01 0.  1.
</event>
<event>
 5   0  0.1552067E-03  0.1487930E+04  0.7818609E-02  0.8892519E-01
        2   -1    0    0  501    0  0.00000000000E+00  0.00000000000E+00  0.20463609519E+04  0.20463609519E+04  0.25500000920E-02 0.  1.
       -2   -1    0    0    0  501  0.00000000000E+00  0.00000000000E+00 -0.27047229264E+03  0.27047229266E+03  0.25500000920E-02 0. -1.
    10030    2    1    2    0    0  0.00000000000E+00  0.00000000000E+00  0.17758886592E+04  0.23168332445E+04  0.14879300229E+04 0.  0.
        3    1    3    3  502    0 -0.61123716818E+03 -0.35640748584E+03  0.12458935636E+04  0.14327902686E+04  0.10100000352E+00 0. -1.
       -3    1    3    3    0  502  0.61123716818E+03  0.35640748584E+03  0.52999509561E+03  0.88404297593E+03  0.10100000352E+00 0.  1.
</event>
<event>
 5   0  0.1484056E-03  0.1559966E+04  0.7818609E-02  0.8845527E-01
       -2   -1    0    0    0  501  0.00000000000E+00  0.00000000000E+00  0.44545047558E+03  0.44545047559E+03  0.25500000920E-02 0. -1.
        2   -1    0    0  501    0  0.00000000000E+00  0.00000000000E+00 -0.13657482435E+04  0.13657482435E+04  0.25500000920E-02 0.  1.
    10030    2    1    2    0    0  0.00000000000E+00  0.00000000000E+00 -0.92029776795E+03  0.18111987191E+04  0.15599656466E+04 0.  0.
        5    1    3    3  502    0 -0.53251837890E+03 -0.35627485603E+03  0.56281731488E+02  0.64319306604E+03  0.46999998093E+01 0. -1.
       -5    1    3    3    0  502  0.53251837890E+03  0.35627485603E+03 -0.97657949944E+03  0.11680056531E+04  0.46999998093E+01 0.  1.
</event>
<event>
 5   0  0.8306301E-04  0.1502694E+04  0.7818609E-02  0.8882664E-01
       -1   -1    0    0    0  501  0.00000000000E+00  0.00000000000E+00  0.15596920975E+04  0.15596920975E+04  0.50400001928E-02 0.  1.
        1   -1    0    0  501    0  0.00000000000E+00  0.00000000000E+00 -0.36194448120E+03  0.36194448123E+03  0.50400001928E-02 0. -1.
    10030    2    1    2    0    0  0.00000000000E+00  0.00000000000E+00  0.11977476163E+04  0.19216365788E+04  0.15026935111E+04 0.  0.
        4    1    3    3  502    0 -0.52614076785E+02 -0.74780008039E+03  0.66341346452E+03  0.10010455729E+04  0.12699999809E+01 0.  1.
       -4    1    3    3    0  502  0.52614076785E+02  0.74780008039E+03  0.53433415180E+03  0.92059100581E+03  0.12699999809E+01 0. -1.
</event>
<event>
 5   0  0.1552067E-03  0.1210842E+04  0.7818609E-02  0.9103419E-01
        2   -1    0    0  501    0  0.00000000000E+00  0.00000000000E+00  0.12932883301E+04  0.12932883301E+04  0.25500000920E-02 0. -1.
       -2   -1    0    0    0  501  0.00000000000E+00  0.00000000000E+00 -0.28341286751E+03  0.28341286752E+03  0.25500000920E-02 0.  1.
    10030    2    1    2    0    0  0.00000000000E+00  0.00000000000E+00  0.10098754626E+04  0.15767011976E+04  0.12108419454E+04 0.  0.
        3    1    3    3  502    0  0.41577381189E+03  0.33466440428E+03  0.87705831497E+03  0.10266934422E+04  0.10100000352E+00 0. -1.
       -3    1    3    3    0  502 -0.41577381189E+03 -0.33466440428E+03  0.13281714762E+03  0.55000775545E+03  0.10100000352E+00 0.  1.
</event>
<event>
 5   0  0.1526126E-03  0.1486109E+04  0.7818609E-02  0.8893743E-01
       -2   -1    0    0    0  501  0.00000000000E+00  0.00000000000E+00  0.40619033671E+03  0.40619033672E+03  0.25500000920E-02 0.  1.
        2   -1    0    0  501    0  0.00000000000E+00  0.00000000000E+00 -0.13592891864E+04  0.13592891864E+04  0.25500000920E-02 0. -1.
    10030    2    1    2    0    0  0.00000000000E+00  0.00000000000E+00 -0.95309884965E+03  0.17654795231E+04  0.14861091916E+04 0.  0.
        2    1    3    3  502    0  0.64836382335E+03  0.34214265186E+03 -0.33254839843E+03  0.80500042171E+03  0.25500000920E-02 0. -1.
       -2    1    3    3    0  502 -0.64836382335E+03 -0.34214265186E+03 -0.62055045121E+03  0.96047910137E+03  0.25500000920E-02 0.  1.
</event>
<event>
 5   0  0.1500956E-03  0.1471213E+04  0.7818609E-02  0.8903825E-01
       -2   -1    0    0    0  501  0.00000000000E+00  0.00000000000E+00  0.31629842951E+03  0.31629842952E+03  0.25500000920E-02 0. -1.
        2   -1    0    0  501    0  0.00000000000E+00  0.00000000000E+00 -0.17107790016E+04  0.17107790016E+04  0.25500000920E-02 0.  1.
    10030    2    1    2    0    0  0.00000000000E+00  0.00000000000E+00 -0.13944805721E+04  0.20270774312E+04  0.14712127127E+04 0.  0.
        4    1    3    3  502    0  0.58011125937E+03  0.15154901029E+03 -0.12844259140E+04  0.14174793534E+04  0.12699999809E+01 0.  1.
       -4    1    3    3    0  502 -0.58011125937E+03 -0.15154901029E+03 -0.11005465812E+03  0.60959807779E+03  0.12699999809E+01 0. -1.
</event>
<event>
 5   0  0.1484056E-03  0.1487945E+04  0.7818609E-02  0.8892509E-01
        2   -1    0    0  501    0  0.00000000000E+00  0.00000000000E+00  0.14845220249E+04  0.14845220249E+04  0.25500000920E-02 0. -1.
       -2   -1    0    0    0  501  0.00000000000E+00  0.00000000000E+00 -0.37284403322E+03  0.37284403323E+03  0.25500000920E-02 0.  1.
    10030    2    1    2    0    0  0.00000000000E+00  0.00000000000E+00  0.11116779916E+04  0.18573660581E+04  0.14879451323E+04 0.  0.
        5    1    3    3  502    0  0.49877067600E+02  0.24889139878E+03 -0.31709636483E+03  0.40621034557E+03  0.46999998093E+01 0.  1.
       -5    1    3    3    0  502 -0.49877067600E+02 -0.24889139878E+03  0.14287743565E+04  0.14511557125E+04  0.46999998093E+01 0. -1.
</event>
<event>
 5   0  0.1511546E-03  0.1504641E+04  0.7818609E-02  0.8881373E-01
       -2   -1    0    0    0  501  0.00000000000E+00  0.00000000000E+00  0.86621302954E+03  0.86621302955E+03  0.25500000920E-02 0. -1.
        2   -1    0    0  501    0  0.00000000000E+00  0.00000000000E+00 -0.65340278793E+03  0.65340278794E+03  0.25500000920E-02 0.  1.
    10030    2    1    2    0    0  0.00000000000E+00  0.00000000000E+00  0.21281024161E+03  0.15196158175E+04  0.15046408322E+04 0.  0.
        1    1    3    3  502    0  0.49271843030E+02 -0.30870499911E+03 -0.58470025112E+03  0.66302403779E+03  0.50400001928E-02 0.  1.
       -1    1    3    3    0  502 -0.49271843030E+02  0.30870499911E+03  0.79751049274E+03  0.85659177969E+03  0.50400001928E-02 0. -1.
</event>
<event>
 5   0  0.1511546E-03  0.1562721E+04  0.7818609E-02  0.8843783E-01
       -2   -1    0    0    0  501  0.00000000000E+00  0.00000000000E+00  0.39620236435E+03  0.39620236435E+03  0.25500000920E-02 0. -1.
        2   -1    0    0  501    0  0.00000000000E+00  0.00000000000E+00 -0.15409406828E+04  0.15409406828E+04  0.25500000920E-02 0.  1.
    10030    2    1    2    0    0  0.00000000000E+00  0.00000000000E+00 -0.11447383184E+04  0.19371430471E+04  0.15627211419E+04 0.  0.
        1    1    3    3  502    0  0.43190745594E+03  0.65108404968E+03 -0.56200895496E+03  0.96244924839E+03  0.50400001928E-02 0.  1.
       -1    1    3    3    0  502 -0.43190745594E+03 -0.65108404968E+03 -0.58272936347E+03  0.97469379874E+03  0.50400001928E-02 0. -1.
</event>
<event>
 5   0  0.7870317E-04  0.1496796E+04  0.7818609E-02  0.8886586E-01
       -1   -1    0    0    0  501  0.00000000000E+00  0.00000000000E+00  0.45204469776E+03  0.45204469779E+03  0.50400001928E-02 0. -1.
        1   -1    0    0  501    0  0.00000000000E+00  0.00000000000E+00 -0.12390355491E+04  0.12390355492E+04  0.50400001928E-02 0.  1.
    10030    2    1    2    0    0  0.00000000000E+00  0.00000000000E+00 -0.78699085138E+03  0.16910802469E+04  0.14967958449E+04 0.  0.
        1    1    3    3  502    0 -0.53415761178E+02 -0.27996549242E+03 -0.11753184139E+04  0.12093830222E+04  0.50400001928E-02 0.  1.
       -1    1    3    3    0  502  0.53415761178E+02  0.27996549242E+03  0.38832756248E+03  0.48169722471E+03  0.50400001928E-02 0. -1.
</event>
<event>
 5   0  0.8191876E-04  0.1497846E+04  0.7818609E-02  0.8885886E-01
        1   -1    0    0  501    0  0.00000000000E+00  0.00000000000E+00  0.10831703167E+04  0.10831703167E+04  0.50400001928E-02 0.  1.
       -1   -1    0    0    0  501  0.00000000000E+00  0.00000000000E+00 -0.51781867484E+03  0.51781867486E+03  0.50400001928E-02 0. -1.
    10030    2    1    2    0    0  0.00000000000E+00  0.00000000000E+00  0.56535164185E+03  0.16009889916E+04  0.14978462111E+04 0.  0.
        2    1    3    3  502    0  0.18269672477E+03 -0.42416801375E+03  0.91284080961E+03  0.10230224537E+04  0.25500000920E-02 0.  1.
       -2    1    3    3    0  502 -0.18269672477E+03  0.42416801375E+03 -0.34748916776E+03  0.57796653783E+03  0.25500000920E-02 0. -1.
</event>
<event>
 5   0  0.1511546E-03  0.1555254E+04  0.7818609E-02  0.8848519E-01
       -2   -1    0    0    0  501  0.00000000000E+00  0.00000000000E+00  0.38553503938E+03  0.38553503939E+03  0.25500000920E-02 0.  1.
        2   -1    0    0  501    0  0.00000000000E+00  0.00000000000E+00 -0.15684791210E+04  0.15684791210E+04  0.25500000920E-02 0. -1.
    10030    2    1    2    0    0  0.00000000000E+00  0.00000000000E+00 -0.11829440816E+04  0.19540141604E+04  0.15552538824E+04 0.  0.
        1    1    3    3  502    0  0.20120715073E+02 -0.77571691536E+03 -0.52787702630E+03  0.93850718211E+03  0.50400001928E-02 0.  1.
       -1    1    3    3    0  502 -0.20120715073E+02  0.77571691536E+03 -0.65506705534E+03  0.10155069783E+04  0.50400001928E-02 0. -1.
</event>
<event>
 5   0  0.8058234E-04  0.1457916E+04  0.7818609E-02  0.8912931E-01
       -1   -1    0    0    0  501  0.00000000000E+00  0.00000000000E+00  0.10017314164E+04  0.10017314165E+04  0.50400001928E-02 0.  1.
        1   -1    0    0  501    0  0.00000000000E+00  0.00000000000E+00 -0.53046156821E+03  0.53046156823E+03  0.50400001928E-02 0. -1.
    10030    2    1    2    0    0  0.00000000000E+00  0.00000000000E+00  0.47126984823E+03  0.15321929847E+04  0.14579163462E+04 0.  0.
        5    1    3    3  502    0  0.50605866935E+03 -0.28515294821E+02 -0.31493442526E+03  0.59675311568E+03  0.46999998093E+01 0. -1.
       -5    1    3    3    0  502 -0.50605866935E+03  0.28515294821E+02  0.78620427349E+03  0.93543986900E+03  0.46999998093E+01 0.  1.
</event>
<event>
 5   0  0.1484056E-03  0.1374173E+04  0.7818609E-02  0.8972728E-01
        2   -1    0    0  501    0  0.00000000000E+00  0.00000000000E+00  0.67803199828E+03  0.67803199829E+03  0.25500000920E-02 0. -1.
       -2   -1    0    0    0  501  0.00000000000E+00  0.00000000000E+00 -0.69626224320E+03  0.69626224320E+03  0.25500000920E-02 0.  1.
    10030    2    1    2    0    0  0.00000000000E+00  0.00000000000E+00 -0.18230244912E+02  0.13742942415E+04  0.13741733225E+04 0.  0.
        5    1    3    3  502    0 -0.10467051349E+03  0.67067169408E+03  0.97240614987E+02  0.68573629395E+03  0.46999998093E+01 0. -1.
       -5    1    3    3    0  502  0.10467051349E+03 -0.67067169408E+03 -0.11547085990E+03  0.68855794754E+03  0.46999998093E+01 0.  1.
</event>
<event>
 5   0  0.8365016E-04  0.1493905E+04  0.7818609E-02  0.8888516E-01
       -1   -1    0    0    0  501  0.00000000000E+00  0.00000000000E+00  0.84123878055E+03  0.84123878056E+03  0.50400001928E-02 0.  1.
        1   -1    0    0  501    0  0.00000000000E+00  0.00000000000E+00 -0.66323363170E+03  0.66323363172E+03  0.50400001928E-02 0. -1.
    10030    2    1    2    0    0  0.00000000000E+00  0.00000000000E+00  0.17800514885E+03  0.15044724123E+04  0.14939047514E+04 0.  0.
        3    1    3    3  502    0 -0.36477222669E+03 -0.77463094818E+02  0.74078909065E+03  0.82935384212E+03  0.10100000352E+00 0.  1.
       -3    1    3    3    0  502  0.36477222669E+03  0.77463094818E+02 -0.56278394180E+03  0.67511857015E+03  0.10100000352E+00 0. -1.
</event>
<event>
 5   0  0.1526126E-03  0.1492423E+04  0.7818609E-02  0.8889507E-01
        2   -1    0    0  501    0  0.00000000000E+00  0.00000000000E+00  0.10910281683E+04  0.10910281683E+04  0.25500000920E-02 0. -1.
       -2   -1    0    0    0  501  0.00000000000E+00  0.00000000000E+00 -0.51037327628E+03  0.51037327628E+03  0.25500000920E-02 0.  1.
    10030    2    1    2    0    0  0.00000000000E+00  0.00000000000E+00  0.58065489205E+03  0.16014014446E+04  0.14924230242E+04 0.  0.
        2    1    3    3  502    0  0.65479204690E+02 -0.47405951173E+03  0.90468398231E+03  0.10234613108E+04  0.25500000920E-02 0. -1.
       -2    1    3    3    0  502 -0.65479204690E+02  0.47405951173E+03 -0.32402909026E+03  0.57794013379E+03  0.25500000920E-02 0.  1.
</event>
<event>
 5   0  0.8306301E-04  0.1490573E+04  0.7818609E-02  0.8890746E-01
       -1   -1    0    0    0  501  0.00000000000E+00  0.00000000000E+00  0.42694390992E+03  0.42694390995E+03  0.50400001928E-02 0.  1.
        1   -1    0    0  501    0  0.00000000000E+00  0.00000000000E+00 -0.13009958276E+04  0.13009958276E+04  0.50400001928E-02 0. -1.
    10030    2    1    2    0    0  0.00000000000E+00  0.00000000000E+00 -0.87405191764E+03  0.17279397375E+04  0.14905733735E+04 0.  0.
        4    1    3    3  502    0  0.62408731531E+02 -0.19683515995E+03 -0.12671714184E+04  0.12838862669E+04  0.12699999809E+01 0. -1.
       -4    1    3    3    0  502 -0.62408731531E+02  0.19683515995E+03  0.39311950074E+03  0.44405347058E+03  0.12699999809E+01 0.  1.
</event>
<event>
 5   0  0.8058234E-04  0.1546832E+04  0.7818609E-02  0.8853894E-01
        1   -1    0    0  501    0  0.00000000000E+00  0.00000000000E+00  0.41015813147E+03  0.41015813150E+03  0.50400001928E-02 0.  1.
       -1   -1    0    0    0  501  0.00000000000E+00  0.00000000000E+00 -0.14583951937E+04  0.14583951937E+04  0.50400001928E-02 0. -1.
    10030    2    1    2    0    0  0.00000000000E+00  0.00000000000E+00 -0.10482370622E+04  0.18685533252E+04  0.15468324378E+04 0.  0.
        5    1    3    3  502    0  0.48980876554E+03 -0.56247146923E+03 -0.77128037720E+03  0.10729316338E+04  0.46999998093E+01 0.  1.
       -5    1    3    3    0  502 -0.48980876554E+03  0.56247146923E+03 -0.27695668502E+03  0.79562169143E+03  0.46999998093E+01 0. -1.
</event>
<event>
 5   0  0.7870317E-04  0.1491038E+04  0.7818609E-02  0.8890435E-01
        1   -1    0    0  501    0  0.00000000000E+00  0.00000000000E+00  0.53423891256E+03  0.53423891259E+03  0.50400001928E-02 0.  1.
       -1   -1    0    0    0  501  0.00000000000E+00  0.00000000000E+00 -0.10403556945E+04  0.10403556945E+04  0.50400001928E-02 0. -1.
    10030    2    1    2    0    0  0.00000000000E+00  0.00000000000E+00 -0.50611678191E+03  0.15745946071E+04  0.14910378867E+04 0.  0.
        1    1    3    3  502    0  0.54728279951E+03 -0.44278000823E+03  0.61038447365E+01  0.70399563584E+03  0.50400001928E-02 0.  1.
       -1    1    3    3    0  502 -0.54728279951E+03  0.44278000823E+03 -0.51222062664E+03  0.87059897123E+03  0.50400001928E-02 0. -1.
</event>
<event>
 5   0  0.8191876E-04  0.1335023E+04  0.7818609E-02  0.9002244E-01
        1   -1    0    0  501    0  0.00000000000E+00  0.00000000000E+00  0.21174461165E+04  0.21174461165E+04  0.50400001928E-02 0.  1.
       -1   -1    0    0    0  501  0.00000000000E+00  0.00000000000E+00 -0.21042866073E+03  0.21042866079E+03  0.50400001928E-02 0. -1.
    10030    2    1    2    0    0  0.00000000000E+00  0.00000000000E+00  0.19070174558E+04  0.23278747773E+04  0.13350226223E+04 0.  0.
        2    1    3    3  502    0 -0.30950707345E+03 -0.49203873657E+03  0.15256820843E+04  0.16326673174E+04  0.25500000920E-02 0.  1.
       -2    1    3    3    0  502  0.30950707345E+03  0.49203873657E+03  0.38133537146E+03  0.69520745992E+03  0.25500000920E-02 0. -1.
</event>
<event>
 5   0  0.1552067E-03  0.1494011E+04  0.7818609E-02  0.8888445E-01
        2   -1    0    0  501    0  0.00000000000E+00  0.00000000000E+00  0.12956419518E+04  0.12956419518E+04  0.25500000920E-02 0. -1.
       -2   -1    0    0    0  501  0.00000000000E+00  0.00000000000E+00 -0.43068782440E+03  0.43068782441E+03  0.25500000920E-02 0.  1.
    10030    2    1    2    0    0  0.00000000000E+00  0.00000000000E+00  0.86495412738E+03  0.17263297762E+04  0.14940109952E+04 0.  0.
        3    1    3    3  502    0 -0.42833697851E+03  0.12851977164E+03 -0.25892081396E+03  0.51674935604E+03  0.10100000352E+00 0.  1.
       -3    1    3    3    0  502  0.42833697851E+03 -0.12851977164E+03  0.11238749413E+04  0.12095804202E+04  0.10100000352E+00 0. -1.
</event>
<event>
 5   0  0.1511546E-03  0.1523520E+04  0.7818609E-02  0.8868962E-01
        2   -1    0    0  501    0  0.00000000000E+00  0.00000000000E+00  0.80653985318E+03  0.80653985318E+03  0.25500000920E-02 0. -1.
       -2   -1    0    0    0  501  0.00000000000E+00  0.00000000000E+00 -0.71946595915E+03  0.71946595915E+03  0.25500000920E-02 0.  1.
    10030    2    1    2    0    0  0.00000000000E+00  0.00000000000E+00  0.87073894035E+02  0.15260058123E+04  0.15235195687E+04 0.  0.
        1    1    3    3  502    0 -0.21613549946E+03  0.57074025637E+03  0.50015255228E+03  0.78905739332E+03  0.50400001928E-02 0. -1.
       -1    1    3    3    0  502  0.21613549946E+03 -0.57074025637E+03 -0.41307865824E+03  0.73694841902E+03  0.50400001928E-02 0.  1.
</event>
<event>
 5   0  0.8191876E-04  0.1435777E+04  0.7818609E-02  0.8928321E-01
        1   -1    0    0  501    0  0.00000000000E+00  0.00000000000E+00  0.91954817780E+03  0.91954817782E+03  0.50400001928E-02 0. -1.
       -1   -1    0    0    0  501  0.00000000000E+00  0.00000000000E+00 -0.56045372400E+03  0.56045372402E+03  0.50400001928E-02 0.  1.
    10030    2    1    2    0    0  0.00000000000E+00  0.00000000000E+00  0.35909445380E+03  0.14800019018E+04  0.14357774210E+04 0.  0.
        2    1    3    3  502    0  0.94039772201E+01 -0.60198377764E+03  0.58260429091E+03  0.83779512001E+03  0.25500000920E-02 0. -1.
       -2    1    3    3    0  502 -0.94039772201E+01  0.60198377764E+03 -0.22350983711E+03  0.64220678182E+03  0.25500000920E-02 0.  1.
</event>
<event>
 5   0  0.8306301E-04  0.1047880E+04  0.7818609E-02  0.9257536E-01
        1   -1    0    0  501    0  0.00000000000E+00  0.00000000000E+00  0.53983477627E+03  0.53983477630E+03  0.50400001928E-02 0.  1.
       -1   -1    0    0    0  501  0.00000000000E+00  0.00000000000E+00 -0.50851300110E+03  0.50851300113E+03  0.50400001928E-02 0. -1.
    10030    2    1    2    0    0  0.00000000000E+00  0.00000000000E+00  0.31321775172E+02  0.10483477774E+04  0.10478797683E+04 0.  0.
        4    1    3    3  502    0 -0.21100826127E+03  0.32975282303E+03  0.36402608300E+03  0.53458209157E+03  0.12699999809E+01 0.  1.
       -4    1    3    3    0  502  0.21100826127E+03 -0.32975282303E+03 -0.33270430783E+03  0.51376568586E+03  0.12699999809E+01 0. -1.
</event>
<event>
 5   0  0.8365016E-04  0.1541369E+04  0.7818609E-02  0.8857400E-01
       -1   -1    0    0    0  501  0.00000000000E+00  0.00000000000E+00  0.36309749127E+03  0.36309749130E+03  0.50400001928E-02 0. -1.
        1   -1    0    0  501    0  0.00000000000E+00  0.00000000000E+00 -0.16357984669E+04  0.16357984669E+04  0.50400001928E-02 0.  1.
    10030    2    1    2    0    0  0.00000000000E+00  0.00000000000E+00 -0.12727009756E+04  0.19988959582E+04  0.15413686380E+04 0.  0.
        3    1    3    3  502    0  0.10500579914E+02 -0.34522599429E+03  0.25711213514E+03  0.43057857535E+03  0.10100000352E+00 0. -1.
       -3    1    3    3    0  502 -0.10500579914E+02  0.34522599429E+03 -0.15298131107E+04  0.15683173828E+04  0.10100000352E+00 0.  1.
</event>
<event>
 5   0  0.8306301E-04  0.1489484E+04  0.7818609E-02  0.8891476E-01
       -1   -1    0    0    0  501  0.00000000000E+00  0.00000000000E+00  0.38364787437E+03  0.38364787440E+03  0.50400001928E-02 0.  1.
        1   -1    0    0  501    0  0.00000000000E+00  0.00000000000E+00 -0.14457029866E+04  0.14457029867E+04  0.50400001928E-02 0. -1.
    10030    2    1    2    0    0  0.00000000000E+00  0.00000000000E+00 -0.10620551123E+04  0.18293508611E+04  0.14894843105E+04 0.  0.
        4    1    3    3  502    0 -0.13098959224E+03 -0.63379848831E+03 -0.98359126681E+03  0.11774175938E+04  0.12699999809E+01 0.  1.
       -4    1    3    3    0  502  0.13098959224E+03  0.63379848831E+03 -0.78463845465E+02  0.65193326730E+03  0.12699999809E+01 0. -1.
</event>
<event>
 5   0  0.1526126E-03  0.1456349E+04  0.7818609E-02  0.8914011E-01
        2   -1    0    0  501    0  0.00000000000E+00  0.00000000000E+00  0.53102435295E+03  0.53102435296E+03  0.25500000920E-02 0. -1.
       -2   -1    0    0    0  501  0.00000000000E+00  0.00000000000E+00 -0.99851927325E+03  0.99851927325E+03  0.25500000920E-02 0.  1.
    10030    2    1    2    0    0  0.00000000000E+00  0.00000000000E+00 -0.46749492030E+03  0.15295436262E+04  0.14563489293E+04 0.  0.
        2    1    3    3  502    0  0.16345606261E+03  0.37070958185E+03  0.40171964299E+03  0.57054548465E+03  0.25500000920E-02 0. -1.
       -2    1    3    3    0  502 -0.16345606261E+03 -0.37070958185E+03 -0.86921456329E+03  0.95899814156E+03  0.25500000920E-02 0.  1.
</event>
<event>
 5   0  0.1511546E-03  0.1569731E+04  0.7818609E-02  0.8839362E-01
       -2   -1    0    0    0  501  0.00000000000E+00  0.00000000000E+00  0.65704669628E+03  0.65704669628E+03  0.25500000920E-02 0. -1.
        2   -1    0    0  501    0  0.00000000000E+00  0.00000000000E+00 -0.93754983958E+03  0.93754983958E+03  0.25500000920E-02 0.  1.
    10030    2    1    2    0    0  0.00000000000E+00  0.00000000000E+00 -0.28050314330E+03  0.15945965359E+04  0.15697312186E+04 0.  0.
        1    1    3    3  502    0 -0.44825918146E+03 -0.37411226379E+03 -0.67307685221E+03  0.89102678337E+03  0.50400001928E-02 0.  1.
       -1    1    3    3    0  502  0.44825918146E+03  0.37411226379E+03  0.39257370890E+03  0.70356975249E+03  0.50400001928E-02 0. -1.
</event>
<event>
 5   0  0.7870317E-04  0.1494255E+04  0.7818609E-02  0.8888283E-01
        1   -1    0    0  501    0  0.00000000000E+00  0.00000000000E+00  0.62828993351E+03  0.62828993353E+03  0.50400001928E-02 0.  1.
       -1   -1    0    0    0  501  0.00000000000E+00  0.00000000000E+00 -0.88844211026E+03  0.88844211028E+03  0.50400001928E-02 0. -1.
    10030    2    1    2    0    0  0.00000000000E+00  0.00000000000E+00 -0.26015217676E+03  0.15167320438E+04  0.14942546428E+04 0.  0.
        1    1    3    3  502    0  0.12155465187E+03 -0.36297509440E+03  0.52119278982E+03  0.64665939778E+03  0.50400001928E-02 0.  1.
       -1    1    3    3    0  502 -0.12155465187E+03  0.36297509440E+03 -0.78134496658E+03  0.87007264603E+03  0.50400001928E-02 0. -1.
</event>
<event>
 5   0  0.1526126E-03  0.1438178E+04  0.7818609E-02  0.8926638E-01
        2   -1    0    0  501    0  0.00000000000E+00  0.00000000000E+00  0.57782095447E+03  0.57782095448E+03  0.25500000920E-02 0. -1.
       -2   -1    0    0    0  501  0.00000000000E+00  0.00000000000E+00 -0.89489448504E+03  0.89489448505E+03  0.25500000920E-02 0.  1.
    10030    2    1    2    0    0  0.00000000000E+00  0.00000000000E+00 -0.31707353057E+03  0.14727154395E+04  0.14381777157E+04 0.  0.
        2    1    3    3  502    0 -0.15405647384E+03 -0.49008844733E+02 -0.87604431384E+03  0.89083607011E+03  0.25500000920E-02 0.  1.
       -2    1    3    3    0  502  0.15405647384E+03  0.49008844733E+02  0.55897078327E+03  0.58187936942E+03  0.25500000920E-02 0. -1.
</event>
<event>
 5   0  0.8365016E-04  0.1511523E+04  0.7818609E-02  0.8876826E-01
       -1   -1    0    0    0  501  0.00000000000E+00  0.00000000000E+00  0.97500671968E+03  0.97500671969E+03  0.50400001928E-02 0. -1.
        1   -1    0    0  501    0  0.00000000000E+00  0.00000000000E+00 -0.58581680333E+03  0.58581680335E+03  0.50400001928E-02 0.  1.
    10030    2    1    2    0    0  0.00000000000E+00  0.00000000000E+00  0.38918991635E+03  0.15608235230E+04  0.15115228345E+04 0.  0.
        3    1    3    3  502    0 -0.57812146134E+02  0.40083740945E+03 -0.46431025179E+03  0.61611435073E+03  0.10100000352E+00 0.  1.
       -3    1    3    3    0  502  0.57812146134E+02 -0.40083740945E+03  0.85350016814E+03  0.94470917232E+03  0.10100000352E+00 0. -1.
</event>
<event>
 5   0  0.1511546E-03  0.1523484E+04  0.7818609E-02  0.8868985E-01
       -2   -1    0    0    0  501  0.00000000000E+00  0.00000000000E+00  0.39179009624E+03  0.39179009625E+03  0.25500000920E-02 0.  1.
        2   -1    0    0  501    0  0.00000000000E+00  0.00000000000E+00 -0.14810241208E+04  0.14810241208E+04  0.25500000920E-02 0. -1.
    10030    2    1    2    0    0  0.00000000000E+00  0.00000000000E+00 -0.10892340245E+04  0.18728142170E+04  0.15234836170E+04 0.  0.
        1    1    3    3  502    0  0.20037387662E+03  0.61070810971E+03 -0.42051645119E+02  0.64411367520E+03  0.50400001928E-02 0.  1.
       -1    1    3    3    0  502 -0.20037387662E+03 -0.61070810971E+03 -0.10471823794E+04  0.12287005418E+04  0.50400001928E-02 0. -1.
</event>
<event>
 5   0  0.8365016E-04  0.1486510E+04  0.7818609E-02  0.8893473E-01
        1   -1    0    0  501    0  0.00000000000E+00  0.00000000000E+00  0.75752194918E+03  0.75752194920E+03  0.50400001928E-02 0.  1.
       -1   -1    0    0    0  501  0.00000000000E+00  0.00000000000E+00 -0.72925723344E+03  0.72925723346E+03  0.50400001928E-02 0. -1.
    10030    2    1    2    0    0  0.00000000000E+00  0.00000000000E+00  0.28264715742E+02  0.14867791827E+04  0.14865104923E+04 0.  0.
        3    1    3    3  502    0  0.16759063191E+03  0.38673266578E+03 -0.59817073123E+03  0.73174927986E+03  0.10100000352E+00 0. -1.
       -3    1    3    3    0  502 -0.16759063191E+03 -0.38673266578E+03  0.62643544697E+03  0.75502990279E+03  0.10100000352E+00 0.  1.
</event>
<event>
 5   0  0.1484056E-03  0.1896532E+04  0.7818609E-02  0.8656585E-01
        2   -1    0    0  501    0  0.00000000000E+00  0.00000000000E+00  0.96383826111E+03  0.96383826112E+03  0.25500000920E-02 0. -1.
       -2   -1    0    0    0  501  0.00000000000E+00  0.00000000000E+00 -0.93294493504E+03  0.93294493505E+03  0.25500000920E-02 0.  1.
    10030    2    1    2    0    0  0.00000000000E+00  0.00000000000E+00  0.30893326069E+02  0.18967831962E+04  0.18965315963E+04 0.  0.
        5    1    3    3  502    0  0.63350824097E+03 -0.11878883982E+03 -0.68016156880E+03  0.93706207346E+03  0.46999998093E+01 0.  1.
       -5    1    3    3    0  502 -0.63350824097E+03  0.11878883982E+03  0.71105489487E+03  0.95972112270E+03  0.46999998093E+01 0. -1.
</event>
<event>
 5   0  0.1511546E-03  0.1510026E+04  0.7818609E-02  0.8877813E-01
        2   -1    0    0  501    0  0.00000000000E+00  0.00000000000E+00  0.73342408429E+03  0.73342408429E+03  0.25500000920E-02 0. -1.
       -2   -1    0    0    0  501  0.00000000000E+00  0.00000000000E+00 -0.77723762015E+03  0.77723762016E+03  0.25500000920E-02 0.  1.
    10030    2    1    2    0    0  0.00000000000E+00  0.00000000000E+00 -0.43813535867E+02  0.15106617045E+04  0.15100262115E+04 0.  0.
        1    1    3    3  502    0  0.56688097799E+03  0.16128737754E+02  0.47673113472E+03  0.74086891838E+03  0.50400001928E-02 0. -1.
       -1    1    3    3    0  502 -0.56688097799E+03 -0.16128737754E+02 -0.52054467059E+03  0.76979278607E+03  0.50400001928E-02 0.  1.
</event>
<event>
 5   0  0.8191876E-04  0.1519703E+04  0.7818609E-02  0.8871456E-01
        1   -1    0    0  501    0  0.00000000000E+00  0.00000000000E+00  0.66181598432E+03  0.66181598434E+03  0.50400001928E-02 0.  1.
       -1   -1    0    0    0  501  0.00000000000E+00  0.00000000000E+00 -0.87240854853E+03  0.87240854854E+03  0.50400001928E-02 0. -1.
    10030    2    1    2    0    0  0.00000000000E+00  0.00000000000E+00 -0.21059256421E+03  0.15342245329E+04  0.15197025002E+04 0.  0.
        2    1    3    3  502    0 -0.88831393583E+02  0.68379655408E+03  0.21698009431E+03  0.72287558072E+03  0.25500000920E-02 0.  1.
       -2    1    3    3    0  502  0.88831393583E+02 -0.68379655408E+03 -0.42757265852E+03  0.81134895217E+03  0.25500000920E-02 0. -1.
</event>
<event>
 5   0  0.1526126E-03  0.1474626E+04  0.7818609E-02  0.8901504E-01
        2   -1    0    0  501    0  0.00000000000E+00  0.00000000000E+00  0.10227951890E+04  0.10227951890E+04  0.25500000920E-02 0.  1.
       -2   -1    0    0    0  501  0.00000000000E+00  0.00000000000E+00 -0.53151444026E+03  0.53151444027E+03  0.25500000920E-02 0. -1.
    10030    2    1    2    0    0  0.00000000000E+00  0.00000000000E+00  0.49128074872E+03  0.15543096293E+04  0.14746259355E+04 0.  0.
        2    1    3    3  502    0  0.87738805495E+02  0.21159841862E+03 -0.49305685148E+03  0.54366998036E+03  0.25500000920E-02 0. -1.
       -2    1    3    3    0  502 -0.87738805495E+02 -0.21159841862E+03  0.98433760019E+03  0.10106396489E+04  0.25500000920E-02 0.  1.
</event>
<event>
 5   0  0.1511546E-03  0.1540992E+04  0.7818609E-02  0.8857642E-01
       -2   -1    0    0    0  501  0.00000000000E+00  0.00000000000E+00  0.47030076853E+03  0.47030076854E+03  0.25500000920E-02 0. -1.
        2   -1    0    0  501    0  0.00000000000E+00  0.00000000000E+00 -0.12623065971E+04  0.12623065971E+04  0.25500000920E-02 0.  1.
    10030    2    1    2    0    0  0.00000000000E+00  0.00000000000E+00 -0.79200582852E+03  0.17326073656E+04  0.15409915804E+04 0.  0.
        1    1    3    3  502    0 -0.15383801423E+03 -0.66145162820E+03  0.13233263958E+02  0.67923450323E+03  0.50400001928E-02 0. -1.
       -1    1    3    3    0  502  0.15383801423E+03  0.66145162820E+03 -0.80523909248E+03  0.10533728624E+04  0.50400001928E-02 0.  1.
</event>
<event>
 5   0  0.8191876E-04  0.1488365E+04  0.7818609E-02  0.8892227E-01
       -1   -1    0    0    0  501  0.00000000000E+00  0.00000000000E+00  0.32214253051E+03  0.32214253055E+03  0.50400001928E-02 0. -1.
        1   -1    0    0  501    0  0.00000000000E+00  0.00000000000E+00 -0.17191383074E+04  0.17191383074E+04  0.50400001928E-02 0.  1.
    10030    2    1    2    0    0  0.00000000000E+00  0.00000000000E+00 -0.13969957769E+04  0.20412808379E+04  0.14883649615E+04 0.  0.
        2    1    3    3  502    0  0.69184260225E+03 -0.24091780203E+03 -0.87794855993E+03  0.11434514627E+04  0.25500000920E-02 0.  1.
       -2    1    3    3    0  502 -0.69184260225E+03  0.24091780203E+03 -0.51904721693E+03  0.89782937524E+03  0.25500000920E-02 0. -1.
</event>
<event>
 5   0  0.8306301E-04  0.1505332E+04  0.7818609E-02  0.8880915E-01
        1   -1    0    0  501    0  0.00000000000E+00  0.00000000000E+00  0.13078872584E+04  0.13078872584E+04  0.50400001928E-02 0. -1.
       -1   -1    0    0    0  501  0.00000000000E+00  0.00000000000E+00 -0.43314588926E+03  0.43314588928E+03  0.50400001928E-02 0.  1.
    10030    2    1    2    0    0  0.00000000000E+00  0.00000000000E+00  0.87474136915E+03  0.17410331477E+04  0.15053318433E+04 0.  0.
        4    1    3    3  502    0  0.42136179172E+03  0.48891780719E+03  0.88518881634E+03  0.10955123163E+04  0.12699999809E+01 0. -1.
       -4    1    3    3    0  502 -0.42136179172E+03 -0.48891780719E+03 -0.10447447184E+02  0.64552083140E+03  0.12699999809E+01 0.  1.
</event>
<event>
 5   0  0.1484056E-03  0.1487870E+04  0.7818609E-02  0.8892559E-01
       -2   -1    0    0    0  501  0.00000000000E+00  0.00000000000E+00  0.27664649787E+03  0.27664649789E+03  0.25500000920E-02 0.  1.
        2   -1    0    0  501    0  0.00000000000E+00  0.00000000000E+00 -0.20005300216E+04  0.20005300216E+04  0.25500000920E-02 0. -1.
    10030    2    1    2    0    0  0.00000000000E+00  0.00000000000E+00 -0.17238835237E+04  0.22771765195E+04  0.14878704572E+04 0.  0.
        5    1    3    3  502    0  0.18755760985E+03  0.10361028678E+03  0.22837217104E+03  0.31319145430E+03  0.46999998093E+01 0.  1.
       -5    1    3    3    0  502 -0.18755760985E+03 -0.10361028678E+03 -0.19522556948E+04  0.19639850652E+04  0.46999998093E+01 0. -1.
</event>
<event>
 5   0  0.8058234E-04  0.1475247E+04  0.7818609E-02  0.8901082E-01
        1   -1    0    0  501    0  0.00000000000E+00  0.00000000000E+00  0.15234972380E+04  0.15234972380E+04  0.50400001928E-02 0.  1.
       -1   -1    0    0    0  501  0.00000000000E+00  0.00000000000E+00 -0.35713140887E+03  0.35713140890E+03  0.50400001928E-02 0. -1.
    10030    2    1    2    0    0  0.00000000000E+00  0.00000000000E+00  0.11663658292E+04  0.18806286469E+04  0.14752473895E+04 0.  0.
        5    1    3    3  502    0  0.58763084680E+03 -0.30162667732E+03  0.16467548427E+03  0.68075602803E+03  0.46999998093E+01 0. -1.
       -5    1    3    3    0  502 -0.58763084680E+03  0.30162667732E+03  0.10016903449E+04  0.11998726189E+04  0.46999998093E+01 0.  1.
</event>
<event>
 5   0  0.8365016E-04  0.1497173E+04  0.7818609E-02  0.8886335E-01
        1   -1    0    0  501    0  0.00000000000E+00  0.00000000000E+00  0.13209739119E+04  0.13209739119E+04  0.50400001928E-02 0. -1.
       -1   -1    0    0    0  501  0.00000000000E+00  0.00000000000E+00 -0.42421838871E+03  0.42421838874E+03  0.50400001928E-02 0.  1.
    10030    2    1    2    0    0  0.00000000000E+00  0.00000000000E+00  0.89675552318E+03  0.17451923006E+04  0.14971725678E+04 0.  0.
        3    1    3    3  502    0  0.17156327479E+03  0.57904149755E+03  0.96398698475E+03  0.11375385401E+04  0.10100000352E+00 0. -1.
       -3    1    3    3    0  502 -0.17156327479E+03 -0.57904149755E+03 -0.67231461569E+02  0.60765376060E+03  0.10100000352E+00 0.  1.
</event>
<event>
 5   0  0.1552067E-03  0.1496462E+04  0.7818609E-02  0.8886809E-01
       -2   -1    0    0    0  501  0.00000000000E+00  0.00000000000E+00  0.16171591052E+04  0.16171591052E+04  0.25500000920E-02 0. -1.
        2   -1    0    0  501    0  0.00000000000E+00  0.00000000000E+00 -0.34619349966E+03  0.34619349967E+03  0.25500000920E-02 0.  1.
    10030    2    1    2    0    0  0.00000000000E+00  0.00000000000E+00  0.12709656055E+04  0.19633526049E+04  0.14964624554E+04 0.  0.
        3    1    3    3  502    0  0.46994748917E+03 -0.45460425663E+03  0.11127577836E+04  0.12906376594E+04  0.10100000352E+00 0. -1.
       -3    1    3    3    0  502 -0.46994748917E+03  0.45460425663E+03  0.15820782194E+03  0.67271494546E+03  0.10100000352E+00 0.  1.
</event>
<event>
 5   0  0.1484056E-03  0.1501019E+04  0.7818609E-02  0.8883776E-01
        2   -1    0    0  501    0  0.00000000000E+00  0.00000000000E+00  0.15874459681E+04  0.15874459681E+04  0.25500000920E-02 0. -1.
       -2   -1    0    0    0  501  0.00000000000E+00  0.00000000000E+00 -0.35482441245E+03  0.35482441246E+03  0.25500000920E-02 0.  1.
    10030    2    1    2    0    0  0.00000000000E+00  0.00000000000E+00  0.12326215556E+04  0.19422703805E+04  0.15010190977E+04 0.  0.
        5    1    3    3  502    0  0.22670824742E+03  0.32338779306E+03  0.14420875315E+04  0.14951972554E+04  0.46999998093E+01 0. -1.
       -5    1    3    3    0  502 -0.22670824742E+03 -0.32338779306E+03 -0.20946597587E+03  0.44707312511E+03  0.46999998093E+01 0.  1.
</event>
<event>
 5   0  0.8058234E-04  0.1492245E+04  0.7818609E-02  0.8889626E-01
        1   -1    0    0  501    0  0.00000000000E+00  0.00000000000E+00  0.41778096967E+03  0.41778096970E+03  0.50400001928E-02 0.  1.
       -1   -1    0    0    0  501  0.00000000000E+00  0.00000000000E+00 -0.13325139900E+04  0.13325139900E+04  0.50400001928E-02 0. -1.
    10030    2    1    2    0    0  0.00000000000E+00  0.00000000000E+00 -0.91473302031E+03  0.17502949597E+04  0.14922452706E+04 0.  0.
        5    1    3    3  502    0  0.36413521026E+03  0.14061468695E+03  0.28844356951E+03  0.48537482869E+03  0.46999998093E+01 0.  1.
       -5    1    3    3    0  502 -0.36413521026E+03 -0.14061468695E+03 -0.12031765898E+04  0.12649201310E+04  0.46999998093E+01 0. -1.
</event>
<event>
 5   0  0.8191876E-04  0.1505337E+04  0.7818609E-02  0.8880912E-01
       -1   -1    0    0    0  501  0.00000000000E+00  0.00000000000E+00  0.43681358751E+03  0.43681358754E+03  0.50400001928E-02 0. -1.
        1   -1    0    0  501    0  0.00000000000E+00  0.00000000000E+00 -0.12969137566E+04  0.12969137567E+04  0.50400001928E-02 0.  1.
    10030    2    1    2    0    0  0.00000000000E+00  0.00000000000E+00 -0.86010016914E+03  0.17337273442E+04  0.15053365747E+04 0.  0.
        2    1    3    3  502    0  0.46453799402E+03  0.21422546112E+03 -0.10659224494E+04  0.11823192311E+04  0.25500000920E-02 0.  1.
       -2    1    3    3    0  502 -0.46453799402E+03 -0.21422546112E+03  0.20582228029E+03  0.55140811306E+03  0.25500000920E-02 0. -1.
</event>
<event>
 5   0  0.1500956E-03  0.1587750E+04  0.7818609E-02  0.8828109E-01
       -2   -1    0    0    0  501  0.00000000000E+00  0.00000000000E+00  0.10066893788E+04  0.10066893788E+04  0.25500000920E-02 0. -1.
        2   -1    0    0  501    0  0.00000000000E+00  0.00000000000E+00 -0.62604979363E+03  0.62604979363E+03  0.25500000920E-02 0.  1.
    10030    2    1    2    0    0  0.00000000000E+00  0.00000000000E+00  0.38063958517E+03  0.16327391724E+04  0.15877502043E+04 0.  0.
        4    1    3    3  502    0  0.65234765823E+03  0.40280581704E+03 -0.21492443426E+02  0.76698991614E+03  0.12699999809E+01 0.  1.
       -4    1    3    3    0  502 -0.65234765823E+03 -0.40280581704E+03  0.40213202859E+03  0.86574925629E+03  0.12699999809E+01 0. -1.
</event>
<event>
 5   0  0.1484056E-03  0.1350435E+04  0.7818609E-02  0.8990499E-01
        2   -1    0    0  501    0  0.00000000000E+00  0.00000000000E+00  0.10963050557E+04  0.10963050557E+04  0.25500000920E-02 0. -1.
       -2   -1    0    0    0  501  0.00000000000E+00  0.00000000000E+00 -0.41586824961E+03  0.41586824961E+03  0.25500000920E-02 0.  1.
    10030    2    1    2    0    0  0.00000000000E+00  0.00000000000E+00  0.68043680607E+03  0.15121733053E+04  0.13504346923E+04 0.  0.
        5    1    3    3  502    0  0.14183750302E+03 -0.36187126796E+03  0.95845567364E+03  0.10342765878E+04  0.46999998093E+01 0. -1.
       -5    1    3    3    0  502 -0.14183750302E+03  0.36187126796E+03 -0.27801886756E+03  0.47789671745E+03  0.46999998093E+01 0.  1.
</event>
<event>
 5   0  0.7870317E-04  0.1507917E+04  0.7818609E-02  0.8879205E-01
        1   -1    0    0  501    0  0.00000000000E+00  0.00000000000E+00  0.10812510802E+04  0.10812510802E+04  0.50400001928E-02 0.  1.
       -1   -1    0    0    0  501  0.00000000000E+00  0.00000000000E+00 -0.52573702819E+03  0.52573702821E+03  0.50400001928E-02 0. -1.
    10030    2    1    2    0    0  0.00000000000E+00  0.00000000000E+00  0.55551405203E+03  0.16069881084E+04  0.15079174111E+04 0.  0.
        1    1    3    3  502    0 -0.30312849101E+03  0.18437237354E+03  0.98672708793E+03  0.10485754147E+04  0.50400001928E-02 0.  1.
       -1    1    3    3    0  502  0.30312849101E+03 -0.18437237354E+03 -0.43121303591E+03  0.55841269375E+03  0.50400001928E-02 0. -1.
</event>
<event>
 5   0  0.1526126E-03  0.1625329E+04  0.7818609E-02  0.8805137E-01
       -2   -1    0    0    0  501  0.00000000000E+00  0.00000000000E+00  0.69477101387E+03  0.69477101388E+03  0.25500000920E-02 0.  1.
        2   -1    0    0  501    0  0.00000000000E+00  0.00000000000E+00 -0.95056266960E+03  0.95056266960E+03  0.25500000920E-02 0. -1.
    10030    2    1    2    0    0  0.00000000000E+00  0.00000000000E+00 -0.25579165573E+03  0.16453336835E+04  0.16253287541E+04 0.  0.
        2    1    3    3  502    0 -0.47869790053E+03 -0.30243386297E+02 -0.79198626990E+03  0.92590960363E+03  0.25500000920E-02 0. -1.
       -2    1    3    3    0  502  0.47869790053E+03  0.30243386297E+02  0.53619461417E+03  0.71942407984E+03  0.25500000920E-02 0.  1.
</event>
<event>
 5   0  0.8191876E-04  0.1397768E+04  0.7818609E-02  0.8955436E-01
       -1   -1    0    0    0  501  0.00000000000E+00  0.00000000000E+00  0.15420964731E+04  0.15420964731E+04  0.50400001928E-02 0.  1.
        1   -1    0    0  501    0  0.00000000000E+00  0.00000000000E+00 -0.31673673216E+03  0.31673673220E+03  0.50400001928E-02 0. -1.
    10030    2    1    2    0    0  0.00000000000E+00  0.00000000000E+00  0.12253597409E+04  0.18588332053E+04  0.13977676454E+04 0.  0.
        2    1    3    3  502    0  0.17845134202E+03 -0.40536302581E+03  0.13316335759E+04  0.14033574187E+04  0.25500000920E-02 0.  1.
       -2    1    3    3    0  502 -0.17845134202E+03  0.40536302581E+03 -0.10627383497E+03  0.45547578659E+03  0.25500000920E-02 0. -1.
</event>
<event>
 5   0  0.1511546E-03  0.1487223E+04  0.7818609E-02  0.8892994E-01
       -2   -1    0    0    0  501  0.00000000000E+00  0.00000000000E+00  0.47014436039E+03  0.47014436040E+03  0.25500000920E-02 0. -1.
        2   -1    0    0  501    0  0.00000000000E+00  0.00000000000E+00 -0.11761446578E+04  0.11761446578E+04  0.25500000920E-02 0.  1.
    10030    2    1    2    0    0  0.00000000000E+00  0.00000000000E+00 -0.70600029738E+03  0.16462890182E+04  0.14872226166E+04 0.  0.
        1    1    3    3  502    0 -0.57833826710E+03 -0.45524771682E+03 -0.23568302371E+03  0.77283382596E+03  0.50400001928E-02 0. -1.
       -1    1    3    3    0  502  0.57833826710E+03  0.45524771682E+03 -0.47031727368E+03  0.87345519221E+03  0.50400001928E-02 0.  1.
</event>
<event>
 5   0  0.8365016E-04  0.1500627E+04  0.7818609E-02  0.8884036E-01
       -1   -1    0    0    0  501  0.00000000000E+00  0.00000000000E+00  0.59874543058E+03  0.59874543060E+03  0.50400001928E-02 0.  1.
        1   -1    0    0  501    0  0.00000000000E+00  0.00000000000E+00 -0.94024936437E+03  0.94024936439E+03  0.50400001928E-02 0. -1.
    10030    2    1    2    0    0  0.00000000000E+00  0.00000000000E+00 -0.34150393379E+03  0.15389947950E+04  0.15006265499E+04 0.  0.
        3    1    3    3  502    0  0.21418550391E+03  0.48519364029E+03  0.37355493707E+03  0.64871534579E+03  0.10100000352E+00 0.  1.
       -3    1    3    3    0  502 -0.21418550391E+03 -0.48519364029E+03 -0.71505887086E+03  0.89027944920E+03  0.10100000352E+00 0. -1.
</event>
<event>
 5   0  0.8365016E-04  0.1516819E+04  0.7818609E-02  0.8873345E-01
       -1   -1    0    0    0  501  0.00000000000E+00  0.00000000000E+00  0.36250327793E+03  0.36250327796E+03  0.50400001928E-02 0.  1.
        1   -1    0    0  501    0  0.00000000000E+00  0.00000000000E+00 -0.15867024805E+04  0.15867024805E+04  0.50400001928E-02 0. -1.
    10030    2    1    2    0    0  0.00000000000E+00  0.00000000000E+00 -0.12241992025E+04  0.19492057584E+04  0.15168188426E+04 0.  0.
        3    1    3    3  502    0  0.42610426250E+03 -0.53331945363E+03 -0.18746428046E+03  0.70791055140E+03  0.10100000352E+00 0.  1.
       -3    1    3    3    0  502 -0.42610426250E+03  0.53331945363E+03 -0.10367349221E+04  0.12412952070E+04  0.10100000352E+00 0. -1.
</event>
<event>
 5   0  0.1500956E-03  0.1500879E+04  0.7818609E-02  0.8883869E-01
       -2   -1    0    0    0  501  0.00000000000E+00  0.00000000000E+00  0.44583920647E+03  0.44583920648E+03  0.25500000920E-02 0. -1.
        2   -1    0    0  501    0  0.00000000000E+00  0.00000000000E+00 -0.12631441540E+04  0.12631441540E+04  0.25500000920E-02 0.  1.
    10030    2    1    2    0    0  0.00000000000E+00  0.00000000000E+00 -0.81730494756E+03  0.17089833605E+04  0.15008786590E+04 0.  0.
        4    1    3    3  502    0 -0.72728305411E+03  0.16084756635E+03 -0.30463524813E+03  0.80474643690E+03  0.12699999809E+01 0.  1.
       -4    1    3    3    0  502  0.72728305411E+03 -0.16084756635E+03 -0.51266969943E+03  0.90423692361E+03  0.12699999809E+01 0. -1.
</event>
<event>
 5   0  0.1511546E-03  0.1520656E+04  0.7818609E-02  0.8870832E-01
       -2   -1    0    0    0  501  0.00000000000E+00  0.00000000000E+00  0.74770761163E+03  0.74770761164E+03  0.25500000920E-02 0.  1.
        2   -1    0    0  501    0  0.00000000000E+00  0.00000000000E+00 -0.77316106395E+03  0.77316106395E+03  0.25500000920E-02 0. -1.
    10030    2    1    2    0    0  0.00000000000E+00  0.00000000000E+00 -0.25453452318E+02  0.15208686756E+04  0.15206556646E+04 0.  0.
        1    1    3    3  502    0  0.22947925428E+03  0.71678573105E+03 -0.12070434349E+03  0.76224146498E+03  0.50400001928E-02 0. -1.
       -1    1    3    3    0  502 -0.22947925428E+03 -0.71678573105E+03  0.95250891170E+02  0.75862721061E+03  0.50400001928E-02 0.  1.
</event>
<event>
 5   0  0.5603875E-04  0.1241453E+04  0.7818609E-02  0.9077327E-01
        4   -1    0    0  501    0  0.00000000000E+00  0.00000000000E+00  0.89170387773E+03  0.89170478212E+03  0.12699999809E+01 0. -1.
       -4   -1    0    0    0  501  0.00000000000E+00  0.00000000000E+00 -0.43209375808E+03  0.43209562446E+03  0.12699999809E+01 0.  1.
    10030    2    1    2    0    0  0.00000000000E+00  0.00000000000E+00  0.45961011965E+03  0.13238004066E+04  0.12414532027E+04 0.  0.
        3    1    3    3  502    0  0.56150498384E+03  0.46105862575E+02 -0.48030841351E+02  0.56543838688E+03  0.10100000352E+00 0. -1.
       -3    1    3    3    0  502 -0.56150498384E+03 -0.46105862575E+02  0.50764096100E+03  0.75836201970E+03  0.10100000352E+00 0.  1.
</event>
<event>
 5   0  0.8306301E-04  0.1494099E+04  0.7818609E-02  0.8888386E-01
       -1   -1    0    0    0  501  0.00000000000E+00  0.00000000000E+00  0.51056150453E+03  0.51056150455E+03  0.50400001928E-02 0. -1.
        1   -1    0    0  501    0  0.00000000000E+00  0.00000000000E+00 -0.10930772867E+04  0.10930772867E+04  0.50400001928E-02 0.  1.
    10030    2    1    2    0    0  0.00000000000E+00  0.00000000000E+00 -0.58251578216E+03  0.16036387913E+04  0.14940993061E+04 0.  0.
        4    1    3    3  502    0  0.51919944357E+03 -0.17067531295E+03  0.25537809326E+03  0.60325592253E+03  0.12699999809E+01 0. -1.
       -4    1    3    3    0  502 -0.51919944357E+03  0.17067531295E+03 -0.83789387542E+03  0.10003828687E+04  0.12699999809E+01 0.  1.
</event>
<event>
 5   0  0.8058234E-04  0.1512269E+04  0.7818609E-02  0.8876335E-01
        1   -1    0    0  501    0  0.00000000000E+00  0.00000000000E+00  0.84801097866E+03  0.84801097867E+03  0.50400001928E-02 0. -1.
       -1   -1    0    0    0  501  0.00000000000E+00  0.00000000000E+00 -0.67421258519E+03  0.67421258521E+03  0.50400001928E-02 0.  1.
    10030    2    1    2    0    0  0.00000000000E+00  0.00000000000E+00  0.17379839347E+03  0.15222235639E+04  0.15122693863E+04 0.  0.
        5    1    3    3  502    0  0.47769928844E+03  0.55168699340E+03  0.28609680764E+03  0.78385497524E+03  0.46999998093E+01 0.  1.
       -5    1    3    3    0  502 -0.47769928844E+03 -0.55168699340E+03 -0.11229841417E+03  0.73836858864E+03  0.46999998093E+01 0. -1.
</event>
<event>
 5   0  0.1526126E-03  0.1323901E+04  0.7818609E-02  0.9010823E-01
       -2   -1    0    0    0  501  0.00000000000E+00  0.00000000000E+00  0.30280701024E+03  0.30280701025E+03  0.25500000920E-02 0.  1.
        2   -1    0    0  501    0  0.00000000000E+00  0.00000000000E+00 -0.14470547915E+04  0.14470547915E+04  0.25500000920E-02 0. -1.
    10030    2    1    2    0    0  0.00000000000E+00  0.00000000000E+00 -0.11442477813E+04  0.17498618018E+04  0.13239008046E+04 0.  0.
        2    1    3    3  502    0  0.39824440288E+03  0.12488980241E+03 -0.12512269432E+04  0.13190014900E+04  0.25500000920E-02 0. -1.
       -2    1    3    3    0  502 -0.39824440288E+03 -0.12488980241E+03  0.10697916193E+03  0.43086031178E+03  0.25500000920E-02 0.  1.
</event>
<event>
 5   0  0.8306301E-04  0.1440537E+04  0.7818609E-02  0.8924987E-01
        1   -1    0    0  501    0  0.00000000000E+00  0.00000000000E+00  0.94769817691E+03  0.94769817692E+03  0.50400001928E-02 0. -1.
       -1   -1    0    0    0  501  0.00000000000E+00  0.00000000000E+00 -0.54741758434E+03  0.54741758436E+03  0.50400001928E-02 0.  1.
    10030    2    1    2    0    0  0.00000000000E+00  0.00000000000E+00  0.40028059257E+03  0.14951157613E+04  0.14405369092E+04 0.  0.
        4    1    3    3  502    0 -0.61816354803E+03  0.14590985787E+03 -0.15238908862E+03  0.65317678003E+03  0.12699999809E+01 0.  1.
       -4    1    3    3    0  502  0.61816354803E+03 -0.14590985787E+03  0.55266968119E+03  0.84193898125E+03  0.12699999809E+01 0. -1.
</event>
<event>
 5   0  0.1484056E-03  0.1506260E+04  0.7818609E-02  0.8880301E-01
        2   -1    0    0  501    0  0.00000000000E+00  0.00000000000E+00  0.59844734148E+03  0.59844734148E+03  0.25500000920E-02 0.  1.
       -2   -1    0    0    0  501  0.00000000000E+00  0.00000000000E+00 -0.94779391597E+03  0.94779391597E+03  0.25500000920E-02 0. -1.
    10030    2    1    2    0    0  0.00000000000E+00  0.00000000000E+00 -0.34934657449E+03  0.15462412575E+04  0.15062599368E+04 0.  0.
        5    1    3    3  502    0 -0.20697227315E+03 -0.65922180972E+03  0.13289897074E+03  0.70362997569E+03  0.46999998093E+01 0.  1.
       -5    1    3    3    0  502  0.20697227315E+03  0.65922180972E+03 -0.48224554523E+03  0.84261128176E+03  0.46999998093E+01 0. -1.
</event>
<event>
 5   0  0.8058234E-04  0.1518629E+04  0.7818609E-02  0.8872158E-01
        1   -1    0    0  501    0  0.00000000000E+00  0.00000000000E+00  0.66406676377E+03  0.66406676379E+03  0.50400001928E-02 0. -1.
       -1   -1    0    0    0  501  0.00000000000E+00  0.00000000000E+00 -0.86822402607E+03  0.86822402608E+03  0.50400001928E-02 0.  1.
    10030    2    1    2    0    0  0.00000000000E+00  0.00000000000E+00 -0.20415726230E+03  0.15322907899E+04  0.15186292757E+04 0.  0.
        5    1    3    3  502    0 -0.19766014219E+03 -0.33529204028E+03 -0.75989937795E+03  0.85379121493E+03  0.46999998093E+01 0.  1.
       -5    1    3    3    0  502  0.19766014219E+03  0.33529204028E+03  0.55574211566E+03  0.67849957494E+03  0.46999998093E+01 0. -1.
</event>
<event>
 5   0  0.7870317E-04  0.1411047E+04  0.7818609E-02  0.8945861E-01
       -1   -1    0    0    0  501  0.00000000000E+00  0.00000000000E+00  0.86153317429E+03  0.86153317431E+03  0.50400001928E-02 0. -1.
        1   -1    0    0  501    0  0.00000000000E+00  0.00000000000E+00 -0.57776444263E+03  0.57776444265E+03  0.50400001928E-02 0.  1.
    10030    2    1    2    0    0  0.00000000000E+00  0.00000000000E+00  0.28376873167E+03  0.14392976170E+04  0.14110467523E+04 0.  0.
        1    1    3    3  502    0  0.23047824686E+02 -0.19932565693E+03  0.83181491601E+03  0.85567398830E+03  0.50400001928E-02 0. -1.
       -1    1    3    3    0  502 -0.23047824686E+02  0.19932565693E+03 -0.54804618434E+03  0.58362362866E+03  0.50400001928E-02 0.  1.
</event>
<event>
 5   0  0.1526126E-03  0.1257027E+04  0.7818609E-02  0.9064355E-01
       -2   -1    0    0    0  501  0.00000000000E+00  0.00000000000E+00  0.29765898524E+03  0.29765898525E+03  0.25500000920E-02 0.  1.
        2   -1    0    0  501    0  0.00000000000E+00  0.00000000000E+00 -0.13271193561E+04  0.13271193561E+04  0.25500000920E-02 0. -1.
    10030    2    1    2    0    0  0.00000000000E+00  0.00000000000E+00 -0.10294603708E+04  0.16247783413E+04  0.12570266518E+04 0.  0.
        2    1    3    3  502    0  0.11029838427E+03  0.33587620190E+03 -0.11864251358E+04  0.12379754276E+04  0.25500000920E-02 0. -1.
       -2    1    3    3    0  502 -0.11029838427E+03 -0.33587620190E+03  0.15696476498E+03  0.38680291367E+03  0.25500000920E-02 0.  1.
</event>
<event>
 5   0  0.8058234E-04  0.1503050E+04  0.7818609E-02  0.8882427E-01
        1   -1    0    0  501    0  0.00000000000E+00  0.00000000000E+00  0.76719078675E+03  0.76719078676E+03  0.50400001928E-02 0.  1.
       -1   -1    0    0    0  501  0.00000000000E+00  0.00000000000E+00 -0.73617936970E+03  0.73617936972E+03  0.50400001928E-02 0. -1.
    10030    2    1    2    0    0  0.00000000000E+00  0.00000000000E+00  0.31011417047E+02  0.15033701565E+04  0.15030502718E+04 0.  0.
        5    1    3    3  502    0  0.65109816947E+03 -0.30879556618E+02  0.38959809660E+03  0.75940183051E+03  0.46999998093E+01 0.  1.
       -5    1    3    3    0  502 -0.65109816947E+03  0.30879556618E+02 -0.35858667955E+03  0.74396832597E+03  0.46999998093E+01 0. -1.
</event>
<event>
 5   0  0.1511546E-03  0.1517040E+04  0.7818609E-02  0.8873200E-01
       -2   -1    0    0    0  501  0.00000000000E+00  0.00000000000E+00  0.95368180789E+03  0.95368180789E+03  0.25500000920E-02 0.  1.
        2   -1    0    0  501    0  0.00000000000E+00  0.00000000000E+00 -0.60329647453E+03  0.60329647454E+03  0.25500000920E-02 0. -1.
    10030    2    1    2    0    0  0.00000000000E+00  0.00000000000E+00  0.35038533336E+03  0.15569782824E+04  0.15170403720E+04 0.  0.
        1    1    3    3  502    0 -0.57101944105E+03 -0.48498526965E+03  0.29697118436E+03  0.80589440884E+03  0.50400001928E-02 0. -1.
       -1    1    3    3    0  502  0.57101944105E+03  0.48498526965E+03  0.53414148994E+02  0.75108387359E+03  0.50400001928E-02 0.  1.
</event>
<event>
 5   0  0.7870317E-04  0.1504845E+04  0.7818609E-02  0.8881237E-01
       -1   -1    0    0    0  501  0.00000000000E+00  0.00000000000E+00  0.49208528454E+03  0.49208528456E+03  0.50400001928E-02 0.  1.
        1   -1    0    0  501    0  0.00000000000E+00  0.00000000000E+00 -0.11504914445E+04  0.11504914445E+04  0.50400001928E-02 0. -1.
    10030    2    1    2    0    0  0.00000000000E+00  0.00000000000E+00 -0.65840615997E+03  0.16425767291E+04  0.15048453872E+04 0.  0.
        1    1    3    3  502    0 -0.41030207482E+03 -0.40469584112E+03  0.19882150214E+03  0.60963637208E+03  0.50400001928E-02 0.  1.
       -1    1    3    3    0  502  0.41030207482E+03  0.40469584112E+03 -0.85722766210E+03  0.10329403570E+04  0.50400001928E-02 0. -1.
</event>
<event>
 5   0  0.8191876E-04  0.1529796E+04  0.7818609E-02  0.8864877E-01
       -1   -1    0    0    0  501  0.00000000000E+00  0.00000000000E+00  0.45185966391E+03  0.45185966394E+03  0.50400001928E-02 0.  1.
        1   -1    0    0  501    0  0.00000000000E+00  0.00000000000E+00 -0.12948015087E+04  0.12948015087E+04  0.50400001928E-02 0. -1.
    10030    2    1    2    0    0  0.00000000000E+00  0.00000000000E+00 -0.84294184480E+03  0.17466611727E+04  0.15297955087E+04 0.  0.
        2    1    3    3  502    0 -0.13048517707E+03 -0.66759856227E+03 -0.22092132494E+02  0.68058965912E+03  0.25500000920E-02 0.  1.
       -2    1    3    3    0  502  0.13048517707E+03  0.66759856227E+03 -0.82084971230E+03  0.10660715135E+04  0.25500000920E-02 0. -1.
</event>
<event>
 5   0  0.1500956E-03  0.1522233E+04  0.7818609E-02  0.8869802E-01
        2   -1    0    0  501    0  0.00000000000E+00  0.00000000000E+00  0.16243889880E+04  0.16243889880E+04  0.25500000920E-02 0. -1.
       -2   -1    0    0    0  501  0.00000000000E+00  0.00000000000E+00 -0.35662517815E+03  0.35662517816E+03  0.25500000920E-02 0.  1.
    10030    2    1    2    0    0  0.00000000000E+00  0.00000000000E+00  0.12677638098E+04  0.19810141661E+04  0.15222325870E+04 0.  0.
        4    1    3    3  502    0  0.36860001946E+03  0.64341858103E+03  0.41057751503E+03  0.84760188385E+03  0.12699999809E+01 0. -1.
       -4    1    3    3    0  502 -0.36860001946E+03 -0.64341858103E+03  0.85718629478E+03  0.11334122823E+04  0.12699999809E+01 0.  1.
</event>
<event>
 5   0  0.1526126E-03  0.1531705E+04  0.7818609E-02  0.8863639E-01
        2   -1    0    0  501    0  0.00000000000E+00  0.00000000000E+00  0.63429445970E+03  0.63429445970E+03  0.25500000920E-02 0.  1.
       -2   -1    0    0    0  501  0.00000000000E+00  0.00000000000E+00 -0.92469635797E+03  0.92469635798E+03  0.25500000920E-02 0. -1.
    10030    2    1    2    0    0  0.00000000000E+00  0.00000000000E+00 -0.29040189828E+03  0.15589908177E+04  0.15317046409E+04 0.  0.
        2    1    3    3  502    0 -0.25981601137E+03 -0.55159050547E+03  0.32649126278E+03  0.69163067469E+03  0.25500000920E-02 0.  1.
       -2    1    3    3    0  502  0.25981601137E+03  0.55159050547E+03 -0.61689316106E+03  0.86736014299E+03  0.25500000920E-02 0. -1.
</event>
<event>
 5   0  0.1500956E-03  0.1669592E+04  0.7818609E-02  0.8778900E-01
        2   -1    0    0  501    0  0.00000000000E+00  0.00000000000E+00  0.17680860875E+04  0.17680860875E+04  0.25500000920E-02 0.  1.
       -2   -1    0    0    0  501  0.00000000000E+00  0.00000000000E+00 -0.39414626790E+03  0.39414626791E+03  0.25500000920E-02 0. -1.
    10030    2    1    2    0    0  0.00000000000E+00  0.00000000000E+00  0.13739398196E+04  0.21622323554E+04  0.16695922050E+04 0.  0.
        4    1    3    3  502    0  0.62563995880E+03  0.53903231954E+03  0.84506200565E+03  0.11815720908E+04  0.12699999809E+01 0.  1.
       -4    1    3    3    0  502 -0.62563995880E+03 -0.53903231954E+03  0.52887781398E+03  0.98066026461E+03  0.12699999809E+01 0. -1.
</event>
<event>
 5   0  0.8191876E-04  0.1457998E+04  0.7818609E-02  0.8912874E-01
        1   -1    0    0  501    0  0.00000000000E+00  0.00000000000E+00  0.49764020351E+03  0.49764020353E+03  0.50400001928E-02 0.  1.
       -1   -1    0    0    0  501  0.00000000000E+00  0.00000000000E+00 -0.10679194849E+04  0.10679194850E+04  0.50400001928E-02 0. -1.
    10030    2    1    2    0    0  0.00000000000E+00  0.00000000000E+00 -0.57027928144E+03  0.15655596885E+04  0.14579981754E+04 0.  0.
        2    1    3    3  502    0  0.81944979467E+02  0.17910260229E+03 -0.10388084600E+04  0.10573153448E+04  0.25500000920E-02 0. -1.
       -2    1    3    3    0  502 -0.81944979467E+02 -0.17910260229E+03  0.46852917851E+03  0.50824434373E+03  0.25500000920E-02 0.  1.
</event>
<event>
 5   0  0.1511546E-03  0.1064401E+04  0.7818609E-02  0.9240601E-01
       -2   -1    0    0    0  501  0.00000000000E+00  0.00000000000E+00  0.64436483655E+03  0.64436483655E+03  0.25500000920E-02 0. -1.
        2   -1    0    0  501    0  0.00000000000E+00  0.00000000000E+00 -0.43956045767E+03  0.43956045768E+03  0.25500000920E-02 0.  1.
    10030    2    1    2    0    0  0.00000000000E+00  0.00000000000E+00  0.20480437888E+03  0.10839252942E+04  0.10644008690E+04 0.  0.
        1    1    3    3  502    0  0.99552668801E+01 -0.39204487665E+03  0.46877794033E+03  0.61118822797E+03  0.50400001928E-02 0. -1.
       -1    1    3    3    0  502 -0.99552668801E+01  0.39204487665E+03 -0.26397356145E+03  0.47273706626E+03  0.50400001928E-02 0.  1.
</event>
<event>
 5   0  0.8306301E-04  0.1488304E+04  0.7818609E-02  0.8892268E-01
        1   -1    0    0  501    0  0.00000000000E+00  0.00000000000E+00  0.61042261849E+03  0.61042261851E+03  0.50400001928E-02 0.  1.
       -1   -1    0    0    0  501  0.00000000000E+00  0.00000000000E+00 -0.90717816627E+03  0.90717816628E+03  0.50400001928E-02 0. -1.
    10030    2    1    2    0    0  0.00000000000E+00  0.00000000000E+00 -0.29675554779E+03  0.15176007848E+04  0.14883038288E+04 0.  0.
        4    1    3    3  502    0 -0.25538313605E+03  0.38500601081E+03 -0.74322231490E+03  0.87511781881E+03  0.12699999809E+01 0. -1.
       -4    1    3    3    0  502  0.25538313605E+03 -0.38500601081E+03  0.44646676711E+03  0.64248296598E+03  0.12699999809E+01 0.  1.
</event>
<event>
 5   0  0.8191876E-04  0.1641288E+04  0.7818609E-02  0.8795577E-01
        1   -1    0    0  501    0  0.00000000000E+00  0.00000000000E+00  0.10300691578E+04  0.10300691578E+04  0.50400001928E-02 0. -1.
       -1   -1    0    0    0  501  0.00000000000E+00  0.00000000000E+00 -0.65379745615E+03  0.65379745617E+03  0.50400001928E-02 0.  1.
    10030    2    1    2    0    0  0.00000000000E+00  0.00000000000E+00  0.37627170165E+03  0.16838666140E+04  0.16412880248E+04 0.  0.
        2    1    3    3  502    0  0.21194488857E+03  0.72879756516E+03  0.50830554460E+03  0.91347745098E+03  0.25500000920E-02 0.  1.
       -2    1    3    3    0  502 -0.21194488857E+03 -0.72879756516E+03 -0.13203384295E+03  0.77038916300E+03  0.25500000920E-02 0. -1.
</event>
<event>
 5   0  0.7870317E-04  0.1496352E+04  0.7818609E-02  0.8886883E-01
       -1   -1    0    0    0  501  0.00000000000E+00  0.00000000000E+00  0.33824566005E+03  0.33824566009E+03  0.50400001928E-02 0.  1.
        1   -1    0    0  501    0  0.00000000000E+00  0.00000000000E+00 -0.16549124876E+04  0.16549124876E+04  0.50400001928E-02 0. -1.
    10030    2    1    2    0    0  0.00000000000E+00  0.00000000000E+00 -0.13166668276E+04  0.19931581477E+04  0.14963515185E+04 0.  0.
        1    1    3    3  502    0 -0.15095122821E+03  0.59174295910E+03 -0.12340661639E+04  0.13769042450E+04  0.50400001928E-02 0. -1.
       -1    1    3    3    0  502  0.15095122821E+03 -0.59174295910E+03 -0.82600663636E+02  0.61625390270E+03  0.50400001928E-02 0.  1.
</event>
<event>
 5   0  0.1511546E-03  0.1470293E+04  0.7818609E-02  0.8904451E-01
       -2   -1    0    0    0  501  0.00000000000E+00  0.00000000000E+00  0.24444526075E+03  0.24444526076E+03  0.25500000920E-02 0.  1.
        2   -1    0    0  501    0  0.00000000000E+00  0.00000000000E+00 -0.22108858967E+04  0.22108858967E+04  0.25500000920E-02 0. -1.
    10030    2    1    2    0    0  0.00000000000E+00  0.00000000000E+00 -0.19664406360E+04  0.24553311575E+04  0.14702932762E+04 0.  0.
        1    1    3    3  502    0 -0.31127935648E+03  0.11241884608E+03  0.11300102579E+03  0.34971712366E+03  0.50400001928E-02 0.  1.
       -1    1    3    3    0  502  0.31127935648E+03 -0.11241884608E+03 -0.20794416618E+04  0.21056140338E+04  0.50400001928E-02 0. -1.
</event>
<event>
 5   0  0.8365016E-04  0.1458707E+04  0.7818609E-02  0.8912386E-01
        1   -1    0    0  501    0  0.00000000000E+00  0.00000000000E+00  0.19872895179E+04  0.19872895179E+04  0.50400001928E-02 0.  1.
       -1   -1    0    0    0  501  0.00000000000E+00  0.00000000000E+00 -0.26767944993E+03  0.26767944998E+03  0.50400001928E-02 0. -1.
    10030    2    1    2    0    0  0.00000000000E+00  0.00000000000E+00  0.17196100679E+04  0.22549689679E+04  0.14587070509E+04 0.  0.
        3    1    3    3  502    0  0.74031429316E+02  0.26901715768E+02 -0.26108507485E+03  0.27270823483E+03  0.10100000352E+00 0. -1.
       -3    1    3    3    0  502 -0.74031429316E+02 -0.26901715768E+02  0.19806951428E+04  0.19822607330E+04  0.10100000352E+00 0.  1.
</event>
<event>
 5   0  0.8058234E-04  0.1518923E+04  0.7818609E-02  0.8871966E-01
       -1   -1    0    0    0  501  0.00000000000E+00  0.00000000000E+00  0.53488081415E+03  0.53488081418E+03  0.50400001928E-02 0.  1.
        1   -1    0    0  501    0  0.00000000000E+00  0.00000000000E+00 -0.10783364265E+04  0.10783364265E+04  0.50400001928E-02 0. -1.
    10030    2    1    2    0    0  0.00000000000E+00  0.00000000000E+00 -0.54345561237E+03  0.16132172407E+04  0.15189225994E+04 0.  0.
        5    1    3    3  502    0  0.56475305487E+03 -0.15809663980E+03  0.24073959957E+03  0.63397019275E+03  0.46999998093E+01 0.  1.
       -5    1    3    3    0  502 -0.56475305487E+03  0.15809663980E+03 -0.78419521194E+03  0.97924704796E+03  0.46999998093E+01 0. -1.
</event>
<event>
 5   0  0.8365016E-04  0.1003414E+04  0.7818609E-02  0.9304808E-01
        1   -1    0    0  501    0  0.00000000000E+00  0.00000000000E+00  0.79074754792E+03  0.79074754794E+03  0.50400001928E-02 0. -1.
       -1   -1    0    0    0  501  0.00000000000E+00  0.00000000000E+00 -0.31831920105E+03  0.31831920109E+03  0.50400001928E-02 0.  1.
    10030    2    1    2    0    0  0.00000000000E+00  0.00000000000E+00  0.47242834688E+03  0.11090667490E+04  0.10034144263E+04 0.  0.
        3    1    3    3  502    0  0.22393979479E+03 -0.14739244480E+03  0.70493724299E+03  0.75419499550E+03  0.10100000352E+00 0. -1.
       -3    1    3    3    0  502 -0.22393979479E+03  0.14739244480E+03 -0.23250889612E+03  0.35487175353E+03  0.10100000352E+00 0.  1.
</event>
<event>
 5   0  0.1526126E-03  0.1558371E+04  0.7818609E-02  0.8846538E-01
       -2   -1    0    0    0  501  0.00000000000E+00  0.00000000000E+00  0.68781858105E+03  0.68781858106E+03  0.25500000920E-02 0. -1.
        2   -1    0    0  501    0  0.00000000000E+00  0.00000000000E+00 -0.88268928415E+03  0.88268928416E+03  0.25500000920E-02 0.  1.
    10030    2    1    2    0    0  0.00000000000E+00  0.00000000000E+00 -0.19487070310E+03  0.15705078652E+04  0.15583710610E+04 0.  0.
        2    1    3    3  502    0  0.46864492259E+03 -0.22558815193E+03  0.48726593116E+03  0.71270342039E+03  0.25500000920E-02 0. -1.
       -2    1    3    3    0  502 -0.46864492259E+03  0.22558815193E+03 -0.68213663426E+03  0.85780444483E+03  0.25500000920E-02 0.  1.
</event>
<event>
 5   0  0.1526126E-03  0.1622790E+04  0.7818609E-02  0.8806669E-01
       -2   -1    0    0    0  501  0.00000000000E+00  0.00000000000E+00  0.58453145893E+03  0.58453145894E+03  0.25500000920E-02 0. -1.
        2   -1    0    0  501    0  0.00000000000E+00  0.00000000000E+00 -0.11263062638E+04  0.11263062638E+04  0.25500000920E-02 0.  1.
    10030    2    1    2    0    0  0.00000000000E+00  0.00000000000E+00 -0.54177480482E+03  0.17108377227E+04  0.16227895040E+04 0.  0.
        2    1    3    3  502    0 -0.46319257098E+03 -0.55581165842E+03 -0.65808482516E+03  0.97803353448E+03  0.25500000920E-02 0.  1.
       -2    1    3    3    0  502  0.46319257098E+03  0.55581165842E+03  0.11631002034E+03  0.73280418823E+03  0.25500000920E-02 0. -1.
</event>
<event>
 5   0  0.1500956E-03  0.1502198E+04  0.7818609E-02  0.8882993E-01
        2   -1    0    0  501    0  0.00000000000E+00  0.00000000000E+00  0.94505547815E+03  0.94505547815E+03  0.25500000920E-02 0.  1.
       -2   -1    0    0    0  501  0.00000000000E+00  0.00000000000E+00 -0.59694844358E+03  0.59694844359E+03  0.25500000920E-02 0. -1.
    10030    2    1    2    0    0  0.00000000000E+00  0.00000000000E+00  0.34810703457E+03  0.15420039217E+04  0.15021975859E+04 0.  0.
        4    1    3    3  502    0  0.16200100666E+03 -0.46558939184E+03 -0.40764618551E+03  0.63968338529E+03  0.12699999809E+01 0. -1.
       -4    1    3    3    0  502 -0.16200100666E+03  0.46558939184E+03  0.75575322007E+03  0.90232053645E+03  0.12699999809E+01 0.  1.
</event>
<event>
 5   0  0.5603875E-04  0.1521098E+04  0.7818609E-02  0.8870543E-01
       -3   -1    0    0    0  501  0.00000000000E+00  0.00000000000E+00  0.71066982660E+03  0.71066983378E+03  0.10100000352E+00 0.  1.
        3   -1    0    0  501    0  0.00000000000E+00  0.00000000000E+00 -0.81392866156E+03  0.81392866783E+03  0.10100000352E+00 0. -1.
    10030    2    1    2    0    0  0.00000000000E+00  0.00000000000E+00 -0.10325883496E+03  0.15245985016E+04  0.15210976971E+04 0.  0.
        1    1    3    3  502    0  0.17507723516E+03 -0.61783386261E+03 -0.46007660131E+03  0.78996278340E+03  0.50400001928E-02 0. -1.
       -1    1    3    3    0  502 -0.17507723516E+03  0.61783386261E+03  0.35681776635E+03  0.73463571821E+03  0.50400001928E-02 0.  1.
</event>
<event>
 5   0  0.8365016E-04  0.1499875E+04  0.7818609E-02  0.8884536E-01
       -1   -1    0    0    0  501  0.00000000000E+00  0.00000000000E+00  0.10457280410E+04  0.10457280410E+04  0.50400001928E-02 0. -1.
        1   -1    0    0  501    0  0.00000000000E+00  0.00000000000E+00 -0.53781342778E+03  0.53781342780E+03  0.50400001928E-02 0.  1.
    10030    2    1    2    0    0  0.00000000000E+00  0.00000000000E+00  0.50791461320E+03  0.15835414688E+04  0.14998754379E+04 0.  0.
        3    1    3    3  502    0 -0.37762856615E+01 -0.11535351279E+03 -0.52838062084E+03  0.54083896302E+03  0.10100000352E+00 0.  1.
       -3    1    3    3    0  502  0.37762856615E+01  0.11535351279E+03  0.10362952340E+04  0.10427025058E+04  0.10100000352E+00 0. -1.
</event>
<event>
 5   0  0.8306301E-04  0.1508801E+04  0.7818609E-02  0.8878621E-01
       -1   -1    0    0    0  501  0.00000000000E+00  0.00000000000E+00  0.86212324117E+03  0.86212324118E+03  0.50400001928E-02 0.  1.
        1   -1    0    0  501    0  0.00000000000E+00  0.00000000000E+00 -0.66013763730E+03  0.66013763732E+03  0.50400001928E-02 0. -1.
    10030    2    1    2    0    0  0.00000000000E+00  0.00000000000E+00  0.20198560387E+03  0.15222608785E+04  0.15088008477E+04 0.  0.
        4    1    3    3  502    0  0.18406447671E+03 -0.62977955877E+03 -0.27464078365E+03  0.71128840647E+03  0.12699999809E+01 0. -1.
       -4    1    3    3    0  502 -0.18406447671E+03  0.62977955877E+03  0.47662638752E+03  0.81097247204E+03  0.12699999809E+01 0.  1.
</event>
<event>
 5   0  0.1484056E-03  0.1461494E+04  0.7818609E-02  0.8910471E-01
       -2   -1    0    0    0  501  0.00000000000E+00  0.00000000000E+00  0.22619793635E+03  0.22619793637E+03  0.25500000920E-02 0. -1.
        2   -1    0    0  501    0  0.00000000000E+00  0.00000000000E+00 -0.23607252572E+04  0.23607252572E+04  0.25500000920E-02 0.  1.
    10030    2    1    2    0    0  0.00000000000E+00  0.00000000000E+00 -0.21345273209E+04  0.25869231936E+04  0.14614940048E+04 0.  0.
        5    1    3    3  502    0  0.45172497282E+02  0.28855964347E+03  0.11835786931E+03  0.31517915156E+03  0.46999998093E+01 0. -1.
       -5    1    3    3    0  502 -0.45172497282E+02 -0.28855964347E+03 -0.22528851902E+04  0.22717440420E+04  0.46999998093E+01 0.  1.
</event>
<event>
 5   0  0.8058234E-04  0.1069777E+04  0.7818609E-02  0.9235160E-01
       -1   -1    0    0    0  501  0.00000000000E+00  0.00000000000E+00  0.47116839048E+03  0.47116839050E+03  0.50400001928E-02 0.  1.
        1   -1    0    0  501    0  0.00000000000E+00  0.00000000000E+00 -0.60722623876E+03  0.60722623878E+03  0.50400001928E-02 0. -1.
    10030    2    1    2    0    0  0.00000000000E+00  0.00000000000E+00 -0.13605784828E+03  0.10783946293E+04  0.10697771910E+04 0.  0.
        5    1    3    3  502    0  0.78019155462E+02 -0.35880352145E+03  0.32402137062E+03  0.48973349307E+03  0.46999998093E+01 0.  1.
       -5    1    3    3    0  502 -0.78019155462E+02  0.35880352145E+03 -0.46007921890E+03  0.58866113621E+03  0.46999998093E+01 0. -1.
</event>
<event>
 5   0  0.8191876E-04  0.1471670E+04  0.7818609E-02  0.8903513E-01
        1   -1    0    0  501    0  0.00000000000E+00  0.00000000000E+00  0.11018716953E+04  0.11018716953E+04  0.50400001928E-02 0. -1.
       -1   -1    0    0    0  501  0.00000000000E+00  0.00000000000E+00 -0.49139424275E+03  0.49139424278E+03  0.50400001928E-02 0.  1.
    10030    2    1    2    0    0  0.00000000000E+00  0.00000000000E+00  0.61047745254E+03  0.15932659381E+04  0.14716703535E+04 0.  0.
        2    1    3    3  502    0  0.53055598175E+03  0.75666094389E+02  0.85112013486E+03  0.10057934637E+04  0.25500000920E-02 0. -1.
       -2    1    3    3    0  502 -0.53055598175E+03 -0.75666094389E+02 -0.24064268232E+03  0.58747247440E+03  0.25500000920E-02 0.  1.
</event>
<event>
 5   0  0.1484056E-03  0.1372764E+04  0.7818609E-02  0.8973772E-01
        2   -1    0    0  501    0  0.00000000000E+00  0.00000000000E+00  0.84033897728E+03  0.84033897728E+03  0.25500000920E-02 0.  1.
       -2   -1    0    0    0  501  0.00000000000E+00  0.00000000000E+00 -0.56063155624E+03  0.56063155625E+03  0.25500000920E-02 0. -1.
    10030    2    1    2    0    0  0.00000000000E+00  0.00000000000E+00  0.27970742104E+03  0.14009705335E+04  0.13727644352E+04 0.  0.
        5    1    3    3  502    0  0.14087450753E+03  0.36066371984E+03 -0.43851330739E+03  0.58501278314E+03  0.46999998093E+01 0. -1.
       -5    1    3    3    0  502 -0.14087450753E+03 -0.36066371984E+03  0.71822072843E+03  0.81595775039E+03  0.46999998093E+01 0.  1.
</event>
<event>
 5   0  0.8365016E-04  0.1462868E+04  0.7818609E-02  0.8909528E-01
       -1   -1    0    0    0  501  0.00000000000E+00  0.00000000000E+00  0.12995369594E+04  0.12995369594E+04  0.50400001928E-02 0.  1.
        1   -1    0    0  501    0  0.00000000000E+00  0.00000000000E+00 -0.41168193763E+03  0.41168193767E+03  0.50400001928E-02 0. -1.
    10030    2    1    2    0    0  0.00000000000E+00  0.00000000000E+00  0.88785502178E+03  0.17112188971E+04  0.14628682696E+04 0.  0.
        3    1    3    3  502    0 -0.11994494111E+03  0.20082853173E+03  0.12546015026E+04  0.12762224840E+04  0.10100000352E+00 0.  1.
       -3    1    3    3    0  502  0.11994494111E+03 -0.20082853173E+03 -0.36674648081E+03  0.43499641314E+03  0.10100000352E+00 0. -1.
</event>
<event>
 5   0  0.8365016E-04  0.1512860E+04  0.7818609E-02  0.8875946E-01
        1   -1    0    0  501    0  0.00000000000E+00  0.00000000000E+00  0.13216906440E+04  0.13216906440E+04  0.50400001928E-02 0. -1.
       -1   -1    0    0    0  501  0.00000000000E+00  0.00000000000E+00 -0.43292024301E+03  0.43292024303E+03  0.50400001928E-02 0.  1.
    10030    2    1    2    0    0  0.00000000000E+00  0.00000000000E+00  0.88877040100E+03  0.17546108870E+04  0.15128603833E+04 0.  0.
        3    1    3    3  502    0  0.18028826584E+03 -0.72355439522E+03  0.29698690087E+03  0.80264316550E+03  0.10100000352E+00 0.  1.
       -3    1    3    3    0  502 -0.18028826584E+03  0.72355439522E+03  0.59178350012E+03  0.95196772154E+03  0.10100000352E+00 0. -1.
</event>
<event>
 5   0  0.8365016E-04  0.1469515E+04  0.7818609E-02  0.8904982E-01
       -1   -1    0    0    0  501  0.00000000000E+00  0.00000000000E+00  0.60364267988E+03  0.60364267990E+03  0.50400001928E-02 0.  1.
        1   -1    0    0  501    0  0.00000000000E+00  0.00000000000E+00 -0.89435098031E+03  0.89435098032E+03  0.50400001928E-02 0. -1.
    10030    2    1    2    0    0  0.00000000000E+00  0.00000000000E+00 -0.29070830043E+03  0.14979936602E+04  0.14695147805E+04 0.  0.
        3    1    3    3  502    0  0.59806170157E+03 -0.40164794230E+03  0.19084605061E+01  0.72041829576E+03  0.10100000352E+00 0. -1.
       -3    1    3    3    0  502 -0.59806170157E+03  0.40164794230E+03 -0.29261676094E+03  0.77757536446E+03  0.10100000352E+00 0.  1.
</event>
<event>
 5   0  0.5603875E-04  0.1447039E+04  0.7818609E-02  0.8920456E-01
        4   -1    0    0  501    0  0.00000000000E+00  0.00000000000E+00  0.11743374555E+04  0.11743381422E+04  0.12699999809E+01 0.  1.
       -4   -1    0    0    0  501  0.00000000000E+00  0.00000000000E+00 -0.44576503741E+03  0.44576684655E+03  0.12699999809E+01 0. -1.
    10030    2    1    2    0    0  0.00000000000E+00  0.00000000000E+00  0.72857241811E+03  0.16201049888E+04  0.14470391862E+04 0.  0.
        5    1    3    3  502    0 -0.63964143946E+03  0.21455678148E+03  0.71723951139E+02  0.67848522365E+03  0.46999998093E+01 0. -1.
       -5    1    3    3    0  502  0.63964143946E+03 -0.21455678148E+03  0.65684846697E+03  0.94161976514E+03  0.46999998093E+01 0.  1.
</event>
<event>
 5   0  0.8306301E-04  0.1452430E+04  0.7818609E-02  0.8916718E-01
       -1   -1    0    0    0  501  0.00000000000E+00  0.00000000000E+00  0.36798476813E+03  0.36798476816E+03  0.50400001928E-02 0. -1.
        1   -1    0    0  501    0  0.00000000000E+00  0.00000000000E+00 -0.14331787613E+04  0.14331787613E+04  0.50400001928E-02 0.  1.
    10030    2    1    2    0    0  0.00000000000E+00  0.00000000000E+00 -0.10651939931E+04  0.18011635294E+04  0.14524296254E+04 0.  0.
        4    1    3    3  502    0 -0.35036029918E+02  0.56696023393E+03 -0.10936873271E+04  0.12324061882E+04  0.12699999809E+01 0.  1.
       -4    1    3    3    0  502  0.35036029918E+02 -0.56696023393E+03  0.28493333977E+02  0.56875734126E+03  0.12699999809E+01 0. -1.
</event>
<event>
 5   0  0.8306301E-04  0.1491308E+04  0.7818609E-02  0.8890253E-01
        1   -1    0    0  501    0  0.00000000000E+00  0.00000000000E+00  0.71274736778E+03  0.71274736779E+03  0.50400001928E-02 0. -1.
       -1   -1    0    0    0  501  0.00000000000E+00  0.00000000000E+00 -0.78008025192E+03  0.78008025193E+03  0.50400001928E-02 0.  1.
    10030    2    1    2    0    0  0.00000000000E+00  0.00000000000E+00 -0.67332884141E+02  0.14928276197E+04  0.14913083467E+04 0.  0.
        4    1    3    3  502    0 -0.53293670130E+03  0.31669497698E+03 -0.44843297487E+03  0.76512154713E+03  0.12699999809E+01 0.  1.
       -4    1    3    3    0  502  0.53293670130E+03 -0.31669497698E+03  0.38110009073E+03  0.72770607259E+03  0.12699999809E+01 0. -1.
</event>
<event>
 5   0  0.1552067E-03  0.1548092E+04  0.7818609E-02  0.8853087E-01
       -2   -1    0    0    0  501  0.00000000000E+00  0.00000000000E+00  0.30400841840E+03  0.30400841841E+03  0.25500000920E-02 0. -1.
        2   -1    0    0  501    0  0.00000000000E+00  0.00000000000E+00 -0.19708252232E+04  0.19708252232E+04  0.25500000920E-02 0.  1.
    10030    2    1    2    0    0  0.00000000000E+00  0.00000000000E+00 -0.16668168047E+04  0.22748336416E+04  0.15480923216E+04 0.  0.
        3    1    3    3  502    0  0.21725052248E+03 -0.52553957536E+03 -0.16050518976E+04  0.17028156797E+04  0.10100000352E+00 0.  1.
       -3    1    3    3    0  502 -0.21725052248E+03  0.52553957536E+03 -0.61764907176E+02  0.57201796191E+03  0.10100000352E+00 0. -1.
</event>
<event>
 5   0  0.1500956E-03  0.1522056E+04  0.7818609E-02  0.8869917E-01
        2   -1    0    0  501    0  0.00000000000E+00  0.00000000000E+00  0.92411650496E+03  0.92411650496E+03  0.25500000920E-02 0. -1.
       -2   -1    0    0    0  501  0.00000000000E+00  0.00000000000E+00 -0.62672102418E+03  0.62672102418E+03  0.25500000920E-02 0.  1.
    10030    2    1    2    0    0  0.00000000000E+00  0.00000000000E+00  0.29739548078E+03  0.15508375291E+04  0.15220555081E+04 0.  0.
        4    1    3    3  502    0 -0.32528302882E+03 -0.39117439881E+03  0.72538203336E+03  0.88600630153E+03  0.12699999809E+01 0. -1.
       -4    1    3    3    0  502  0.32528302882E+03  0.39117439881E+03 -0.42798655258E+03  0.66483122762E+03  0.12699999809E+01 0.  1.
</event>
<event>
 5   0  0.1500956E-03  0.1488936E+04  0.7818609E-02  0.8891844E-01
        2   -1    0    0  501    0  0.00000000000E+00  0.00000000000E+00  0.77328247584E+03  0.77328247584E+03  0.25500000920E-02 0. -1.
       -2   -1    0    0    0  501  0.00000000000E+00  0.00000000000E+00 -0.71672736053E+03  0.71672736054E+03  0.25500000920E-02 0.  1.
    10030    2    1    2    0    0  0.00000000000E+00  0.00000000000E+00  0.56555115302E+02  0.14900098364E+04  0.14889361408E+04 0.  0.
        4    1    3    3  502    0 -0.61207774301E+03  0.28261302502E+03 -0.28773776379E+03  0.73301017661E+03  0.12699999809E+01 0.  1.
       -4    1    3    3    0  502  0.61207774301E+03 -0.28261302502E+03  0.34429287909E+03  0.75699965977E+03  0.12699999809E+01 0. -1.
</event>
<event>
 5   0  0.8058234E-04  0.1499518E+04  0.7818609E-02  0.8884773E-01
       -1   -1    0    0    0  501  0.00000000000E+00  0.00000000000E+00  0.53929801552E+03  0.53929801554E+03  0.50400001928E-02 0.  1.
        1   -1    0    0  501    0  0.00000000000E+00  0.00000000000E+00 -0.10423528129E+04  0.10423528129E+04  0.50400001928E-02 0. -1.
    10030    2    1    2    0    0  0.00000000000E+00  0.00000000000E+00 -0.50305479741E+03  0.15816508285E+04  0.14995183273E+04 0.  0.
        5    1    3    3  502    0 -0.24946771171E+02  0.29847140054E+02 -0.10412721447E+04  0.10420090991E+04  0.46999998093E+01 0. -1.
       -5    1    3    3    0  502  0.24946771171E+02 -0.29847140054E+02  0.53821734732E+03  0.53964172941E+03  0.46999998093E+01 0.  1.
</event>
<event>
 5   0  0.8365016E-04  0.1507802E+04  0.7818609E-02  0.8879281E-01
        1   -1    0    0  501    0  0.00000000000E+00  0.00000000000E+00  0.16376951720E+04  0.16376951720E+04  0.50400001928E-02 0. -1.
       -1   -1    0    0    0  501  0.00000000000E+00  0.00000000000E+00 -0.34705292866E+03  0.34705292869E+03  0.50400001928E-02 0.  1.
    10030    2    1    2    0    0  0.00000000000E+00  0.00000000000E+00  0.12906422433E+04  0.19847481007E+04  0.15078022493E+04 0.  0.
        3    1    3    3  502    0  0.57371156927E+03  0.48908843603E+03  0.64032040186E+03  0.98912218164E+03  0.10100000352E+00 0.  1.
       -3    1    3    3    0  502 -0.57371156927E+03 -0.48908843603E+03  0.65032184144E+03  0.99562591902E+03  0.10100000352E+00 0. -1.
</event>
<event>
 5   0  0.1500956E-03  0.1717824E+04  0.7818609E-02  0.8751263E-01
       -2   -1    0    0    0  501  0.00000000000E+00  0.00000000000E+00  0.44254093830E+03  0.44254093831E+03  0.25500000920E-02 0.  1.
        2   -1    0    0  501    0  0.00000000000E+00  0.00000000000E+00 -0.16670320202E+04  0.16670320202E+04  0.25500000920E-02 0. -1.
    10030    2    1    2    0    0  0.00000000000E+00  0.00000000000E+00 -0.12244910819E+04  0.21095729585E+04  0.17178241055E+04 0.  0.
        4    1    3    3  502    0 -0.42257028044E+03 -0.42028736066E+02 -0.15290946692E+04  0.15869669741E+04  0.12699999809E+01 0. -1.
       -4    1    3    3    0  502  0.42257028044E+03  0.42028736066E+02  0.30460358736E+03  0.52260598437E+03  0.12699999809E+01 0.  1.
</event>
<event>
 5   0  0.1484056E-03  0.1510332E+04  0.7818609E-02  0.8877611E-01
        2   -1    0    0  501    0  0.00000000000E+00  0.00000000000E+00  0.91923460073E+03  0.91923460074E+03  0.25500000920E-02 0.  1.
       -2   -1    0    0    0  501  0.00000000000E+00  0.00000000000E+00 -0.62038112944E+03  0.62038112945E+03  0.25500000920E-02 0. -1.
    10030    2    1    2    0    0  0.00000000000E+00  0.00000000000E+00  0.29885347129E+03  0.15396157302E+04  0.15103321487E+04 0.  0.
        5    1    3    3  502    0 -0.51031921169E+03  0.55021608546E+02 -0.41520853005E+03  0.66020700440E+03  0.46999998093E+01 0. -1.
       -5    1    3    3    0  502  0.51031921169E+03 -0.55021608546E+02  0.71406200134E+03  0.87940872579E+03  0.46999998093E+01 0.  1.
</event>
<event>
 5   0  0.8058234E-04  0.1504767E+04  0.7818609E-02  0.8881289E-01
       -1   -1    0    0    0  501  0.00000000000E+00  0.00000000000E+00  0.60202889583E+03  0.60202889585E+03  0.50400001928E-02 0.  1.
        1   -1    0    0  501    0  0.00000000000E+00  0.00000000000E+00 -0.94028815253E+03  0.94028815254E+03  0.50400001928E-02 0. -1.
    10030    2    1    2    0    0  0.00000000000E+00  0.00000000000E+00 -0.33825925670E+03  0.15423170484E+04  0.15047666108E+04 0.  0.
        5    1    3    3  502    0 -0.56909552418E+03  0.46240747956E+03 -0.34176113554E+03  0.80901987402E+03  0.46999998093E+01 0. -1.
       -5    1    3    3    0  502  0.56909552418E+03 -0.46240747956E+03  0.35018788440E+01  0.73329717437E+03  0.46999998093E+01 0.  1.
</event>
<event>
 5   0  0.8365016E-04  0.1451859E+04  0.7818609E-02  0.8917112E-01
        1   -1    0    0  501    0  0.00000000000E+00  0.00000000000E+00  0.64700531252E+03  0.64700531254E+03  0.50400001928E-02 0.  1.
       -1   -1    0    0    0  501  0.00000000000E+00  0.00000000000E+00 -0.81448152061E+03  0.81448152062E+03  0.50400001928E-02 0. -1.
    10030    2    1    2    0    0  0.00000000000E+00  0.00000000000E+00 -0.16747620808E+03  0.14614868332E+04  0.14518593194E+04 0.  0.
        3    1    3    3  502    0  0.14540082159E+03  0.57543570848E+03 -0.50448850455E+03  0.77895848088E+03  0.10100000352E+00 0. -1.
       -3    1    3    3    0  502 -0.14540082159E+03 -0.57543570848E+03  0.33701229646E+03  0.68252835229E+03  0.10100000352E+00 0.  1.
</event>
<event>
 5   0  0.1526126E-03  0.1498110E+04  0.7818609E-02  0.8885711E-01
       -2   -1    0    0    0  501  0.00000000000E+00  0.00000000000E+00  0.10903646256E+04  0.10903646256E+04  0.25500000920E-02 0.  1.
        2   -1    0    0  501    0  0.00000000000E+00  0.00000000000E+00 -0.51458303060E+03  0.51458303060E+03  0.25500000920E-02 0. -1.
    10030    2    1    2    0    0  0.00000000000E+00  0.00000000000E+00  0.57578159498E+03  0.16049476562E+04  0.14981096535E+04 0.  0.
        2    1    3    3  502    0  0.34705645134E+03 -0.22241812312E+03  0.95792556398E+03  0.10428515657E+04  0.25500000920E-02 0. -1.
       -2    1    3    3    0  502 -0.34705645134E+03  0.22241812312E+03 -0.38214396900E+03  0.56209609050E+03  0.25500000920E-02 0.  1.
</event>
<event>
 5   0  0.1484056E-03  0.1457997E+04  0.7818609E-02  0.8912875E-01
        2   -1    0    0  501    0  0.00000000000E+00  0.00000000000E+00  0.24032778523E+04  0.24032778523E+04  0.25500000920E-02 0.  1.
       -2   -1    0    0    0  501  0.00000000000E+00  0.00000000000E+00 -0.22113086859E+03  0.22113086860E+03  0.25500000920E-02 0. -1.
    10030    2    1    2    0    0  0.00000000000E+00  0.00000000000E+00  0.21821469837E+04  0.26244087209E+04  0.14579971453E+04 0.  0.
        5    1    3    3  502    0  0.71136682704E+02  0.61971586800E+03  0.41204118234E+03  0.74760163899E+03  0.46999998093E+01 0. -1.
       -5    1    3    3    0  502 -0.71136682704E+02 -0.61971586800E+03  0.17701058013E+04  0.18768070819E+04  0.46999998093E+01 0.  1.
</event>
<event>
 5   0  0.1511546E-03  0.1503790E+04  0.7818609E-02  0.8881937E-01
        2   -1    0    0  501    0  0.00000000000E+00  0.00000000000E+00  0.88506304595E+03  0.88506304596E+03  0.25500000920E-02 0. -1.
       -2   -1    0    0    0  501  0.00000000000E+00  0.00000000000E+00 -0.63876346030E+03  0.63876346030E+03  0.25500000920E-02 0.  1.
    10030    2    1    2    0    0  0.00000000000E+00  0.00000000000E+00  0.24629958565E+03  0.15238265063E+04  0.15037897909E+04 0.  0.
        1    1    3    3  502    0  0.34605390456E+03 -0.17001008762E+03 -0.53096581688E+03  0.65618704153E+03  0.50400001928E-02 0.  1.
       -1    1    3    3    0  502 -0.34605390456E+03  0.17001008762E+03  0.77726540253E+03  0.86763946473E+03  0.50400001928E-02 0. -1.
</event>
<event>
 5   0  0.1500956E-03  0.1488746E+04  0.7818609E-02  0.8891971E-01
        2   -1    0    0  501    0  0.00000000000E+00  0.00000000000E+00  0.17391689658E+04  0.17391689658E+04  0.25500000920E-02 0. -1.
       -2   -1    0    0    0  501  0.00000000000E+00  0.00000000000E+00 -0.31859553446E+03  0.31859553447E+03  0.25500000920E-02 0.  1.
    10030    2    1    2    0    0  0.00000000000E+00  0.00000000000E+00  0.14205734313E+04  0.20577645002E+04  0.14887464071E+04 0.  0.
        4    1    3    3  502    0  0.39142280224E+03 -0.31503285058E+03  0.14694127754E+04  0.15529433423E+04  0.12699999809E+01 0. -1.
       -4    1    3    3    0  502 -0.39142280224E+03  0.31503285058E+03 -0.48839344080E+02  0.50482115792E+03  0.12699999809E+01 0.  1.
</event>
<event>
 5   0  0.1484056E-03  0.1617190E+04  0.7818609E-02  0.8810057E-01
        2   -1    0    0  501    0  0.00000000000E+00  0.00000000000E+00  0.95630252429E+03  0.95630252429E+03  0.25500000920E-02 0. -1.
       -2   -1    0    0    0  501  0.00000000000E+00  0.00000000000E+00 -0.68370152223E+03  0.68370152223E+03  0.25500000920E-02 0.  1.
    10030    2    1    2    0    0  0.00000000000E+00  0.00000000000E+00  0.27260100206E+03  0.16400040465E+04  0.16171895270E+04 0.  0.
        5    1    3    3  502    0 -0.98404683964E+00  0.60845672139E+03 -0.40373707837E+03  0.73023713176E+03  0.46999998093E+01 0.  1.
       -5    1    3    3    0  502  0.98404683964E+00 -0.60845672139E+03  0.67633808043E+03  0.90976691476E+03  0.46999998093E+01 0. -1.
</event>
<event>
 5   0  0.1552067E-03  0.1455539E+04  0.7818609E-02  0.8914570E-01
       -2   -1    0    0    0  501  0.00000000000E+00  0.00000000000E+00  0.72180267609E+03  0.72180267610E+03  0.25500000920E-02 0. -1.
        2   -1    0    0  501    0  0.00000000000E+00  0.00000000000E+00 -0.73378523378E+03  0.73378523378E+03  0.25500000920E-02 0.  1.
    10030    2    1    2    0    0  0.00000000000E+00  0.00000000000E+00 -0.11982557685E+02  0.14555879099E+04  0.14555385882E+04 0.  0.
        3    1    3    3  502    0  0.40554959513E+03  0.60074569678E+03 -0.71432543603E+02  0.72833267454E+03  0.10100000352E+00 0.  1.
       -3    1    3    3    0  502 -0.40554959513E+03 -0.60074569678E+03  0.59449985918E+02  0.72725523535E+03  0.10100000352E+00 0. -1.
</event>
<event>
 5   0  0.8306301E-04  0.1525324E+04  0.7818609E-02  0.8867785E-01
        1   -1    0    0  501    0  0.00000000000E+00  0.00000000000E+00  0.12102892089E+04  0.12102892090E+04  0.50400001928E-02 0. -1.
       -1   -1    0    0    0  501  0.00000000000E+00  0.00000000000E+00 -0.48059034780E+03  0.48059034783E+03  0.50400001928E-02 0.  1.
    10030    2    1    2    0    0  0.00000000000E+00  0.00000000000E+00  0.72969886114E+03  0.16908795568E+04  0.15253239812E+04 0.  0.
        4    1    3    3  502    0 -0.56172247268E+03 -0.10804869963E+03 -0.19432534336E+03  0.60412797467E+03  0.12699999809E+01 0.  1.
       -4    1    3    3    0  502  0.56172247268E+03  0.10804869963E+03  0.92402420450E+03  0.10867515821E+04  0.12699999809E+01 0. -1.
</event>
<event>
 5   0  0.1484056E-03  0.1555907E+04  0.7818609E-02  0.8848104E-01
       -2   -1    0    0    0  501  0.00000000000E+00  0.00000000000E+00  0.40381626818E+03  0.40381626819E+03  0.25500000920E-02 0.  1.
        2   -1    0    0  501    0  0.00000000000E+00  0.00000000000E+00 -0.14987294123E+04  0.14987294123E+04  0.25500000920E-02 0. -1.
    10030    2    1    2    0    0  0.00000000000E+00  0.00000000000E+00 -0.10949131441E+04  0.19025456805E+04  0.15559065760E+04 0.  0.
        5    1    3    3  502    0  0.18214195556E+03  0.11535307474E+03  0.36653820187E+03  0.42526975822E+03  0.46999998093E+01 0.  1.
       -5    1    3    3    0  502 -0.18214195556E+03 -0.11535307474E+03 -0.14614513460E+04  0.14772759223E+04  0.46999998093E+01 0. -1.
</event>
<event>
 5   0  0.8058234E-04  0.1485603E+04  0.7818609E-02  0.8894083E-01
       -1   -1    0    0    0  501  0.00000000000E+00  0.00000000000E+00  0.62165015101E+03  0.62165015103E+03  0.50400001928E-02 0.  1.
        1   -1    0    0  501    0  0.00000000000E+00  0.00000000000E+00 -0.88756398218E+03  0.88756398220E+03  0.50400001928E-02 0. -1.
    10030    2    1    2    0    0  0.00000000000E+00  0.00000000000E+00 -0.26591383118E+03  0.15092141332E+04  0.14856032897E+04 0.  0.
        5    1    3    3  502    0  0.19022502294E+03  0.65522059900E+03  0.16536403462E+03  0.70204483237E+03  0.46999998093E+01 0.  1.
       -5    1    3    3    0  502 -0.19022502294E+03 -0.65522059900E+03 -0.43127786580E+03  0.80716930085E+03  0.46999998093E+01 0. -1.
</event>
<event>
 5   0  0.8058234E-04  0.1507589E+04  0.7818609E-02  0.8879422E-01
        1   -1    0    0  501    0  0.00000000000E+00  0.00000000000E+00  0.10854936175E+04  0.10854936175E+04  0.50400001928E-02 0.  1.
       -1   -1    0    0    0  501  0.00000000000E+00  0.00000000000E+00 -0.52345447578E+03  0.52345447580E+03  0.50400001928E-02 0. -1.
    10030    2    1    2    0    0  0.00000000000E+00  0.00000000000E+00  0.56203914172E+03  0.16089480933E+04  0.15075894568E+04 0.  0.
        5    1    3    3  502    0 -0.10449590534E+03  0.61602968741E+03  0.73099743444E+03  0.96166070376E+03  0.46999998093E+01 0. -1.
       -5    1    3    3    0  502  0.10449590534E+03 -0.61602968741E+03 -0.16895829271E+03  0.64728738956E+03  0.46999998093E+01 0.  1.
</event>
<event>
 5   0  0.8058234E-04  0.1531334E+04  0.7818609E-02  0.8863880E-01
        1   -1    0    0  501    0  0.00000000000E+00  0.00000000000E+00  0.93123324420E+03  0.93123324421E+03  0.50400001928E-02 0.  1.
       -1   -1    0    0    0  501  0.00000000000E+00  0.00000000000E+00 -0.62953699957E+03  0.62953699959E+03  0.50400001928E-02 0. -1.
    10030    2    1    2    0    0  0.00000000000E+00  0.00000000000E+00  0.30169624463E+03  0.15607702438E+04  0.15313337748E+04 0.  0.
        5    1    3    3  502    0 -0.24058860470E+03  0.46229013110E+03  0.72254819705E+03  0.89089451064E+03  0.46999998093E+01 0.  1.
       -5    1    3    3    0  502  0.24058860470E+03 -0.46229013110E+03 -0.42085195242E+03  0.66987573316E+03  0.46999998093E+01 0. -1.
</event>
<event>
 5   0  0.7870317E-04  0.1499382E+04  0.7818609E-02  0.8884864E-01
        1   -1    0    0  501    0  0.00000000000E+00  0.00000000000E+00  0.15816791824E+04  0.15816791824E+04  0.50400001928E-02 0. -1.
       -1   -1    0    0    0  501  0.00000000000E+00  0.00000000000E+00 -0.35534176092E+03  0.35534176095E+03  0.50400001928E-02 0.  1.
    10030    2    1    2    0    0  0.00000000000E+00  0.00000000000E+00  0.12263374215E+04  0.19370209434E+04  0.14993820940E+04 0.  0.
        1    1    3    3  502    0 -0.33763410989E+03 -0.31524226559E+03 -0.14965541815E+03  0.48556278933E+03  0.50400001928E-02 0.  1.
       -1    1    3    3    0  502  0.33763410989E+03  0.31524226559E+03  0.13759928397E+04  0.14514581541E+04  0.50400001928E-02 0. -1.
</event>
<event>
 5   0  0.1552067E-03  0.1506077E+04  0.7818609E-02  0.8880422E-01
       -2   -1    0    0    0  501  0.00000000000E+00  0.00000000000E+00  0.32841248273E+03  0.32841248274E+03  0.25500000920E-02 0. -1.
        2   -1    0    0  501    0  0.00000000000E+00  0.00000000000E+00 -0.17266918003E+04  0.17266918003E+04  0.25500000920E-02 0.  1.
    10030    2    1    2    0    0  0.00000000000E+00  0.00000000000E+00 -0.13982793176E+04  0.20551042831E+04  0.15060772106E+04 0.  0.
        3    1    3    3  502    0 -0.24545678805E+02 -0.22625983117E+02  0.32740228143E+03  0.32909981700E+03  0.10100000352E+00 0. -1.
       -3    1    3    3    0  502  0.24545678805E+02  0.22625983117E+02 -0.17256815990E+04  0.17260044661E+04  0.10100000352E+00 0.  1.
</event>
<event>
 5   0  0.5603875E-04  0.1542840E+04  0.7818609E-02  0.8856454E-01
       -4   -1    0    0    0  501  0.00000000000E+00  0.00000000000E+00  0.89660037327E+03  0.89660127272E+03  0.12699999809E+01 0. -1.
        4   -1    0    0  501    0  0.00000000000E+00  0.00000000000E+00 -0.66371514554E+03  0.66371636059E+03  0.12699999809E+01 0.  1.
    10030    2    1    2    0    0  0.00000000000E+00  0.00000000000E+00  0.23288522772E+03  0.15603176333E+04  0.15428401043E+04 0.  0.
        1    1    3    3  502    0  0.12341296447E+03 -0.51458166880E+03  0.68410664949E+03  0.86488551934E+03  0.50400001928E-02 0. -1.
       -1    1    3    3    0  502 -0.12341296447E+03  0.51458166880E+03 -0.45122142176E+03  0.69543211397E+03  0.50400001928E-02 0.  1.
</event>
<event>
 5   0  0.8306301E-04  0.1438491E+04  0.7818609E-02  0.8926419E-01
       -1   -1    0    0    0  501  0.00000000000E+00  0.00000000000E+00  0.71705856212E+03  0.71705856214E+03  0.50400001928E-02 0. -1.
        1   -1    0    0  501    0  0.00000000000E+00  0.00000000000E+00 -0.72143878718E+03  0.72143878720E+03  0.50400001928E-02 0.  1.
    10030    2    1    2    0    0  0.00000000000E+00  0.00000000000E+00 -0.43802250624E+01  0.14384973493E+04  0.14384906804E+04 0.  0.
        4    1    3    3  502    0 -0.47325312870E+03  0.53526512226E+03 -0.84864382800E+02  0.71950041786E+03  0.12699999809E+01 0. -1.
       -4    1    3    3    0  502  0.47325312870E+03 -0.53526512226E+03  0.80484157738E+02  0.71899693148E+03  0.12699999809E+01 0.  1.
</event>
<event>
 5   0  0.1500956E-03  0.1517235E+04  0.7818609E-02  0.8873072E-01
        2   -1    0    0  501    0  0.00000000000E+00  0.00000000000E+00  0.57210067703E+03  0.57210067704E+03  0.25500000920E-02 0. -1.
       -2   -1    0    0    0  501  0.00000000000E+00  0.00000000000E+00 -0.10059431037E+04  0.10059431037E+04  0.25500000920E-02 0.  1.
    10030    2    1    2    0    0  0.00000000000E+00  0.00000000000E+00 -0.43384242670E+03  0.15780437808E+04  0.15172352892E+04 0.  0.
        4    1    3    3  502    0 -0.38852775521E+03 -0.27810349061E+03 -0.82977703518E+03  0.95751078797E+03  0.12699999809E+01 0.  1.
       -4    1    3    3    0  502  0.38852775521E+03  0.27810349061E+03  0.39593460849E+03  0.62053299280E+03  0.12699999809E+01 0. -1.
</event>
<event>
 5   0  0.1526126E-03  0.1492234E+04  0.7818609E-02  0.8889634E-01
        2   -1    0    0  501    0  0.00000000000E+00  0.00000000000E+00  0.14464313585E+04  0.14464313585E+04  0.25500000920E-02 0.  1.
       -2   -1    0    0    0  501  0.00000000000E+00  0.00000000000E+00 -0.38487158077E+03  0.38487158077E+03  0.25500000920E-02 0. -1.
    10030    2    1    2    0    0  0.00000000000E+00  0.00000000000E+00  0.10615597778E+04  0.18313029393E+04  0.14922336592E+04 0.  0.
        2    1    3    3  502    0 -0.36870139183E+03 -0.15389859270E+03 -0.24253090366E+03  0.46738285421E+03  0.25500000920E-02 0. -1.
       -2    1    3    3    0  502  0.36870139183E+03  0.15389859270E+03  0.13040906814E+04  0.13639200851E+04  0.25500000920E-02 0.  1.
</event>
<event>
 5   0  0.7870317E-04  0.1305399E+04  0.7818609E-02  0.9025294E-01
       -1   -1    0    0    0  501  0.00000000000E+00  0.00000000000E+00  0.82534911224E+03  0.82534911226E+03  0.50400001928E-02 0.  1.
        1   -1    0    0  501    0  0.00000000000E+00  0.00000000000E+00 -0.51616561987E+03  0.51616561990E+03  0.50400001928E-02 0. -1.
    10030    2    1    2    0    0  0.00000000000E+00  0.00000000000E+00  0.30918349237E+03  0.13415147322E+04  0.13053993047E+04 0.  0.
        1    1    3    3  502    0  0.88857784240E+02 -0.53408898273E+03  0.52918994256E+03  0.75709229466E+03  0.50400001928E-02 0.  1.
       -1    1    3    3    0  502 -0.88857784240E+02  0.53408898273E+03 -0.22000645020E+03  0.58442243749E+03  0.50400001928E-02 0. -1.
</event>
<event>
 5   0  0.1484056E-03  0.1598031E+04  0.7818609E-02  0.8821758E-01
       -2   -1    0    0    0  501  0.00000000000E+00  0.00000000000E+00  0.70112028561E+03  0.70112028562E+03  0.25500000920E-02 0.  1.
        2   -1    0    0  501    0  0.00000000000E+00  0.00000000000E+00 -0.91057964594E+03  0.91057964594E+03  0.25500000920E-02 0. -1.
    10030    2    1    2    0    0  0.00000000000E+00  0.00000000000E+00 -0.20945936032E+03  0.16116999316E+04  0.15980311154E+04 0.  0.
        5    1    3    3  502    0  0.15099177668E+03 -0.51510547229E+03  0.49217010667E+03  0.72827581871E+03  0.46999998093E+01 0.  1.
       -5    1    3    3    0  502 -0.15099177668E+03  0.51510547229E+03 -0.70162946699E+03  0.88342411285E+03  0.46999998093E+01 0. -1.
</event>
<event>
 5   0  0.8365016E-04  0.1457274E+04  0.7818609E-02  0.8913373E-01
        1   -1    0    0  501    0  0.00000000000E+00  0.00000000000E+00  0.49432198002E+03  0.49432198005E+03  0.50400001928E-02 0.  1.
       -1   -1    0    0    0  501  0.00000000000E+00  0.00000000000E+00 -0.10740209270E+04  0.10740209270E+04  0.50400001928E-02 0. -1.
    10030    2    1    2    0    0  0.00000000000E+00  0.00000000000E+00 -0.57969894699E+03  0.15683429071E+04  0.14572743753E+04 0.  0.
        3    1    3    3  502    0  0.13426226903E+01  0.15120904608E+03 -0.10569482385E+04  0.10677104324E+04  0.10100000352E+00 0. -1.
       -3    1    3    3    0  502 -0.13426226903E+01 -0.15120904608E+03  0.47724929154E+03  0.50063247471E+03  0.10100000352E+00 0.  1.
</event>
<event>
 5   0  0.1500956E-03  0.1069290E+04  0.7818609E-02  0.9235652E-01
       -2   -1    0    0    0  501  0.00000000000E+00  0.00000000000E+00  0.27512341791E+03  0.27512341792E+03  0.25500000920E-02 0.  1.
        2   -1    0    0  501    0  0.00000000000E+00  0.00000000000E+00 -0.10389715441E+04  0.10389715441E+04  0.25500000920E-02 0. -1.
    10030    2    1    2    0    0  0.00000000000E+00  0.00000000000E+00 -0.76384812620E+03  0.13140949620E+04  0.10692902362E+04 0.  0.
        4    1    3    3  502    0  0.38252504775E+03  0.23751040625E+03 -0.73620716057E+03  0.86298273529E+03  0.12699999809E+01 0. -1.
       -4    1    3    3    0  502 -0.38252504775E+03 -0.23751040625E+03 -0.27640965630E+02  0.45111222674E+03  0.12699999809E+01 0.  1.
</event>
<event>
 5   0  0.5603875E-04  0.1579763E+04  0.7818609E-02  0.8833078E-01
       -3   -1    0    0    0  501  0.00000000000E+00  0.00000000000E+00  0.43922670594E+03  0.43922671755E+03  0.10100000352E+00 0.  1.
        3   -1    0    0  501    0  0.00000000000E+00  0.00000000000E+00 -0.14204799169E+04  0.14204799205E+04  0.10100000352E+00 0. -1.
    10030    2    1    2    0    0  0.00000000000E+00  0.00000000000E+00 -0.98125321094E+03  0.18597066380E+04  0.15797629302E+04 0.  0.
        5    1    3    3  502    0  0.11036259664E+03  0.78141726108E+03 -0.52963105763E+03  0.95043357782E+03  0.46999998093E+01 0.  1.
       -5    1    3    3    0  502 -0.11036259664E+03 -0.78141726108E+03 -0.45162215332E+03  0.90927306020E+03  0.46999998093E+01 0. -1.
</event>
<event>
 5   0  0.5603875E-04  0.1482766E+04  0.7818609E-02  0.8895995E-01
       -4   -1    0    0    0  501  0.00000000000E+00  0.00000000000E+00  0.10695152290E+04  0.10695159831E+04  0.12699999809E+01 0. -1.
        4   -1    0    0  501    0  0.00000000000E+00  0.00000000000E+00 -0.51392174736E+03  0.51392331657E+03  0.12699999809E+01 0.  1.
    10030    2    1    2    0    0  0.00000000000E+00  0.00000000000E+00  0.55559348168E+03  0.15834392996E+04  0.14827662994E+04 0.  0.
        1    1    3    3  502    0 -0.39822173792E+03 -0.56947055833E+03  0.18502047593E+01  0.69489617400E+03  0.50400001928E-02 0.  1.
       -1    1    3    3    0  502  0.39822173792E+03  0.56947055833E+03  0.55374327692E+03  0.88854312564E+03  0.50400001928E-02 0. -1.
</event>
<event>
 5   0  0.7870317E-04  0.1499698E+04  0.7818609E-02  0.8884654E-01
       -1   -1    0    0    0  501  0.00000000000E+00  0.00000000000E+00  0.12981903739E+04  0.12981903739E+04  0.50400001928E-02 0. -1.
        1   -1    0    0  501    0  0.00000000000E+00  0.00000000000E+00 -0.43312103899E+03  0.43312103902E+03  0.50400001928E-02 0.  1.
    10030    2    1    2    0    0  0.00000000000E+00  0.00000000000E+00  0.86506933491E+03  0.17313114129E+04  0.14996980544E+04 0.  0.
        1    1    3    3  502    0 -0.31543793765E+03  0.12806772905E+03  0.12038277064E+04  0.12510409995E+04  0.50400001928E-02 0. -1.
       -1    1    3    3    0  502  0.31543793765E+03 -0.12806772905E+03 -0.33875837149E+03  0.48027041343E+03  0.50400001928E-02 0.  1.
</event>
<event>
 5   0  0.7870317E-04  0.1485728E+04  0.7818609E-02  0.8894000E-01
       -1   -1    0    0    0  501  0.00000000000E+00  0.00000000000E+00  0.40691063580E+03  0.40691063583E+03  0.50400001928E-02 0. -1.
        1   -1    0    0  501    0  0.00000000000E+00  0.00000000000E+00 -0.13561867281E+04  0.13561867281E+04  0.50400001928E-02 0.  1.
    10030    2    1    2    0    0  0.00000000000E+00  0.00000000000E+00 -0.94927609230E+03  0.17630973639E+04  0.14857278402E+04 0.  0.
        1    1    3    3  502    0 -0.55443530750E+03  0.13644555469E+03  0.89296527858E+02  0.57791847998E+03  0.50400001928E-02 0. -1.
       -1    1    3    3    0  502  0.55443530750E+03 -0.13644555469E+03 -0.10385726202E+04  0.11851788840E+04  0.50400001928E-02 0.  1.
</event>
<event>
 5   0  0.8365016E-04  0.1568259E+04  0.7818609E-02  0.8840288E-01
        1   -1    0    0  501    0  0.00000000000E+00  0.00000000000E+00  0.10518313854E+04  0.10518313854E+04  0.50400001928E-02 0. -1.
       -1   -1    0    0    0  501  0.00000000000E+00  0.00000000000E+00 -0.58456058223E+03  0.58456058225E+03  0.50400001928E-02 0.  1.
    10030    2    1    2    0    0  0.00000000000E+00  0.00000000000E+00  0.46727080313E+03  0.16363919676E+04  0.15682591203E+04 0.  0.
        3    1    3    3  502    0 -0.44744039689E+03 -0.57067117568E+03  0.54490859739E+03  0.90707986927E+03  0.10100000352E+00 0.  1.
       -3    1    3    3    0  502  0.44744039689E+03  0.57067117568E+03 -0.77637794266E+02  0.72931209836E+03  0.10100000352E+00 0. -1.
</event>
<event>
 5   0  0.1500956E-03  0.1507710E+04  0.7818609E-02  0.8879342E-01
        2   -1    0    0  501    0  0.00000000000E+00  0.00000000000E+00  0.16004583280E+04  0.16004583280E+04  0.25500000920E-02 0.  1.
       -2   -1    0    0    0  501  0.00000000000E+00  0.00000000000E+00 -0.35508430684E+03  0.35508430685E+03  0.25500000920E-02 0. -1.
    10030    2    1    2    0    0  0.00000000000E+00  0.00000000000E+00  0.12453740212E+04  0.19555426349E+04  0.15077103648E+04 0.  0.
        4    1    3    3  502    0  0.48582591006E+03  0.21250359150E+03 -0.72296676855E+02  0.53517568487E+03  0.12699999809E+01 0. -1.
       -4    1    3    3    0  502 -0.48582591006E+03 -0.21250359150E+03  0.13176706980E+04  0.14203669500E+04  0.12699999809E+01 0.  1.
</event>
<event>
 5   0  0.1511546E-03  0.1486691E+04  0.7818609E-02  0.8893352E-01
        2   -1    0    0  501    0  0.00000000000E+00  0.00000000000E+00  0.78973681313E+03  0.78973681313E+03  0.25500000920E-02 0.  1.
       -2   -1    0    0    0  501  0.00000000000E+00  0.00000000000E+00 -0.69967923811E+03  0.69967923811E+03  0.25500000920E-02 0. -1.
    10030    2    1    2    0    0  0.00000000000E+00  0.00000000000E+00  0.90057575019E+02  0.14894160512E+04  0.14866908915E+04 0.  0.
        1    1    3    3  502    0 -0.22345090338E+03 -0.68645010746E+03  0.22260604727E+03  0.75544523863E+03  0.50400001928E-02 0. -1.
       -1    1    3    3    0  502  0.22345090338E+03  0.68645010746E+03 -0.13254847225E+03  0.73397081262E+03  0.50400001928E-02 0.  1.
</event>
<event>
 5   0  0.5603875E-04  0.1523468E+04  0.7818609E-02  0.8868995E-01
       -4   -1    0    0    0  501  0.00000000000E+00  0.00000000000E+00  0.84800673704E+03  0.84800768803E+03  0.12699999809E+01 0.  1.
        4   -1    0    0  501    0  0.00000000000E+00  0.00000000000E+00 -0.68423643071E+03  0.68423760932E+03  0.12699999809E+01 0. -1.
    10030    2    1    2    0    0  0.00000000000E+00  0.00000000000E+00  0.16377030633E+03  0.15322452974E+04  0.15234680627E+04 0.  0.
        3    1    3    3  502    0  0.73295887998E+03  0.72794251924E+02 -0.11342686862E+03  0.74524719897E+03  0.10100000352E+00 0.  1.
       -3    1    3    3    0  502 -0.73295887998E+03 -0.72794251924E+02  0.27719717495E+03  0.78699809838E+03  0.10100000352E+00 0. -1.
</event>
<event>
 5   0  0.8191876E-04  0.1496178E+04  0.7818609E-02  0.8886999E-01
       -1   -1    0    0    0  501  0.00000000000E+00  0.00000000000E+00  0.60744163647E+03  0.60744163649E+03  0.50400001928E-02 0. -1.
        1   -1    0    0  501    0  0.00000000000E+00  0.00000000000E+00 -0.92130157783E+03  0.92130157784E+03  0.50400001928E-02 0.  1.
    10030    2    1    2    0    0  0.00000000000E+00  0.00000000000E+00 -0.31385994136E+03  0.15287432143E+04  0.14961777142E+04 0.  0.
        2    1    3    3  502    0  0.36417000887E+03  0.12603327653E+03 -0.81208246754E+03  0.89887825440E+03  0.25500000920E-02 0.  1.
       -2    1    3    3    0  502 -0.36417000887E+03 -0.12603327653E+03  0.49822252618E+03  0.62986495993E+03  0.25500000920E-02 0. -1.
</event>
<event>
 5   0  0.5603875E-04  0.1532392E+04  0.7818609E-02  0.8863194E-01
        3   -1    0    0  501    0  0.00000000000E+00  0.00000000000E+00  0.45096006071E+03  0.45096007202E+03  0.10100000352E+00 0.  1.
       -3   -1    0    0    0  501  0.00000000000E+00  0.00000000000E+00 -0.13017916907E+04  0.13017916946E+04  0.10100000352E+00 0. -1.
    10030    2    1    2    0    0  0.00000000000E+00  0.00000000000E+00 -0.85083162996E+03  0.17527517666E+04  0.15323916904E+04 0.  0.
        2    1    3    3  502    0 -0.77451940132E+02  0.42258320649E+03 -0.11510590605E+04  0.12286221267E+04  0.25500000920E-02 0. -1.
       -2    1    3    3    0  502  0.77451940132E+02 -0.42258320649E+03  0.30022743050E+03  0.52412963995E+03  0.25500000920E-02 0.  1.
</event>
<event>
 5   0  0.1500956E-03  0.1502175E+04  0.7818609E-02  0.8883008E-01
        2   -1    0    0  501    0  0.00000000000E+00  0.00000000000E+00  0.67631623965E+03  0.67631623966E+03  0.25500000920E-02 0. -1.
       -2   -1    0    0    0  501  0.00000000000E+00  0.00000000000E+00 -0.83412485300E+03  0.83412485300E+03  0.25500000920E-02 0.  1.
    10030    2    1    2    0    0  0.00000000000E+00  0.00000000000E+00 -0.15780861335E+03  0.15104410927E+04  0.15021746689E+04 0.  0.
        4    1    3    3  502    0  0.69894650440E+03 -0.26972431919E+03 -0.25195511470E+02  0.74960913220E+03  0.12699999809E+01 0.  1.
       -4    1    3    3    0  502 -0.69894650440E+03  0.26972431919E+03 -0.13261310188E+03  0.76083196046E+03  0.12699999809E+01 0. -1.
</event>
<event>
 5   0  0.8365016E-04  0.1246658E+04  0.7818609E-02  0.9072970E-01
        1   -1    0    0  501    0  0.00000000000E+00  0.00000000000E+00  0.96822826863E+03  0.96822826864E+03  0.50400001928E-02 0.  1.
       -1   -1    0    0    0  501  0.00000000000E+00  0.00000000000E+00 -0.40128846507E+03  0.40128846510E+03  0.50400001928E-02 0. -1.
    10030    2    1    2    0    0  0.00000000000E+00  0.00000000000E+00  0.56693980356E+03  0.13695167337E+04  0.12466576688E+04 0.  0.
        3    1    3    3  502    0  0.31195843385E+03  0.29945690611E+03  0.77665230138E+03  0.88892143101E+03  0.10100000352E+00 0.  1.
       -3    1    3    3    0  502 -0.31195843385E+03 -0.29945690611E+03 -0.20971249783E+03  0.48059530274E+03  0.10100000352E+00 0. -1.
</event>
<event>
 5   0  0.1500956E-03  0.1511563E+04  0.7818609E-02  0.8876800E-01
        2   -1    0    0  501    0  0.00000000000E+00  0.00000000000E+00  0.29250513731E+03  0.29250513732E+03  0.25500000920E-02 0.  1.
       -2   -1    0    0    0  501  0.00000000000E+00  0.00000000000E+00 -0.19528062601E+04  0.19528062601E+04  0.25500000920E-02 0. -1.
    10030    2    1    2    0    0  0.00000000000E+00  0.00000000000E+00 -0.16603011228E+04  0.22453113975E+04  0.15115632481E+04 0.  0.
        4    1    3    3  502    0  0.27731889437E+03  0.42494973786E+03  0.18406348611E+01  0.50743772989E+03  0.12699999809E+01 0.  1.
       -4    1    3    3    0  502 -0.27731889437E+03 -0.42494973786E+03 -0.16621417577E+04  0.17378736676E+04  0.12699999809E+01 0. -1.
</event>
<event>
 5   0  0.8365016E-04  0.1510473E+04  0.7818609E-02  0.8877518E-01
       -1   -1    0    0    0  501  0.00000000000E+00  0.00000000000E+00  0.10555268687E+04  0.10555268688E+04  0.50400001928E-02 0.  1.
        1   -1    0    0  501    0  0.00000000000E+00  0.00000000000E+00 -0.54037682037E+03  0.54037682040E+03  0.50400001928E-02 0. -1.
    10030    2    1    2    0    0  0.00000000000E+00  0.00000000000E+00  0.51515004837E+03  0.15959036892E+04  0.15104731089E+04 0.  0.
        3    1    3    3  502    0 -0.49419166538E+03 -0.43875005989E+03 -0.12869112744E+03  0.67326698543E+03  0.10100000352E+00 0. -1.
       -3    1    3    3    0  502  0.49419166538E+03  0.43875005989E+03  0.64384117581E+03  0.92263670372E+03  0.10100000352E+00 0.  1.
</event>
<event>
 5   0  0.8365016E-04  0.1518293E+04  0.7818609E-02  0.8872378E-01
       -1   -1    0    0    0  501  0.00000000000E+00  0.00000000000E+00  0.10685825470E+04  0.10685825471E+04  0.50400001928E-02 0.  1.
        1   -1    0    0  501    0  0.00000000000E+00  0.00000000000E+00 -0.53931593439E+03  0.53931593441E+03  0.50400001928E-02 0. -1.
    10030    2    1    2    0    0  0.00000000000E+00  0.00000000000E+00  0.52926661265E+03  0.16078984815E+04  0.15182932455E+04 0.  0.
        3    1    3    3  502    0 -0.47450047401E+02  0.60127193325E+03 -0.22357717470E+03  0.64324661520E+03  0.10100000352E+00 0. -1.
       -3    1    3    3    0  502  0.47450047401E+02 -0.60127193325E+03  0.75284378736E+03  0.96465186626E+03  0.10100000352E+00 0.  1.
</event>
<event>
 5   0  0.1500956E-03  0.1489054E+04  0.7818609E-02  0.8891765E-01
       -2   -1    0    0    0  501  0.00000000000E+00  0.00000000000E+00  0.69979012428E+03  0.69979012428E+03  0.25500000920E-02 0. -1.
        2   -1    0    0  501    0  0.00000000000E+00  0.00000000000E+00 -0.79212352738E+03  0.79212352739E+03  0.25500000920E-02 0.  1.
    10030    2    1    2    0    0  0.00000000000E+00  0.00000000000E+00 -0.92333403102E+02  0.14919136517E+04  0.14890536883E+04 0.  0.
        4    1    3    3  502    0  0.66713444426E+03 -0.23499887448E+03  0.18671417023E+03  0.73154400551E+03  0.12699999809E+01 0. -1.
       -4    1    3    3    0  502 -0.66713444426E+03  0.23499887448E+03 -0.27904757333E+03  0.76036964616E+03  0.12699999809E+01 0.  1.
</event>
<event>
 5   0  0.1511546E-03  0.1493514E+04  0.7818609E-02  0.8888777E-01
       -2   -1    0    0    0  501  0.00000000000E+00  0.00000000000E+00  0.47774022233E+03  0.47774022233E+03  0.25500000920E-02 0.  1.
        2   -1    0    0  501    0  0.00000000000E+00  0.00000000000E+00 -0.11672582661E+04  0.11672582661E+04  0.25500000920E-02 0. -1.
    10030    2    1    2    0    0  0.00000000000E+00  0.00000000000E+00 -0.68951804374E+03  0.16449984884E+04  0.14935142765E+04 0.  0.
        1    1    3    3  502    0  0.28978704790E+03 -0.20448143545E+03 -0.10685715955E+04  0.11258927326E+04  0.50400001928E-02 0. -1.
       -1    1    3    3    0  502 -0.28978704790E+03  0.20448143545E+03  0.37905355177E+03  0.51910575580E+03  0.50400001928E-02 0.  1.
</event>
<event>
 5   0  0.1500956E-03  0.1495379E+04  0.7818609E-02  0.8887532E-01
       -2   -1    0    0    0  501  0.00000000000E+00  0.00000000000E+00  0.58835484488E+03  0.58835484489E+03  0.25500000920E-02 0. -1.
        2   -1    0    0  501    0  0.00000000000E+00  0.00000000000E+00 -0.95017426685E+03  0.95017426685E+03  0.25500000920E-02 0.  1.
    10030    2    1    2    0    0  0.00000000000E+00  0.00000000000E+00 -0.36181942197E+03  0.15385291117E+04  0.14953790602E+04 0.  0.
        4    1    3    3  502    0  0.58132609556E+03  0.46898288901E+03 -0.21584600097E+03  0.77748060336E+03  0.12699999809E+01 0. -1.
       -4    1    3    3    0  502 -0.58132609556E+03 -0.46898288901E+03 -0.14597342100E+03  0.76104850838E+03  0.12699999809E+01 0.  1.
</event>
<event>
 5   0  0.1500956E-03  0.1522235E+04  0.7818609E-02  0.8869800E-01
       -2   -1    0    0    0  501  0.00000000000E+00  0.00000000000E+00  0.90749893363E+03  0.90749893363E+03  0.25500000920E-02 0. -1.
        2   -1    0    0  501    0  0.00000000000E+00  0.00000000000E+00 -0.63834781367E+03  0.63834781368E+03  0.25500000920E-02 0.  1.
    10030    2    1    2    0    0  0.00000000000E+00  0.00000000000E+00  0.26915111996E+03  0.15458467473E+04  0.15222351464E+04 0.  0.
        4    1    3    3  502    0 -0.39020624182E+03  0.15133327004E+03  0.78015291403E+03  0.88532640983E+03  0.12699999809E+01 0. -1.
       -4    1    3    3    0  502  0.39020624182E+03 -0.15133327004E+03 -0.51100179407E+03  0.66052033748E+03  0.12699999809E+01 0.  1.
</event>
<event>
 5   0  0.7870317E-04  0.1521284E+04  0.7818609E-02  0.8870421E-01
        1   -1    0    0  501    0  0.00000000000E+00  0.00000000000E+00  0.51010331933E+03  0.51010331936E+03  0.50400001928E-02 0. -1.
       -1   -1    0    0    0  501  0.00000000000E+00  0.00000000000E+00 -0.11342336022E+04  0.11342336023E+04  0.50400001928E-02 0.  1.
    10030    2    1    2    0    0  0.00000000000E+00  0.00000000000E+00 -0.62413028291E+03  0.16443369216E+04  0.15212840963E+04 0.  0.
        1    1    3    3  502    0  0.32078544208E+03  0.68913165335E+03 -0.28206024444E+03  0.81077969697E+03  0.50400001928E-02 0.  1.
       -1    1    3    3    0  502 -0.32078544208E+03 -0.68913165335E+03 -0.34207003846E+03  0.83355722464E+03  0.50400001928E-02 0. -1.
</event>
<event>
 5   0  0.8365016E-04  0.1505751E+04  0.7818609E-02  0.8880637E-01
        1   -1    0    0  501    0  0.00000000000E+00  0.00000000000E+00  0.68378307218E+03  0.68378307220E+03  0.50400001928E-02 0.  1.
       -1   -1    0    0    0  501  0.00000000000E+00  0.00000000000E+00 -0.82894977958E+03  0.82894977960E+03  0.50400001928E-02 0. -1.
    10030    2    1    2    0    0  0.00000000000E+00  0.00000000000E+00 -0.14516670740E+03  0.15127328518E+04  0.15057514097E+04 0.  0.
        3    1    3    3  502    0 -0.72140755286E+02  0.49794734199E+03 -0.63523897754E+03  0.81036066832E+03  0.10100000352E+00 0. -1.
       -3    1    3    3    0  502  0.72140755286E+02 -0.49794734199E+03  0.49007227014E+03  0.70237218348E+03  0.10100000352E+00 0.  1.
</event>
<event>
 5   0  0.1526126E-03  0.1511556E+04  0.7818609E-02  0.8876804E-01
       -2   -1    0    0    0  501  0.00000000000E+00  0.00000000000E+00  0.29180556140E+03  0.29180556142E+03  0.25500000920E-02 0.  1.
        2   -1    0    0  501    0  0.00000000000E+00  0.00000000000E+00 -0.19574704033E+04  0.19574704033E+04  0.25500000920E-02 0. -1.
    10030    2    1    2    0    0  0.00000000000E+00  0.00000000000E+00 -0.16656648419E+04  0.22492759647E+04  0.15115564825E+04 0.  0.
        2    1    3    3  502    0  0.14849585451E+03  0.55880350749E+02  0.26674412625E+03  0.31036440083E+03  0.25500000920E-02 0.  1.
       -2    1    3    3    0  502 -0.14849585451E+03 -0.55880350749E+02 -0.19324089681E+04  0.19389115639E+04  0.25500000920E-02 0. -1.
</event>
<event>
 5   0  0.8191876E-04  0.1472620E+04  0.7818609E-02  0.8902867E-01
       -1   -1    0    0    0  501  0.00000000000E+00  0.00000000000E+00  0.31328315030E+03  0.31328315034E+03  0.50400001928E-02 0. -1.
        1   -1    0    0  501    0  0.00000000000E+00  0.00000000000E+00 -0.17305514180E+04  0.17305514180E+04  0.50400001928E-02 0.  1.
    10030    2    1    2    0    0  0.00000000000E+00  0.00000000000E+00 -0.14172682677E+04  0.20438345683E+04  0.14726202498E+04 0.  0.
        2    1    3    3  502    0 -0.35785248696E+03  0.37175327552E+03  0.20363072064E+02  0.51640444904E+03  0.25500000920E-02 0. -1.
       -2    1    3    3    0  502  0.35785248696E+03 -0.37175327552E+03 -0.14376313397E+04  0.15274301193E+04  0.25500000920E-02 0.  1.
</event>
<event>
 5   0  0.8306301E-04  0.1490745E+04  0.7818609E-02  0.8890631E-01
       -1   -1    0    0    0  501  0.00000000000E+00  0.00000000000E+00  0.33622503736E+03  0.33622503740E+03  0.50400001928E-02 0. -1.
        1   -1    0    0  501    0  0.00000000000E+00  0.00000000000E+00 -0.16524062734E+04  0.16524062734E+04  0.50400001928E-02 0.  1.
    10030    2    1    2    0    0  0.00000000000E+00  0.00000000000E+00 -0.13161812360E+04  0.19886313108E+04  0.14907452647E+04 0.  0.
        4    1    3    3  502    0  0.53981808783E+03 -0.12898238231E+03 -0.13217915227E+04  0.14335879691E+04  0.12699999809E+01 0.  1.
       -4    1    3    3    0  502 -0.53981808783E+03  0.12898238231E+03  0.56102866791E+01  0.55504334165E+03  0.12699999809E+01 0. -1.
</event>
<event>
 5   0  0.8306301E-04  0.1521727E+04  0.7818609E-02  0.8870132E-01
       -1   -1    0    0    0  501  0.00000000000E+00  0.00000000000E+00  0.66286253864E+03  0.66286253866E+03  0.50400001928E-02 0. -1.
        1   -1    0    0  501    0  0.00000000000E+00  0.00000000000E+00 -0.87335372286E+03  0.87335372288E+03  0.50400001928E-02 0.  1.
    10030    2    1    2    0    0  0.00000000000E+00  0.00000000000E+00 -0.21049118422E+03  0.15362162615E+04  0.15217272632E+04 0.  0.
        4    1    3    3  502    0 -0.67944688511E+02 -0.71307862276E+03  0.15373994089E+03  0.73262212993E+03  0.12699999809E+01 0. -1.
       -4    1    3    3    0  502  0.67944688511E+02  0.71307862276E+03 -0.36423112511E+03  0.80359413160E+03  0.12699999809E+01 0.  1.
</event>
<event>
 5   0  0.1526126E-03  0.1485587E+04  0.7818609E-02  0.8894095E-01
       -2   -1    0    0    0  501  0.00000000000E+00  0.00000000000E+00  0.79278786294E+03  0.79278786294E+03  0.25500000920E-02 0.  1.
        2   -1    0    0  501    0  0.00000000000E+00  0.00000000000E+00 -0.69595150211E+03  0.69595150212E+03  0.25500000920E-02 0. -1.
    10030    2    1    2    0    0  0.00000000000E+00  0.00000000000E+00  0.96836360826E+02  0.14887393651E+04  0.14855866236E+04 0.  0.
        2    1    3    3  502    0 -0.63233834002E+03  0.22269587522E+03 -0.27209910114E+03  0.72352135417E+03  0.25500000920E-02 0. -1.
       -2    1    3    3    0  502  0.63233834002E+03 -0.22269587522E+03  0.36893546196E+03  0.76521801089E+03  0.25500000920E-02 0.  1.
</event>
<event>
 5   0  0.7870317E-04  0.1504274E+04  0.7818609E-02  0.8881616E-01
       -1   -1    0    0    0  501  0.00000000000E+00  0.00000000000E+00  0.49207238598E+03  0.49207238601E+03  0.50400001928E-02 0. -1.
        1   -1    0    0  501    0  0.00000000000E+00  0.00000000000E+00 -0.11496481664E+04  0.11496481664E+04  0.50400001928E-02 0.  1.
    10030    2    1    2    0    0  0.00000000000E+00  0.00000000000E+00 -0.65757578044E+03  0.16417205524E+04  0.15042740659E+04 0.  0.
        1    1    3    3  502    0  0.18377946337E+03  0.46278069298E+03 -0.94400471653E+03  0.10672796099E+04  0.50400001928E-02 0.  1.
       -1    1    3    3    0  502 -0.18377946337E+03 -0.46278069298E+03  0.28642893609E+03  0.57444094249E+03  0.50400001928E-02 0. -1.
</event>
<event>
 5   0  0.1526126E-03  0.1555291E+04  0.7818609E-02  0.8848495E-01
        2   -1    0    0  501    0  0.00000000000E+00  0.00000000000E+00  0.20939921306E+04  0.20939921306E+04  0.25500000920E-02 0.  1.
       -2   -1    0    0    0  501  0.00000000000E+00  0.00000000000E+00 -0.28879421503E+03  0.28879421504E+03  0.25500000920E-02 0. -1.
    10030    2    1    2    0    0  0.00000000000E+00  0.00000000000E+00  0.18051979155E+04  0.23827863456E+04  0.15552913729E+04 0.  0.
        2    1    3    3  502    0  0.17824248788E+03 -0.74801680685E+03  0.10801668614E+04  0.13259185406E+04  0.25500000920E-02 0.  1.
       -2    1    3    3    0  502 -0.17824248788E+03  0.74801680685E+03  0.72503105413E+03  0.10568678050E+04  0.25500000920E-02 0. -1.
</event>
<event>
 5   0  0.1526126E-03  0.1502453E+04  0.7818609E-02  0.8882824E-01
       -2   -1    0    0    0  501  0.00000000000E+00  0.00000000000E+00  0.13980267886E+04  0.13980267886E+04  0.25500000920E-02 0.  1.
        2   -1    0    0  501    0  0.00000000000E+00  0.00000000000E+00 -0.40366958490E+03  0.40366958490E+03  0.25500000920E-02 0. -1.
    10030    2    1    2    0    0  0.00000000000E+00  0.00000000000E+00  0.99435720370E+03  0.18016963735E+04  0.15024525196E+04 0.  0.
        2    1    3    3  502    0  0.40437576340E+03 -0.11654465503E+03 -0.24904692404E+03  0.48900591512E+03  0.25500000920E-02 0. -1.
       -2    1    3    3    0  502 -0.40437576340E+03  0.11654465503E+03  0.12434041277E+04  0.13126904584E+04  0.25500000920E-02 0.  1.
</event>
<event>
 5   0  0.1526126E-03  0.1503689E+04  0.7818609E-02  0.8882004E-01
        2   -1    0    0  501    0  0.00000000000E+00  0.00000000000E+00  0.93041607410E+03  0.93041607410E+03  0.25500000920E-02 0.  1.
       -2   -1    0    0    0  501  0.00000000000E+00  0.00000000000E+00 -0.60754528995E+03  0.60754528995E+03  0.25500000920E-02 0. -1.
    10030    2    1    2    0    0  0.00000000000E+00  0.00000000000E+00  0.32287078415E+03  0.15379613641E+04  0.15036886693E+04 0.  0.
        2    1    3    3  502    0  0.13246357803E+03 -0.46328660835E+03  0.75172824901E+03  0.89290337739E+03  0.25500000920E-02 0.  1.
       -2    1    3    3    0  502 -0.13246357803E+03  0.46328660835E+03 -0.42885746486E+03  0.64505798666E+03  0.25500000920E-02 0. -1.
</event>
<event>
 5   0  0.1511546E-03  0.1534872E+04  0.7818609E-02  0.8861589E-01
        2   -1    0    0  501    0  0.00000000000E+00  0.00000000000E+00  0.21609922938E+04  0.21609922938E+04  0.25500000920E-02 0. -1.
       -2   -1    0    0    0  501  0.00000000000E+00  0.00000000000E+00 -0.27254067558E+03  0.27254067559E+03  0.25500000920E-02 0.  1.
    10030    2    1    2    0    0  0.00000000000E+00  0.00000000000E+00  0.18884516182E+04  0.24335329694E+04  0.15348723721E+04 0.  0.
        1    1    3    3  502    0 -0.67697630612E+03 -0.30016998934E+02  0.37309447565E+03  0.77356152118E+03  0.50400001928E-02 0.  1.
       -1    1    3    3    0  502  0.67697630612E+03  0.30016998934E+02  0.15153571425E+04  0.16599714482E+04  0.50400001928E-02 0. -1.
</event>
<event>
 5   0  0.8191876E-04  0.1513793E+04  0.7818609E-02  0.8875332E-01
        1   -1    0    0  501    0  0.00000000000E+00  0.00000000000E+00  0.93909941764E+03  0.93909941766E+03  0.50400001928E-02 0.  1.
       -1   -1    0    0    0  501  0.00000000000E+00  0.00000000000E+00 -0.61004423036E+03  0.61004423039E+03  0.50400001928E-02 0. -1.
    10030    2    1    2    0    0  0.00000000000E+00  0.00000000000E+00  0.32905518728E+03  0.15491436480E+04  0.15137928280E+04 0.  0.
        2    1    3    3  502    0 -0.49709221591E+03  0.41662468896E+03 -0.23473122176E+03  0.68976485054E+03  0.25500000920E-02 0. -1.
       -2    1    3    3    0  502  0.49709221591E+03 -0.41662468896E+03  0.56378640904E+03  0.85937879750E+03  0.25500000920E-02 0.  1.
</event>
<event>
 5   0  0.1500956E-03  0.2026645E+04  0.7818609E-02  0.8594263E-01
        2   -1    0    0  501    0  0.00000000000E+00  0.00000000000E+00  0.10977891120E+04  0.10977891120E+04  0.25500000920E-02 0.  1.
       -2   -1    0    0    0  501  0.00000000000E+00  0.00000000000E+00 -0.93535533001E+03  0.93535533002E+03  0.25500000920E-02 0. -1.
    10030    2    1    2    0    0  0.00000000000E+00  0.00000000000E+00  0.16243378194E+03  0.20331444420E+04  0.20266454027E+04 0.  0.
        4    1    3    3  502    0 -0.85240462781E+03  0.27472934893E+03  0.55681671737E+03  0.10545692648E+04  0.12699999809E+01 0.  1.
       -4    1    3    3    0  502  0.85240462781E+03 -0.27472934893E+03 -0.39438293543E+03  0.97857517715E+03  0.12699999809E+01 0. -1.
</event>
<event>
 5   0  0.1484056E-03  0.1475921E+04  0.7818609E-02  0.8900625E-01
        2   -1    0    0  501    0  0.00000000000E+00  0.00000000000E+00  0.11421135320E+04  0.11421135320E+04  0.25500000920E-02 0. -1.
       -2   -1    0    0    0  501  0.00000000000E+00  0.00000000000E+00 -0.47682302612E+03  0.47682302612E+03  0.25500000920E-02 0.  1.
    10030    2    1    2    0    0  0.00000000000E+00  0.00000000000E+00  0.66529050592E+03  0.16189365582E+04  0.14759214485E+04 0.  0.
        5    1    3    3  502    0  0.27470785547E+03  0.41154181272E+03  0.93317396029E+03  0.10562512957E+04  0.46999998093E+01 0. -1.
       -5    1    3    3    0  502 -0.27470785547E+03 -0.41154181272E+03 -0.26788345438E+03  0.56268526247E+03  0.46999998093E+01 0.  1.
</event>
<event>
 5   0  0.8365016E-04  0.1492565E+04  0.7818609E-02  0.8889412E-01
        1   -1    0    0  501    0  0.00000000000E+00  0.00000000000E+00  0.76724684298E+03  0.76724684300E+03  0.50400001928E-02 0. -1.
       -1   -1    0    0    0  501  0.00000000000E+00  0.00000000000E+00 -0.72589127187E+03  0.72589127189E+03  0.50400001928E-02 0.  1.
    10030    2    1    2    0    0  0.00000000000E+00  0.00000000000E+00  0.41355571115E+02  0.14931381149E+04  0.14925652907E+04 0.  0.
        3    1    3    3  502    0 -0.23895344776E+03 -0.61864311648E+03 -0.32168114247E+03  0.73708671361E+03  0.10100000352E+00 0.  1.
       -3    1    3    3    0  502  0.23895344776E+03  0.61864311648E+03  0.36303671358E+03  0.75605140128E+03  0.10100000352E+00 0. -1.
</event>
<event>
 5   0  0.1484056E-03  0.1475351E+04  0.7818609E-02  0.8901012E-01
       -2   -1    0    0    0  501  0.00000000000E+00  0.00000000000E+00  0.15572871267E+04  0.15572871267E+04  0.25500000920E-02 0.  1.
        2   -1    0    0  501    0  0.00000000000E+00  0.00000000000E+00 -0.34943145720E+03  0.34943145720E+03  0.25500000920E-02 0. -1.
    10030    2    1    2    0    0  0.00000000000E+00  0.00000000000E+00  0.12078556695E+04  0.19067185839E+04  0.14753509548E+04 0.  0.
        5    1    3    3  502    0  0.97050594570E+02  0.15069349869E+03 -0.32084035895E+03  0.36754315990E+03  0.46999998093E+01 0. -1.
       -5    1    3    3    0  502 -0.97050594570E+02 -0.15069349869E+03  0.15286960284E+04  0.15391754240E+04  0.46999998093E+01 0.  1.
</event>
<event>
 5   0  0.8058234E-04  0.1507979E+04  0.7818609E-02  0.8879164E-01
        1   -1    0    0  501    0  0.00000000000E+00  0.00000000000E+00  0.60591727754E+03  0.60591727756E+03  0.50400001928E-02 0.  1.
       -1   -1    0    0    0  501  0.00000000000E+00  0.00000000000E+00 -0.93824756402E+03  0.93824756404E+03  0.50400001928E-02 0. -1.
    10030    2    1    2    0    0  0.00000000000E+00  0.00000000000E+00 -0.33233028648E+03  0.15441648416E+04  0.15079793230E+04 0.  0.
        5    1    3    3  502    0 -0.55104705705E+03 -0.11329983566E+03  0.34786516536E+03  0.66145443918E+03  0.46999998093E+01 0.  1.
       -5    1    3    3    0  502  0.55104705705E+03  0.11329983566E+03 -0.68019545184E+03  0.88271040242E+03  0.46999998093E+01 0. -1.
</event>
<event>
 5   0  0.1484056E-03  0.1510169E+04  0.7818609E-02  0.8877719E-01
        2   -1    0    0  501    0  0.00000000000E+00  0.00000000000E+00  0.18936557155E+04  0.18936557155E+04  0.25500000920E-02 0. -1.
       -2   -1    0    0    0  501  0.00000000000E+00  0.00000000000E+00 -0.30108562288E+03  0.30108562289E+03  0.25500000920E-02 0.  1.
    10030    2    1    2    0    0  0.00000000000E+00  0.00000000000E+00  0.15925700926E+04  0.21947413384E+04  0.15101688788E+04 0.  0.
        5    1    3    3  502    0  0.40337412074E+03  0.48657175818E+03  0.19589504784E+03  0.66170969232E+03  0.46999998093E+01 0.  1.
       -5    1    3    3    0  502 -0.40337412074E+03 -0.48657175818E+03  0.13966750448E+04  0.15330316461E+04  0.46999998093E+01 0. -1.
</event>
<event>
 5   0  0.1526126E-03  0.1311503E+04  0.7818609E-02  0.9020493E-01
       -2   -1    0    0    0  501  0.00000000000E+00  0.00000000000E+00  0.93626305714E+03  0.93626305714E+03  0.25500000920E-02 0. -1.
        2   -1    0    0  501    0  0.00000000000E+00  0.00000000000E+00 -0.45928324479E+03  0.45928324480E+03  0.25500000920E-02 0.  1.
    10030    2    1    2    0    0  0.00000000000E+00  0.00000000000E+00  0.47697981234E+03  0.13955463019E+04  0.13115028553E+04 0.  0.
        2    1    3    3  502    0 -0.22808309918E+03  0.39471765991E+03 -0.26308217975E+03  0.52634225033E+03  0.25500000920E-02 0.  1.
       -2    1    3    3    0  502  0.22808309918E+03 -0.39471765991E+03  0.74006199210E+03  0.86920405161E+03  0.25500000920E-02 0. -1.
</event>
<event>
 5   0  0.7870317E-04  0.1494755E+04  0.7818609E-02  0.8887948E-01
        1   -1    0    0  501    0  0.00000000000E+00  0.00000000000E+00  0.21381345053E+04  0.21381345053E+04  0.50400001928E-02 0.  1.
       -1   -1    0    0    0  501  0.00000000000E+00  0.00000000000E+00 -0.26124325541E+03  0.26124325545E+03  0.50400001928E-02 0. -1.
    10030    2    1    2    0    0  0.00000000000E+00  0.00000000000E+00  0.18768912499E+04  0.23993777607E+04  0.14947551220E+04 0.  0.
        1    1    3    3  502    0  0.65472119612E+02 -0.51986046570E+03  0.82961414877E+02  0.53049420226E+03  0.50400001928E-02 0. -1.
       -1    1    3    3    0  502 -0.65472119612E+02  0.51986046570E+03  0.17939298350E+04  0.18688835585E+04  0.50400001928E-02 0.  1.
</event>
<event>
 5   0  0.8365016E-04  0.1468291E+04  0.7818609E-02  0.8905817E-01
        1   -1    0    0  501    0  0.00000000000E+00  0.00000000000E+00  0.12351532654E+04  0.12351532654E+04  0.50400001928E-02 0. -1.
       -1   -1    0    0    0  501  0.00000000000E+00  0.00000000000E+00 -0.43635822589E+03  0.43635822592E+03  0.50400001928E-02 0.  1.
    10030    2    1    2    0    0  0.00000000000E+00  0.00000000000E+00  0.79879503953E+03  0.16715114913E+04  0.14682905539E+04 0.  0.
        3    1    3    3  502    0  0.63519336006E+03 -0.36721116253E+03  0.42852459878E+03  0.84967522296E+03  0.10100000352E+00 0.  1.
       -3    1    3    3    0  502 -0.63519336006E+03  0.36721116253E+03  0.37027044075E+03  0.82183626839E+03  0.10100000352E+00 0. -1.
</event>
<event>
 5   0  0.1500956E-03  0.1516250E+04  0.7818609E-02  0.8873718E-01
       -2   -1    0    0    0  501  0.00000000000E+00  0.00000000000E+00  0.49275213967E+03  0.49275213967E+03  0.25500000920E-02 0. -1.
        2   -1    0    0  501    0  0.00000000000E+00  0.00000000000E+00 -0.11664144342E+04  0.11664144342E+04  0.25500000920E-02 0.  1.
    10030    2    1    2    0    0  0.00000000000E+00  0.00000000000E+00 -0.67366229452E+03  0.16591665739E+04  0.15162495945E+04 0.  0.
        4    1    3    3  502    0  0.51151486917E+03  0.47842939225E+03 -0.65437207463E+03  0.95851268625E+03  0.12699999809E+01 0.  1.
       -4    1    3    3    0  502 -0.51151486917E+03 -0.47842939225E+03 -0.19290219895E+02  0.70065388762E+03  0.12699999809E+01 0. -1.
</event>
<event>
 5   0  0.1500956E-03  0.1498790E+04  0.7818609E-02  0.8885258E-01
        2   -1    0    0  501    0  0.00000000000E+00  0.00000000000E+00  0.10264972178E+04  0.10264972178E+04  0.25500000920E-02 0.  1.
       -2   -1    0    0    0  501  0.00000000000E+00  0.00000000000E+00 -0.54709662840E+03  0.54709662840E+03  0.25500000920E-02 0. -1.
    10030    2    1    2    0    0  0.00000000000E+00  0.00000000000E+00  0.47940058943E+03  0.15735938462E+04  0.14987904015E+04 0.  0.
        4    1    3    3  502    0  0.47422764048E+03  0.16520288853E+03 -0.34430570310E+03  0.60887755704E+03  0.12699999809E+01 0. -1.
       -4    1    3    3    0  502 -0.47422764048E+03 -0.16520288853E+03  0.82370629254E+03  0.96471628920E+03  0.12699999809E+01 0.  1.
</event>
<event>
 5   0  0.1511546E-03  0.1487839E+04  0.7818609E-02  0.8892580E-01
        2   -1    0    0  501    0  0.00000000000E+00  0.00000000000E+00  0.71225967470E+03  0.71225967470E+03  0.25500000920E-02 0.  1.
       -2   -1    0    0    0  501  0.00000000000E+00  0.00000000000E+00 -0.77698693626E+03  0.77698693626E+03  0.25500000920E-02 0. -1.
    10030    2    1    2    0    0  0.00000000000E+00  0.00000000000E+00 -0.64727261558E+02  0.14892466110E+04  0.14878393226E+04 0.  0.
        1    1    3    3  502    0  0.67145957280E+03  0.36941617577E+02 -0.35077428140E+03  0.75846241669E+03  0.50400001928E-02 0. -1.
       -1    1    3    3    0  502 -0.67145957280E+03 -0.36941617577E+02  0.28604701984E+03  0.73078419427E+03  0.50400001928E-02 0.  1.
</event>
<event>
 5   0  0.5603875E-04  0.1502520E+04  0.7818609E-02  0.8882779E-01
        4   -1    0    0  501    0  0.00000000000E+00  0.00000000000E+00  0.35229970115E+03  0.35230199025E+03  0.12699999809E+01 0. -1.
       -4   -1    0    0    0  501  0.00000000000E+00  0.00000000000E+00 -0.16020144182E+04  0.16020149216E+04  0.12699999809E+01 0.  1.
    10030    2    1    2    0    0  0.00000000000E+00  0.00000000000E+00 -0.12497147171E+04  0.19543169119E+04  0.15025204551E+04 0.  0.
        2    1    3    3  502    0 -0.40370493778E+03 -0.20662756725E+03 -0.14038833891E+04  0.14753173213E+04  0.25500000920E-02 0.  1.
       -2    1    3    3    0  502  0.40370493778E+03  0.20662756725E+03  0.15416867202E+03  0.47899959058E+03  0.25500000920E-02 0. -1.
</event>
<event>
 5   0  0.8365016E-04  0.1501330E+04  0.7818609E-02  0.8883569E-01
        1   -1    0    0  501    0  0.00000000000E+00  0.00000000000E+00  0.31169750159E+03  0.31169750163E+03  0.50400001928E-02 0. -1.
       -1   -1    0    0    0  501  0.00000000000E+00  0.00000000000E+00 -0.18078370455E+04  0.18078370455E+04  0.50400001928E-02 0.  1.
    10030    2    1    2    0    0  0.00000000000E+00  0.00000000000E+00 -0.14961395439E+04  0.21195345472E+04  0.15013304638E+04 0.  0.
        3    1    3    3  502    0 -0.44539183793E+03 -0.40035099901E+03 -0.10910743018E+03  0.60873578277E+03  0.10100000352E+00 0. -1.
       -3    1    3    3    0  502  0.44539183793E+03  0.40035099901E+03 -0.13870321137E+04  0.15107987644E+04  0.10100000352E+00 0.  1.
</event>
<event>
 5   0  0.7870317E-04  0.1333518E+04  0.7818609E-02  0.9003400E-01
       -1   -1    0    0    0  501  0.00000000000E+00  0.00000000000E+00  0.82903489751E+03  0.82903489753E+03  0.50400001928E-02 0. -1.
        1   -1    0    0  501    0  0.00000000000E+00  0.00000000000E+00 -0.53624693149E+03  0.53624693152E+03  0.50400001928E-02 0.  1.
    10030    2    1    2    0    0  0.00000000000E+00  0.00000000000E+00  0.29278796602E+03  0.13652818290E+04  0.13335177838E+04 0.  0.
        1    1    3    3  502    0 -0.14039549763E+03  0.45552319908E+03 -0.33092472337E+03  0.58027877199E+03  0.50400001928E-02 0.  1.
       -1    1    3    3    0  502  0.14039549763E+03 -0.45552319908E+03  0.62371268939E+03  0.78500305706E+03  0.50400001928E-02 0. -1.
</event>
<event>
 5   0  0.1526126E-03  0.1491124E+04  0.7818609E-02  0.8890377E-01
       -2   -1    0    0    0  501  0.00000000000E+00  0.00000000000E+00  0.34125242497E+03  0.34125242498E+03  0.25500000920E-02 0.  1.
        2   -1    0    0  501    0  0.00000000000E+00  0.00000000000E+00 -0.16288910347E+04  0.16288910347E+04  0.25500000920E-02 0. -1.
    10030    2    1    2    0    0  0.00000000000E+00  0.00000000000E+00 -0.12876386098E+04  0.19701434597E+04  0.14911244289E+04 0.  0.
        2    1    3    3  502    0 -0.71941286118E+03  0.13658974215E+03 -0.82903621636E+03  0.11061250700E+04  0.25500000920E-02 0. -1.
       -2    1    3    3    0  502  0.71941286118E+03 -0.13658974215E+03 -0.45860239341E+03  0.86401838970E+03  0.25500000920E-02 0.  1.
</event>
<event>
 5   0  0.8058234E-04  0.1508175E+04  0.7818609E-02  0.8879035E-01
        1   -1    0    0  501    0  0.00000000000E+00  0.00000000000E+00  0.50981517534E+03  0.50981517536E+03  0.50400001928E-02 0.  1.
       -1   -1    0    0    0  501  0.00000000000E+00  0.00000000000E+00 -0.11153998121E+04  0.11153998121E+04  0.50400001928E-02 0. -1.
    10030    2    1    2    0    0  0.00000000000E+00  0.00000000000E+00 -0.60558463676E+03  0.16252149875E+04  0.15081747257E+04 0.  0.
        5    1    3    3  502    0 -0.21534981690E+03  0.56830839896E+03  0.17825335288E+03  0.63336113536E+03  0.46999998093E+01 0.  1.
       -5    1    3    3    0  502  0.21534981690E+03 -0.56830839896E+03 -0.78383798963E+03  0.99185385212E+03  0.46999998093E+01 0. -1.
</event>
<event>
 5   0  0.8365016E-04  0.1498345E+04  0.7818609E-02  0.8885554E-01
       -1   -1    0    0    0  501  0.00000000000E+00  0.00000000000E+00  0.12726441585E+04  0.12726441586E+04  0.50400001928E-02 0. -1.
        1   -1    0    0  501    0  0.00000000000E+00  0.00000000000E+00 -0.44101846502E+03  0.44101846505E+03  0.50400001928E-02 0.  1.
    10030    2    1    2    0    0  0.00000000000E+00  0.00000000000E+00  0.83162569352E+03  0.17136626236E+04  0.14983451850E+04 0.  0.
        3    1    3    3  502    0  0.31247601862E+03  0.68083314466E+03  0.40529760972E+03  0.85172835794E+03  0.10100000352E+00 0.  1.
       -3    1    3    3    0  502 -0.31247601862E+03 -0.68083314466E+03  0.42632808380E+03  0.86193426566E+03  0.10100000352E+00 0. -1.
</event>
<event>
 5   0  0.8191876E-04  0.1501154E+04  0.7818609E-02  0.8883686E-01
        1   -1    0    0  501    0  0.00000000000E+00  0.00000000000E+00  0.96833823837E+03  0.96833823839E+03  0.50400001928E-02 0.  1.
       -1   -1    0    0    0  501  0.00000000000E+00  0.00000000000E+00 -0.58178634602E+03  0.58178634605E+03  0.50400001928E-02 0. -1.
    10030    2    1    2    0    0  0.00000000000E+00  0.00000000000E+00  0.38655189235E+03  0.15501245844E+04  0.15011541766E+04 0.  0.
        2    1    3    3  502    0 -0.38658357177E+03 -0.39579300890E+03  0.71703717595E+03  0.90567172615E+03  0.25500000920E-02 0.  1.
       -2    1    3    3    0  502  0.38658357177E+03  0.39579300890E+03 -0.33048528360E+03  0.64445285828E+03  0.25500000920E-02 0. -1.
</event>
<event>
 5   0  0.1526126E-03  0.1506335E+04  0.7818609E-02  0.8880251E-01
        2   -1    0    0  501    0  0.00000000000E+00  0.00000000000E+00  0.71302317105E+03  0.71302317105E+03  0.25500000920E-02 0. -1.
       -2   -1    0    0    0  501  0.00000000000E+00  0.00000000000E+00 -0.79557177338E+03  0.79557177339E+03  0.25500000920E-02 0.  1.
    10030    2    1    2    0    0  0.00000000000E+00  0.00000000000E+00 -0.82548602336E+02  0.15085949444E+04  0.15063347685E+04 0.  0.
        2    1    3    3  502    0  0.65932568095E+03 -0.29914890460E+03 -0.24909635365E+03  0.76566925895E+03  0.25500000920E-02 0.  1.
       -2    1    3    3    0  502 -0.65932568095E+03  0.29914890460E+03  0.16654775132E+03  0.74292568549E+03  0.25500000920E-02 0. -1.
</event>
<event>
 5   0  0.1552067E-03  0.1530714E+04  0.7818609E-02  0.8864281E-01
        2   -1    0    0  501    0  0.00000000000E+00  0.00000000000E+00  0.55791500334E+03  0.55791500335E+03  0.25500000920E-02 0. -1.
       -2   -1    0    0    0  501  0.00000000000E+00  0.00000000000E+00 -0.10499296519E+04  0.10499296519E+04  0.25500000920E-02 0.  1.
    10030    2    1    2    0    0  0.00000000000E+00  0.00000000000E+00 -0.49201464853E+03  0.16078446552E+04  0.15307142192E+04 0.  0.
        3    1    3    3  502    0  0.45471536713E+03  0.45494082034E+03  0.18966248626E+03  0.67060352221E+03  0.10100000352E+00 0. -1.
       -3    1    3    3    0  502 -0.45471536713E+03 -0.45494082034E+03 -0.68167713479E+03  0.93724113301E+03  0.10100000352E+00 0.  1.
</event>
<event>
 5   0  0.8058234E-04  0.1491984E+04  0.7818609E-02  0.8889801E-01
       -1   -1    0    0    0  501  0.00000000000E+00  0.00000000000E+00  0.11043057919E+04  0.11043057920E+04  0.50400001928E-02 0. -1.
        1   -1    0    0  501    0  0.00000000000E+00  0.00000000000E+00 -0.50394021379E+03  0.50394021382E+03  0.50400001928E-02 0.  1.
    10030    2    1    2    0    0  0.00000000000E+00  0.00000000000E+00  0.60036557815E+03  0.16082460058E+04  0.14919840440E+04 0.  0.
        5    1    3    3  502    0  0.63770061936E+03  0.71489038604E+01  0.71733928150E+03  0.95984942649E+03  0.46999998093E+01 0. -1.
       -5    1    3    3    0  502 -0.63770061936E+03 -0.71489038604E+01 -0.11697370335E+03  0.64839657928E+03  0.46999998093E+01 0.  1.
</event>
<event>
 5   0  0.7870317E-04  0.9967893E+03  0.7818609E-02  0.9312073E-01
       -1   -1    0    0    0  501  0.00000000000E+00  0.00000000000E+00  0.35218292582E+03  0.35218292585E+03  0.50400001928E-02 0. -1.
        1   -1    0    0  501    0  0.00000000000E+00  0.00000000000E+00 -0.70530742007E+03  0.70530742008E+03  0.50400001928E-02 0.  1.
    10030    2    1    2    0    0  0.00000000000E+00  0.00000000000E+00 -0.35312449425E+03  0.10574903459E+04  0.99678930738E+03 0.  0.
        1    1    3    3  502    0  0.19273257023E+03 -0.17294250633E+02  0.31070269866E+03  0.36603429035E+03  0.50400001928E-02 0. -1.
       -1    1    3    3    0  502 -0.19273257023E+03  0.17294250633E+02 -0.66382719291E+03  0.69145605559E+03  0.50400001928E-02 0.  1.
</event>
<event>
 5   0  0.8058234E-04  0.1433097E+04  0.7818609E-02  0.8930204E-01
        1   -1    0    0  501    0  0.00000000000E+00  0.00000000000E+00  0.90458422906E+03  0.90458422908E+03  0.50400001928E-02 0. -1.
       -1   -1    0    0    0  501  0.00000000000E+00  0.00000000000E+00 -0.56759947314E+03  0.56759947316E+03  0.50400001928E-02 0.  1.
    10030    2    1    2    0    0  0.00000000000E+00  0.00000000000E+00  0.33698475593E+03  0.14721837022E+04  0.14330966916E+04 0.  0.
        5    1    3    3  502    0 -0.58272217424E+03  0.34176805040E+03 -0.76871250128E+02  0.67992779890E+03  0.46999998093E+01 0.  1.
       -5    1    3    3    0  502  0.58272217424E+03 -0.34176805040E+03  0.41385600605E+03  0.79225590334E+03  0.46999998093E+01 0. -1.
</event>
<event>
 5   0  0.1484056E-03  0.1496006E+04  0.7818609E-02  0.8887114E-01
       -2   -1    0    0    0  501  0.00000000000E+00  0.00000000000E+00  0.63065531937E+03  0.63065531937E+03  0.25500000920E-02 0. -1.
        2   -1    0    0  501    0  0.00000000000E+00  0.00000000000E+00 -0.88718536770E+03  0.88718536770E+03  0.25500000920E-02 0.  1.
    10030    2    1    2    0    0  0.00000000000E+00  0.00000000000E+00 -0.25653004833E+03  0.15178406871E+04  0.14960055767E+04 0.  0.
        5    1    3    3  502    0  0.85315712191E+02 -0.46710144584E+03 -0.71464822728E+03  0.85802488904E+03  0.46999998093E+01 0.  1.
       -5    1    3    3    0  502 -0.85315712191E+02  0.46710144584E+03  0.45811817895E+03  0.65981579804E+03  0.46999998093E+01 0. -1.
</event>
<event>
 5   0  0.5603875E-04  0.1490744E+04  0.7818609E-02  0.8890631E-01
       -3   -1    0    0    0  501  0.00000000000E+00  0.00000000000E+00  0.86380035149E+03  0.86380035740E+03  0.10100000352E+00 0. -1.
        3   -1    0    0  501    0  0.00000000000E+00  0.00000000000E+00 -0.64318074764E+03  0.64318075557E+03  0.10100000352E+00 0.  1.
    10030    2    1    2    0    0  0.00000000000E+00  0.00000000000E+00  0.22061960386E+03  0.15069811130E+04  0.14907444668E+04 0.  0.
        1    1    3    3  502    0 -0.55405134855E+03  0.49108242619E+03  0.23086077904E+02  0.74072114400E+03  0.50400001928E-02 0. -1.
       -1    1    3    3    0  502  0.55405134855E+03 -0.49108242619E+03  0.19753352595E+03  0.76625996897E+03  0.50400001928E-02 0.  1.
</event>
<event>
 5   0  0.1526126E-03  0.1548765E+04  0.7818609E-02  0.8852657E-01
       -2   -1    0    0    0  501  0.00000000000E+00  0.00000000000E+00  0.32405788471E+03  0.32405788472E+03  0.25500000920E-02 0. -1.
        2   -1    0    0  501    0  0.00000000000E+00  0.00000000000E+00 -0.18504979411E+04  0.18504979411E+04  0.25500000920E-02 0.  1.
    10030    2    1    2    0    0  0.00000000000E+00  0.00000000000E+00 -0.15264400563E+04  0.21745558258E+04  0.15487652481E+04 0.  0.
        2    1    3    3  502    0 -0.23452205771E+03  0.72550875036E+03 -0.95318289642E+03  0.12206232738E+04  0.25500000920E-02 0.  1.
       -2    1    3    3    0  502  0.23452205771E+03 -0.72550875036E+03 -0.57325715993E+03  0.95393255202E+03  0.25500000920E-02 0. -1.
</event>
<event>
 5   0  0.1526126E-03  0.1499283E+04  0.7818609E-02  0.8884930E-01
       -2   -1    0    0    0  501  0.00000000000E+00  0.00000000000E+00  0.76432867695E+03  0.76432867696E+03  0.25500000920E-02 0.  1.
        2   -1    0    0  501    0  0.00000000000E+00  0.00000000000E+00 -0.73523627341E+03  0.73523627341E+03  0.25500000920E-02 0. -1.
    10030    2    1    2    0    0  0.00000000000E+00  0.00000000000E+00  0.29092403541E+02  0.14995649504E+04  0.14992827193E+04 0.  0.
        2    1    3    3  502    0 -0.34096432345E+03  0.43470696067E+03 -0.49223977228E+03  0.73995054222E+03  0.25500000920E-02 0. -1.
       -2    1    3    3    0  502  0.34096432345E+03 -0.43470696067E+03  0.52133217582E+03  0.75961440815E+03  0.25500000920E-02 0.  1.
</event>
<event>
 5   0  0.1484056E-03  0.1438841E+04  0.7818609E-02  0.8926174E-01
       -2   -1    0    0    0  501  0.00000000000E+00  0.00000000000E+00  0.61478585294E+03  0.61478585295E+03  0.25500000920E-02 0. -1.
        2   -1    0    0  501    0  0.00000000000E+00  0.00000000000E+00 -0.84186331695E+03  0.84186331696E+03  0.25500000920E-02 0.  1.
    10030    2    1    2    0    0  0.00000000000E+00  0.00000000000E+00 -0.22707746401E+03  0.14566491699E+04  0.14388407242E+04 0.  0.
        5    1    3    3  502    0 -0.33619250571E+03  0.53679781948E+03  0.23180835451E+03  0.67448832689E+03  0.46999998093E+01 0. -1.
       -5    1    3    3    0  502  0.33619250571E+03 -0.53679781948E+03 -0.45888581852E+03  0.78216084301E+03  0.46999998093E+01 0.  1.
</event>
<event>
 5   0  0.1511546E-03  0.1479909E+04  0.7818609E-02  0.8897924E-01
        2   -1    0    0  501    0  0.00000000000E+00  0.00000000000E+00  0.99106713932E+03  0.99106713932E+03  0.25500000920E-02 0. -1.
       -2   -1    0    0    0  501  0.00000000000E+00  0.00000000000E+00 -0.55246807294E+03  0.55246807294E+03  0.25500000920E-02 0.  1.
    10030    2    1    2    0    0  0.00000000000E+00  0.00000000000E+00  0.43859906638E+03  0.15435352123E+04  0.14799093927E+04 0.  0.
        1    1    3    3  502    0 -0.55641917519E+03 -0.18721592374E+03 -0.25048849448E+03  0.63827626191E+03  0.50400001928E-02 0.  1.
       -1    1    3    3    0  502  0.55641917519E+03  0.18721592374E+03  0.68908756087E+03  0.90525895035E+03  0.50400001928E-02 0. -1.
</event>
<event>
 5   0  0.1526126E-03  0.1501013E+04  0.7818609E-02  0.8883779E-01
        2   -1    0    0  501    0  0.00000000000E+00  0.00000000000E+00  0.15678950514E+04  0.15678950514E+04  0.25500000920E-02 0.  1.
       -2   -1    0    0    0  501  0.00000000000E+00  0.00000000000E+00 -0.35924621437E+03  0.35924621438E+03  0.25500000920E-02 0. -1.
    10030    2    1    2    0    0  0.00000000000E+00  0.00000000000E+00  0.12086488370E+04  0.19271412658E+04  0.15010134733E+04 0.  0.
        2    1    3    3  502    0 -0.11647297047E+03 -0.60441289411E+02  0.15530523576E+04  0.15585861310E+04  0.25500000920E-02 0.  1.
       -2    1    3    3    0  502  0.11647297047E+03  0.60441289411E+02 -0.34440352062E+03  0.36855513473E+03  0.25500000920E-02 0. -1.
</event>
<event>
 5   0  0.1511546E-03  0.1475745E+04  0.7818609E-02  0.8900745E-01
       -2   -1    0    0    0  501  0.00000000000E+00  0.00000000000E+00  0.27014524725E+03  0.27014524726E+03  0.25500000920E-02 0.  1.
        2   -1    0    0  501    0  0.00000000000E+00  0.00000000000E+00 -0.20154180128E+04  0.20154180129E+04  0.25500000920E-02 0. -1.
    10030    2    1    2    0    0  0.00000000000E+00  0.00000000000E+00 -0.17452727656E+04  0.22855632601E+04  0.14757446898E+04 0.  0.
        1    1    3    3  502    0 -0.86596947005E+02 -0.46709539475E+03  0.17965388637E+01  0.47505827706E+03  0.50400001928E-02 0.  1.
       -1    1    3    3    0  502  0.86596947005E+02  0.46709539475E+03 -0.17470693045E+04  0.18105049831E+04  0.50400001928E-02 0. -1.
</event>
<event>
 5   0  0.8306301E-04  0.1456414E+04  0.7818609E-02  0.8913966E-01
        1   -1    0    0  501    0  0.00000000000E+00  0.00000000000E+00  0.60946088087E+03  0.60946088089E+03  0.50400001928E-02 0.  1.
       -1   -1    0    0    0  501  0.00000000000E+00  0.00000000000E+00 -0.87008878117E+03  0.87008878118E+03  0.50400001928E-02 0. -1.
    10030    2    1    2    0    0  0.00000000000E+00  0.00000000000E+00 -0.26062790030E+03  0.14795496621E+04  0.14564135059E+04 0.  0.
        4    1    3    3  502    0 -0.64661443280E+03  0.30981738940E+03 -0.25956089549E+03  0.76254213710E+03  0.12699999809E+01 0. -1.
       -4    1    3    3    0  502  0.64661443280E+03 -0.30981738940E+03 -0.10670048069E+01  0.71700752498E+03  0.12699999809E+01 0.  1.
</event>
<event>
 5   0  0.8306301E-04  0.1487758E+04  0.7818609E-02  0.8892635E-01
        1   -1    0    0  501    0  0.00000000000E+00  0.00000000000E+00  0.80013894033E+03  0.80013894035E+03  0.50400001928E-02 0.  1.
       -1   -1    0    0    0  501  0.00000000000E+00  0.00000000000E+00 -0.69157456215E+03  0.69157456217E+03  0.50400001928E-02 0. -1.
    10030    2    1    2    0    0  0.00000000000E+00  0.00000000000E+00  0.10856437818E+03  0.14917135025E+04  0.14877576918E+04 0.  0.
        4    1    3    3  502    0 -0.42172616444E+03 -0.83727437771E+02 -0.55436635866E+03  0.70156034246E+03  0.12699999809E+01 0. -1.
       -4    1    3    3    0  502  0.42172616444E+03  0.83727437771E+02  0.66293073683E+03  0.79015316005E+03  0.12699999809E+01 0.  1.
</event>
<event>
 5   0  0.8306301E-04  0.1492670E+04  0.7818609E-02  0.8889342E-01
        1   -1    0    0  501    0  0.00000000000E+00  0.00000000000E+00  0.81534195974E+03  0.81534195976E+03  0.50400001928E-02 0. -1.
       -1   -1    0    0    0  501  0.00000000000E+00  0.00000000000E+00 -0.68316819308E+03  0.68316819310E+03  0.50400001928E-02 0.  1.
    10030    2    1    2    0    0  0.00000000000E+00  0.00000000000E+00  0.13217376666E+03  0.14985101529E+04  0.14926696800E+04 0.  0.
        4    1    3    3  502    0  0.67945334298E+03  0.56501485410E+02 -0.23868757067E+03  0.72237291784E+03  0.12699999809E+01 0. -1.
       -4    1    3    3    0  502 -0.67945334298E+03 -0.56501485410E+02  0.37086133733E+03  0.77613723501E+03  0.12699999809E+01 0.  1.
</event>
<event>
 5   0  0.1500956E-03  0.1511422E+04  0.7818609E-02  0.8876893E-01
        2   -1    0    0  501    0  0.00000000000E+00  0.00000000000E+00  0.63319695406E+03  0.63319695407E+03  0.25500000920E-02 0. -1.
       -2   -1    0    0    0  501  0.00000000000E+00  0.00000000000E+00 -0.90193009738E+03  0.90193009739E+03  0.25500000920E-02 0.  1.
    10030    2    1    2    0    0  0.00000000000E+00  0.00000000000E+00 -0.26873314332E+03  0.15351270515E+04  0.15114223638E+04 0.  0.
        4    1    3    3  502    0  0.57015498992E+02 -0.10453873041E+03  0.62360753035E+03  0.63487563986E+03  0.12699999809E+01 0. -1.
       -4    1    3    3    0  502 -0.57015498992E+02  0.10453873041E+03 -0.89234067367E+03  0.90025141159E+03  0.12699999809E+01 0.  1.
</event>
<event>
 5   0  0.8058234E-04  0.1499652E+04  0.7818609E-02  0.8884684E-01
        1   -1    0    0  501    0  0.00000000000E+00  0.00000000000E+00  0.19715204923E+04  0.19715204923E+04  0.50400001928E-02 0.  1.
       -1   -1    0    0    0  501  0.00000000000E+00  0.00000000000E+00 -0.28518054744E+03  0.28518054749E+03  0.50400001928E-02 0. -1.
    10030    2    1    2    0    0  0.00000000000E+00  0.00000000000E+00  0.16863399449E+04  0.22567010398E+04  0.14996523508E+04 0.  0.
        5    1    3    3  502    0  0.56450486027E+03  0.68159706345E+02  0.15786937397E+04  0.16779772038E+04  0.46999998093E+01 0.  1.
       -5    1    3    3    0  502 -0.56450486027E+03 -0.68159706345E+02  0.10764620518E+03  0.57872383598E+03  0.46999998093E+01 0. -1.
</event>
<event>
 5   0  0.8191876E-04  0.1327448E+04  0.7818609E-02  0.9008077E-01
        1   -1    0    0  501    0  0.00000000000E+00  0.00000000000E+00  0.17470958868E+04  0.17470958868E+04  0.50400001928E-02 0.  1.
       -1   -1    0    0    0  501  0.00000000000E+00  0.00000000000E+00 -0.25214959483E+03  0.25214959488E+03  0.50400001928E-02 0. -1.
    10030    2    1    2    0    0  0.00000000000E+00  0.00000000000E+00  0.14949462920E+04  0.19992454817E+04  0.13274479576E+04 0.  0.
        2    1    3    3  502    0  0.62167579093E+03 -0.16065536193E+03  0.49438599883E+03  0.81037549950E+03  0.25500000920E-02 0. -1.
       -2    1    3    3    0  502 -0.62167579093E+03  0.16065536193E+03  0.10005602932E+04  0.11888699822E+04  0.25500000920E-02 0.  1.
</event>
<event>
 5   0  0.8306301E-04  0.1428639E+04  0.7818609E-02  0.8933345E-01
        1   -1    0    0  501    0  0.00000000000E+00  0.00000000000E+00  0.86546588941E+03  0.86546588943E+03  0.50400001928E-02 0. -1.
       -1   -1    0    0    0  501  0.00000000000E+00  0.00000000000E+00 -0.58956987090E+03  0.58956987093E+03  0.50400001928E-02 0.  1.
    10030    2    1    2    0    0  0.00000000000E+00  0.00000000000E+00  0.27589601851E+03  0.14550357604E+04  0.14286393705E+04 0.  0.
        4    1    3    3  502    0 -0.58349850059E+03 -0.40995796966E+03  0.18012527255E+03  0.73551530493E+03  0.12699999809E+01 0. -1.
       -4    1    3    3    0  502  0.58349850059E+03  0.40995796966E+03  0.95770745962E+02  0.71952045542E+03  0.12699999809E+01 0.  1.
</event>
<event>
 5   0  0.8306301E-04  0.1481739E+04  0.7818609E-02  0.8896688E-01
       -1   -1    0    0    0  501  0.00000000000E+00  0.00000000000E+00  0.78835443825E+03  0.78835443827E+03  0.50400001928E-02 0.  1.
        1   -1    0    0  501    0  0.00000000000E+00  0.00000000000E+00 -0.69624433806E+03  0.69624433808E+03  0.50400001928E-02 0. -1.
    10030    2    1    2    0    0  0.00000000000E+00  0.00000000000E+00  0.92110100192E+02  0.14845987763E+04  0.14817385924E+04 0.  0.
        4    1    3    3  502    0  0.42198180276E+03 -0.46860038402E+03  0.43568967507E+03  0.76647378796E+03  0.12699999809E+01 0.  1.
       -4    1    3    3    0  502 -0.42198180276E+03  0.46860038402E+03 -0.34357957488E+03  0.71812498838E+03  0.12699999809E+01 0. -1.
</event>
<event>
 5   0  0.1552067E-03  0.1500627E+04  0.7818609E-02  0.8884036E-01
       -2   -1    0    0    0  501  0.00000000000E+00  0.00000000000E+00  0.94351272292E+03  0.94351272292E+03  0.25500000920E-02 0. -1.
        2   -1    0    0  501    0  0.00000000000E+00  0.00000000000E+00 -0.59667513431E+03  0.59667513431E+03  0.25500000920E-02 0.  1.
    10030    2    1    2    0    0  0.00000000000E+00  0.00000000000E+00  0.34683758861E+03  0.15401878572E+04  0.15006273097E+04 0.  0.
        3    1    3    3  502    0 -0.55973752817E+03 -0.49848881910E+03  0.20857628205E+03  0.77801110457E+03  0.10100000352E+00 0.  1.
       -3    1    3    3    0  502  0.55973752817E+03  0.49848881910E+03  0.13826130656E+03  0.76217675266E+03  0.10100000352E+00 0. -1.
</event>
<event>
 5   0  0.8191876E-04  0.1504714E+04  0.7818609E-02  0.8881324E-01
        1   -1    0    0  501    0  0.00000000000E+00  0.00000000000E+00  0.90358965637E+03  0.90358965639E+03  0.50400001928E-02 0. -1.
       -1   -1    0    0    0  501  0.00000000000E+00  0.00000000000E+00 -0.62643591325E+03  0.62643591327E+03  0.50400001928E-02 0.  1.
    10030    2    1    2    0    0  0.00000000000E+00  0.00000000000E+00  0.27715374312E+03  0.15300255697E+04  0.15047139417E+04 0.  0.
        2    1    3    3  502    0 -0.65298348774E+03  0.13132087461E+02  0.51833096516E+03  0.83380266037E+03  0.25500000920E-02 0. -1.
       -2    1    3    3    0  502  0.65298348774E+03 -0.13132087461E+02 -0.24117722204E+03  0.69622290929E+03  0.25500000920E-02 0.  1.
</event>
<event>
 5   0  0.1552067E-03  0.1483111E+04  0.7818609E-02  0.8895762E-01
       -2   -1    0    0    0  501  0.00000000000E+00  0.00000000000E+00  0.10740378108E+04  0.10740378108E+04  0.25500000920E-02 0.  1.
        2   -1    0    0  501    0  0.00000000000E+00  0.00000000000E+00 -0.51199765238E+03  0.51199765239E+03  0.25500000920E-02 0. -1.
    10030    2    1    2    0    0  0.00000000000E+00  0.00000000000E+00  0.56204015838E+03  0.15860354631E+04  0.14831113750E+04 0.  0.
        3    1    3    3  502    0  0.23983922512E+03  0.91919840860E+02 -0.46290914519E+03  0.52939304675E+03  0.10100000352E+00 0. -1.
       -3    1    3    3    0  502 -0.23983922512E+03 -0.91919840860E+02  0.10249493036E+04  0.10566424164E+04  0.10100000352E+00 0.  1.
</event>
<event>
 5   0  0.8058234E-04  0.1520212E+04  0.7818609E-02  0.8871123E-01
        1   -1    0    0  501    0  0.00000000000E+00  0.00000000000E+00  0.67281995577E+03  0.67281995579E+03  0.50400001928E-02 0. -1.
       -1   -1    0    0    0  501  0.00000000000E+00  0.00000000000E+00 -0.85871545892E+03  0.85871545893E+03  0.50400001928E-02 0.  1.
    10030    2    1    2    0    0  0.00000000000E+00  0.00000000000E+00 -0.18589550315E+03  0.15315354147E+04  0.15202116920E+04 0.  0.
        5    1    3    3  502    0  0.23422149852E+03  0.24207925842E+03 -0.77940174135E+03  0.84908847721E+03  0.46999998093E+01 0.  1.
       -5    1    3    3    0  502 -0.23422149852E+03 -0.24207925842E+03  0.59350623820E+03  0.68244693750E+03  0.46999998093E+01 0. -1.
</event>
<event>
 5   0  0.1552067E-03  0.1497848E+04  0.7818609E-02  0.8885885E-01
        2   -1    0    0  501    0  0.00000000000E+00  0.00000000000E+00  0.22215734557E+04  0.22215734557E+04  0.25500000920E-02 0.  1.
       -2   -1    0    0    0  501  0.00000000000E+00  0.00000000000E+00 -0.25247295455E+03  0.25247295456E+03  0.25500000920E-02 0. -1.
    10030    2    1    2    0    0  0.00000000000E+00  0.00000000000E+00  0.19691005012E+04  0.24740464103E+04  0.14978480752E+04 0.  0.
        3    1    3    3  502    0  0.29947311431E+03  0.48265610543E+03  0.17833127715E+03  0.59535125507E+03  0.10100000352E+00 0. -1.
       -3    1    3    3    0  502 -0.29947311431E+03 -0.48265610543E+03  0.17907692240E+04  0.18786951552E+04  0.10100000352E+00 0.  1.
</event>
<event>
 5   0  0.8365016E-04  0.1530338E+04  0.7818609E-02  0.8864526E-01
       -1   -1    0    0    0  501  0.00000000000E+00  0.00000000000E+00  0.11907025065E+04  0.11907025065E+04  0.50400001928E-02 0.  1.
        1   -1    0    0  501    0  0.00000000000E+00  0.00000000000E+00 -0.49171256970E+03  0.49171256972E+03  0.50400001928E-02 0. -1.
    10030    2    1    2    0    0  0.00000000000E+00  0.00000000000E+00  0.69898993682E+03  0.16824150763E+04  0.15303377265E+04 0.  0.
        3    1    3    3  502    0 -0.31148721276E+03  0.69490948072E+03  0.43146964394E+03  0.87526540772E+03  0.10100000352E+00 0. -1.
       -3    1    3    3    0  502  0.31148721276E+03 -0.69490948072E+03  0.26752029288E+03  0.80714966853E+03  0.10100000352E+00 0.  1.
</event>
<event>
 5   0  0.8058234E-04  0.1455690E+04  0.7818609E-02  0.8914465E-01
       -1   -1    0    0    0  501  0.00000000000E+00  0.00000000000E+00  0.14874372372E+04  0.14874372372E+04  0.50400001928E-02 0.  1.
        1   -1    0    0  501    0  0.00000000000E+00  0.00000000000E+00 -0.35615509484E+03  0.35615509488E+03  0.50400001928E-02 0. -1.
    10030    2    1    2    0    0  0.00000000000E+00  0.00000000000E+00  0.11312821424E+04  0.18435923321E+04  0.14556900087E+04 0.  0.
        5    1    3    3  502    0  0.63608431359E+03  0.37942747175E+02  0.10110605191E+04  0.11951185587E+04  0.46999998093E+01 0.  1.
       -5    1    3    3    0  502 -0.63608431359E+03 -0.37942747175E+02  0.12022162325E+03  0.64847377337E+03  0.46999998093E+01 0. -1.
</event>
<event>
 5   0  0.1484056E-03  0.1521895E+04  0.7818609E-02  0.8870022E-01
       -2   -1    0    0    0  501  0.00000000000E+00  0.00000000000E+00  0.34209972237E+03  0.34209972238E+03  0.25500000920E-02 0. -1.
        2   -1    0    0  501    0  0.00000000000E+00  0.00000000000E+00 -0.16926096719E+04  0.16926096719E+04  0.25500000920E-02 0.  1.
    10030    2    1    2    0    0  0.00000000000E+00  0.00000000000E+00 -0.13505099496E+04  0.20347093943E+04  0.15218952643E+04 0.  0.
        5    1    3    3  502    0 -0.18347974315E+03 -0.14014341158E+02  0.31188517396E+03  0.36215420699E+03  0.46999998093E+01 0. -1.
       -5    1    3    3    0  502  0.18347974315E+03  0.14014341158E+02 -0.16623951235E+04  0.16725551873E+04  0.46999998093E+01 0.  1.
</event>
<event>
 5   0  0.8365016E-04  0.1508013E+04  0.7818609E-02  0.8879142E-01
        1   -1    0    0  501    0  0.00000000000E+00  0.00000000000E+00  0.33549038499E+03  0.33549038502E+03  0.50400001928E-02 0.  1.
       -1   -1    0    0    0  501  0.00000000000E+00  0.00000000000E+00 -0.16946118419E+04  0.16946118420E+04  0.50400001928E-02 0. -1.
    10030    2    1    2    0    0  0.00000000000E+00  0.00000000000E+00 -0.13591214570E+04  0.20301022270E+04  0.15080132351E+04 0.  0.
        3    1    3    3  502    0 -0.42314565960E+02  0.57541042009E+03 -0.13330458294E+04  0.14525490930E+04  0.10100000352E+00 0. -1.
       -3    1    3    3    0  502  0.42314565960E+02 -0.57541042009E+03 -0.26075627561E+02  0.57755313400E+03  0.10100000352E+00 0.  1.
</event>
<event>
 5   0  0.8191876E-04  0.1505428E+04  0.7818609E-02  0.8880851E-01
       -1   -1    0    0    0  501  0.00000000000E+00  0.00000000000E+00  0.48960771763E+03  0.48960771765E+03  0.50400001928E-02 0.  1.
        1   -1    0    0  501    0  0.00000000000E+00  0.00000000000E+00 -0.11572095551E+04  0.11572095551E+04  0.50400001928E-02 0. -1.
    10030    2    1    2    0    0  0.00000000000E+00  0.00000000000E+00 -0.66760183744E+03  0.16468172727E+04  0.15054284827E+04 0.  0.
        2    1    3    3  502    0 -0.52023786519E+03 -0.51426097954E+03 -0.52785041717E+03  0.90207419560E+03  0.25500000920E-02 0.  1.
       -2    1    3    3    0  502  0.52023786519E+03  0.51426097954E+03 -0.13975142027E+03  0.74474307713E+03  0.25500000920E-02 0. -1.
</event>
<event>
 5   0  0.1526126E-03  0.1513327E+04  0.7818609E-02  0.8875638E-01
       -2   -1    0    0    0  501  0.00000000000E+00  0.00000000000E+00  0.34422512776E+03  0.34422512777E+03  0.25500000920E-02 0. -1.
        2   -1    0    0  501    0  0.00000000000E+00  0.00000000000E+00 -0.16632717985E+04  0.16632717985E+04  0.25500000920E-02 0.  1.
    10030    2    1    2    0    0  0.00000000000E+00  0.00000000000E+00 -0.13190466707E+04  0.20074969262E+04  0.15133273900E+04 0.  0.
        2    1    3    3  502    0 -0.27629636056E+02  0.54474677966E+03  0.36157523649E+02  0.54664414134E+03  0.25500000920E-02 0. -1.
       -2    1    3    3    0  502  0.27629636056E+02 -0.54474677966E+03 -0.13552041944E+04  0.14608527849E+04  0.25500000920E-02 0.  1.
</event>
<event>
 5   0  0.1526126E-03  0.1493850E+04  0.7818609E-02  0.8888553E-01
       -2   -1    0    0    0  501  0.00000000000E+00  0.00000000000E+00  0.10268339311E+04  0.10268339311E+04  0.25500000920E-02 0. -1.
        2   -1    0    0  501    0  0.00000000000E+00  0.00000000000E+00 -0.54331792777E+03  0.54331792777E+03  0.25500000920E-02 0.  1.
    10030    2    1    2    0    0  0.00000000000E+00  0.00000000000E+00  0.48351600331E+03  0.15701518588E+04  0.14938504391E+04 0.  0.
        2    1    3    3  502    0  0.37339769129E+03 -0.35671285379E+03 -0.32546083641E+03  0.61040531777E+03  0.25500000920E-02 0.  1.
       -2    1    3    3    0  502 -0.37339769129E+03  0.35671285379E+03  0.80897683971E+03  0.95974654108E+03  0.25500000920E-02 0. -1.
</event>
<event>
 5   0  0.1500956E-03  0.1525992E+04  0.7818609E-02  0.8867350E-01
        2   -1    0    0  501    0  0.00000000000E+00  0.00000000000E+00  0.10081712874E+04  0.10081712874E+04  0.25500000920E-02 0. -1.
       -2   -1    0    0    0  501  0.00000000000E+00  0.00000000000E+00 -0.57744472762E+03  0.57744472762E+03  0.25500000920E-02 0.  1.
    10030    2    1    2    0    0  0.00000000000E+00  0.00000000000E+00  0.43072655979E+03  0.15856160150E+04  0.15259923911E+04 0.  0.
        4    1    3    3  502    0  0.43818884341E+03  0.29021336116E+03 -0.35935564634E+03  0.63668779707E+03  0.12699999809E+01 0.  1.
       -4    1    3    3    0  502 -0.43818884341E+03 -0.29021336116E+03  0.79008220614E+03  0.94892821796E+03  0.12699999809E+01 0. -1.
</event>
<event>
 5   0  0.1511546E-03  0.1455535E+04  0.7818609E-02  0.8914572E-01
        2   -1    0    0  501    0  0.00000000000E+00  0.00000000000E+00  0.73742380469E+03  0.73742380469E+03  0.25500000920E-02 0.  1.
       -2   -1    0    0    0  501  0.00000000000E+00  0.00000000000E+00 -0.71823809872E+03  0.71823809873E+03  0.25500000920E-02 0. -1.
    10030    2    1    2    0    0  0.00000000000E+00  0.00000000000E+00  0.19185705965E+02  0.14556619034E+04  0.14555354636E+04 0.  0.
        1    1    3    3  502    0  0.46547272895E+03  0.50460444864E+03  0.25118237949E+03  0.73101511529E+03  0.50400001928E-02 0. -1.
       -1    1    3    3    0  502 -0.46547272895E+03 -0.50460444864E+03 -0.23199667353E+03  0.72464678813E+03  0.50400001928E-02 0.  1.
</event>
<event>
 5   0  0.5603875E-04  0.1483099E+04  0.7818609E-02  0.8895770E-01
       -4   -1    0    0    0  501  0.00000000000E+00  0.00000000000E+00  0.46217992133E+03  0.46218166621E+03  0.12699999809E+01 0. -1.
        4   -1    0    0  501    0  0.00000000000E+00  0.00000000000E+00 -0.11897823525E+04  0.11897830303E+04  0.12699999809E+01 0.  1.
    10030    2    1    2    0    0  0.00000000000E+00  0.00000000000E+00 -0.72760243118E+03  0.16519646965E+04  0.14830988034E+04 0.  0.
        3    1    3    3  502    0  0.45453896953E+03 -0.19727121116E+03 -0.97831889453E+03  0.10966446440E+04  0.10100000352E+00 0.  1.
       -3    1    3    3    0  502 -0.45453896953E+03  0.19727121116E+03  0.25071646334E+03  0.55532005255E+03  0.10100000352E+00 0. -1.
</event>
<event>
 5   0  0.1500956E-03  0.1524170E+04  0.7818609E-02  0.8868538E-01
       -2   -1    0    0    0  501  0.00000000000E+00  0.00000000000E+00  0.77597417835E+03  0.77597417835E+03  0.25500000920E-02 0. -1.
        2   -1    0    0  501    0  0.00000000000E+00  0.00000000000E+00 -0.74844411425E+03  0.74844411426E+03  0.25500000920E-02 0.  1.
    10030    2    1    2    0    0  0.00000000000E+00  0.00000000000E+00  0.27530064097E+02  0.15244182926E+04  0.15241696843E+04 0.  0.
        4    1    3    3  502    0  0.12341706063E+03 -0.34743419023E+03  0.68082914515E+03  0.77425591712E+03  0.12699999809E+01 0. -1.
       -4    1    3    3    0  502 -0.12341706063E+03  0.34743419023E+03 -0.65329908106E+03  0.75016237549E+03  0.12699999809E+01 0.  1.
</event>
<event>
 5   0  0.1552067E-03  0.1534275E+04  0.7818609E-02  0.8861975E-01
        2   -1    0    0  501    0  0.00000000000E+00  0.00000000000E+00  0.11153382302E+04  0.11153382302E+04  0.25500000920E-02 0. -1.
       -2   -1    0    0    0  501  0.00000000000E+00  0.00000000000E+00 -0.52764244023E+03  0.52764244024E+03  0.25500000920E-02 0.  1.
    10030    2    1    2    0    0  0.00000000000E+00  0.00000000000E+00  0.58769578996E+03  0.16429806704E+04  0.15342747935E+04 0.  0.
        3    1    3    3  502    0  0.57743085798E+03  0.44612524214E+03  0.54736090440E+03  0.91217218620E+03  0.10100000352E+00 0. -1.
       -3    1    3    3    0  502 -0.57743085798E+03 -0.44612524214E+03  0.40334885555E+02  0.73080848422E+03  0.10100000352E+00 0.  1.
</event>
<event>
 5   0  0.5603875E-04  0.1470229E+04  0.7818609E-02  0.8904496E-01
       -3   -1    0    0    0  501  0.00000000000E+00  0.00000000000E+00  0.10634940261E+04  0.10634940309E+04  0.10100000352E+00 0. -1.
        3   -1    0    0  501    0  0.00000000000E+00  0.00000000000E+00 -0.50812979850E+03  0.50812980854E+03  0.10100000352E+00 0.  1.
    10030    2    1    2    0    0  0.00000000000E+00  0.00000000000E+00  0.55536422757E+03  0.15716238394E+04  0.14702285766E+04 0.  0.
        3    1    3    3  502    0 -0.17869379285E+03 -0.40960037210E+03 -0.34625791489E+03  0.56533042573E+03  0.10100000352E+00 0.  1.
       -3    1    3    3    0  502  0.17869379285E+03  0.40960037210E+03  0.90162214246E+03  0.10062934137E+04  0.10100000352E+00 0. -1.
</event>
<event>
 5   0  0.5603875E-04  0.1524481E+04  0.7818609E-02  0.8868335E-01
       -3   -1    0    0    0  501  0.00000000000E+00  0.00000000000E+00  0.41961363987E+03  0.41961365202E+03  0.10100000352E+00 0. -1.
        3   -1    0    0  501    0  0.00000000000E+00  0.00000000000E+00 -0.13846322115E+04  0.13846322152E+04  0.10100000352E+00 0.  1.
    10030    2    1    2    0    0  0.00000000000E+00  0.00000000000E+00 -0.96501857162E+03  0.18042458672E+04  0.15244809955E+04 0.  0.
        3    1    3    3  502    0  0.15808724955E+03 -0.47760207278E+03  0.19521728090E+03  0.53963424220E+03  0.10100000352E+00 0. -1.
       -3    1    3    3    0  502 -0.15808724955E+03  0.47760207278E+03 -0.11602358525E+04  0.12646116250E+04  0.10100000352E+00 0.  1.
</event>
<event>
 5   0  0.8365016E-04  0.1490841E+04  0.7818609E-02  0.8890566E-01
       -1   -1    0    0    0  501  0.00000000000E+00  0.00000000000E+00  0.93201126933E+03  0.93201126935E+03  0.50400001928E-02 0.  1.
        1   -1    0    0  501    0  0.00000000000E+00  0.00000000000E+00 -0.59618583395E+03  0.59618583397E+03  0.50400001928E-02 0. -1.
    10030    2    1    2    0    0  0.00000000000E+00  0.00000000000E+00  0.33582543538E+03  0.15281971033E+04  0.14908412603E+04 0.  0.
        3    1    3    3  502    0  0.47684421054E+03 -0.45732634092E+03 -0.18587913344E+03  0.68635183811E+03  0.10100000352E+00 0. -1.
       -3    1    3    3    0  502 -0.47684421054E+03  0.45732634092E+03  0.52170456883E+03  0.84184526521E+03  0.10100000352E+00 0.  1.
</event>
<event>
 5   0  0.1484056E-03  0.9572840E+03  0.7818609E-02  0.9356677E-01
        2   -1    0    0  501    0  0.00000000000E+00  0.00000000000E+00  0.45853579149E+03  0.45853579150E+03  0.25500000920E-02 0.  1.
       -2   -1    0    0    0  501  0.00000000000E+00  0.00000000000E+00 -0.49962987860E+03  0.49962987861E+03  0.25500000920E-02 0. -1.
    10030    2    1    2    0    0  0.00000000000E+00  0.00000000000E+00 -0.41094087112E+02  0.95816567010E+03  0.95728403693E+03 0.  0.
        5    1    3    3  502    0  0.47255146009E+03  0.33843121179E+02  0.47529215605E+02  0.47616316071E+03  0.46999998093E+01 0.  1.
       -5    1    3    3    0  502 -0.47255146009E+03 -0.33843121179E+02 -0.88623302717E+02  0.48200250939E+03  0.46999998093E+01 0. -1.
</event>
<event>
 5   0  0.8306301E-04  0.1498933E+04  0.7818609E-02  0.8885163E-01
        1   -1    0    0  501    0  0.00000000000E+00  0.00000000000E+00  0.40080528304E+03  0.40080528307E+03  0.50400001928E-02 0. -1.
       -1   -1    0    0    0  501  0.00000000000E+00  0.00000000000E+00 -0.14014292220E+04  0.14014292220E+04  0.50400001928E-02 0.  1.
    10030    2    1    2    0    0  0.00000000000E+00  0.00000000000E+00 -0.10006239390E+04  0.18022345051E+04  0.14989332687E+04 0.  0.
        4    1    3    3  502    0  0.74554628139E+03 -0.30610309838E+02 -0.41595590279E+03  0.85428167178E+03  0.12699999809E+01 0. -1.
       -4    1    3    3    0  502 -0.74554628139E+03  0.30610309838E+02 -0.58466803618E+03  0.94795283332E+03  0.12699999809E+01 0.  1.
</event>
<event>
 5   0  0.1511546E-03  0.1504373E+04  0.7818609E-02  0.8881550E-01
       -2   -1    0    0    0  501  0.00000000000E+00  0.00000000000E+00  0.55026534258E+03  0.55026534259E+03  0.25500000920E-02 0.  1.
        2   -1    0    0  501    0  0.00000000000E+00  0.00000000000E+00 -0.10282027424E+04  0.10282027424E+04  0.25500000920E-02 0. -1.
    10030    2    1    2    0    0  0.00000000000E+00  0.00000000000E+00 -0.47793739980E+03  0.15784680850E+04  0.15043727388E+04 0.  0.
        1    1    3    3  502    0  0.55206887964E+03  0.36382187400E+03 -0.61529526165E+03  0.90318030476E+03  0.50400001928E-02 0. -1.
       -1    1    3    3    0  502 -0.55206887964E+03 -0.36382187400E+03  0.13735786185E+03  0.67528778021E+03  0.50400001928E-02 0.  1.
</event>
<event>
 5   0  0.1526126E-03  0.1474139E+04  0.7818609E-02  0.8901834E-01
        2   -1    0    0  501    0  0.00000000000E+00  0.00000000000E+00  0.87668142969E+03  0.87668142969E+03  0.25500000920E-02 0. -1.
       -2   -1    0    0    0  501  0.00000000000E+00  0.00000000000E+00 -0.61969125427E+03  0.61969125428E+03  0.25500000920E-02 0.  1.
    10030    2    1    2    0    0  0.00000000000E+00  0.00000000000E+00  0.25699017542E+03  0.14963726840E+04  0.14741394978E+04 0.  0.
        2    1    3    3  502    0 -0.48443738194E+03 -0.86761136811E+02 -0.42847405939E+03  0.65253129539E+03  0.25500000920E-02 0.  1.
       -2    1    3    3    0  502  0.48443738194E+03  0.86761136811E+02  0.68546423481E+03  0.84384138858E+03  0.25500000920E-02 0. -1.
</event>
<event>
 5   0  0.8058234E-04  0.1543508E+04  0.7818609E-02  0.8856025E-01
       -1   -1    0    0    0  501  0.00000000000E+00  0.00000000000E+00  0.79161818203E+03  0.79161818205E+03  0.50400001928E-02 0. -1.
        1   -1    0    0  501    0  0.00000000000E+00  0.00000000000E+00 -0.75238853894E+03  0.75238853895E+03  0.50400001928E-02 0.  1.
    10030    2    1    2    0    0  0.00000000000E+00  0.00000000000E+00  0.39229643093E+02  0.15440067210E+04  0.15435082733E+04 0.  0.
        5    1    3    3  502    0 -0.54044631248E+03  0.14254314580E+03 -0.51270511841E+03  0.75847834084E+03  0.46999998093E+01 0.  1.
       -5    1    3    3    0  502  0.54044631248E+03 -0.14254314580E+03  0.55193476150E+03  0.78552838016E+03  0.46999998093E+01 0. -1.
</event>
<event>
 5   0  0.1500956E-03  0.1501344E+04  0.7818609E-02  0.8883560E-01
       -2   -1    0    0    0  501  0.00000000000E+00  0.00000000000E+00  0.10871436067E+04  0.10871436067E+04  0.25500000920E-02 0. -1.
        2   -1    0    0  501    0  0.00000000000E+00  0.00000000000E+00 -0.51833855023E+03  0.51833855024E+03  0.25500000920E-02 0.  1.
    10030    2    1    2    0    0  0.00000000000E+00  0.00000000000E+00  0.56880505651E+03  0.16054821570E+04  0.15013439859E+04 0.  0.
        4    1    3    3  502    0 -0.59967068265E+03  0.11453914113E+03 -0.18268121676E+03  0.63725833250E+03  0.12699999809E+01 0.  1.
       -4    1    3    3    0  502  0.59967068265E+03 -0.11453914113E+03  0.75148627328E+03  0.96822382449E+03  0.12699999809E+01 0. -1.
</event>
<event>
 5   0  0.1484056E-03  0.1421980E+04  0.7818609E-02  0.8938060E-01
       -2   -1    0    0    0  501  0.00000000000E+00  0.00000000000E+00  0.29201862730E+03  0.29201862731E+03  0.25500000920E-02 0.  1.
        2   -1    0    0  501    0  0.00000000000E+00  0.00000000000E+00 -0.17310773825E+04  0.17310773825E+04  0.25500000920E-02 0. -1.
    10030    2    1    2    0    0  0.00000000000E+00  0.00000000000E+00 -0.14390587552E+04  0.20230960098E+04  0.14219800856E+04 0.  0.
        5    1    3    3  502    0 -0.16624123255E+03 -0.36514501865E+03  0.11555192654E+03  0.41754205749E+03  0.46999998093E+01 0.  1.
       -5    1    3    3    0  502  0.16624123255E+03  0.36514501865E+03 -0.15546106817E+04  0.16055539523E+04  0.46999998093E+01 0. -1.
</event>
<event>
 5   0  0.8306301E-04  0.1485902E+04  0.7818609E-02  0.8893882E-01
       -1   -1    0    0    0  501  0.00000000000E+00  0.00000000000E+00  0.59717808778E+03  0.59717808780E+03  0.50400001928E-02 0.  1.
        1   -1    0    0  501    0  0.00000000000E+00  0.00000000000E+00 -0.92430733742E+03  0.92430733744E+03  0.50400001928E-02 0. -1.
    10030    2    1    2    0    0  0.00000000000E+00  0.00000000000E+00 -0.32712924965E+03  0.15214854252E+04  0.14859018653E+04 0.  0.
        4    1    3    3  502    0  0.14816465393E+03  0.62904421001E+03  0.21171608630E+03  0.68005492199E+03  0.12699999809E+01 0.  1.
       -4    1    3    3    0  502 -0.14816465393E+03 -0.62904421001E+03 -0.53884533594E+03  0.84143050325E+03  0.12699999809E+01 0. -1.
</event>
<event>
 5   0  0.1552067E-03  0.1549890E+04  0.7818609E-02  0.8851938E-01
        2   -1    0    0  501    0  0.00000000000E+00  0.00000000000E+00  0.14518407425E+04  0.14518407425E+04  0.25500000920E-02 0.  1.
       -2   -1    0    0    0  501  0.00000000000E+00  0.00000000000E+00 -0.41364021445E+03  0.41364021445E+03  0.25500000920E-02 0. -1.
    10030    2    1    2    0    0  0.00000000000E+00  0.00000000000E+00  0.10382005281E+04  0.18654809570E+04  0.15498899523E+04 0.  0.
        3    1    3    3  502    0  0.33781287609E+03  0.66758506771E+02  0.13546992781E+04  0.13977783736E+04  0.10100000352E+00 0.  1.
       -3    1    3    3    0  502 -0.33781287609E+03 -0.66758506771E+02 -0.31649875004E+03  0.46770258334E+03  0.10100000352E+00 0. -1.
</event>
<event>
 5   0  0.5603875E-04  0.1648769E+04  0.7818609E-02  0.8791135E-01
       -3   -1    0    0    0  501  0.00000000000E+00  0.00000000000E+00  0.92503880686E+03  0.92503881238E+03  0.10100000352E+00 0.  1.
        3   -1    0    0  501    0  0.00000000000E+00  0.00000000000E+00 -0.73468282833E+03  0.73468283527E+03  0.10100000352E+00 0. -1.
    10030    2    1    2    0    0  0.00000000000E+00  0.00000000000E+00  0.19035597854E+03  0.16597216476E+04  0.16487694045E+04 0.  0.
        2    1    3    3  502    0  0.46365597493E+03 -0.66144847788E+02 -0.58775182763E+03  0.75153457330E+03  0.25500000920E-02 0. -1.
       -2    1    3    3    0  502 -0.46365597493E+03  0.66144847788E+02  0.77810780617E+03  0.90818707434E+03  0.25500000920E-02 0.  1.
</event>
<event>
 5   0  0.8365016E-04  0.1508306E+04  0.7818609E-02  0.8878948E-01
       -1   -1    0    0    0  501  0.00000000000E+00  0.00000000000E+00  0.79989584082E+03  0.79989584083E+03  0.50400001928E-02 0.  1.
        1   -1    0    0  501    0  0.00000000000E+00  0.00000000000E+00 -0.71102644530E+03  0.71102644532E+03  0.50400001928E-02 0. -1.
    10030    2    1    2    0    0  0.00000000000E+00  0.00000000000E+00  0.88869395517E+02  0.15109222862E+04  0.15083064627E+04 0.  0.
        3    1    3    3  502    0 -0.38907470673E+03 -0.45513393083E+03 -0.41485917304E+03  0.72844640576E+03  0.10100000352E+00 0. -1.
       -3    1    3    3    0  502  0.38907470673E+03  0.45513393083E+03  0.50372856856E+03  0.78247588039E+03  0.10100000352E+00 0.  1.
</event>
<event>
 5   0  0.8365016E-04  0.1532003E+04  0.7818609E-02  0.8863446E-01
        1   -1    0    0  501    0  0.00000000000E+00  0.00000000000E+00  0.37620214168E+03  0.37620214172E+03  0.50400001928E-02 0.  1.
       -1   -1    0    0    0  501  0.00000000000E+00  0.00000000000E+00 -0.15596891139E+04  0.15596891139E+04  0.50400001928E-02 0. -1.
    10030    2    1    2    0    0  0.00000000000E+00  0.00000000000E+00 -0.11834869722E+04  0.19358912557E+04  0.15320031137E+04 0.  0.
        3    1    3    3  502    0 -0.38062297135E+03 -0.15732756069E+03 -0.14078716389E+04  0.14668770805E+04  0.10100000352E+00 0. -1.
       -3    1    3    3    0  502  0.38062297135E+03  0.15732756069E+03  0.22438466660E+03  0.46901417514E+03  0.10100000352E+00 0.  1.
</event>
<event>
 5   0  0.7870317E-04  0.1495071E+04  0.7818609E-02  0.8887737E-01
        1   -1    0    0  501    0  0.00000000000E+00  0.00000000000E+00  0.96612774739E+03  0.96612774741E+03  0.50400001928E-02 0.  1.
       -1   -1    0    0    0  501  0.00000000000E+00  0.00000000000E+00 -0.57840120876E+03  0.57840120878E+03  0.50400001928E-02 0. -1.
    10030    2    1    2    0    0  0.00000000000E+00  0.00000000000E+00  0.38772653864E+03  0.15445289562E+04  0.14950711781E+04 0.  0.
        1    1    3    3  502    0  0.10968775526E+03 -0.58140258831E+03 -0.27814159482E+03  0.65377604739E+03  0.50400001928E-02 0. -1.
       -1    1    3    3    0  502 -0.10968775526E+03  0.58140258831E+03  0.66586813345E+03  0.89075290879E+03  0.50400001928E-02 0.  1.
</event>
<event>
 5   0  0.1552067E-03  0.1499446E+04  0.7818609E-02  0.8884822E-01
        2   -1    0    0  501    0  0.00000000000E+00  0.00000000000E+00  0.21211566419E+04  0.21211566419E+04  0.25500000920E-02 0. -1.
       -2   -1    0    0    0  501  0.00000000000E+00  0.00000000000E+00 -0.26498956431E+03  0.26498956432E+03  0.25500000920E-02 0.  1.
    10030    2    1    2    0    0  0.00000000000E+00  0.00000000000E+00  0.18561670776E+04  0.23861462063E+04  0.14994457301E+04 0.  0.
        3    1    3    3  502    0 -0.16111413020E+03 -0.64218081299E+03  0.36832011732E+03  0.75763690416E+03  0.10100000352E+00 0.  1.
       -3    1    3    3    0  502  0.16111413020E+03  0.64218081299E+03  0.14878469603E+04  0.16285093021E+04  0.10100000352E+00 0. -1.
</event>
<event>
 5   0  0.5603875E-04  0.1496844E+04  0.7818609E-02  0.8886554E-01
       -3   -1    0    0    0  501  0.00000000000E+00  0.00000000000E+00  0.39919609370E+03  0.39919610647E+03  0.10100000352E+00 0. -1.
        3   -1    0    0  501    0  0.00000000000E+00  0.00000000000E+00 -0.14031593317E+04  0.14031593354E+04  0.10100000352E+00 0.  1.
    10030    2    1    2    0    0  0.00000000000E+00  0.00000000000E+00 -0.10039632380E+04  0.18023554419E+04  0.14968443324E+04 0.  0.
        1    1    3    3  502    0 -0.21136772248E+03  0.71493620833E+03 -0.42278819349E+03  0.85706473073E+03  0.50400001928E-02 0. -1.
       -1    1    3    3    0  502  0.21136772248E+03 -0.71493620833E+03 -0.58117504456E+03  0.94529071112E+03  0.50400001928E-02 0.  1.
</event>
<event>
 5   0  0.1552067E-03  0.1485091E+04  0.7818609E-02  0.8894428E-01
        2   -1    0    0  501    0  0.00000000000E+00  0.00000000000E+00  0.42338708096E+03  0.42338708097E+03  0.25500000920E-02 0.  1.
       -2   -1    0    0    0  501  0.00000000000E+00  0.00000000000E+00 -0.13022926498E+04  0.13022926498E+04  0.25500000920E-02 0. -1.
    10030    2    1    2    0    0  0.00000000000E+00  0.00000000000E+00 -0.87890556881E+03  0.17256797307E+04  0.14850910862E+04 0.  0.
        3    1    3    3  502    0  0.43251246679E+03  0.17635590619E+03 -0.11102065882E+04  0.12044613395E+04  0.10100000352E+00 0. -1.
       -3    1    3    3    0  502 -0.43251246679E+03 -0.17635590619E+03  0.23130101942E+03  0.52121839124E+03  0.10100000352E+00 0.  1.
</event>
<event>
 5   0  0.1484056E-03  0.1489308E+04  0.7818609E-02  0.8891594E-01
       -2   -1    0    0    0  501  0.00000000000E+00  0.00000000000E+00  0.11536624215E+04  0.11536624215E+04  0.25500000920E-02 0. -1.
        2   -1    0    0  501    0  0.00000000000E+00  0.00000000000E+00 -0.48065160281E+03  0.48065160281E+03  0.25500000920E-02 0.  1.
    10030    2    1    2    0    0  0.00000000000E+00  0.00000000000E+00  0.67301081864E+03  0.16343140243E+04  0.14893081508E+04 0.  0.
        5    1    3    3  502    0  0.57176364021E+03 -0.47163600054E+03  0.41512930155E+03  0.84953434555E+03  0.46999998093E+01 0. -1.
       -5    1    3    3    0  502 -0.57176364021E+03  0.47163600054E+03  0.25788151710E+03  0.78477967872E+03  0.46999998093E+01 0.  1.
</event>
<event>
 5   0  0.8191876E-04  0.1201422E+04  0.7818609E-02  0.9111613E-01
        1   -1    0    0  501    0  0.00000000000E+00  0.00000000000E+00  0.65815339406E+03  0.65815339408E+03  0.50400001928E-02 0.  1.
       -1   -1    0    0    0  501  0.00000000000E+00  0.00000000000E+00 -0.54828208419E+03  0.54828208421E+03  0.50400001928E-02 0. -1.
    10030    2    1    2    0    0  0.00000000000E+00  0.00000000000E+00  0.10987130987E+03  0.12064354783E+04  0.12014220152E+04 0.  0.
        2    1    3    3  502    0 -0.26619263895E+03 -0.53012188938E+02 -0.48319696214E+03  0.55420945268E+03  0.25500000920E-02 0. -1.
       -2    1    3    3    0  502  0.26619263895E+03  0.53012188938E+02  0.59306827202E+03  0.65222602561E+03  0.25500000920E-02 0.  1.
</event>
<event>
 5   0  0.8306301E-04  0.1492126E+04  0.7818609E-02  0.8889706E-01
       -1   -1    0    0    0  501  0.00000000000E+00  0.00000000000E+00  0.35522630613E+03  0.35522630617E+03  0.50400001928E-02 0.  1.
        1   -1    0    0  501    0  0.00000000000E+00  0.00000000000E+00 -0.15669174275E+04  0.15669174275E+04  0.50400001928E-02 0. -1.
    10030    2    1    2    0    0  0.00000000000E+00  0.00000000000E+00 -0.12116911213E+04  0.19221437336E+04  0.14921263885E+04 0.  0.
        4    1    3    3  502    0 -0.12123344096E+03 -0.68788270238E+03 -0.94355930585E+03  0.11739616416E+04  0.12699999809E+01 0. -1.
       -4    1    3    3    0  502  0.12123344096E+03  0.68788270238E+03 -0.26813181549E+03  0.74818209202E+03  0.12699999809E+01 0.  1.
</event>
<event>
 5   0  0.1526126E-03  0.1499713E+04  0.7818609E-02  0.8884644E-01
        2   -1    0    0  501    0  0.00000000000E+00  0.00000000000E+00  0.61640754829E+03  0.61640754830E+03  0.25500000920E-02 0. -1.
       -2   -1    0    0    0  501  0.00000000000E+00  0.00000000000E+00 -0.91219678769E+03  0.91219678769E+03  0.25500000920E-02 0.  1.
    10030    2    1    2    0    0  0.00000000000E+00  0.00000000000E+00 -0.29578923939E+03  0.15286043360E+04  0.14997132866E+04 0.  0.
        2    1    3    3  502    0  0.24583042440E+03 -0.39970046556E+03 -0.74404834202E+03  0.87965959040E+03  0.25500000920E-02 0.  1.
       -2    1    3    3    0  502 -0.24583042440E+03  0.39970046556E+03  0.44825910262E+03  0.64894474558E+03  0.25500000920E-02 0. -1.
</event>
<event>
 5   0  0.1552067E-03  0.1483466E+04  0.7818609E-02  0.8895523E-01
        2   -1    0    0  501    0  0.00000000000E+00  0.00000000000E+00  0.17575995558E+04  0.17575995558E+04  0.25500000920E-02 0.  1.
       -2   -1    0    0    0  501  0.00000000000E+00  0.00000000000E+00 -0.31302215217E+03  0.31302215218E+03  0.25500000920E-02 0. -1.
    10030    2    1    2    0    0  0.00000000000E+00  0.00000000000E+00  0.14445774036E+04  0.20706217080E+04  0.14834656661E+04 0.  0.
        3    1    3    3  502    0 -0.26502633643E+03  0.63394566505E+03  0.11122182295E+04  0.13073467273E+04  0.10100000352E+00 0.  1.
       -3    1    3    3    0  502  0.26502633643E+03 -0.63394566505E+03  0.33235917410E+03  0.76327498063E+03  0.10100000352E+00 0. -1.
</event>
<event>
 5   0  0.7870317E-04  0.1505046E+04  0.7818609E-02  0.8881104E-01
        1   -1    0    0  501    0  0.00000000000E+00  0.00000000000E+00  0.77497565318E+03  0.77497565320E+03  0.50400001928E-02 0.  1.
       -1   -1    0    0    0  501  0.00000000000E+00  0.00000000000E+00 -0.73072106008E+03  0.73072106009E+03  0.50400001928E-02 0. -1.
    10030    2    1    2    0    0  0.00000000000E+00  0.00000000000E+00  0.44254593103E+02  0.15056967133E+04  0.15050462197E+04 0.  0.
        1    1    3    3  502    0 -0.25542085694E+03  0.51182079499E+03  0.51130764074E+03  0.76722607089E+03  0.50400001928E-02 0.  1.
       -1    1    3    3    0  502  0.25542085694E+03 -0.51182079499E+03 -0.46705304764E+03  0.73847064240E+03  0.50400001928E-02 0. -1.
</event>
<event>
 5   0  0.1484056E-03  0.1515676E+04  0.7818609E-02  0.8874095E-01
        2   -1    0    0  501    0  0.00000000000E+00  0.00000000000E+00  0.13414872449E+04  0.13414872449E+04  0.25500000920E-02 0.  1.
       -2   -1    0    0    0  501  0.00000000000E+00  0.00000000000E+00 -0.42812040148E+03  0.42812040149E+03  0.25500000920E-02 0. -1.
    10030    2    1    2    0    0  0.00000000000E+00  0.00000000000E+00  0.91336684338E+03  0.17696076464E+04  0.15156755034E+04 0.  0.
        5    1    3    3  502    0 -0.55188258594E+03 -0.51878629317E+03  0.42850822361E+03  0.87026145172E+03  0.46999998093E+01 0. -1.
       -5    1    3    3    0  502  0.55188258594E+03  0.51878629317E+03  0.48485861977E+03  0.89934619464E+03  0.46999998093E+01 0.  1.
</event>
<event>
 5   0  0.8306301E-04  0.1493896E+04  0.7818609E-02  0.8888522E-01
       -1   -1    0    0    0  501  0.00000000000E+00  0.00000000000E+00  0.26873193883E+04  0.26873193883E+04  0.50400001928E-02 0. -1.
        1   -1    0    0  501    0  0.00000000000E+00  0.00000000000E+00 -0.20761628260E+03  0.20761628266E+03  0.50400001928E-02 0.  1.
    10030    2    1    2    0    0  0.00000000000E+00  0.00000000000E+00  0.24797031057E+04  0.28949356709E+04  0.14938959290E+04 0.  0.
        4    1    3    3  502    0  0.15236096629E+03  0.69144172656E+03  0.17009772449E+04  0.18424523673E+04  0.12699999809E+01 0. -1.
       -4    1    3    3    0  502 -0.15236096629E+03 -0.69144172656E+03  0.77872586078E+03  0.10524833036E+04  0.12699999809E+01 0.  1.
</event>
<event>
 5   0  0.8058234E-04  0.1549251E+04  0.7818609E-02  0.8852346E-01
        1   -1    0    0  501    0  0.00000000000E+00  0.00000000000E+00  0.17681223202E+04  0.17681223202E+04  0.50400001928E-02 0.  1.
       -1   -1    0    0    0  501  0.00000000000E+00  0.00000000000E+00 -0.33936816806E+03  0.33936816809E+03  0.50400001928E-02 0. -1.
    10030    2    1    2    0    0  0.00000000000E+00  0.00000000000E+00  0.14287541521E+04  0.21074904883E+04  0.15492506998E+04 0.  0.
        5    1    3    3  502    0  0.13493128004E+03  0.62078057516E+03  0.11144688452E+03  0.64499416346E+03  0.46999998093E+01 0.  1.
       -5    1    3    3    0  502 -0.13493128004E+03 -0.62078057516E+03  0.13173072676E+04  0.14624963248E+04  0.46999998093E+01 0. -1.
</event>
<event>
 5   0  0.1526126E-03  0.1481769E+04  0.7818609E-02  0.8896668E-01
       -2   -1    0    0    0  501  0.00000000000E+00  0.00000000000E+00  0.77341141679E+03  0.77341141679E+03  0.25500000920E-02 0. -1.
        2   -1    0    0  501    0  0.00000000000E+00  0.00000000000E+00 -0.70972514775E+03  0.70972514775E+03  0.25500000920E-02 0.  1.
    10030    2    1    2    0    0  0.00000000000E+00  0.00000000000E+00  0.63686269037E+02  0.14831365645E+04  0.14817685812E+04 0.  0.
        2    1    3    3  502    0  0.38560852816E+03 -0.18891230055E+03 -0.57247558904E+03  0.71561867943E+03  0.25500000920E-02 0.  1.
       -2    1    3    3    0  502 -0.38560852816E+03  0.18891230055E+03  0.63616185808E+03  0.76751788512E+03  0.25500000920E-02 0. -1.
</event>
<event>
 5   0  0.7870317E-04  0.1512062E+04  0.7818609E-02  0.8876471E-01
        1   -1    0    0  501    0  0.00000000000E+00  0.00000000000E+00  0.93980297392E+03  0.93980297394E+03  0.50400001928E-02 0. -1.
       -1   -1    0    0    0  501  0.00000000000E+00  0.00000000000E+00 -0.60819446827E+03  0.60819446829E+03  0.50400001928E-02 0.  1.
    10030    2    1    2    0    0  0.00000000000E+00  0.00000000000E+00  0.33160850566E+03  0.15479974422E+04  0.15120621284E+04 0.  0.
        1    1    3    3  502    0  0.65978240151E+03  0.36342239396E+03  0.23210694888E+03  0.78820193448E+03  0.50400001928E-02 0. -1.
       -1    1    3    3    0  502 -0.65978240151E+03 -0.36342239396E+03  0.99501556779E+02  0.75979550775E+03  0.50400001928E-02 0.  1.
</event>
<event>
 5   0  0.8191876E-04  0.1505526E+04  0.7818609E-02  0.8880787E-01
       -1   -1    0    0    0  501  0.00000000000E+00  0.00000000000E+00  0.70404905634E+03  0.70404905636E+03  0.50400001928E-02 0. -1.
        1   -1    0    0  501    0  0.00000000000E+00  0.00000000000E+00 -0.80484727351E+03  0.80484727353E+03  0.50400001928E-02 0.  1.
    10030    2    1    2    0    0  0.00000000000E+00  0.00000000000E+00 -0.10079821717E+03  0.15088963299E+04  0.15055257732E+04 0.  0.
        2    1    3    3  502    0  0.88365125396E+02 -0.49293479414E+03 -0.61367055601E+03  0.79207616931E+03  0.25500000920E-02 0.  1.
       -2    1    3    3    0  502 -0.88365125396E+02  0.49293479414E+03  0.51287233884E+03  0.71682016058E+03  0.25500000920E-02 0. -1.
</event>
<event>
 5   0  0.1484056E-03  0.1482780E+04  0.7818609E-02  0.8895985E-01
       -2   -1    0    0    0  501  0.00000000000E+00  0.00000000000E+00  0.62541603592E+03  0.62541603593E+03  0.25500000920E-02 0.  1.
        2   -1    0    0  501    0  0.00000000000E+00  0.00000000000E+00 -0.87887010806E+03  0.87887010806E+03  0.25500000920E-02 0. -1.
    10030    2    1    2    0    0  0.00000000000E+00  0.00000000000E+00 -0.25345407214E+03  0.15042861440E+04  0.14827804410E+04 0.  0.
        5    1    3    3  502    0  0.59268096938E+03 -0.43291708910E+03 -0.20569851079E+02  0.73425686668E+03  0.46999998093E+01 0.  1.
       -5    1    3    3    0  502 -0.59268096938E+03  0.43291708910E+03 -0.23288422106E+03  0.77002927731E+03  0.46999998093E+01 0. -1.
</event>
<event>
 5   0  0.1500956E-03  0.1509159E+04  0.7818609E-02  0.8878385E-01
       -2   -1    0    0    0  501  0.00000000000E+00  0.00000000000E+00  0.10195421054E+04  0.10195421054E+04  0.25500000920E-02 0. -1.
        2   -1    0    0  501    0  0.00000000000E+00  0.00000000000E+00 -0.55847620519E+03  0.55847620520E+03  0.25500000920E-02 0.  1.
    10030    2    1    2    0    0  0.00000000000E+00  0.00000000000E+00  0.46106590019E+03  0.15780183106E+04  0.15091587141E+04 0.  0.
        4    1    3    3  502    0 -0.26761094205E+03 -0.32545171946E+03 -0.42401164323E+03  0.59776410439E+03  0.12699999809E+01 0.  1.
       -4    1    3    3    0  502  0.26761094205E+03  0.32545171946E+03  0.88507754342E+03  0.98025420620E+03  0.12699999809E+01 0. -1.
</event>
<event>
 5   0  0.8191876E-04  0.1504329E+04  0.7818609E-02  0.8881579E-01
       -1   -1    0    0    0  501  0.00000000000E+00  0.00000000000E+00  0.34975340654E+03  0.34975340658E+03  0.50400001928E-02 0.  1.
        1   -1    0    0  501    0  0.00000000000E+00  0.00000000000E+00 -0.16175719867E+04  0.16175719867E+04  0.50400001928E-02 0. -1.
    10030    2    1    2    0    0  0.00000000000E+00  0.00000000000E+00 -0.12678185802E+04  0.19673253933E+04  0.15043288374E+04 0.  0.
        2    1    3    3  502    0  0.59600985405E+03  0.43364077405E+03 -0.43783336000E+03  0.85730398236E+03  0.25500000920E-02 0.  1.
       -2    1    3    3    0  502 -0.59600985405E+03 -0.43364077405E+03 -0.82998522017E+03  0.11100214109E+04  0.25500000920E-02 0. -1.
</event>
<event>
 5   0  0.8365016E-04  0.1526462E+04  0.7818609E-02  0.8867044E-01
       -1   -1    0    0    0  501  0.00000000000E+00  0.00000000000E+00  0.62606760056E+03  0.62606760058E+03  0.50400001928E-02 0.  1.
        1   -1    0    0  501    0  0.00000000000E+00  0.00000000000E+00 -0.93044564609E+03  0.93044564610E+03  0.50400001928E-02 0. -1.
    10030    2    1    2    0    0  0.00000000000E+00  0.00000000000E+00 -0.30437804553E+03  0.15565132467E+04  0.15264624111E+04 0.  0.
        3    1    3    3  502    0 -0.58490765665E+02 -0.71895229497E+03  0.10213702440E+03  0.72852285761E+03  0.10100000352E+00 0.  1.
       -3    1    3    3    0  502  0.58490765665E+02  0.71895229497E+03 -0.40651506993E+03  0.82799038907E+03  0.10100000352E+00 0. -1.
</event>
<event>
 5   0  0.8191876E-04  0.1497125E+04  0.7818609E-02  0.8886367E-01
       -1   -1    0    0    0  501  0.00000000000E+00  0.00000000000E+00  0.29427131172E+03  0.29427131176E+03  0.50400001928E-02 0. -1.
        1   -1    0    0  501    0  0.00000000000E+00  0.00000000000E+00 -0.19041819027E+04  0.19041819027E+04  0.50400001928E-02 0.  1.
    10030    2    1    2    0    0  0.00000000000E+00  0.00000000000E+00 -0.16099105909E+04  0.21984532144E+04  0.14971253873E+04 0.  0.
        2    1    3    3  502    0  0.80073886040E+02 -0.67508533092E+03 -0.12651076988E+04  0.14361927172E+04  0.25500000920E-02 0.  1.
       -2    1    3    3    0  502 -0.80073886040E+02  0.67508533092E+03 -0.34480289210E+03  0.76226049724E+03  0.25500000920E-02 0. -1.
</event>
<event>
 5   0  0.1552067E-03  0.1219870E+04  0.7818609E-02  0.9095640E-01
        2   -1    0    0  501    0  0.00000000000E+00  0.00000000000E+00  0.10386500218E+04  0.10386500218E+04  0.25500000920E-02 0. -1.
       -2   -1    0    0    0  501  0.00000000000E+00  0.00000000000E+00 -0.35817688741E+03  0.35817688742E+03  0.25500000920E-02 0.  1.
    10030    2    1    2    0    0  0.00000000000E+00  0.00000000000E+00  0.68047313439E+03  0.13968269092E+04  0.12198695536E+04 0.  0.
        3    1    3    3  502    0 -0.23571627614E+03  0.14426667700E+03  0.96284464765E+03  0.10017209505E+04  0.10100000352E+00 0. -1.
       -3    1    3    3    0  502  0.23571627614E+03 -0.14426667700E+03 -0.28237151326E+03  0.39510595874E+03  0.10100000352E+00 0.  1.
</event>
<event>
 5   0  0.5603875E-04  0.1478526E+04  0.7818609E-02  0.8898860E-01
        3   -1    0    0  501    0  0.00000000000E+00  0.00000000000E+00  0.51133972352E+03  0.51133973350E+03  0.10100000352E+00 0. -1.
       -3   -1    0    0    0  501  0.00000000000E+00  0.00000000000E+00 -0.10687806092E+04  0.10687806139E+04  0.10100000352E+00 0.  1.
    10030    2    1    2    0    0  0.00000000000E+00  0.00000000000E+00 -0.55744088565E+03  0.15801203474E+04  0.14785262836E+04 0.  0.
        2    1    3    3  502    0  0.59684294110E+02 -0.47925411150E+03 -0.87687836339E+03  0.10010806074E+04  0.25500000920E-02 0.  1.
       -2    1    3    3    0  502 -0.59684294110E+02  0.47925411150E+03  0.31943747774E+03  0.57903974004E+03  0.25500000920E-02 0. -1.
</event>
<event>
 5   0  0.8306301E-04  0.1119928E+04  0.7818609E-02  0.9185984E-01
        1   -1    0    0  501    0  0.00000000000E+00  0.00000000000E+00  0.81261280534E+03  0.81261280535E+03  0.50400001928E-02 0. -1.
       -1   -1    0    0    0  501  0.00000000000E+00  0.00000000000E+00 -0.38586600556E+03  0.38586600559E+03  0.50400001928E-02 0.  1.
    10030    2    1    2    0    0  0.00000000000E+00  0.00000000000E+00  0.42674679978E+03  0.11984788109E+04  0.11199279571E+04 0.  0.
        4    1    3    3  502    0  0.22527505445E+03 -0.86986851767E+02 -0.32727727983E+03  0.40672791068E+03  0.12699999809E+01 0.  1.
       -4    1    3    3    0  502 -0.22527505445E+03  0.86986851767E+02  0.75402407961E+03  0.79175090026E+03  0.12699999809E+01 0. -1.
</event>
<event>
 5   0  0.8365016E-04  0.1554040E+04  0.7818609E-02  0.8849291E-01
        1   -1    0    0  501    0  0.00000000000E+00  0.00000000000E+00  0.19527805708E+04  0.19527805708E+04  0.50400001928E-02 0.  1.
       -1   -1    0    0    0  501  0.00000000000E+00  0.00000000000E+00 -0.30917976397E+03  0.30917976401E+03  0.50400001928E-02 0. -1.
    10030    2    1    2    0    0  0.00000000000E+00  0.00000000000E+00  0.16436008068E+04  0.22619603348E+04  0.15540402003E+04 0.  0.
        3    1    3    3  502    0 -0.40532554372E+03 -0.50299734762E+03  0.14503238921E+04  0.15876821251E+04  0.10100000352E+00 0.  1.
       -3    1    3    3    0  502  0.40532554372E+03  0.50299734762E+03  0.19327691467E+03  0.67427820968E+03  0.10100000352E+00 0. -1.
</event>
<event>
 5   0  0.1511546E-03  0.1497978E+04  0.7818609E-02  0.8885799E-01
       -2   -1    0    0    0  501  0.00000000000E+00  0.00000000000E+00  0.45755611827E+03  0.45755611828E+03  0.25500000920E-02 0.  1.
        2   -1    0    0  501    0  0.00000000000E+00  0.00000000000E+00 -0.12260451232E+04  0.12260451232E+04  0.25500000920E-02 0. -1.
    10030    2    1    2    0    0  0.00000000000E+00  0.00000000000E+00 -0.76848900494E+03  0.16836012415E+04  0.14979779003E+04 0.  0.
        1    1    3    3  502    0 -0.38415916297E+03  0.50146202433E+03 -0.83653098821E+03  0.10482492636E+04  0.50400001928E-02 0. -1.
       -1    1    3    3    0  502  0.38415916297E+03 -0.50146202433E+03  0.68041983265E+02  0.63535197792E+03  0.50400001928E-02 0.  1.
</event>
<event>
 5   0  0.7870317E-04  0.1020025E+04  0.7818609E-02  0.9286850E-01
        1   -1    0    0  501    0  0.00000000000E+00  0.00000000000E+00  0.10760018631E+04  0.10760018631E+04  0.50400001928E-02 0.  1.
       -1   -1    0    0    0  501  0.00000000000E+00  0.00000000000E+00 -0.24174012212E+03  0.24174012217E+03  0.50400001928E-02 0. -1.
    10030    2    1    2    0    0  0.00000000000E+00  0.00000000000E+00  0.83426174102E+03  0.13177419853E+04  0.10200251405E+04 0.  0.
        1    1    3    3  502    0  0.89616425572E+02  0.46612875838E+03  0.65814621074E+03  0.81145767472E+03  0.50400001928E-02 0.  1.
       -1    1    3    3    0  502 -0.89616425572E+02 -0.46612875838E+03  0.17611553028E+03  0.50628431059E+03  0.50400001928E-02 0. -1.
</event>
<event>
 5   0  0.1552067E-03  0.1526089E+04  0.7818609E-02  0.8867287E-01
       -2   -1    0    0    0  501  0.00000000000E+00  0.00000000000E+00  0.23892780398E+03  0.23892780399E+03  0.25500000920E-02 0. -1.
        2   -1    0    0  501    0  0.00000000000E+00  0.00000000000E+00 -0.24368722224E+04  0.24368722224E+04  0.25500000920E-02 0.  1.
    10030    2    1    2    0    0  0.00000000000E+00  0.00000000000E+00 -0.21979444184E+04  0.26758000264E+04  0.15260885016E+04 0.  0.
        3    1    3    3  502    0 -0.51264192381E+03 -0.22433355930E+03 -0.20085466138E+04  0.20850388001E+04  0.10100000352E+00 0.  1.
       -3    1    3    3    0  502  0.51264192381E+03  0.22433355930E+03 -0.18939780458E+03  0.59076122626E+03  0.10100000352E+00 0. -1.
</event>
<event>
 5   0  0.1552067E-03  0.1495757E+04  0.7818609E-02  0.8887280E-01
       -2   -1    0    0    0  501  0.00000000000E+00  0.00000000000E+00  0.82509218564E+03  0.82509218565E+03  0.25500000920E-02 0.  1.
        2   -1    0    0  501    0  0.00000000000E+00  0.00000000000E+00 -0.67789032314E+03  0.67789032314E+03  0.25500000920E-02 0. -1.
    10030    2    1    2    0    0  0.00000000000E+00  0.00000000000E+00  0.14720186251E+03  0.15029825088E+04  0.14957566759E+04 0.  0.
        3    1    3    3  502    0  0.49733332339E+03 -0.12667991526E+03 -0.47302500548E+03  0.69795479904E+03  0.10100000352E+00 0. -1.
       -3    1    3    3    0  502 -0.49733332339E+03  0.12667991526E+03  0.62022686799E+03  0.80502770975E+03  0.10100000352E+00 0.  1.
</event>
<event>
 5   0  0.1500956E-03  0.1501927E+04  0.7818609E-02  0.8883172E-01
       -2   -1    0    0    0  501  0.00000000000E+00  0.00000000000E+00  0.50660723358E+03  0.50660723358E+03  0.25500000920E-02 0.  1.
        2   -1    0    0  501    0  0.00000000000E+00  0.00000000000E+00 -0.11131825748E+04  0.11131825748E+04  0.25500000920E-02 0. -1.
    10030    2    1    2    0    0  0.00000000000E+00  0.00000000000E+00 -0.60657534120E+03  0.16197898084E+04  0.15019272215E+04 0.  0.
        4    1    3    3  502    0 -0.36590858582E+03  0.28810732621E+03  0.33205156639E+03  0.57197445767E+03  0.12699999809E+01 0.  1.
       -4    1    3    3    0  502  0.36590858582E+03 -0.28810732621E+03 -0.93862690758E+03  0.10478153507E+04  0.12699999809E+01 0. -1.
</event>
<event>
 5   0  0.8365016E-04  0.1442931E+04  0.7818609E-02  0.8923316E-01
       -1   -1    0    0    0  501  0.00000000000E+00  0.00000000000E+00  0.48325528303E+03  0.48325528306E+03  0.50400001928E-02 0.  1.
        1   -1    0    0  501    0  0.00000000000E+00  0.00000000000E+00 -0.10770962606E+04  0.10770962606E+04  0.50400001928E-02 0. -1.
    10030    2    1    2    0    0  0.00000000000E+00  0.00000000000E+00 -0.59384097760E+03  0.15603515437E+04  0.14429309870E+04 0.  0.
        3    1    3    3  502    0  0.96652804616E+02 -0.51120714664E+03 -0.83743341849E+03  0.98588500953E+03  0.10100000352E+00 0. -1.
       -3    1    3    3    0  502 -0.96652804616E+02  0.51120714664E+03  0.24359244089E+03  0.57446653417E+03  0.10100000352E+00 0.  1.
</event>
<event>
 5   0  0.1500956E-03  0.1492349E+04  0.7818609E-02  0.8889557E-01
        2   -1    0    0  501    0  0.00000000000E+00  0.00000000000E+00  0.10458440041E+04  0.10458440041E+04  0.25500000920E-02 0.  1.
       -2   -1    0    0    0  501  0.00000000000E+00  0.00000000000E+00 -0.53237005351E+03  0.53237005352E+03  0.25500000920E-02 0. -1.
    10030    2    1    2    0    0  0.00000000000E+00  0.00000000000E+00  0.51347395057E+03  0.15782140576E+04  0.14923485229E+04 0.  0.
        4    1    3    3  502    0 -0.23357841744E+01 -0.38793342573E+03  0.93080939982E+03  0.10084173493E+04  0.12699999809E+01 0.  1.
       -4    1    3    3    0  502  0.23357841744E+01  0.38793342573E+03 -0.41733544925E+03  0.56979670830E+03  0.12699999809E+01 0. -1.
</event>
<event>
 5   0  0.8058234E-04  0.1504103E+04  0.7818609E-02  0.8881729E-01
        1   -1    0    0  501    0  0.00000000000E+00  0.00000000000E+00  0.74188173536E+03  0.74188173538E+03  0.50400001928E-02 0.  1.
       -1   -1    0    0    0  501  0.00000000000E+00  0.00000000000E+00 -0.76236048619E+03  0.76236048621E+03  0.50400001928E-02 0. -1.
    10030    2    1    2    0    0  0.00000000000E+00  0.00000000000E+00 -0.20478750830E+02  0.15042422216E+04  0.15041028163E+04 0.  0.
        5    1    3    3  502    0 -0.63028210274E+03 -0.34571551670E+03  0.21065319217E+03  0.74911387979E+03  0.46999998093E+01 0. -1.
       -5    1    3    3    0  502  0.63028210274E+03  0.34571551670E+03 -0.23113194300E+03  0.75512834180E+03  0.46999998093E+01 0.  1.
</event>
<event>
 5   0  0.1511546E-03  0.1469070E+04  0.7818609E-02  0.8905286E-01
       -2   -1    0    0    0  501  0.00000000000E+00  0.00000000000E+00  0.19357338037E+04  0.19357338037E+04  0.25500000920E-02 0. -1.
        2   -1    0    0  501    0  0.00000000000E+00  0.00000000000E+00 -0.27872708796E+03  0.27872708797E+03  0.25500000920E-02 0.  1.
    10030    2    1    2    0    0  0.00000000000E+00  0.00000000000E+00  0.16570067157E+04  0.22144608916E+04  0.14690697004E+04 0.  0.
        1    1    3    3  502    0  0.33736826813E+03  0.64547505160E+03  0.97218897839E+03  0.12147455702E+04  0.50400001928E-02 0. -1.
       -1    1    3    3    0  502 -0.33736826813E+03 -0.64547505160E+03  0.68481773733E+03  0.99971532146E+03  0.50400001928E-02 0.  1.
</event>
<event>
 5   0  0.8191876E-04  0.1537017E+04  0.7818609E-02  0.8860203E-01
        1   -1    0    0  501    0  0.00000000000E+00  0.00000000000E+00  0.36921169824E+03  0.36921169828E+03  0.50400001928E-02 0. -1.
       -1   -1    0    0    0  501  0.00000000000E+00  0.00000000000E+00 -0.15996386919E+04  0.15996386919E+04  0.50400001928E-02 0.  1.
    10030    2    1    2    0    0  0.00000000000E+00  0.00000000000E+00 -0.12304269937E+04  0.19688503902E+04  0.15370170045E+04 0.  0.
        2    1    3    3  502    0  0.60788296142E+03 -0.57578040280E+02 -0.17447143014E+02  0.61085295146E+03  0.25500000920E-02 0. -1.
       -2    1    3    3    0  502 -0.60788296142E+03  0.57578040280E+02 -0.12129798506E+04  0.13579974387E+04  0.25500000920E-02 0.  1.
</event>
<event>
 5   0  0.1484056E-03  0.1511341E+04  0.7818609E-02  0.8876946E-01
       -2   -1    0    0    0  501  0.00000000000E+00  0.00000000000E+00  0.48789332476E+03  0.48789332477E+03  0.25500000920E-02 0. -1.
        2   -1    0    0  501    0  0.00000000000E+00  0.00000000000E+00 -0.11704150070E+04  0.11704150070E+04  0.25500000920E-02 0.  1.
    10030    2    1    2    0    0  0.00000000000E+00  0.00000000000E+00 -0.68252168224E+03  0.16583083318E+04  0.15113406884E+04 0.  0.
        5    1    3    3  502    0 -0.82997120881E+02  0.42452116757E+03  0.33859520112E+03  0.54934100886E+03  0.46999998093E+01 0. -1.
       -5    1    3    3    0  502  0.82997120881E+02 -0.42452116757E+03 -0.10211168834E+04  0.11089673229E+04  0.46999998093E+01 0.  1.
</event>
<event>
 5   0  0.8365016E-04  0.1503674E+04  0.7818609E-02  0.8882014E-01
        1   -1    0    0  501    0  0.00000000000E+00  0.00000000000E+00  0.17931196658E+04  0.17931196658E+04  0.50400001928E-02 0. -1.
       -1   -1    0    0    0  501  0.00000000000E+00  0.00000000000E+00 -0.31523748522E+03  0.31523748526E+03  0.50400001928E-02 0.  1.
    10030    2    1    2    0    0  0.00000000000E+00  0.00000000000E+00  0.14778821806E+04  0.21083571511E+04  0.15036735473E+04 0.  0.
        3    1    3    3  502    0  0.44223065054E+03  0.56292878506E+03  0.41674904367E+03  0.82833359278E+03  0.10100000352E+00 0.  1.
       -3    1    3    3    0  502 -0.44223065054E+03 -0.56292878506E+03  0.10611331369E+04  0.12800235583E+04  0.10100000352E+00 0. -1.
</event>
<event>
 5   0  0.8365016E-04  0.1682450E+04  0.7818609E-02  0.8771437E-01
       -1   -1    0    0    0  501  0.00000000000E+00  0.00000000000E+00  0.71763506103E+03  0.71763506104E+03  0.50400001928E-02 0.  1.
        1   -1    0    0  501    0  0.00000000000E+00  0.00000000000E+00 -0.98609979225E+03  0.98609979226E+03  0.50400001928E-02 0. -1.
    10030    2    1    2    0    0  0.00000000000E+00  0.00000000000E+00 -0.26846473122E+03  0.17037348533E+04  0.16824503376E+04 0.  0.
        3    1    3    3  502    0 -0.67048878021E+03 -0.22761837225E+03  0.32571011460E+03  0.77939233812E+03  0.10100000352E+00 0.  1.
       -3    1    3    3    0  502  0.67048878021E+03  0.22761837225E+03 -0.59417484582E+03  0.92434251519E+03  0.10100000352E+00 0. -1.
</event>
<event>
 5   0  0.5603875E-04  0.1499703E+04  0.7818609E-02  0.8884651E-01
        3   -1    0    0  501    0  0.00000000000E+00  0.00000000000E+00  0.44144004071E+03  0.44144005226E+03  0.10100000352E+00 0. -1.
       -3   -1    0    0    0  501  0.00000000000E+00  0.00000000000E+00 -0.12737334196E+04  0.12737334236E+04  0.10100000352E+00 0.  1.
    10030    2    1    2    0    0  0.00000000000E+00  0.00000000000E+00 -0.83229337889E+03  0.17151734759E+04  0.14997025651E+04 0.  0.
        1    1    3    3  502    0  0.19831862580E+03 -0.40122831752E+03  0.27192661832E+03  0.52369697908E+03  0.50400001928E-02 0. -1.
       -1    1    3    3    0  502 -0.19831862580E+03  0.40122831752E+03 -0.11042199972E+04  0.11914764968E+04  0.50400001928E-02 0.  1.
</event>
<event>
 5   0  0.8365016E-04  0.1528588E+04  0.7818609E-02  0.8865662E-01
        1   -1    0    0  501    0  0.00000000000E+00  0.00000000000E+00  0.10537965199E+04  0.10537965199E+04  0.50400001928E-02 0.  1.
       -1   -1    0    0    0  501  0.00000000000E+00  0.00000000000E+00 -0.55432461595E+03  0.55432461597E+03  0.50400001928E-02 0. -1.
    10030    2    1    2    0    0  0.00000000000E+00  0.00000000000E+00  0.49947190397E+03  0.16081211359E+04  0.15285880429E+04 0.  0.
        3    1    3    3  502    0 -0.23229830735E+03  0.53412787307E+03  0.77034780486E+03  0.96575920345E+03  0.10100000352E+00 0.  1.
       -3    1    3    3    0  502  0.23229830735E+03 -0.53412787307E+03 -0.27087590089E+03  0.64236193246E+03  0.10100000352E+00 0. -1.
</event>
<event>
 5   0  0.8191876E-04  0.1527844E+04  0.7818609E-02  0.8866145E-01
        1   -1    0    0  501    0  0.00000000000E+00  0.00000000000E+00  0.10034648648E+04  0.10034648648E+04  0.50400001928E-02 0. -1.
       -1   -1    0    0    0  501  0.00000000000E+00  0.00000000000E+00 -0.58156156844E+03  0.58156156846E+03  0.50400001928E-02 0.  1.
    10030    2    1    2    0    0  0.00000000000E+00  0.00000000000E+00  0.42190329634E+03  0.15850264332E+04  0.15278437101E+04 0.  0.
        2    1    3    3  502    0 -0.26804054370E+03 -0.71214745805E+03  0.28113622043E+03  0.81119498859E+03  0.25500000920E-02 0. -1.
       -2    1    3    3    0  502  0.26804054370E+03  0.71214745805E+03  0.14076707591E+03  0.77383144466E+03  0.25500000920E-02 0.  1.
</event>
<event>
 5   0  0.8058234E-04  0.1476263E+04  0.7818609E-02  0.8900393E-01
       -1   -1    0    0    0  501  0.00000000000E+00  0.00000000000E+00  0.87979012092E+03  0.87979012093E+03  0.50400001928E-02 0. -1.
        1   -1    0    0  501    0  0.00000000000E+00  0.00000000000E+00 -0.61928208261E+03  0.61928208263E+03  0.50400001928E-02 0.  1.
    10030    2    1    2    0    0  0.00000000000E+00  0.00000000000E+00  0.26050803831E+03  0.14990722036E+04  0.14762631993E+04 0.  0.
        5    1    3    3  502    0 -0.83717445105E+02 -0.55101846211E+02 -0.61232525132E+03  0.62049103739E+03  0.46999998093E+01 0.  1.
       -5    1    3    3    0  502  0.83717445105E+02  0.55101846211E+02  0.87283328963E+03  0.87858116617E+03  0.46999998093E+01 0. -1.
</event>
<event>
 5   0  0.1484056E-03  0.1280327E+04  0.7818609E-02  0.9045313E-01
       -2   -1    0    0    0  501  0.00000000000E+00  0.00000000000E+00  0.96621721659E+03  0.96621721660E+03  0.25500000920E-02 0.  1.
        2   -1    0    0  501    0  0.00000000000E+00  0.00000000000E+00 -0.42413770693E+03  0.42413770693E+03  0.25500000920E-02 0. -1.
    10030    2    1    2    0    0  0.00000000000E+00  0.00000000000E+00  0.54207950967E+03  0.13903549235E+04  0.12803267624E+04 0.  0.
        5    1    3    3  502    0 -0.52773232101E+03  0.29533584623E+03  0.43090104875E+02  0.60630315177E+03  0.46999998093E+01 0. -1.
       -5    1    3    3    0  502  0.52773232101E+03 -0.29533584623E+03  0.49898940479E+03  0.78405177176E+03  0.46999998093E+01 0.  1.
</event>
<event>
 5   0  0.5603875E-04  0.1498711E+04  0.7818609E-02  0.8885311E-01
        3   -1    0    0  501    0  0.00000000000E+00  0.00000000000E+00  0.81727195460E+03  0.81727196084E+03  0.10100000352E+00 0. -1.
       -3   -1    0    0    0  501  0.00000000000E+00  0.00000000000E+00 -0.68708260469E+03  0.68708261212E+03  0.10100000352E+00 0.  1.
    10030    2    1    2    0    0  0.00000000000E+00  0.00000000000E+00  0.13018934991E+03  0.15043545730E+04  0.14987105839E+04 0.  0.
        2    1    3    3  502    0  0.29823759762E+03  0.64562828965E+03  0.30210206354E+03  0.77268830057E+03  0.25500000920E-02 0. -1.
       -2    1    3    3    0  502 -0.29823759762E+03 -0.64562828965E+03 -0.17191271363E+03  0.73166627239E+03  0.25500000920E-02 0.  1.
</event>
<event>
 5   0  0.1511546E-03  0.1511908E+04  0.7818609E-02  0.8876573E-01
       -2   -1    0    0    0  501  0.00000000000E+00  0.00000000000E+00  0.31598115268E+03  0.31598115269E+03  0.25500000920E-02 0. -1.
        2   -1    0    0  501    0  0.00000000000E+00  0.00000000000E+00 -0.18085451079E+04  0.18085451079E+04  0.25500000920E-02 0.  1.
    10030    2    1    2    0    0  0.00000000000E+00  0.00000000000E+00 -0.14925639552E+04  0.21245262606E+04  0.15119076266E+04 0.  0.
        1    1    3    3  502    0 -0.13575076975E+03  0.70342442758E+03 -0.40718994076E+03  0.82403752626E+03  0.50400001928E-02 0.  1.
       -1    1    3    3    0  502  0.13575076975E+03 -0.70342442758E+03 -0.10853740144E+04  0.13004887343E+04  0.50400001928E-02 0. -1.
</event>
<event>
 5   0  0.7870317E-04  0.1501739E+04  0.7818609E-02  0.8883298E-01
        1   -1    0    0  501    0  0.00000000000E+00  0.00000000000E+00  0.83427511169E+03  0.83427511171E+03  0.50400001928E-02 0. -1.
       -1   -1    0    0    0  501  0.00000000000E+00  0.00000000000E+00 -0.67580201411E+03  0.67580201413E+03  0.50400001928E-02 0.  1.
    10030    2    1    2    0    0  0.00000000000E+00  0.00000000000E+00  0.15847309759E+03  0.15100771258E+04  0.15017387267E+04 0.  0.
        1    1    3    3  502    0  0.67706858387E+03  0.32431570550E+03  0.64935884430E+02  0.75353779813E+03  0.50400001928E-02 0.  1.
       -1    1    3    3    0  502 -0.67706858387E+03 -0.32431570550E+03  0.93537213157E+02  0.75653932771E+03  0.50400001928E-02 0. -1.
</event>
<event>
 5   0  0.1500956E-03  0.1440011E+04  0.7818609E-02  0.8925355E-01
        2   -1    0    0  501    0  0.00000000000E+00  0.00000000000E+00  0.57491052771E+03  0.57491052772E+03  0.25500000920E-02 0. -1.
       -2   -1    0    0    0  501  0.00000000000E+00  0.00000000000E+00 -0.90171943177E+03  0.90171943177E+03  0.25500000920E-02 0.  1.
    10030    2    1    2    0    0  0.00000000000E+00  0.00000000000E+00 -0.32680890406E+03  0.14766299595E+04  0.14400111033E+04 0.  0.
        4    1    3    3  502    0 -0.26738089185E+03  0.66840944046E+03 -0.15115668242E+03  0.73560429374E+03  0.12699999809E+01 0. -1.
       -4    1    3    3    0  502  0.26738089185E+03 -0.66840944046E+03 -0.17565222164E+03  0.74102566575E+03  0.12699999809E+01 0.  1.
</event>
<event>
 5   0  0.1552067E-03  0.1455004E+04  0.7818609E-02  0.8914939E-01
        2   -1    0    0  501    0  0.00000000000E+00  0.00000000000E+00  0.10158861032E+04  0.10158861032E+04  0.25500000920E-02 0. -1.
       -2   -1    0    0    0  501  0.00000000000E+00  0.00000000000E+00 -0.52098263123E+03  0.52098263123E+03  0.25500000920E-02 0.  1.
    10030    2    1    2    0    0  0.00000000000E+00  0.00000000000E+00  0.49490347193E+03  0.15368687344E+04  0.14550038008E+04 0.  0.
        3    1    3    3  502    0 -0.23071765856E+03  0.41521278769E+03 -0.33457459554E+03  0.58100986843E+03  0.10100000352E+00 0.  1.
       -3    1    3    3    0  502  0.23071765856E+03 -0.41521278769E+03  0.82947806747E+03  0.95585886596E+03  0.10100000352E+00 0. -1.
</event>
<event>
 5   0  0.8365016E-04  0.1491406E+04  0.7818609E-02  0.8890188E-01
       -1   -1    0    0    0  501  0.00000000000E+00  0.00000000000E+00  0.38670667598E+03  0.38670667602E+03  0.50400001928E-02 0. -1.
        1   -1    0    0  501    0  0.00000000000E+00  0.00000000000E+00 -0.14379700524E+04  0.14379700524E+04  0.50400001928E-02 0.  1.
    10030    2    1    2    0    0  0.00000000000E+00  0.00000000000E+00 -0.10512633764E+04  0.18246767284E+04  0.14914055373E+04 0.  0.
        3    1    3    3  502    0 -0.24250341953E+03 -0.15572086000E+02  0.33690599966E+03  0.41539867736E+03  0.10100000352E+00 0. -1.
       -3    1    3    3    0  502  0.24250341953E+03  0.15572086000E+02 -0.13881693760E+04  0.14092780510E+04  0.10100000352E+00 0.  1.
</event>
<event>
 5   0  0.8058234E-04  0.1433820E+04  0.7818609E-02  0.8929696E-01
        1   -1    0    0  501    0  0.00000000000E+00  0.00000000000E+00  0.17586792407E+04  0.17586792407E+04  0.50400001928E-02 0. -1.
       -1   -1    0    0    0  501  0.00000000000E+00  0.00000000000E+00 -0.29224182955E+03  0.29224182960E+03  0.50400001928E-02 0.  1.
    10030    2    1    2    0    0  0.00000000000E+00  0.00000000000E+00  0.14664374112E+04  0.20509210703E+04  0.14338195688E+04 0.  0.
        5    1    3    3  502    0 -0.13926849268E+03 -0.38893716831E+03 -0.10483565135E+03  0.42623988286E+03  0.46999998093E+01 0.  1.
       -5    1    3    3    0  502  0.13926849268E+03  0.38893716831E+03  0.15712730625E+04  0.16246811875E+04  0.46999998093E+01 0. -1.
</event>
<event>
 5   0  0.5603875E-04  0.1525802E+04  0.7818609E-02  0.8867474E-01
        3   -1    0    0  501    0  0.00000000000E+00  0.00000000000E+00  0.87650160019E+03  0.87650160601E+03  0.10100000352E+00 0.  1.
       -3   -1    0    0    0  501  0.00000000000E+00  0.00000000000E+00 -0.66402423681E+03  0.66402424449E+03  0.10100000352E+00 0. -1.
    10030    2    1    2    0    0  0.00000000000E+00  0.00000000000E+00  0.21247736338E+03  0.15405258505E+04  0.15258024990E+04 0.  0.
        5    1    3    3  502    0 -0.76202007080E+03 -0.11758166909E+02  0.14097097552E+03  0.77505338444E+03  0.46999998093E+01 0. -1.
       -5    1    3    3    0  502  0.76202007080E+03  0.11758166909E+02  0.71506387861E+02  0.76547246606E+03  0.46999998093E+01 0.  1.
</event>
<event>
 5   0  0.8306301E-04  0.1450743E+04  0.7818609E-02  0.8917885E-01
        1   -1    0    0  501    0  0.00000000000E+00  0.00000000000E+00  0.87926784063E+03  0.87926784065E+03  0.50400001928E-02 0. -1.
       -1   -1    0    0    0  501  0.00000000000E+00  0.00000000000E+00 -0.59841160329E+03  0.59841160331E+03  0.50400001928E-02 0.  1.
    10030    2    1    2    0    0  0.00000000000E+00  0.00000000000E+00  0.28085623735E+03  0.14776794440E+04  0.14507433657E+04 0.  0.
        4    1    3    3  502    0  0.21772797019E+03  0.43317622587E+03 -0.40914083974E+03  0.63438549109E+03  0.12699999809E+01 0.  1.
       -4    1    3    3    0  502 -0.21772797019E+03 -0.43317622587E+03  0.68999707709E+03  0.84329395287E+03  0.12699999809E+01 0. -1.
</event>
<event>
 5   0  0.1484056E-03  0.1481223E+04  0.7818609E-02  0.8897036E-01
       -2   -1    0    0    0  501  0.00000000000E+00  0.00000000000E+00  0.62022768739E+03  0.62022768740E+03  0.25500000920E-02 0.  1.
        2   -1    0    0  501    0  0.00000000000E+00  0.00000000000E+00 -0.88436120506E+03  0.88436120506E+03  0.25500000920E-02 0. -1.
    10030    2    1    2    0    0  0.00000000000E+00  0.00000000000E+00 -0.26413351767E+03  0.15045888925E+04  0.14812228800E+04 0.  0.
        5    1    3    3  502    0  0.15061325691E+03  0.71449030062E+02 -0.86504095116E+03  0.88096949677E+03  0.46999998093E+01 0. -1.
       -5    1    3    3    0  502 -0.15061325691E+03 -0.71449030062E+02  0.60090743349E+03  0.62361939569E+03  0.46999998093E+01 0.  1.
</event>
<event>
 5   0  0.1526126E-03  0.1543314E+04  0.7818609E-02  0.8856150E-01
        2   -1    0    0  501    0  0.00000000000E+00  0.00000000000E+00  0.15025236813E+04  0.15025236813E+04  0.25500000920E-02 0. -1.
       -2   -1    0    0    0  501  0.00000000000E+00  0.00000000000E+00 -0.39630306706E+03  0.39630306707E+03  0.25500000920E-02 0.  1.
    10030    2    1    2    0    0  0.00000000000E+00  0.00000000000E+00  0.11062206142E+04  0.18988267484E+04  0.15433142820E+04 0.  0.
        2    1    3    3  502    0  0.18932466158E+03 -0.52979848072E+03 -0.96681582042E+02  0.57085688746E+03  0.25500000920E-02 0.  1.
       -2    1    3    3    0  502 -0.18932466158E+03  0.52979848072E+03  0.12029021963E+04  0.13279698609E+04  0.25500000920E-02 0. -1.
</event>
<event>
 5   0  0.1552067E-03  0.1530371E+04  0.7818609E-02  0.8864504E-01
       -2   -1    0    0    0  501  0.00000000000E+00  0.00000000000E+00  0.50143494131E+03  0.50143494131E+03  0.25500000920E-02 0. -1.
        2   -1    0    0  501    0  0.00000000000E+00  0.00000000000E+00 -0.11676668082E+04  0.11676668082E+04  0.25500000920E-02 0.  1.
    10030    2    1    2    0    0  0.00000000000E+00  0.00000000000E+00 -0.66623186687E+03  0.16691017495E+04  0.15303711150E+04 0.  0.
        3    1    3    3  502    0 -0.47856874042E+03  0.11999733055E+03 -0.97101338104E+03  0.10891714259E+04  0.10100000352E+00 0.  1.
       -3    1    3    3    0  502  0.47856874042E+03 -0.11999733055E+03  0.30478151417E+03  0.57993032359E+03  0.10100000352E+00 0. -1.
</event>
<event>
 5   0  0.1526126E-03  0.1517108E+04  0.7818609E-02  0.8873155E-01
        2   -1    0    0  501    0  0.00000000000E+00  0.00000000000E+00  0.58451189092E+03  0.58451189093E+03  0.25500000920E-02 0.  1.
       -2   -1    0    0    0  501  0.00000000000E+00  0.00000000000E+00 -0.98441871291E+03  0.98441871291E+03  0.25500000920E-02 0. -1.
    10030    2    1    2    0    0  0.00000000000E+00  0.00000000000E+00 -0.39990682198E+03  0.15689306038E+04  0.15171083591E+04 0.  0.
        2    1    3    3  502    0  0.35036336146E+03 -0.63451365550E+02  0.49271969839E+03  0.60790892577E+03  0.25500000920E-02 0.  1.
       -2    1    3    3    0  502 -0.35036336146E+03  0.63451365550E+02 -0.89262652037E+03  0.96102167807E+03  0.25500000920E-02 0. -1.
</event>
<event>
 5   0  0.1552067E-03  0.1513297E+04  0.7818609E-02  0.8875659E-01
        2   -1    0    0  501    0  0.00000000000E+00  0.00000000000E+00  0.50217124152E+03  0.50217124153E+03  0.25500000920E-02 0.  1.
       -2   -1    0    0    0  501  0.00000000000E+00  0.00000000000E+00 -0.11400825792E+04  0.11400825792E+04  0.25500000920E-02 0. -1.
    10030    2    1    2    0    0  0.00000000000E+00  0.00000000000E+00 -0.63791133772E+03  0.16422538208E+04  0.15132966454E+04 0.  0.
        3    1    3    3  502    0 -0.71587529342E+01 -0.63767129904E+03  0.12298281963E+03  0.64946186762E+03  0.10100000352E+00 0.  1.
       -3    1    3    3    0  502  0.71587529342E+01  0.63767129904E+03 -0.76089415736E+03  0.99279195316E+03  0.10100000352E+00 0. -1.
</event>
<event>
 5   0  0.1484056E-03  0.1496347E+04  0.7818609E-02  0.8886886E-01
       -2   -1    0    0    0  501  0.00000000000E+00  0.00000000000E+00  0.70464699181E+03  0.70464699181E+03  0.25500000920E-02 0.  1.
        2   -1    0    0  501    0  0.00000000000E+00  0.00000000000E+00 -0.79438884892E+03  0.79438884893E+03  0.25500000920E-02 0. -1.
    10030    2    1    2    0    0  0.00000000000E+00  0.00000000000E+00 -0.89741857118E+02  0.14990358407E+04  0.14963471692E+04 0.  0.
        5    1    3    3  502    0  0.49430408119E+03  0.12854763527E+03  0.50281113227E+03  0.71673017513E+03  0.46999998093E+01 0.  1.
       -5    1    3    3    0  502 -0.49430408119E+03 -0.12854763527E+03 -0.59255298938E+03  0.78230566561E+03  0.46999998093E+01 0. -1.
</event>
<event>
 5   0  0.1500956E-03  0.1026254E+04  0.7818609E-02  0.9280209E-01
       -2   -1    0    0    0  501  0.00000000000E+00  0.00000000000E+00  0.32610957948E+03  0.32610957949E+03  0.25500000920E-02 0. -1.
        2   -1    0    0  501    0  0.00000000000E+00  0.00000000000E+00 -0.80739594963E+03  0.80739594963E+03  0.25500000920E-02 0.  1.
    10030    2    1    2    0    0  0.00000000000E+00  0.00000000000E+00 -0.48128637015E+03  0.11335055291E+04  0.10262544589E+04 0.  0.
        4    1    3    3  502    0  0.98384486070E+02 -0.15532512153E+03  0.28847522479E+03  0.34208912391E+03  0.12699999809E+01 0. -1.
       -4    1    3    3    0  502 -0.98384486070E+02  0.15532512153E+03 -0.76976159495E+03  0.79141640521E+03  0.12699999809E+01 0.  1.
</event>
<event>
 5   0  0.1500956E-03  0.1508218E+04  0.7818609E-02  0.8879006E-01
        2   -1    0    0  501    0  0.00000000000E+00  0.00000000000E+00  0.12165749397E+04  0.12165749397E+04  0.25500000920E-02 0. -1.
       -2   -1    0    0    0  501  0.00000000000E+00  0.00000000000E+00 -0.46744390589E+03  0.46744390589E+03  0.25500000920E-02 0.  1.
    10030    2    1    2    0    0  0.00000000000E+00  0.00000000000E+00  0.74913103382E+03  0.16840188456E+04  0.15082182092E+04 0.  0.
        4    1    3    3  502    0  0.45540041570E+03 -0.10122430954E+03  0.10361159289E+04  0.11362982577E+04  0.12699999809E+01 0. -1.
       -4    1    3    3    0  502 -0.45540041570E+03  0.10122430954E+03 -0.28698489510E+03  0.54772058787E+03  0.12699999809E+01 0.  1.
</event>
<event>
 5   0  0.7870317E-04  0.1559194E+04  0.7818609E-02  0.8846016E-01
        1   -1    0    0  501    0  0.00000000000E+00  0.00000000000E+00  0.10645315579E+04  0.10645315579E+04  0.50400001928E-02 0. -1.
       -1   -1    0    0    0  501  0.00000000000E+00  0.00000000000E+00 -0.57092875603E+03  0.57092875606E+03  0.50400001928E-02 0.  1.
    10030    2    1    2    0    0  0.00000000000E+00  0.00000000000E+00  0.49360280185E+03  0.16354603140E+04  0.15591942511E+04 0.  0.
        1    1    3    3  502    0  0.59613327410E+02 -0.20335706953E+03  0.10337411030E+04  0.10552386055E+04  0.50400001928E-02 0. -1.
       -1    1    3    3    0  502 -0.59613327410E+02  0.20335706953E+03 -0.54013830115E+03  0.58022170843E+03  0.50400001928E-02 0.  1.
</event>
<event>
 5   0  0.1526126E-03  0.1489089E+04  0.7818609E-02  0.8891741E-01
       -2   -1    0    0    0  501  0.00000000000E+00  0.00000000000E+00  0.31023094983E+03  0.31023094984E+03  0.25500000920E-02 0. -1.
        2   -1    0    0  501    0  0.00000000000E+00  0.00000000000E+00 -0.17868822963E+04  0.17868822963E+04  0.25500000920E-02 0.  1.
    10030    2    1    2    0    0  0.00000000000E+00  0.00000000000E+00 -0.14766513465E+04  0.20971132462E+04  0.14890885696E+04 0.  0.
        2    1    3    3  502    0 -0.29260720118E+01  0.65038414017E+03 -0.12487092824E+04  0.14079357101E+04  0.25500000920E-02 0. -1.
       -2    1    3    3    0  502  0.29260720118E+01 -0.65038414017E+03 -0.22794206406E+03  0.68917753609E+03  0.25500000920E-02 0.  1.
</event>
<event>
 5   0  0.8058234E-04  0.1521049E+04  0.7818609E-02  0.8870575E-01
        1   -1    0    0  501    0  0.00000000000E+00  0.00000000000E+00  0.87919053480E+03  0.87919053481E+03  0.50400001928E-02 0.  1.
       -1   -1    0    0    0  501  0.00000000000E+00  0.00000000000E+00 -0.65787540645E+03  0.65787540647E+03  0.50400001928E-02 0. -1.
    10030    2    1    2    0    0  0.00000000000E+00  0.00000000000E+00  0.22131512835E+03  0.15370659413E+04  0.15210494146E+04 0.  0.
        5    1    3    3  502    0 -0.31848736387E+03  0.60018840258E+03 -0.23457622619E+03  0.71882432863E+03  0.46999998093E+01 0. -1.
       -5    1    3    3    0  502  0.31848736387E+03 -0.60018840258E+03  0.45589135454E+03  0.81824161265E+03  0.46999998093E+01 0.  1.
</event>
<event>
 5   0  0.8306301E-04  0.1500818E+04  0.7818609E-02  0.8883909E-01
        1   -1    0    0  501    0  0.00000000000E+00  0.00000000000E+00  0.83054540728E+03  0.83054540729E+03  0.50400001928E-02 0. -1.
       -1   -1    0    0    0  501  0.00000000000E+00  0.00000000000E+00 -0.67800450840E+03  0.67800450841E+03  0.50400001928E-02 0.  1.
    10030    2    1    2    0    0  0.00000000000E+00  0.00000000000E+00  0.15254089888E+03  0.15085499157E+04  0.15008178178E+04 0.  0.
        4    1    3    3  502    0  0.22731259546E+03 -0.59936822142E+03 -0.31586588886E+03  0.71462308495E+03  0.12699999809E+01 0.  1.
       -4    1    3    3    0  502 -0.22731259546E+03  0.59936822142E+03  0.46840678774E+03  0.79392683076E+03  0.12699999809E+01 0. -1.
</event>
<event>
 5   0  0.8058234E-04  0.1649349E+04  0.7818609E-02  0.8790791E-01
        1   -1    0    0  501    0  0.00000000000E+00  0.00000000000E+00  0.54379574903E+03  0.54379574905E+03  0.50400001928E-02 0.  1.
       -1   -1    0    0    0  501  0.00000000000E+00  0.00000000000E+00 -0.12506319049E+04  0.12506319049E+04  0.50400001928E-02 0. -1.
    10030    2    1    2    0    0  0.00000000000E+00  0.00000000000E+00 -0.70683615589E+03  0.17944276540E+04  0.16493493427E+04 0.  0.
        5    1    3    3  502    0  0.54639434842E+02  0.52466417539E+03 -0.10430585355E+04  0.11688674704E+04  0.46999998093E+01 0. -1.
       -5    1    3    3    0  502 -0.54639434842E+02 -0.52466417539E+03  0.33622237961E+03  0.62556018362E+03  0.46999998093E+01 0.  1.
</event>
<event>
 5   0  0.1511546E-03  0.1569154E+04  0.7818609E-02  0.8839725E-01
       -2   -1    0    0    0  501  0.00000000000E+00  0.00000000000E+00  0.33611083411E+03  0.33611083412E+03  0.25500000920E-02 0. -1.
        2   -1    0    0  501    0  0.00000000000E+00  0.00000000000E+00 -0.18314223998E+04  0.18314223998E+04  0.25500000920E-02 0.  1.
    10030    2    1    2    0    0  0.00000000000E+00  0.00000000000E+00 -0.14953115657E+04  0.21675332339E+04  0.15691537980E+04 0.  0.
        1    1    3    3  502    0  0.26731629357E+02 -0.72162373771E+03 -0.11714039012E+04  0.13760968347E+04  0.50400001928E-02 0.  1.
       -1    1    3    3    0  502 -0.26731629357E+02  0.72162373771E+03 -0.32390766456E+03  0.79143639922E+03  0.50400001928E-02 0. -1.
</event>
<event>
 5   0  0.1552067E-03  0.1498455E+04  0.7818609E-02  0.8885481E-01
        2   -1    0    0  501    0  0.00000000000E+00  0.00000000000E+00  0.13346252953E+04  0.13346252953E+04  0.25500000920E-02 0. -1.
       -2   -1    0    0    0  501  0.00000000000E+00  0.00000000000E+00 -0.42059869405E+03  0.42059869406E+03  0.25500000920E-02 0.  1.
    10030    2    1    2    0    0  0.00000000000E+00  0.00000000000E+00  0.91402660128E+03  0.17552239894E+04  0.14984547458E+04 0.  0.
        3    1    3    3  502    0  0.35050899987E+03  0.32586963432E+03 -0.21821433542E+03  0.52598962342E+03  0.10100000352E+00 0.  1.
       -3    1    3    3    0  502 -0.35050899987E+03 -0.32586963432E+03  0.11322409367E+04  0.12292343660E+04  0.10100000352E+00 0. -1.
</event>
<event>
 5   0  0.1484056E-03  0.1485775E+04  0.7818609E-02  0.8893968E-01
        2   -1    0    0  501    0  0.00000000000E+00  0.00000000000E+00  0.15058161525E+04  0.15058161525E+04  0.25500000920E-02 0.  1.
       -2   -1    0    0    0  501  0.00000000000E+00  0.00000000000E+00 -0.36650008393E+03  0.36650008394E+03  0.25500000920E-02 0. -1.
    10030    2    1    2    0    0  0.00000000000E+00  0.00000000000E+00  0.11393160686E+04  0.18723162364E+04  0.14857748770E+04 0.  0.
        5    1    3    3  502    0  0.46431540364E+03  0.54924085542E+03  0.33523634871E+03  0.79351106534E+03  0.46999998093E+01 0.  1.
       -5    1    3    3    0  502 -0.46431540364E+03 -0.54924085542E+03  0.80407971986E+03  0.10788051711E+04  0.46999998093E+01 0. -1.
</event>
<event>
 5   0  0.8058234E-04  0.1503281E+04  0.7818609E-02  0.8882274E-01
        1   -1    0    0  501    0  0.00000000000E+00  0.00000000000E+00  0.98447656140E+03  0.98447656141E+03  0.50400001928E-02 0. -1.
       -1   -1    0    0    0  501  0.00000000000E+00  0.00000000000E+00 -0.57387186046E+03  0.57387186048E+03  0.50400001928E-02 0.  1.
    10030    2    1    2    0    0  0.00000000000E+00  0.00000000000E+00  0.41060470094E+03  0.15583484219E+04  0.15032809397E+04 0.  0.
        5    1    3    3  502    0 -0.48363255513E+02  0.27378917957E+03  0.92919617442E+03  0.96991089276E+03  0.46999998093E+01 0. -1.
       -5    1    3    3    0  502  0.48363255513E+02 -0.27378917957E+03 -0.51859147348E+03  0.58843752914E+03  0.46999998093E+01 0.  1.
</event>
<event>
 5   0  0.1552067E-03  0.1338366E+04  0.7818609E-02  0.8999682E-01
       -2   -1    0    0    0  501  0.00000000000E+00  0.00000000000E+00  0.15109989902E+04  0.15109989902E+04  0.25500000920E-02 0. -1.
        2   -1    0    0  501    0  0.00000000000E+00  0.00000000000E+00 -0.29636399817E+03  0.29636399818E+03  0.25500000920E-02 0.  1.
    10030    2    1    2    0    0  0.00000000000E+00  0.00000000000E+00  0.12146349921E+04  0.18073629884E+04  0.13383657228E+04 0.  0.
        3    1    3    3  502    0 -0.56805960432E+03 -0.49443238956E+02  0.13434204470E+03  0.58581920685E+03  0.10100000352E+00 0.  1.
       -3    1    3    3    0  502  0.56805960432E+03  0.49443238956E+02  0.10802929474E+04  0.12215437816E+04  0.10100000352E+00 0. -1.
</event>
<event>
 5   0  0.1500956E-03  0.1500774E+04  0.7818609E-02  0.8883939E-01
        2   -1    0    0  501    0  0.00000000000E+00  0.00000000000E+00  0.80043547299E+03  0.80043547299E+03  0.25500000920E-02 0. -1.
       -2   -1    0    0    0  501  0.00000000000E+00  0.00000000000E+00 -0.70346763388E+03  0.70346763388E+03  0.25500000920E-02 0.  1.
    10030    2    1    2    0    0  0.00000000000E+00  0.00000000000E+00  0.96967839110E+02  0.15039031069E+04  0.15007737315E+04 0.  0.
        4    1    3    3  502    0 -0.37465535582E+03 -0.11563229729E+03 -0.59264808548E+03  0.71061299590E+03  0.12699999809E+01 0.  1.
       -4    1    3    3    0  502  0.37465535582E+03  0.11563229729E+03  0.68961592459E+03  0.79329011098E+03  0.12699999809E+01 0. -1.
</event>
<event>
 5   0  0.1484056E-03  0.1497060E+04  0.7818609E-02  0.8886411E-01
       -2   -1    0    0    0  501  0.00000000000E+00  0.00000000000E+00  0.60637378400E+03  0.60637378401E+03  0.25500000920E-02 0.  1.
        2   -1    0    0  501    0  0.00000000000E+00  0.00000000000E+00 -0.92401227556E+03  0.92401227556E+03  0.25500000920E-02 0. -1.
    10030    2    1    2    0    0  0.00000000000E+00  0.00000000000E+00 -0.31763849156E+03  0.15303860596E+04  0.14970595446E+04 0.  0.
        5    1    3    3  502    0  0.41012419055E+03  0.51260968370E+03  0.20877459541E+03  0.68889727912E+03  0.46999998093E+01 0.  1.
       -5    1    3    3    0  502 -0.41012419055E+03 -0.51260968370E+03 -0.52641308697E+03  0.84148878045E+03  0.46999998093E+01 0. -1.
</event>
<event>
 5   0  0.8058234E-04  0.1512783E+04  0.7818609E-02  0.8875996E-01
        1   -1    0    0  501    0  0.00000000000E+00  0.00000000000E+00  0.93608964629E+03  0.93608964630E+03  0.50400001928E-02 0. -1.
       -1   -1    0    0    0  501  0.00000000000E+00  0.00000000000E+00 -0.61118979293E+03  0.61118979296E+03  0.50400001928E-02 0.  1.
    10030    2    1    2    0    0  0.00000000000E+00  0.00000000000E+00  0.32489985335E+03  0.15472794393E+04  0.15127834440E+04 0.  0.
        5    1    3    3  502    0  0.26945133514E+02 -0.58041188298E+03 -0.33284695530E+03  0.66963660278E+03  0.46999998093E+01 0. -1.
       -5    1    3    3    0  502 -0.26945133514E+02  0.58041188298E+03  0.65774680865E+03  0.87764283648E+03  0.46999998093E+01 0.  1.
</event>
<event>
 5   0  0.1552067E-03  0.1500088E+04  0.7818609E-02  0.8884395E-01
       -2   -1    0    0    0  501  0.00000000000E+00  0.00000000000E+00  0.38050694257E+03  0.38050694257E+03  0.25500000920E-02 0. -1.
        2   -1    0    0  501    0  0.00000000000E+00  0.00000000000E+00 -0.14784640833E+04  0.14784640833E+04  0.25500000920E-02 0.  1.
    10030    2    1    2    0    0  0.00000000000E+00  0.00000000000E+00 -0.10979571407E+04  0.18589710259E+04  0.15000877948E+04 0.  0.
        3    1    3    3  502    0 -0.20737079395E+03  0.19443911174E+03  0.31116270890E+03  0.42146346931E+03  0.10100000352E+00 0. -1.
       -3    1    3    3    0  502  0.20737079395E+03 -0.19443911174E+03 -0.14091198496E+04  0.14375075566E+04  0.10100000352E+00 0.  1.
</event>
<event>
 5   0  0.1511546E-03  0.1497209E+04  0.7818609E-02  0.8886311E-01
       -2   -1    0    0    0  501  0.00000000000E+00  0.00000000000E+00  0.32927812506E+03  0.32927812507E+03  0.25500000920E-02 0. -1.
        2   -1    0    0  501    0  0.00000000000E+00  0.00000000000E+00 -0.17019316452E+04  0.17019316452E+04  0.25500000920E-02 0.  1.
    10030    2    1    2    0    0  0.00000000000E+00  0.00000000000E+00 -0.13726535202E+04  0.20312097703E+04  0.14972092187E+04 0.  0.
        1    1    3    3  502    0  0.44100095001E+02 -0.28635229407E+03 -0.16227850256E+04  0.16484458420E+04  0.50400001928E-02 0.  1.
       -1    1    3    3    0  502 -0.44100095001E+02  0.28635229407E+03  0.25013150549E+03  0.38276392824E+03  0.50400001928E-02 0. -1.
</event>
<event>
 5   0  0.1500956E-03  0.1084227E+04  0.7818609E-02  0.9220703E-01
       -2   -1    0    0    0  501  0.00000000000E+00  0.00000000000E+00  0.20961687945E+03  0.20961687946E+03  0.25500000920E-02 0.  1.
        2   -1    0    0  501    0  0.00000000000E+00  0.00000000000E+00 -0.14020189646E+04  0.14020189646E+04  0.25500000920E-02 0. -1.
    10030    2    1    2    0    0  0.00000000000E+00  0.00000000000E+00 -0.11924020852E+04  0.16116358441E+04  0.10842266189E+04 0.  0.
        4    1    3    3  502    0  0.39076542491E+03 -0.90415970619E+02 -0.54083847897E+02  0.40472131220E+03  0.12699999809E+01 0.  1.
       -4    1    3    3    0  502 -0.39076542491E+03  0.90415970619E+02 -0.11383182373E+04  0.12069145319E+04  0.12699999809E+01 0. -1.
</event>
<event>
 5   0  0.1511546E-03  0.1498867E+04  0.7818609E-02  0.8885206E-01
        2   -1    0    0  501    0  0.00000000000E+00  0.00000000000E+00  0.82107762831E+03  0.82107762831E+03  0.25500000920E-02 0. -1.
       -2   -1    0    0    0  501  0.00000000000E+00  0.00000000000E+00 -0.68404121493E+03  0.68404121493E+03  0.25500000920E-02 0.  1.
    10030    2    1    2    0    0  0.00000000000E+00  0.00000000000E+00  0.13703641338E+03  0.15051188432E+04  0.14988674904E+04 0.  0.
        1    1    3    3  502    0  0.32791980354E+03  0.50886653391E+03  0.51214622773E+03  0.79295038022E+03  0.50400001928E-02 0. -1.
       -1    1    3    3    0  502 -0.32791980354E+03 -0.50886653391E+03 -0.37510981435E+03  0.71216846303E+03  0.50400001928E-02 0.  1.
</event>
<event>
 5   0  0.1552067E-03  0.1494084E+04  0.7818609E-02  0.8888396E-01
        2   -1    0    0  501    0  0.00000000000E+00  0.00000000000E+00  0.85911423952E+03  0.85911423952E+03  0.25500000920E-02 0. -1.
       -2   -1    0    0    0  501  0.00000000000E+00  0.00000000000E+00 -0.64958997511E+03  0.64958997512E+03  0.25500000920E-02 0.  1.
    10030    2    1    2    0    0  0.00000000000E+00  0.00000000000E+00  0.20952426441E+03  0.15087042146E+04  0.14940843316E+04 0.  0.
        3    1    3    3  502    0  0.35357798633E+03  0.17259926678E+03  0.74600679939E+03  0.84340622137E+03  0.10100000352E+00 0. -1.
       -3    1    3    3    0  502 -0.35357798633E+03 -0.17259926678E+03 -0.53648253498E+03  0.66529799327E+03  0.10100000352E+00 0.  1.
</event>
<event>
 5   0  0.1526126E-03  0.1298926E+04  0.7818609E-02  0.9030417E-01
       -2   -1    0    0    0  501  0.00000000000E+00  0.00000000000E+00  0.26027384954E+03  0.26027384955E+03  0.25500000920E-02 0.  1.
        2   -1    0    0  501    0  0.00000000000E+00  0.00000000000E+00 -0.16206104025E+04  0.16206104025E+04  0.25500000920E-02 0. -1.
    10030    2    1    2    0    0  0.00000000000E+00  0.00000000000E+00 -0.13603365530E+04  0.18808842521E+04  0.12989264923E+04 0.  0.
        2    1    3    3  502    0 -0.92659833524E+01  0.64312435100E+03 -0.81055303698E+03  0.10347420041E+04  0.25500000920E-02 0.  1.
       -2    1    3    3    0  502  0.92659833524E+01 -0.64312435100E+03 -0.54978351599E+03  0.84614224795E+03  0.25500000920E-02 0. -1.
</event>
<event>
 5   0  0.1511546E-03  0.1505365E+04  0.7818609E-02  0.8880893E-01
       -2   -1    0    0    0  501  0.00000000000E+00  0.00000000000E+00  0.15260512968E+04  0.15260512968E+04  0.25500000920E-02 0.  1.
        2   -1    0    0  501    0  0.00000000000E+00  0.00000000000E+00 -0.37124001591E+03  0.37124001592E+03  0.25500000920E-02 0. -1.
    10030    2    1    2    0    0  0.00000000000E+00  0.00000000000E+00  0.11548112809E+04  0.18972913128E+04  0.15053654808E+04 0.  0.
        1    1    3    3  502    0  0.56086881327E+03 -0.38285380101E+03  0.16826550227E+03  0.69961713667E+03  0.50400001928E-02 0. -1.
       -1    1    3    3    0  502 -0.56086881327E+03  0.38285380101E+03  0.98654577866E+03  0.11976741761E+04  0.50400001928E-02 0.  1.
</event>
<event>
 5   0  0.1526126E-03  0.1493993E+04  0.7818609E-02  0.8888458E-01
       -2   -1    0    0    0  501  0.00000000000E+00  0.00000000000E+00  0.83924761938E+03  0.83924761938E+03  0.25500000920E-02 0. -1.
        2   -1    0    0  501    0  0.00000000000E+00  0.00000000000E+00 -0.66488535050E+03  0.66488535050E+03  0.25500000920E-02 0.  1.
    10030    2    1    2    0    0  0.00000000000E+00  0.00000000000E+00  0.17436226888E+03  0.15041329699E+04  0.14939925670E+04 0.  0.
        2    1    3    3  502    0  0.32237847476E+03  0.67363557560E+03  0.70016135957E+02  0.75007668208E+03  0.25500000920E-02 0.  1.
       -2    1    3    3    0  502 -0.32237847476E+03 -0.67363557560E+03  0.10434613292E+03  0.75405628780E+03  0.25500000920E-02 0. -1.
</event>
<event>
 5   0  0.7870317E-04  0.1554919E+04  0.7818609E-02  0.8848732E-01
        1   -1    0    0  501    0  0.00000000000E+00  0.00000000000E+00  0.12108703306E+04  0.12108703306E+04  0.50400001928E-02 0. -1.
       -1   -1    0    0    0  501  0.00000000000E+00  0.00000000000E+00 -0.49918108373E+03  0.49918108375E+03  0.50400001928E-02 0.  1.
    10030    2    1    2    0    0  0.00000000000E+00  0.00000000000E+00  0.71168924689E+03  0.17100514144E+04  0.15549193727E+04 0.  0.
        1    1    3    3  502    0 -0.74972194613E+03  0.20060571533E+03  0.40645685555E+03  0.87608950741E+03  0.50400001928E-02 0. -1.
       -1    1    3    3    0  502  0.74972194613E+03 -0.20060571533E+03  0.30523239133E+03  0.83396190697E+03  0.50400001928E-02 0.  1.
</event>
<event>
 5   0  0.8191876E-04  0.1458009E+04  0.7818609E-02  0.8912867E-01
        1   -1    0    0  501    0  0.00000000000E+00  0.00000000000E+00  0.93216294053E+03  0.93216294055E+03  0.50400001928E-02 0. -1.
       -1   -1    0    0    0  501  0.00000000000E+00  0.00000000000E+00 -0.57012277823E+03  0.57012277826E+03  0.50400001928E-02 0.  1.
    10030    2    1    2    0    0  0.00000000000E+00  0.00000000000E+00  0.36204016230E+03  0.15022857188E+04  0.14580086769E+04 0.  0.
        2    1    3    3  502    0 -0.42367094487E+03  0.53205332290E+03 -0.89379460039E+02  0.68597849516E+03  0.25500000920E-02 0.  1.
       -2    1    3    3    0  502  0.42367094487E+03 -0.53205332290E+03  0.45141962234E+03  0.81630722364E+03  0.25500000920E-02 0. -1.
</event>
<event>
 5   0  0.8306301E-04  0.1550221E+04  0.7818609E-02  0.8851727E-01
        1   -1    0    0  501    0  0.00000000000E+00  0.00000000000E+00  0.15148945103E+04  0.15148945104E+04  0.50400001928E-02 0.  1.
       -1   -1    0    0    0  501  0.00000000000E+00  0.00000000000E+00 -0.39659268877E+03  0.39659268880E+03  0.50400001928E-02 0. -1.
    10030    2    1    2    0    0  0.00000000000E+00  0.00000000000E+00  0.11183018216E+04  0.19114871992E+04  0.15502207418E+04 0.  0.
        4    1    3    3  502    0  0.11538574815E+03 -0.71261604506E+03  0.90716370403E+03  0.11593459783E+04  0.12699999809E+01 0.  1.
       -4    1    3    3    0  502 -0.11538574815E+03  0.71261604506E+03  0.21113811755E+03  0.75214122087E+03  0.12699999809E+01 0. -1.
</event>
<event>
 5   0  0.8058234E-04  0.1510991E+04  0.7818609E-02  0.8877176E-01
        1   -1    0    0  501    0  0.00000000000E+00  0.00000000000E+00  0.61578474959E+03  0.61578474961E+03  0.50400001928E-02 0. -1.
       -1   -1    0    0    0  501  0.00000000000E+00  0.00000000000E+00 -0.92690466804E+03  0.92690466806E+03  0.50400001928E-02 0.  1.
    10030    2    1    2    0    0  0.00000000000E+00  0.00000000000E+00 -0.31111991845E+03  0.15426894177E+04  0.15109914082E+04 0.  0.
        5    1    3    3  502    0  0.16662834546E+03  0.25333427670E+01 -0.90789020213E+03  0.92306994992E+03  0.46999998093E+01 0.  1.
       -5    1    3    3    0  502 -0.16662834546E+03 -0.25333427670E+01  0.59677028367E+03  0.61961946775E+03  0.46999998093E+01 0. -1.
</event>
<event>
 5   0  0.1552067E-03  0.1477095E+04  0.7818609E-02  0.8899829E-01
        2   -1    0    0  501    0  0.00000000000E+00  0.00000000000E+00  0.19959030408E+04  0.19959030408E+04  0.25500000920E-02 0. -1.
       -2   -1    0    0    0  501  0.00000000000E+00  0.00000000000E+00 -0.27328601009E+03  0.27328601010E+03  0.25500000920E-02 0.  1.
    10030    2    1    2    0    0  0.00000000000E+00  0.00000000000E+00  0.17226170307E+04  0.22691890509E+04  0.14770949578E+04 0.  0.
        3    1    3    3  502    0  0.36935148422E+03 -0.42737499852E+03  0.13036527983E+03  0.57971115622E+03  0.10100000352E+00 0.  1.
       -3    1    3    3    0  502 -0.36935148422E+03  0.42737499852E+03  0.15922517509E+04  0.16894778947E+04  0.10100000352E+00 0. -1.
</event>
<event>
 5   0  0.1552067E-03  0.1495728E+04  0.7818609E-02  0.8887298E-01
        2   -1    0    0  501    0  0.00000000000E+00  0.00000000000E+00  0.11146050671E+04  0.11146050671E+04  0.25500000920E-02 0.  1.
       -2   -1    0    0    0  501  0.00000000000E+00  0.00000000000E+00 -0.50179284713E+03  0.50179284714E+03  0.25500000920E-02 0. -1.
    10030    2    1    2    0    0  0.00000000000E+00  0.00000000000E+00  0.61281221994E+03  0.16163979142E+04  0.14957283845E+04 0.  0.
        3    1    3    3  502    0 -0.74065520276E+03 -0.37414302857E+02  0.20201660030E+03  0.76862258386E+03  0.10100000352E+00 0. -1.
       -3    1    3    3    0  502  0.74065520276E+03  0.37414302857E+02  0.41079561965E+03  0.84777533035E+03  0.10100000352E+00 0.  1.
</event>
<event>
 5   0  0.8365016E-04  0.1384636E+04  0.7818609E-02  0.8965016E-01
        1   -1    0    0  501    0  0.00000000000E+00  0.00000000000E+00  0.68440745835E+03  0.68440745837E+03  0.50400001928E-02 0. -1.
       -1   -1    0    0    0  501  0.00000000000E+00  0.00000000000E+00 -0.70031965124E+03  0.70031965126E+03  0.50400001928E-02 0.  1.
    10030    2    1    2    0    0  0.00000000000E+00  0.00000000000E+00 -0.15912192885E+02  0.13847271096E+04  0.13846356814E+04 0.  0.
        3    1    3    3  502    0 -0.40417491058E+03  0.14373519508E+03  0.53548278226E+03  0.68611878341E+03  0.10100000352E+00 0. -1.
       -3    1    3    3    0  502  0.40417491058E+03 -0.14373519508E+03 -0.55139497515E+03  0.69860832622E+03  0.10100000352E+00 0.  1.
</event>
<event>
 5   0  0.8306301E-04  0.1412722E+04  0.7818609E-02  0.8944661E-01
        1   -1    0    0  501    0  0.00000000000E+00  0.00000000000E+00  0.27020874524E+03  0.27020874529E+03  0.50400001928E-02 0.  1.
       -1   -1    0    0    0  501  0.00000000000E+00  0.00000000000E+00 -0.18465191818E+04  0.18465191818E+04  0.50400001928E-02 0. -1.
    10030    2    1    2    0    0  0.00000000000E+00  0.00000000000E+00 -0.15763104365E+04  0.21167279271E+04  0.14127216728E+04 0.  0.
        4    1    3    3  502    0  0.44267651997E+02 -0.91858974175E+02  0.25912115529E+03  0.27846558525E+03  0.12699999809E+01 0.  1.
       -4    1    3    3    0  502 -0.44267651997E+02  0.91858974175E+02 -0.18354315918E+04  0.18382623418E+04  0.12699999809E+01 0. -1.
</event>
<event>
 5   0  0.8058234E-04  0.1506082E+04  0.7818609E-02  0.8880419E-01
        1   -1    0    0  501    0  0.00000000000E+00  0.00000000000E+00  0.10819095626E+04  0.10819095626E+04  0.50400001928E-02 0.  1.
       -1   -1    0    0    0  501  0.00000000000E+00  0.00000000000E+00 -0.52413878258E+03  0.52413878261E+03  0.50400001928E-02 0. -1.
    10030    2    1    2    0    0  0.00000000000E+00  0.00000000000E+00  0.55777078000E+03  0.16060483452E+04  0.15060820177E+04 0.  0.
        5    1    3    3  502    0 -0.20492312907E+03  0.19550365441E+03  0.10229321334E+04  0.10614270617E+04  0.46999998093E+01 0.  1.
       -5    1    3    3    0  502  0.20492312907E+03 -0.19550365441E+03 -0.46516135343E+03  0.54462128350E+03  0.46999998093E+01 0. -1.
</event>
<event>
 5   0  0.1500956E-03  0.1339867E+04  0.7818609E-02  0.8998534E-01
       -2   -1    0    0    0  501  0.00000000000E+00  0.00000000000E+00  0.32709287456E+03  0.32709287457E+03  0.25500000920E-02 0. -1.
        2   -1    0    0  501    0  0.00000000000E+00  0.00000000000E+00 -0.13721212836E+04  0.13721212836E+04  0.25500000920E-02 0.  1.
    10030    2    1    2    0    0  0.00000000000E+00  0.00000000000E+00 -0.10450284090E+04  0.16992141582E+04  0.13398672993E+04 0.  0.
        4    1    3    3  502    0 -0.60196889291E+03 -0.16866401854E+03 -0.82792405468E+03  0.10374362402E+04  0.12699999809E+01 0.  1.
       -4    1    3    3    0  502  0.60196889291E+03  0.16866401854E+03 -0.21710435436E+03  0.66177791801E+03  0.12699999809E+01 0. -1.
</event>
<event>
 5   0  0.1500956E-03  0.1464331E+04  0.7818609E-02  0.8908525E-01
        2   -1    0    0  501    0  0.00000000000E+00  0.00000000000E+00  0.69586442038E+03  0.69586442038E+03  0.25500000920E-02 0.  1.
       -2   -1    0    0    0  501  0.00000000000E+00  0.00000000000E+00 -0.77036074446E+03  0.77036074446E+03  0.25500000920E-02 0. -1.
    10030    2    1    2    0    0  0.00000000000E+00  0.00000000000E+00 -0.74496324077E+02  0.14662251648E+04  0.14643314282E+04 0.  0.
        4    1    3    3  502    0  0.69650314505E+02 -0.33776291640E+03 -0.68393948321E+03  0.76596983204E+03  0.12699999809E+01 0. -1.
       -4    1    3    3    0  502 -0.69650314505E+02  0.33776291640E+03  0.60944315913E+03  0.70025533280E+03  0.12699999809E+01 0.  1.
</event>
<event>
 5   0  0.1552067E-03  0.1405115E+04  0.7818609E-02  0.8950124E-01
       -2   -1    0    0    0  501  0.00000000000E+00  0.00000000000E+00  0.54094798503E+03  0.54094798504E+03  0.25500000920E-02 0.  1.
        2   -1    0    0  501    0  0.00000000000E+00  0.00000000000E+00 -0.91244823188E+03  0.91244823188E+03  0.25500000920E-02 0. -1.
    10030    2    1    2    0    0  0.00000000000E+00  0.00000000000E+00 -0.37150024685E+03  0.14533962169E+04  0.14051149882E+04 0.  0.
        3    1    3    3  502    0 -0.72597962772E+02 -0.67128930455E+03  0.15052440986E+02  0.67537129105E+03  0.10100000352E+00 0.  1.
       -3    1    3    3    0  502  0.72597962772E+02  0.67128930455E+03 -0.38655268784E+03  0.77802492587E+03  0.10100000352E+00 0. -1.
</event>
<event>
 5   0  0.7870317E-04  0.1528070E+04  0.7818609E-02  0.8865998E-01
       -1   -1    0    0    0  501  0.00000000000E+00  0.00000000000E+00  0.52610285425E+03  0.52610285427E+03  0.50400001928E-02 0.  1.
        1   -1    0    0  501    0  0.00000000000E+00  0.00000000000E+00 -0.11095736392E+04  0.11095736392E+04  0.50400001928E-02 0. -1.
    10030    2    1    2    0    0  0.00000000000E+00  0.00000000000E+00 -0.58347078498E+03  0.16356764935E+04  0.15280704940E+04 0.  0.
        1    1    3    3  502    0  0.43068487810E+03  0.58734377962E+03 -0.44638419900E+02  0.72969498301E+03  0.50400001928E-02 0.  1.
       -1    1    3    3    0  502 -0.43068487810E+03 -0.58734377962E+03 -0.53883236508E+03  0.90598151049E+03  0.50400001928E-02 0. -1.
</event>
<event>
 5   0  0.1500956E-03  0.1481086E+04  0.7818609E-02  0.8897129E-01
       -2   -1    0    0    0  501  0.00000000000E+00  0.00000000000E+00  0.62979316657E+03  0.62979316657E+03  0.25500000920E-02 0. -1.
        2   -1    0    0  501    0  0.00000000000E+00  0.00000000000E+00 -0.87076794722E+03  0.87076794723E+03  0.25500000920E-02 0.  1.
    10030    2    1    2    0    0  0.00000000000E+00  0.00000000000E+00 -0.24097478066E+03  0.15005611138E+04  0.14810856867E+04 0.  0.
        4    1    3    3  502    0  0.40614968549E+03  0.53486141009E+03 -0.43662864327E+03  0.80104961148E+03  0.12699999809E+01 0.  1.
       -4    1    3    3    0  502 -0.40614968549E+03 -0.53486141009E+03  0.19565386262E+03  0.69951150232E+03  0.12699999809E+01 0. -1.
</event>
<event>
 5   0  0.8306301E-04  0.1466813E+04  0.7818609E-02  0.8906826E-01
       -1   -1    0    0    0  501  0.00000000000E+00  0.00000000000E+00  0.59818987155E+03  0.59818987157E+03  0.50400001928E-02 0.  1.
        1   -1    0    0  501    0  0.00000000000E+00  0.00000000000E+00 -0.89918849026E+03  0.89918849027E+03  0.50400001928E-02 0. -1.
    10030    2    1    2    0    0  0.00000000000E+00  0.00000000000E+00 -0.30099861871E+03  0.14973783618E+04  0.14668134817E+04 0.  0.
        4    1    3    3  502    0  0.19800741169E+03 -0.60537847343E+03  0.22066158205E+03  0.67407950411E+03  0.12699999809E+01 0.  1.
       -4    1    3    3    0  502 -0.19800741169E+03  0.60537847343E+03 -0.52166020076E+03  0.82329885772E+03  0.12699999809E+01 0. -1.
</event>
<event>
 5   0  0.1511546E-03  0.1465383E+04  0.7818609E-02  0.8907805E-01
        2   -1    0    0  501    0  0.00000000000E+00  0.00000000000E+00  0.15524363425E+04  0.15524363425E+04  0.25500000920E-02 0.  1.
       -2   -1    0    0    0  501  0.00000000000E+00  0.00000000000E+00 -0.34580281706E+03  0.34580281707E+03  0.25500000920E-02 0. -1.
    10030    2    1    2    0    0  0.00000000000E+00  0.00000000000E+00  0.12066335255E+04  0.18982391596E+04  0.14653830360E+04 0.  0.
        1    1    3    3  502    0 -0.88927073708E+01  0.61818379049E+03  0.11126637686E+04  0.12728907812E+04  0.50400001928E-02 0.  1.
       -1    1    3    3    0  502  0.88927073708E+01 -0.61818379049E+03  0.93969756904E+02  0.62534837835E+03  0.50400001928E-02 0. -1.
</event>
<event>
 5   0  0.1484056E-03  0.1506666E+04  0.7818609E-02  0.8880032E-01
       -2   -1    0    0    0  501  0.00000000000E+00  0.00000000000E+00  0.44712209211E+03  0.44712209211E+03  0.25500000920E-02 0. -1.
        2   -1    0    0  501    0  0.00000000000E+00  0.00000000000E+00 -0.12692521519E+04  0.12692521519E+04  0.25500000920E-02 0.  1.
    10030    2    1    2    0    0  0.00000000000E+00  0.00000000000E+00 -0.82213005983E+03  0.17163742441E+04  0.15066660912E+04 0.  0.
        5    1    3    3  502    0 -0.14872515375E+02 -0.25480132113E+03  0.39634743012E+03  0.47144276463E+03  0.46999998093E+01 0. -1.
       -5    1    3    3    0  502  0.14872515375E+02  0.25480132113E+03 -0.12184774899E+04  0.12449314794E+04  0.46999998093E+01 0.  1.
</event>
<event>
 5   0  0.7870317E-04  0.1531082E+04  0.7818609E-02  0.8864043E-01
       -1   -1    0    0    0  501  0.00000000000E+00  0.00000000000E+00  0.35168408049E+03  0.35168408052E+03  0.50400001928E-02 0. -1.
        1   -1    0    0  501    0  0.00000000000E+00  0.00000000000E+00 -0.16664188091E+04  0.16664188091E+04  0.50400001928E-02 0.  1.
    10030    2    1    2    0    0  0.00000000000E+00  0.00000000000E+00 -0.13147347286E+04  0.20181028897E+04  0.15310819268E+04 0.  0.
        1    1    3    3  502    0 -0.25101683400E+03  0.37430682778E+03  0.15829243475E+03  0.47767305471E+03  0.50400001928E-02 0. -1.
       -1    1    3    3    0  502  0.25101683400E+03 -0.37430682778E+03 -0.14730271634E+04  0.15404298349E+04  0.50400001928E-02 0.  1.
</event>
<event>
 5   0  0.7870317E-04  0.1388438E+04  0.7818609E-02  0.8962230E-01
       -1   -1    0    0    0  501  0.00000000000E+00  0.00000000000E+00  0.11091038715E+04  0.11091038715E+04  0.50400001928E-02 0. -1.
        1   -1    0    0  501    0  0.00000000000E+00  0.00000000000E+00 -0.43453114012E+03  0.43453114015E+03  0.50400001928E-02 0.  1.
    10030    2    1    2    0    0  0.00000000000E+00  0.00000000000E+00  0.67457273139E+03  0.15436350117E+04  0.13884382159E+04 0.  0.
        1    1    3    3  502    0  0.41425479306E+03  0.10409219838E+03  0.94572248673E+03  0.10377057585E+04  0.50400001928E-02 0. -1.
       -1    1    3    3    0  502 -0.41425479306E+03 -0.10409219838E+03 -0.27114975534E+03  0.50592925314E+03  0.50400001928E-02 0.  1.
</event>
<event>
 5   0  0.8306301E-04  0.1492488E+04  0.7818609E-02  0.8889464E-01
       -1   -1    0    0    0  501  0.00000000000E+00  0.00000000000E+00  0.63653712048E+03  0.63653712050E+03  0.50400001928E-02 0. -1.
        1   -1    0    0  501    0  0.00000000000E+00  0.00000000000E+00 -0.87485839689E+03  0.87485839691E+03  0.50400001928E-02 0.  1.
    10030    2    1    2    0    0  0.00000000000E+00  0.00000000000E+00 -0.23832127642E+03  0.15113955174E+04  0.14924876479E+04 0.  0.
        4    1    3    3  502    0  0.23672736807E+03  0.36286072618E+03 -0.73445206880E+03  0.85271871544E+03  0.12699999809E+01 0.  1.
       -4    1    3    3    0  502 -0.23672736807E+03 -0.36286072618E+03  0.49613079238E+03  0.65867680197E+03  0.12699999809E+01 0. -1.
</event>
<event>
 5   0  0.1500956E-03  0.1470952E+04  0.7818609E-02  0.8904002E-01
        2   -1    0    0  501    0  0.00000000000E+00  0.00000000000E+00  0.67418794195E+03  0.67418794196E+03  0.25500000920E-02 0.  1.
       -2   -1    0    0    0  501  0.00000000000E+00  0.00000000000E+00 -0.80233592960E+03  0.80233592960E+03  0.25500000920E-02 0. -1.
    10030    2    1    2    0    0  0.00000000000E+00  0.00000000000E+00 -0.12814798765E+03  0.14765238716E+04  0.14709523570E+04 0.  0.
        4    1    3    3  502    0 -0.24646998388E+03 -0.54833843652E+02 -0.75746492258E+03  0.79844156029E+03  0.12699999809E+01 0. -1.
       -4    1    3    3    0  502  0.24646998388E+03  0.54833843652E+02  0.62931693493E+03  0.67808231127E+03  0.12699999809E+01 0.  1.
</event>
<event>
 5   0  0.7870317E-04  0.1475271E+04  0.7818609E-02  0.8901066E-01
        1   -1    0    0  501    0  0.00000000000E+00  0.00000000000E+00  0.18446599080E+04  0.18446599080E+04  0.50400001928E-02 0.  1.
       -1   -1    0    0    0  501  0.00000000000E+00  0.00000000000E+00 -0.29496269203E+03  0.29496269207E+03  0.50400001928E-02 0. -1.
    10030    2    1    2    0    0  0.00000000000E+00  0.00000000000E+00  0.15496972160E+04  0.21396226001E+04  0.14752706225E+04 0.  0.
        1    1    3    3  502    0  0.28712188165E+03  0.10239433741E+03  0.17490337425E+04  0.17753992812E+04  0.50400001928E-02 0.  1.
       -1    1    3    3    0  502 -0.28712188165E+03 -0.10239433741E+03 -0.19933652646E+03  0.36422331895E+03  0.50400001928E-02 0. -1.
</event>
<event>
 5   0  0.1511546E-03  0.1493730E+04  0.7818609E-02  0.8888633E-01
       -2   -1    0    0    0  501  0.00000000000E+00  0.00000000000E+00  0.64047453917E+03  0.64047453917E+03  0.25500000920E-02 0.  1.
        2   -1    0    0  501    0  0.00000000000E+00  0.00000000000E+00 -0.87092781337E+03  0.87092781338E+03  0.25500000920E-02 0. -1.
    10030    2    1    2    0    0  0.00000000000E+00  0.00000000000E+00 -0.23045327420E+03  0.15114023526E+04  0.14937296809E+04 0.  0.
        1    1    3    3  502    0 -0.30357289429E+03 -0.48815918066E+03  0.36722825068E+03  0.68213816484E+03  0.50400001928E-02 0.  1.
       -1    1    3    3    0  502  0.30357289429E+03  0.48815918066E+03 -0.59768152488E+03  0.82926418771E+03  0.50400001928E-02 0. -1.
</event>
<event>
 5   0  0.5603875E-04  0.9371421E+03  0.7818609E-02  0.9380307E-01
       -3   -1    0    0    0  501  0.00000000000E+00  0.00000000000E+00  0.34673335297E+03  0.34673336768E+03  0.10100000352E+00 0. -1.
        3   -1    0    0  501    0  0.00000000000E+00  0.00000000000E+00 -0.63322097836E+03  0.63322098642E+03  0.10100000352E+00 0.  1.
    10030    2    1    2    0    0  0.00000000000E+00  0.00000000000E+00 -0.28648762540E+03  0.97995435409E+03  0.93714213255E+03 0.  0.
        3    1    3    3  502    0 -0.17186895478E+03 -0.40058571126E+03  0.36513413789E+02  0.43742552426E+03  0.10100000352E+00 0. -1.
       -3    1    3    3    0  502  0.17186895478E+03  0.40058571126E+03 -0.32300103918E+03  0.54252882983E+03  0.10100000352E+00 0.  1.
</event>
<event>
 5   0  0.8058234E-04  0.1397811E+04  0.7818609E-02  0.8955405E-01
        1   -1    0    0  501    0  0.00000000000E+00  0.00000000000E+00  0.66217398762E+03  0.66217398764E+03  0.50400001928E-02 0.  1.
       -1   -1    0    0    0  501  0.00000000000E+00  0.00000000000E+00 -0.73767462987E+03  0.73767462989E+03  0.50400001928E-02 0. -1.
    10030    2    1    2    0    0  0.00000000000E+00  0.00000000000E+00 -0.75500642252E+02  0.13998486175E+04  0.13978110763E+04 0.  0.
        5    1    3    3  502    0  0.42027838232E+03  0.54182666274E+03  0.97490261715E+02  0.69263012656E+03  0.46999998093E+01 0.  1.
       -5    1    3    3    0  502 -0.42027838232E+03 -0.54182666274E+03 -0.17299090397E+03  0.70721849096E+03  0.46999998093E+01 0. -1.
</event>
<event>
 5   0  0.1552067E-03  0.1487714E+04  0.7818609E-02  0.8892665E-01
       -2   -1    0    0    0  501  0.00000000000E+00  0.00000000000E+00  0.57075790447E+03  0.57075790448E+03  0.25500000920E-02 0.  1.
        2   -1    0    0  501    0  0.00000000000E+00  0.00000000000E+00 -0.96945308403E+03  0.96945308403E+03  0.25500000920E-02 0. -1.
    10030    2    1    2    0    0  0.00000000000E+00  0.00000000000E+00 -0.39869517955E+03  0.15402109885E+04  0.14877136966E+04 0.  0.
        3    1    3    3  502    0 -0.52952454154E+01 -0.68581245764E+03  0.98837119807E+02  0.69291814316E+03  0.10100000352E+00 0.  1.
       -3    1    3    3    0  502  0.52952454154E+01  0.68581245764E+03 -0.49753229936E+03  0.84729284535E+03  0.10100000352E+00 0. -1.
</event>
<event>
 5   0  0.7870317E-04  0.1975688E+04  0.7818609E-02  0.8618073E-01
       -1   -1    0    0    0  501  0.00000000000E+00  0.00000000000E+00  0.10724374009E+04  0.10724374010E+04  0.50400001928E-02 0. -1.
        1   -1    0    0  501    0  0.00000000000E+00  0.00000000000E+00 -0.90992293782E+03  0.90992293783E+03  0.50400001928E-02 0.  1.
    10030    2    1    2    0    0  0.00000000000E+00  0.00000000000E+00  0.16251446312E+03  0.19823603388E+04  0.19756876175E+04 0.  0.
        1    1    3    3  502    0 -0.65718973978E+03 -0.46506115473E+03 -0.49308774547E+03  0.94409520519E+03  0.50400001928E-02 0.  1.
       -1    1    3    3    0  502  0.65718973978E+03  0.46506115473E+03  0.65560220860E+03  0.10382651336E+04  0.50400001928E-02 0. -1.
</event>
<event>
 5   0  0.8058234E-04  0.1514782E+04  0.7818609E-02  0.8874682E-01
       -1   -1    0    0    0  501  0.00000000000E+00  0.00000000000E+00  0.13460099545E+04  0.13460099546E+04  0.50400001928E-02 0. -1.
        1   -1    0    0  501    0  0.00000000000E+00  0.00000000000E+00 -0.42617887081E+03  0.42617887084E+03  0.50400001928E-02 0.  1.
    10030    2    1    2    0    0  0.00000000000E+00  0.00000000000E+00  0.91983108373E+03  0.17721888254E+04  0.15147818359E+04 0.  0.
        5    1    3    3  502    0  0.22787059681E+03  0.34646277311E+03 -0.28154461491E+03  0.50124936132E+03  0.46999998093E+01 0.  1.
       -5    1    3    3    0  502 -0.22787059681E+03 -0.34646277311E+03  0.12013756986E+04  0.12709394641E+04  0.46999998093E+01 0. -1.
</event>
<event>
 5   0  0.1484056E-03  0.1475267E+04  0.7818609E-02  0.8901069E-01
       -2   -1    0    0    0  501  0.00000000000E+00  0.00000000000E+00  0.10248413521E+04  0.10248413521E+04  0.25500000920E-02 0. -1.
        2   -1    0    0  501    0  0.00000000000E+00  0.00000000000E+00 -0.53091435412E+03  0.53091435413E+03  0.25500000920E-02 0.  1.
    10030    2    1    2    0    0  0.00000000000E+00  0.00000000000E+00  0.49392699793E+03  0.15557557062E+04  0.14752667345E+04 0.  0.
        5    1    3    3  502    0 -0.10515571329E+03 -0.56914609637E+03  0.72918170447E+03  0.93097424840E+03  0.46999998093E+01 0. -1.
       -5    1    3    3    0  502  0.10515571329E+03  0.56914609637E+03 -0.23525470654E+03  0.62478145779E+03  0.46999998093E+01 0.  1.
</event>
<event>
 5   0  0.7870317E-04  0.1449706E+04  0.7818609E-02  0.8918604E-01
        1   -1    0    0  501    0  0.00000000000E+00  0.00000000000E+00  0.12112257703E+04  0.12112257703E+04  0.50400001928E-02 0. -1.
       -1   -1    0    0    0  501  0.00000000000E+00  0.00000000000E+00 -0.43378521336E+03  0.43378521339E+03  0.50400001928E-02 0.  1.
    10030    2    1    2    0    0  0.00000000000E+00  0.00000000000E+00  0.77744055697E+03  0.16450109837E+04  0.14497059415E+04 0.  0.
        1    1    3    3  502    0 -0.39746087122E+03 -0.20999700730E+03 -0.25651368295E+03  0.51756464021E+03  0.50400001928E-02 0.  1.
       -1    1    3    3    0  502  0.39746087122E+03  0.20999700730E+03  0.10339542399E+04  0.11274463435E+04  0.50400001928E-02 0. -1.
</event>
<event>
 5   0  0.8058234E-04  0.1414251E+04  0.7818609E-02  0.8943567E-01
        1   -1    0    0  501    0  0.00000000000E+00  0.00000000000E+00  0.49133677124E+03  0.49133677127E+03  0.50400001928E-02 0.  1.
       -1   -1    0    0    0  501  0.00000000000E+00  0.00000000000E+00 -0.10176857197E+04  0.10176857198E+04  0.50400001928E-02 0. -1.
    10030    2    1    2    0    0  0.00000000000E+00  0.00000000000E+00 -0.52634894851E+03  0.15090224910E+04  0.14142509193E+04 0.  0.
        5    1    3    3  502    0  0.73703658210E+02 -0.27912941132E+03  0.42557226837E+03  0.51427551283E+03  0.46999998093E+01 0.  1.
       -5    1    3    3    0  502 -0.73703658210E+02  0.27912941132E+03 -0.95192121688E+03  0.99474697820E+03  0.46999998093E+01 0. -1.
</event>
<event>
 5   0  0.8365016E-04  0.1508175E+04  0.7818609E-02  0.8879035E-01
        1   -1    0    0  501    0  0.00000000000E+00  0.00000000000E+00  0.22757008002E+04  0.22757008002E+04  0.50400001928E-02 0. -1.
       -1   -1    0    0    0  501  0.00000000000E+00  0.00000000000E+00 -0.24987810041E+03  0.24987810046E+03  0.50400001928E-02 0.  1.
    10030    2    1    2    0    0  0.00000000000E+00  0.00000000000E+00  0.20258226998E+04  0.25255789006E+04  0.15081747818E+04 0.  0.
        3    1    3    3  502    0  0.36197940360E+03  0.65866387156E+03  0.90994636752E+03  0.11801989605E+04  0.10100000352E+00 0. -1.
       -3    1    3    3    0  502 -0.36197940360E+03 -0.65866387156E+03  0.11158763323E+04  0.13453799402E+04  0.10100000352E+00 0.  1.
</event>
<event>
 5   0  0.1500956E-03  0.1514508E+04  0.7818609E-02  0.8874862E-01
        2   -1    0    0  501    0  0.00000000000E+00  0.00000000000E+00  0.95756745558E+03  0.95756745558E+03  0.25500000920E-02 0. -1.
       -2   -1    0    0    0  501  0.00000000000E+00  0.00000000000E+00 -0.59884410311E+03  0.59884410311E+03  0.25500000920E-02 0.  1.
    10030    2    1    2    0    0  0.00000000000E+00  0.00000000000E+00  0.35872335247E+03  0.15564115587E+04  0.15145080047E+04 0.  0.
        4    1    3    3  502    0  0.18559156473E+03 -0.55120442938E+03 -0.31899002787E+03  0.66334516102E+03  0.12699999809E+01 0.  1.
       -4    1    3    3    0  502 -0.18559156473E+03  0.55120442938E+03  0.67771338035E+03  0.89306639768E+03  0.12699999809E+01 0. -1.
</event>
<event>
 5   0  0.8191876E-04  0.9324755E+03  0.7818609E-02  0.9385872E-01
        1   -1    0    0  501    0  0.00000000000E+00  0.00000000000E+00  0.21289113947E+04  0.21289113948E+04  0.50400001928E-02 0. -1.
       -1   -1    0    0    0  501  0.00000000000E+00  0.00000000000E+00 -0.10210742407E+03  0.10210742420E+03  0.50400001928E-02 0.  1.
    10030    2    1    2    0    0  0.00000000000E+00  0.00000000000E+00  0.20268039707E+04  0.22310188190E+04  0.93247554122E+03 0.  0.
        2    1    3    3  502    0 -0.36949787386E+03  0.42560515093E+02  0.16860418592E+04  0.17265796325E+04  0.25500000920E-02 0. -1.
       -2    1    3    3    0  502  0.36949787386E+03 -0.42560515093E+02  0.34076211143E+03  0.50443918645E+03  0.25500000920E-02 0.  1.
</event>
<event>
 5   0  0.5603875E-04  0.1450212E+04  0.7818609E-02  0.8918253E-01
        3   -1    0    0  501    0  0.00000000000E+00  0.00000000000E+00  0.83704442495E+03  0.83704443105E+03  0.10100000352E+00 0. -1.
       -3   -1    0    0    0  501  0.00000000000E+00  0.00000000000E+00 -0.62813737968E+03  0.62813738780E+03  0.10100000352E+00 0.  1.
    10030    2    1    2    0    0  0.00000000000E+00  0.00000000000E+00  0.20890704527E+03  0.14651818188E+04  0.14502122633E+04 0.  0.
        1    1    3    3  502    0  0.70816482384E+03 -0.15397205335E+03  0.12866104818E+03  0.73604244190E+03  0.50400001928E-02 0. -1.
       -1    1    3    3    0  502 -0.70816482384E+03  0.15397205335E+03  0.80245997094E+02  0.72913937695E+03  0.50400001928E-02 0.  1.
</event>
<event>
 5   0  0.1511546E-03  0.1457426E+04  0.7818609E-02  0.8913268E-01
        2   -1    0    0  501    0  0.00000000000E+00  0.00000000000E+00  0.63551875145E+03  0.63551875146E+03  0.25500000920E-02 0.  1.
       -2   -1    0    0    0  501  0.00000000000E+00  0.00000000000E+00 -0.83557382627E+03  0.83557382628E+03  0.25500000920E-02 0. -1.
    10030    2    1    2    0    0  0.00000000000E+00  0.00000000000E+00 -0.20005507482E+03  0.14710925777E+04  0.14574262723E+04 0.  0.
        1    1    3    3  502    0 -0.49248797692E+03 -0.47403356630E+03 -0.35492392475E+03  0.77020985567E+03  0.50400001928E-02 0. -1.
       -1    1    3    3    0  502  0.49248797692E+03  0.47403356630E+03  0.15486884993E+03  0.70088272206E+03  0.50400001928E-02 0.  1.
</event>
<event>
 5   0  0.1500956E-03  0.1480853E+04  0.7818609E-02  0.8897286E-01
        2   -1    0    0  501    0  0.00000000000E+00  0.00000000000E+00  0.10443127942E+04  0.10443127942E+04  0.25500000920E-02 0.  1.
       -2   -1    0    0    0  501  0.00000000000E+00  0.00000000000E+00 -0.52496865166E+03  0.52496865167E+03  0.25500000920E-02 0. -1.
    10030    2    1    2    0    0  0.00000000000E+00  0.00000000000E+00  0.51934414252E+03  0.15692814459E+04  0.14808531048E+04 0.  0.
        4    1    3    3  502    0  0.13132988206E+03  0.47334106048E+02  0.10302395693E+04  0.10396553461E+04  0.12699999809E+01 0.  1.
       -4    1    3    3    0  502 -0.13132988206E+03 -0.47334106048E+02 -0.51089542681E+03  0.52962609977E+03  0.12699999809E+01 0. -1.
</event>
<event>
 5   0  0.1500956E-03  0.1532256E+04  0.7818609E-02  0.8863282E-01
       -2   -1    0    0    0  501  0.00000000000E+00  0.00000000000E+00  0.42883674293E+03  0.42883674293E+03  0.25500000920E-02 0.  1.
        2   -1    0    0  501    0  0.00000000000E+00  0.00000000000E+00 -0.13687068409E+04  0.13687068409E+04  0.25500000920E-02 0. -1.
    10030    2    1    2    0    0  0.00000000000E+00  0.00000000000E+00 -0.93987009800E+03  0.17975435839E+04  0.15322555710E+04 0.  0.
        4    1    3    3  502    0  0.26954544918E+03 -0.55736471779E+03 -0.99932995357E+03  0.11755731142E+04  0.12699999809E+01 0. -1.
       -4    1    3    3    0  502 -0.26954544918E+03  0.55736471779E+03  0.59459855570E+02  0.62197046967E+03  0.12699999809E+01 0.  1.
</event>
<event>
 5   0  0.1500956E-03  0.1499722E+04  0.7818609E-02  0.8884638E-01
       -2   -1    0    0    0  501  0.00000000000E+00  0.00000000000E+00  0.29473082868E+03  0.29473082869E+03  0.25500000920E-02 0.  1.
        2   -1    0    0  501    0  0.00000000000E+00  0.00000000000E+00 -0.19078138613E+04  0.19078138613E+04  0.25500000920E-02 0. -1.
    10030    2    1    2    0    0  0.00000000000E+00  0.00000000000E+00 -0.16130830326E+04  0.22025446900E+04  0.14997220547E+04 0.  0.
        4    1    3    3  502    0 -0.54268232109E+03  0.18779672551E+03 -0.15147195642E+04  0.16199224311E+04  0.12699999809E+01 0. -1.
       -4    1    3    3    0  502  0.54268232109E+03 -0.18779672551E+03 -0.98363468428E+02  0.58262225890E+03  0.12699999809E+01 0.  1.
</event>
<event>
 5   0  0.1552067E-03  0.1488602E+04  0.7818609E-02  0.8892068E-01
        2   -1    0    0  501    0  0.00000000000E+00  0.00000000000E+00  0.10530038157E+04  0.10530038157E+04  0.25500000920E-02 0.  1.
       -2   -1    0    0    0  501  0.00000000000E+00  0.00000000000E+00 -0.52609899371E+03  0.52609899371E+03  0.25500000920E-02 0. -1.
    10030    2    1    2    0    0  0.00000000000E+00  0.00000000000E+00  0.52690482202E+03  0.15791028094E+04  0.14886023617E+04 0.  0.
        3    1    3    3  502    0 -0.63932142415E+03  0.27140354780E+03  0.54728703411E+03  0.88425950775E+03  0.10100000352E+00 0.  1.
       -3    1    3    3    0  502  0.63932142415E+03 -0.27140354780E+03 -0.20382212088E+02  0.69484330169E+03  0.10100000352E+00 0. -1.
</event>
<event>
 5   0  0.8365016E-04  0.9262804E+03  0.7818609E-02  0.9393313E-01
       -1   -1    0    0    0  501  0.00000000000E+00  0.00000000000E+00  0.42359298962E+03  0.42359298965E+03  0.50400001928E-02 0.  1.
        1   -1    0    0  501    0  0.00000000000E+00  0.00000000000E+00 -0.50637953704E+03  0.50637953707E+03  0.50400001928E-02 0. -1.
    10030    2    1    2    0    0  0.00000000000E+00  0.00000000000E+00 -0.82786547425E+02  0.92997252671E+03  0.92628035065E+03 0.  0.
        3    1    3    3  502    0 -0.27767610374E+03  0.27350473138E+03  0.20978379482E+03  0.44262637454E+03  0.10100000352E+00 0.  1.
       -3    1    3    3    0  502  0.27767610374E+03 -0.27350473138E+03 -0.29257034224E+03  0.48734615217E+03  0.10100000352E+00 0. -1.
</event>
<event>
 5   0  0.8306301E-04  0.1509882E+04  0.7818609E-02  0.8877908E-01
        1   -1    0    0  501    0  0.00000000000E+00  0.00000000000E+00  0.42905492574E+03  0.42905492577E+03  0.50400001928E-02 0.  1.
       -1   -1    0    0    0  501  0.00000000000E+00  0.00000000000E+00 -0.13283516482E+04  0.13283516482E+04  0.50400001928E-02 0. -1.
    10030    2    1    2    0    0  0.00000000000E+00  0.00000000000E+00 -0.89929672245E+03  0.17574065740E+04  0.15098818733E+04 0.  0.
        4    1    3    3  502    0  0.34438576867E+03  0.59284571160E+03 -0.81824898828E+02  0.69048137006E+03  0.12699999809E+01 0.  1.
       -4    1    3    3    0  502 -0.34438576867E+03 -0.59284571160E+03 -0.81747182362E+03  0.10669252039E+04  0.12699999809E+01 0. -1.
</event>
<event>
 5   0  0.1552067E-03  0.1486034E+04  0.7818609E-02  0.8893794E-01
       -2   -1    0    0    0  501  0.00000000000E+00  0.00000000000E+00  0.27895215871E+03  0.27895215872E+03  0.25500000920E-02 0.  1.
        2   -1    0    0  501    0  0.00000000000E+00  0.00000000000E+00 -0.19791002248E+04  0.19791002248E+04  0.25500000920E-02 0. -1.
    10030    2    1    2    0    0  0.00000000000E+00  0.00000000000E+00 -0.17001480661E+04  0.22580523835E+04  0.14860340239E+04 0.  0.
        3    1    3    3  502    0  0.24592303572E+03  0.32778204393E+02 -0.19143012970E+04  0.19303113780E+04  0.10100000352E+00 0. -1.
       -3    1    3    3    0  502 -0.24592303572E+03 -0.32778204393E+02  0.21415323091E+03  0.32774100551E+03  0.10100000352E+00 0.  1.
</event>
<event>
 5   0  0.1526126E-03  0.1485397E+04  0.7818609E-02  0.8894222E-01
       -2   -1    0    0    0  501  0.00000000000E+00  0.00000000000E+00  0.56210459247E+03  0.56210459248E+03  0.25500000920E-02 0. -1.
        2   -1    0    0  501    0  0.00000000000E+00  0.00000000000E+00 -0.98131407267E+03  0.98131407267E+03  0.25500000920E-02 0.  1.
    10030    2    1    2    0    0  0.00000000000E+00  0.00000000000E+00 -0.41920948020E+03  0.15434186651E+04  0.14853971145E+04 0.  0.
        2    1    3    3  502    0 -0.57974355734E+03 -0.32934849806E+03  0.13032575242E+03  0.67938047308E+03  0.25500000920E-02 0. -1.
       -2    1    3    3    0  502  0.57974355734E+03  0.32934849806E+03 -0.54953523262E+03  0.86403819207E+03  0.25500000920E-02 0.  1.
</event>
<event>
 5   0  0.7870317E-04  0.1499467E+04  0.7818609E-02  0.8884807E-01
       -1   -1    0    0    0  501  0.00000000000E+00  0.00000000000E+00  0.44709035805E+03  0.44709035808E+03  0.50400001928E-02 0. -1.
        1   -1    0    0  501    0  0.00000000000E+00  0.00000000000E+00 -0.12572414819E+04  0.12572414819E+04  0.50400001928E-02 0.  1.
    10030    2    1    2    0    0  0.00000000000E+00  0.00000000000E+00 -0.81015112387E+03  0.17043318400E+04  0.14994672979E+04 0.  0.
        1    1    3    3  502    0 -0.46284399697E+02 -0.55513386958E+03  0.16526178945E+03  0.58105706939E+03  0.50400001928E-02 0. -1.
       -1    1    3    3    0  502  0.46284399697E+02  0.55513386958E+03 -0.97541291332E+03  0.11232747706E+04  0.50400001928E-02 0.  1.
</event>
<event>
 5   0  0.1511546E-03  0.1469750E+04  0.7818609E-02  0.8904822E-01
       -2   -1    0    0    0  501  0.00000000000E+00  0.00000000000E+00  0.37869604716E+03  0.37869604717E+03  0.25500000920E-02 0.  1.
        2   -1    0    0  501    0  0.00000000000E+00  0.00000000000E+00 -0.14260550532E+04  0.14260550532E+04  0.25500000920E-02 0. -1.
    10030    2    1    2    0    0  0.00000000000E+00  0.00000000000E+00 -0.10473590061E+04  0.18047511004E+04  0.14697501988E+04 0.  0.
        1    1    3    3  502    0 -0.57889691566E+03  0.44801259654E+03 -0.44405802312E+03  0.85616847264E+03  0.50400001928E-02 0.  1.
       -1    1    3    3    0  502  0.57889691566E+03 -0.44801259654E+03 -0.60330098295E+03  0.94858262775E+03  0.50400001928E-02 0. -1.
</event>
<event>
 5   0  0.8191876E-04  0.1093044E+04  0.7818609E-02  0.9211999E-01
        1   -1    0    0  501    0  0.00000000000E+00  0.00000000000E+00  0.70843051556E+03  0.70843051558E+03  0.50400001928E-02 0.  1.
       -1   -1    0    0    0  501  0.00000000000E+00  0.00000000000E+00 -0.42161661906E+03  0.42161661909E+03  0.50400001928E-02 0. -1.
    10030    2    1    2    0    0  0.00000000000E+00  0.00000000000E+00  0.28681389650E+03  0.11300471347E+04  0.10930436018E+04 0.  0.
        2    1    3    3  502    0 -0.94175425476E+02 -0.14405567847E+03  0.67968213166E+03  0.70113397391E+03  0.25500000920E-02 0.  1.
       -2    1    3    3    0  502  0.94175425476E+02  0.14405567847E+03 -0.39286823517E+03  0.42891316076E+03  0.25500000920E-02 0. -1.
</event>
<event>
 5   0  0.1484056E-03  0.1503740E+04  0.7818609E-02  0.8881970E-01
        2   -1    0    0  501    0  0.00000000000E+00  0.00000000000E+00  0.27178881562E+04  0.27178881562E+04  0.25500000920E-02 0. -1.
       -2   -1    0    0    0  501  0.00000000000E+00  0.00000000000E+00 -0.20799549440E+03  0.20799549441E+03  0.25500000920E-02 0.  1.
    10030    2    1    2    0    0  0.00000000000E+00  0.00000000000E+00  0.25098926618E+04  0.29258836506E+04  0.15037399919E+04 0.  0.
        5    1    3    3  502    0  0.17109187721E+03 -0.17104060754E+03  0.26400589060E+04  0.26511243723E+04  0.46999998093E+01 0. -1.
       -5    1    3    3    0  502 -0.17109187721E+03  0.17104060754E+03 -0.13016624427E+03  0.27475927831E+03  0.46999998093E+01 0.  1.
</event>
<event>
 5   0  0.8191876E-04  0.1526259E+04  0.7818609E-02  0.8867176E-01
        1   -1    0    0  501    0  0.00000000000E+00  0.00000000000E+00  0.15653602828E+04  0.15653602828E+04  0.50400001928E-02 0.  1.
       -1   -1    0    0    0  501  0.00000000000E+00  0.00000000000E+00 -0.37203383275E+03  0.37203383279E+03  0.50400001928E-02 0. -1.
    10030    2    1    2    0    0  0.00000000000E+00  0.00000000000E+00  0.11933264501E+04  0.19373941156E+04  0.15262594612E+04 0.  0.
        2    1    3    3  502    0  0.22298970318E+01 -0.55226320884E+03  0.12651876587E+04  0.13804707299E+04  0.25500000920E-02 0.  1.
       -2    1    3    3    0  502 -0.22298970318E+01  0.55226320884E+03 -0.71861208635E+02  0.55692338575E+03  0.25500000920E-02 0. -1.
</event>
<event>
 5   0  0.8365016E-04  0.1525933E+04  0.7818609E-02  0.8867388E-01
        1   -1    0    0  501    0  0.00000000000E+00  0.00000000000E+00  0.56625108366E+03  0.56625108369E+03  0.50400001928E-02 0.  1.
       -1   -1    0    0    0  501  0.00000000000E+00  0.00000000000E+00 -0.10280210309E+04  0.10280210309E+04  0.50400001928E-02 0. -1.
    10030    2    1    2    0    0  0.00000000000E+00  0.00000000000E+00 -0.46176994719E+03  0.15942721146E+04  0.15259331870E+04 0.  0.
        3    1    3    3  502    0 -0.41593317275E+03  0.49087559429E+03  0.19755173939E+03  0.67304231160E+03  0.10100000352E+00 0.  1.
       -3    1    3    3    0  502  0.41593317275E+03 -0.49087559429E+03 -0.65932168658E+03  0.92122980296E+03  0.10100000352E+00 0. -1.
</event>
<event>
 5   0  0.8058234E-04  0.1195704E+04  0.7818609E-02  0.9116625E-01
       -1   -1    0    0    0  501  0.00000000000E+00  0.00000000000E+00  0.20005302851E+03  0.20005302857E+03  0.50400001928E-02 0. -1.
        1   -1    0    0  501    0  0.00000000000E+00  0.00000000000E+00 -0.17866619975E+04  0.17866619975E+04  0.50400001928E-02 0.  1.
    10030    2    1    2    0    0  0.00000000000E+00  0.00000000000E+00 -0.15866089689E+04  0.19867150260E+04  0.11957042169E+04 0.  0.
        5    1    3    3  502    0 -0.13019972101E+02 -0.67850560201E+02 -0.17799759631E+04  0.17813224687E+04  0.46999998093E+01 0.  1.
       -5    1    3    3    0  502  0.13019972101E+02  0.67850560201E+02  0.19336699415E+03  0.20539255736E+03  0.46999998093E+01 0. -1.
</event>
<event>
 5   0  0.1511546E-03  0.1483843E+04  0.7818609E-02  0.8895269E-01
       -2   -1    0    0    0  501  0.00000000000E+00  0.00000000000E+00  0.73665493107E+03  0.73665493107E+03  0.25500000920E-02 0. -1.
        2   -1    0    0  501    0  0.00000000000E+00  0.00000000000E+00 -0.74722602082E+03  0.74722602082E+03  0.25500000920E-02 0.  1.
    10030    2    1    2    0    0  0.00000000000E+00  0.00000000000E+00 -0.10571089750E+02  0.14838809519E+04  0.14838432975E+04 0.  0.
        1    1    3    3  502    0 -0.70710823484E+03  0.94184542651E+02  0.19861898929E+03  0.74048787078E+03  0.50400001928E-02 0. -1.
       -1    1    3    3    0  502  0.70710823484E+03 -0.94184542651E+02 -0.20919007904E+03  0.74339308111E+03  0.50400001928E-02 0.  1.
</event>
<event>
 5   0  0.8365016E-04  0.1410028E+04  0.7818609E-02  0.8946592E-01
        1   -1    0    0  501    0  0.00000000000E+00  0.00000000000E+00  0.95527301111E+03  0.95527301112E+03  0.50400001928E-02 0. -1.
       -1   -1    0    0    0  501  0.00000000000E+00  0.00000000000E+00 -0.52031685040E+03  0.52031685043E+03  0.50400001928E-02 0.  1.
    10030    2    1    2    0    0  0.00000000000E+00  0.00000000000E+00  0.43495616071E+03  0.14755898615E+04  0.14100278642E+04 0.  0.
        3    1    3    3  502    0  0.13557667476E+03  0.68600836683E+01  0.94146683148E+03  0.95120339595E+03  0.10100000352E+00 0. -1.
       -3    1    3    3    0  502 -0.13557667476E+03 -0.68600836683E+01 -0.50651067078E+03  0.52438646559E+03  0.10100000352E+00 0.  1.
</event>
<event>
 5   0  0.1526126E-03  0.1503537E+04  0.7818609E-02  0.8882104E-01
       -2   -1    0    0    0  501  0.00000000000E+00  0.00000000000E+00  0.28328230472E+03  0.28328230473E+03  0.25500000920E-02 0. -1.
        2   -1    0    0  501    0  0.00000000000E+00  0.00000000000E+00 -0.19950268645E+04  0.19950268645E+04  0.25500000920E-02 0.  1.
    10030    2    1    2    0    0  0.00000000000E+00  0.00000000000E+00 -0.17117445598E+04  0.22783091692E+04  0.15035369076E+04 0.  0.
        2    1    3    3  502    0  0.33154915093E+03  0.18168616245E+03 -0.18404920117E+04  0.18789213784E+04  0.25500000920E-02 0.  1.
       -2    1    3    3    0  502 -0.33154915093E+03 -0.18168616245E+03  0.12874745189E+03  0.39938779085E+03  0.25500000920E-02 0. -1.
</event>
<event>
 5   0  0.8306301E-04  0.1467071E+04  0.7818609E-02  0.8906651E-01
        1   -1    0    0  501    0  0.00000000000E+00  0.00000000000E+00  0.16960277802E+04  0.16960277802E+04  0.50400001928E-02 0.  1.
       -1   -1    0    0    0  501  0.00000000000E+00  0.00000000000E+00 -0.31725548458E+03  0.31725548462E+03  0.50400001928E-02 0. -1.
    10030    2    1    2    0    0  0.00000000000E+00  0.00000000000E+00  0.13787722956E+04  0.20132832648E+04  0.14670707076E+04 0.  0.
        4    1    3    3  502    0  0.64864529063E+03 -0.16429075790E+03  0.11018583534E+04  0.12891181521E+04  0.12699999809E+01 0.  1.
       -4    1    3    3    0  502 -0.64864529063E+03  0.16429075790E+03  0.27691394221E+03  0.72416511272E+03  0.12699999809E+01 0. -1.
</event>
<event>
 5   0  0.8058234E-04  0.1493377E+04  0.7818609E-02  0.8888869E-01
        1   -1    0    0  501    0  0.00000000000E+00  0.00000000000E+00  0.61552020728E+03  0.61552020731E+03  0.50400001928E-02 0. -1.
       -1   -1    0    0    0  501  0.00000000000E+00  0.00000000000E+00 -0.90580923100E+03  0.90580923101E+03  0.50400001928E-02 0.  1.
    10030    2    1    2    0    0  0.00000000000E+00  0.00000000000E+00 -0.29028902371E+03  0.15213294383E+04  0.14933772272E+04 0.  0.
        5    1    3    3  502    0 -0.17411311111E+03  0.33997048172E+03  0.50844549524E+03  0.63595142545E+03  0.46999998093E+01 0. -1.
       -5    1    3    3    0  502  0.17411311111E+03 -0.33997048172E+03 -0.79873451896E+03  0.88537801287E+03  0.46999998093E+01 0.  1.
</event>
<event>
 5   0  0.1484056E-03  0.1509920E+04  0.7818609E-02  0.8877883E-01
       -2   -1    0    0    0  501  0.00000000000E+00  0.00000000000E+00  0.42804809362E+03  0.42804809363E+03  0.25500000920E-02 0.  1.
        2   -1    0    0  501    0  0.00000000000E+00  0.00000000000E+00 -0.13315438162E+04  0.13315438162E+04  0.25500000920E-02 0. -1.
    10030    2    1    2    0    0  0.00000000000E+00  0.00000000000E+00 -0.90349572260E+03  0.17595919099E+04  0.15099202524E+04 0.  0.
        5    1    3    3  502    0  0.20619079074E+02 -0.13261845325E+03  0.41401690565E+03  0.43525267228E+03  0.46999998093E+01 0.  1.
       -5    1    3    3    0  502 -0.20619079074E+02  0.13261845325E+03 -0.13175126283E+04  0.13243392376E+04  0.46999998093E+01 0. -1.
</event>
<event>
 5   0  0.8058234E-04  0.1496504E+04  0.7818609E-02  0.8886781E-01
       -1   -1    0    0    0  501  0.00000000000E+00  0.00000000000E+00  0.65394101174E+03  0.65394101176E+03  0.50400001928E-02 0. -1.
        1   -1    0    0  501    0  0.00000000000E+00  0.00000000000E+00 -0.85616470819E+03  0.85616470821E+03  0.50400001928E-02 0.  1.
    10030    2    1    2    0    0  0.00000000000E+00  0.00000000000E+00 -0.20222369645E+03  0.15101057200E+04  0.14965042138E+04 0.  0.
        5    1    3    3  502    0 -0.21924262764E+03 -0.64494717539E+03  0.21127399104E+03  0.71322014701E+03  0.46999998093E+01 0.  1.
       -5    1    3    3    0  502  0.21924262764E+03  0.64494717539E+03 -0.41349768750E+03  0.79688557295E+03  0.46999998093E+01 0. -1.
</event>
<event>
 5   0  0.8191876E-04  0.1506782E+04  0.7818609E-02  0.8879955E-01
        1   -1    0    0  501    0  0.00000000000E+00  0.00000000000E+00  0.11266835709E+04  0.11266835710E+04  0.50400001928E-02 0. -1.
       -1   -1    0    0    0  501  0.00000000000E+00  0.00000000000E+00 -0.50377773474E+03  0.50377773476E+03  0.50400001928E-02 0.  1.
    10030    2    1    2    0    0  0.00000000000E+00  0.00000000000E+00  0.62290583620E+03  0.16304613057E+04  0.15067821305E+04 0.  0.
        2    1    3    3  502    0  0.46930399784E+02 -0.56064875239E+03  0.85364883854E+03  0.10223726451E+04  0.25500000920E-02 0. -1.
       -2    1    3    3    0  502 -0.46930399784E+02  0.56064875239E+03 -0.23074300234E+03  0.60808866057E+03  0.25500000920E-02 0.  1.
</event>
<event>
 5   0  0.1511546E-03  0.1495905E+04  0.7818609E-02  0.8887181E-01
        2   -1    0    0  501    0  0.00000000000E+00  0.00000000000E+00  0.80932000245E+03  0.80932000246E+03  0.25500000920E-02 0. -1.
       -2   -1    0    0    0  501  0.00000000000E+00  0.00000000000E+00 -0.69123798375E+03  0.69123798376E+03  0.25500000920E-02 0.  1.
    10030    2    1    2    0    0  0.00000000000E+00  0.00000000000E+00  0.11808201870E+03  0.15005579862E+04  0.14959047118E+04 0.  0.
        1    1    3    3  502    0  0.72663779729E+03 -0.90800923243E+02  0.21178229267E+03  0.76229852134E+03  0.50400001928E-02 0. -1.
       -1    1    3    3    0  502 -0.72663779729E+03  0.90800923243E+02 -0.93700273976E+02  0.73825946488E+03  0.50400001928E-02 0.  1.
</event>
<event>
 5   0  0.8306301E-04  0.1512187E+04  0.7818609E-02  0.8876389E-01
       -1   -1    0    0    0  501  0.00000000000E+00  0.00000000000E+00  0.97507546917E+03  0.97507546918E+03  0.50400001928E-02 0. -1.
        1   -1    0    0  501    0  0.00000000000E+00  0.00000000000E+00 -0.58629055582E+03  0.58629055584E+03  0.50400001928E-02 0.  1.
    10030    2    1    2    0    0  0.00000000000E+00  0.00000000000E+00  0.38878491335E+03  0.15613660250E+04  0.15121872091E+04 0.  0.
        4    1    3    3  502    0 -0.37706059846E+03  0.65264970797E+03  0.25590847832E+03  0.79600068995E+03  0.12699999809E+01 0. -1.
       -4    1    3    3    0  502  0.37706059846E+03 -0.65264970797E+03  0.13287643503E+03  0.76536533506E+03  0.12699999809E+01 0.  1.
</event>
<event>
 5   0  0.1511546E-03  0.1475403E+04  0.7818609E-02  0.8900976E-01
       -2   -1    0    0    0  501  0.00000000000E+00  0.00000000000E+00  0.46655245528E+03  0.46655245529E+03  0.25500000920E-02 0. -1.
        2   -1    0    0  501    0  0.00000000000E+00  0.00000000000E+00 -0.11664357367E+04  0.11664357367E+04  0.25500000920E-02 0.  1.
    10030    2    1    2    0    0  0.00000000000E+00  0.00000000000E+00 -0.69988328146E+03  0.16329881920E+04  0.14754029374E+04 0.  0.
        1    1    3    3  502    0  0.24007137575E+03  0.66769706140E+03 -0.57336844721E+03  0.91225271035E+03  0.50400001928E-02 0.  1.
       -1    1    3    3    0  502 -0.24007137575E+03 -0.66769706140E+03 -0.12651483424E+03  0.72073548169E+03  0.50400001928E-02 0. -1.
</event>
<event>
 5   0  0.1511546E-03  0.1440320E+04  0.7818609E-02  0.8925139E-01
       -2   -1    0    0    0  501  0.00000000000E+00  0.00000000000E+00  0.30916952401E+03  0.30916952402E+03  0.25500000920E-02 0. -1.
        2   -1    0    0  501    0  0.00000000000E+00  0.00000000000E+00 -0.16774954336E+04  0.16774954336E+04  0.25500000920E-02 0.  1.
    10030    2    1    2    0    0  0.00000000000E+00  0.00000000000E+00 -0.13683259096E+04  0.19866649576E+04  0.14403200543E+04 0.  0.
        1    1    3    3  502    0  0.13058322857E+03  0.65598953994E+03 -0.10523571855E+04  0.12469281864E+04  0.50400001928E-02 0.  1.
       -1    1    3    3    0  502 -0.13058322857E+03 -0.65598953994E+03 -0.31596872409E+03  0.73973677124E+03  0.50400001928E-02 0. -1.
</event>
<event>
 5   0  0.8306301E-04  0.1507308E+04  0.7818609E-02  0.8879608E-01
        1   -1    0    0  501    0  0.00000000000E+00  0.00000000000E+00  0.12953173251E+04  0.12953173251E+04  0.50400001928E-02 0. -1.
       -1   -1    0    0    0  501  0.00000000000E+00  0.00000000000E+00 -0.43849808638E+03  0.43849808641E+03  0.50400001928E-02 0.  1.
    10030    2    1    2    0    0  0.00000000000E+00  0.00000000000E+00  0.85681923871E+03  0.17338154115E+04  0.15073077567E+04 0.  0.
        4    1    3    3  502    0  0.72840913249E+03 -0.74826369392E+02  0.22324236158E+03  0.76551787357E+03  0.12699999809E+01 0. -1.
       -4    1    3    3    0  502 -0.72840913249E+03  0.74826369392E+02  0.63357687714E+03  0.96829753795E+03  0.12699999809E+01 0.  1.
</event>
<event>
 5   0  0.8365016E-04  0.1503068E+04  0.7818609E-02  0.8882415E-01
       -1   -1    0    0    0  501  0.00000000000E+00  0.00000000000E+00  0.34656856465E+03  0.34656856469E+03  0.50400001928E-02 0. -1.
        1   -1    0    0  501    0  0.00000000000E+00  0.00000000000E+00 -0.16297019206E+04  0.16297019206E+04  0.50400001928E-02 0.  1.
    10030    2    1    2    0    0  0.00000000000E+00  0.00000000000E+00 -0.12831333559E+04  0.19762704853E+04  0.15030681361E+04 0.  0.
        3    1    3    3  502    0 -0.77929557379E+02  0.40793044578E+03  0.18198280957E+03  0.45342917604E+03  0.10100000352E+00 0. -1.
       -3    1    3    3    0  502  0.77929557379E+02 -0.40793044578E+03 -0.14651161655E+04  0.15228413092E+04  0.10100000352E+00 0.  1.
</event>
<event>
 5   0  0.1500956E-03  0.1470075E+04  0.7818609E-02  0.8904600E-01
        2   -1    0    0  501    0  0.00000000000E+00  0.00000000000E+00  0.56777050698E+03  0.56777050698E+03  0.25500000920E-02 0.  1.
       -2   -1    0    0    0  501  0.00000000000E+00  0.00000000000E+00 -0.95158182996E+03  0.95158182996E+03  0.25500000920E-02 0. -1.
    10030    2    1    2    0    0  0.00000000000E+00  0.00000000000E+00 -0.38381132299E+03  0.15193523369E+04  0.14700749614E+04 0.  0.
        4    1    3    3  502    0  0.45929002923E+03 -0.46103809547E+02 -0.78309878889E+03  0.90902047186E+03  0.12699999809E+01 0. -1.
       -4    1    3    3    0  502 -0.45929002923E+03  0.46103809547E+02  0.39928746591E+03  0.61033186508E+03  0.12699999809E+01 0.  1.
</event>
<event>
 5   0  0.8306301E-04  0.1468535E+04  0.7818609E-02  0.8905651E-01
        1   -1    0    0  501    0  0.00000000000E+00  0.00000000000E+00  0.81724180826E+03  0.81724180827E+03  0.50400001928E-02 0.  1.
       -1   -1    0    0    0  501  0.00000000000E+00  0.00000000000E+00 -0.65971746725E+03  0.65971746726E+03  0.50400001928E-02 0. -1.
    10030    2    1    2    0    0  0.00000000000E+00  0.00000000000E+00  0.15752434101E+03  0.14769592755E+04  0.14685349106E+04 0.  0.
        4    1    3    3  502    0  0.47074150699E+03 -0.14213990052E+03  0.62718449384E+03  0.79697134198E+03  0.12699999809E+01 0.  1.
       -4    1    3    3    0  502 -0.47074150699E+03  0.14213990052E+03 -0.46966015283E+03  0.67998793356E+03  0.12699999809E+01 0. -1.
</event>
<event>
 5   0  0.7870317E-04  0.1500187E+04  0.7818609E-02  0.8884328E-01
        1   -1    0    0  501    0  0.00000000000E+00  0.00000000000E+00  0.40039764898E+03  0.40039764901E+03  0.50400001928E-02 0. -1.
       -1   -1    0    0    0  501  0.00000000000E+00  0.00000000000E+00 -0.14052039796E+04  0.14052039796E+04  0.50400001928E-02 0.  1.
    10030    2    1    2    0    0  0.00000000000E+00  0.00000000000E+00 -0.10048063306E+04  0.18056016286E+04  0.15001871481E+04 0.  0.
        1    1    3    3  502    0  0.62483598235E+02 -0.35214697033E+03  0.29116757017E+03  0.46118352389E+03  0.50400001928E-02 0. -1.
       -1    1    3    3    0  502 -0.62483598235E+02  0.35214697033E+03 -0.12959739008E+04  0.13444181047E+04  0.50400001928E-02 0.  1.
</event>
<event>
 5   0  0.8058234E-04  0.1416593E+04  0.7818609E-02  0.8941894E-01
        1   -1    0    0  501    0  0.00000000000E+00  0.00000000000E+00  0.14369327231E+04  0.14369327231E+04  0.50400001928E-02 0.  1.
       -1   -1    0    0    0  501  0.00000000000E+00  0.00000000000E+00 -0.34913547785E+03  0.34913547788E+03  0.50400001928E-02 0. -1.
    10030    2    1    2    0    0  0.00000000000E+00  0.00000000000E+00  0.10877972452E+04  0.17860682010E+04  0.14165933685E+04 0.  0.
        5    1    3    3  502    0 -0.21807637782E+03 -0.88665164081E+02 -0.29834684192E+03  0.38006808070E+03  0.46999998093E+01 0. -1.
       -5    1    3    3    0  502  0.21807637782E+03  0.88665164081E+02  0.13861440871E+04  0.14060001203E+04  0.46999998093E+01 0.  1.
</event>
<event>
 5   0  0.1500956E-03  0.1533624E+04  0.7818609E-02  0.8862396E-01
       -2   -1    0    0    0  501  0.00000000000E+00  0.00000000000E+00  0.29756166883E+03  0.29756166884E+03  0.25500000920E-02 0. -1.
        2   -1    0    0  501    0  0.00000000000E+00  0.00000000000E+00 -0.19760639950E+04  0.19760639950E+04  0.25500000920E-02 0.  1.
    10030    2    1    2    0    0  0.00000000000E+00  0.00000000000E+00 -0.16785023262E+04  0.22736256639E+04  0.15336243348E+04 0.  0.
        4    1    3    3  502    0 -0.17076654689E+03 -0.22938169187E+02 -0.19469926457E+04  0.19546020947E+04  0.12699999809E+01 0.  1.
       -4    1    3    3    0  502  0.17076654689E+03  0.22938169187E+02  0.26849031950E+03  0.31902356920E+03  0.12699999809E+01 0. -1.
</event>
<event>
 5   0  0.1526126E-03  0.1251173E+04  0.7818609E-02  0.9069208E-01
       -2   -1    0    0    0  501  0.00000000000E+00  0.00000000000E+00  0.16240766921E+03  0.16240766923E+03  0.25500000920E-02 0. -1.
        2   -1    0    0  501    0  0.00000000000E+00  0.00000000000E+00 -0.24097286706E+04  0.24097286706E+04  0.25500000920E-02 0.  1.
    10030    2    1    2    0    0  0.00000000000E+00  0.00000000000E+00 -0.22473210014E+04  0.25721363399E+04  0.12511729167E+04 0.  0.
        2    1    3    3  502    0  0.55330307806E+03 -0.12128178783E+03 -0.16695266239E+04  0.17630010539E+04  0.25500000920E-02 0. -1.
       -2    1    3    3    0  502 -0.55330307806E+03  0.12128178783E+03 -0.57779437757E+03  0.80913528597E+03  0.25500000920E-02 0.  1.
</event>
<event>
 5   0  0.8058234E-04  0.1609590E+04  0.7818609E-02  0.8814678E-01
       -1   -1    0    0    0  501  0.00000000000E+00  0.00000000000E+00  0.51297693417E+03  0.51297693420E+03  0.50400001928E-02 0.  1.
        1   -1    0    0  501    0  0.00000000000E+00  0.00000000000E+00 -0.12626197702E+04  0.12626197702E+04  0.50400001928E-02 0. -1.
    10030    2    1    2    0    0  0.00000000000E+00  0.00000000000E+00 -0.74964283607E+03  0.17755967044E+04  0.16095897847E+04 0.  0.
        5    1    3    3  502    0  0.68506107176E+03 -0.28018856717E+03 -0.72341667684E+03  0.10349725038E+04  0.46999998093E+01 0.  1.
       -5    1    3    3    0  502 -0.68506107176E+03  0.28018856717E+03 -0.26226159225E+02  0.74062420068E+03  0.46999998093E+01 0. -1.
</event>
<event>
 5   0  0.7870317E-04  0.9278628E+03  0.7818609E-02  0.9391407E-01
       -1   -1    0    0    0  501  0.00000000000E+00  0.00000000000E+00  0.18026433856E+03  0.18026433863E+03  0.50400001928E-02 0.  1.
        1   -1    0    0  501    0  0.00000000000E+00  0.00000000000E+00 -0.11939817889E+04  0.11939817889E+04  0.50400001928E-02 0. -1.
    10030    2    1    2    0    0  0.00000000000E+00  0.00000000000E+00 -0.10137174503E+04  0.13742461275E+04  0.92786278616E+03 0.  0.
        1    1    3    3  502    0  0.22545834564E+03 -0.29372084787E+03 -0.92084573908E+03  0.99250202886E+03  0.50400001928E-02 0. -1.
       -1    1    3    3    0  502 -0.22545834564E+03  0.29372084787E+03 -0.92871711253E+02  0.38174409867E+03  0.50400001928E-02 0.  1.
</event>
<event>
 5   0  0.1552067E-03  0.1217441E+04  0.7818609E-02  0.9097726E-01
       -2   -1    0    0    0  501  0.00000000000E+00  0.00000000000E+00  0.48298814400E+03  0.48298814401E+03  0.25500000920E-02 0.  1.
        2   -1    0    0  501    0  0.00000000000E+00  0.00000000000E+00 -0.76718354951E+03  0.76718354951E+03  0.25500000920E-02 0. -1.
    10030    2    1    2    0    0  0.00000000000E+00  0.00000000000E+00 -0.28419540551E+03  0.12501716935E+04  0.12174408547E+04 0.  0.
        3    1    3    3  502    0  0.12762873878E+03 -0.25088177166E+03  0.41214416544E+03  0.49909275853E+03  0.10100000352E+00 0.  1.
       -3    1    3    3    0  502 -0.12762873878E+03  0.25088177166E+03 -0.69633957094E+03  0.75107893499E+03  0.10100000352E+00 0. -1.
</event>
<event>
 5   0  0.1500956E-03  0.1539708E+04  0.7818609E-02  0.8858469E-01
       -2   -1    0    0    0  501  0.00000000000E+00  0.00000000000E+00  0.25871537214E+03  0.25871537215E+03  0.25500000920E-02 0.  1.
        2   -1    0    0  501    0  0.00000000000E+00  0.00000000000E+00 -0.22908372028E+04  0.22908372028E+04  0.25500000920E-02 0. -1.
    10030    2    1    2    0    0  0.00000000000E+00  0.00000000000E+00 -0.20321218307E+04  0.25495525750E+04  0.15397075040E+04 0.  0.
        4    1    3    3  502    0  0.27773213469E+03 -0.46754628579E+03 -0.19183776551E+04  0.19939681814E+04  0.12699999809E+01 0. -1.
       -4    1    3    3    0  502 -0.27773213469E+03  0.46754628579E+03 -0.11374417559E+03  0.55558439357E+03  0.12699999809E+01 0.  1.
</event>
<event>
 5   0  0.1500956E-03  0.1415128E+04  0.7818609E-02  0.8942941E-01
        2   -1    0    0  501    0  0.00000000000E+00  0.00000000000E+00  0.14068109698E+04  0.14068109698E+04  0.25500000920E-02 0.  1.
       -2   -1    0    0    0  501  0.00000000000E+00  0.00000000000E+00 -0.35587331422E+03  0.35587331423E+03  0.25500000920E-02 0. -1.
    10030    2    1    2    0    0  0.00000000000E+00  0.00000000000E+00  0.10509376555E+04  0.17626842840E+04  0.14151275311E+04 0.  0.
        4    1    3    3  502    0 -0.10407161062E+03  0.66365080835E+03  0.80226585138E+03  0.10463724981E+04  0.12699999809E+01 0.  1.
       -4    1    3    3    0  502  0.10407161062E+03 -0.66365080835E+03  0.24867180416E+03  0.71631178592E+03  0.12699999809E+01 0. -1.
</event>
<event>
 5   0  0.8365016E-04  0.1463205E+04  0.7818609E-02  0.8909297E-01
       -1   -1    0    0    0  501  0.00000000000E+00  0.00000000000E+00  0.47539123219E+03  0.47539123221E+03  0.50400001928E-02 0.  1.
        1   -1    0    0  501    0  0.00000000000E+00  0.00000000000E+00 -0.11258978581E+04  0.11258978581E+04  0.50400001928E-02 0. -1.
    10030    2    1    2    0    0  0.00000000000E+00  0.00000000000E+00 -0.65050662593E+03  0.16012890903E+04  0.14632046612E+04 0.  0.
        3    1    3    3  502    0  0.50772398305E+03  0.29197963639E+03 -0.80504020112E+03  0.99555285477E+03  0.10100000352E+00 0. -1.
       -3    1    3    3    0  502 -0.50772398305E+03 -0.29197963639E+03  0.15453357519E+03  0.60573623557E+03  0.10100000352E+00 0.  1.
</event>
<event>
 5   0  0.8365016E-04  0.1504235E+04  0.7818609E-02  0.8881642E-01
       -1   -1    0    0    0  501  0.00000000000E+00  0.00000000000E+00  0.54399430786E+03  0.54399430788E+03  0.50400001928E-02 0. -1.
        1   -1    0    0  501    0  0.00000000000E+00  0.00000000000E+00 -0.10398647232E+04  0.10398647232E+04  0.50400001928E-02 0.  1.
    10030    2    1    2    0    0  0.00000000000E+00  0.00000000000E+00 -0.49587041537E+03  0.15838590311E+04  0.15042346764E+04 0.  0.
        3    1    3    3  502    0 -0.12466826971E+03  0.36927050022E+03  0.42937000430E+03  0.57988058305E+03  0.10100000352E+00 0. -1.
       -3    1    3    3    0  502  0.12466826971E+03 -0.36927050022E+03 -0.92524041967E+03  0.10039784481E+04  0.10100000352E+00 0.  1.
</event>
<event>
 5   0  0.7870317E-04  0.1507311E+04  0.7818609E-02  0.8879606E-01
       -1   -1    0    0    0  501  0.00000000000E+00  0.00000000000E+00  0.47065222386E+03  0.47065222388E+03  0.50400001928E-02 0. -1.
        1   -1    0    0  501    0  0.00000000000E+00  0.00000000000E+00 -0.12068280178E+04  0.12068280178E+04  0.50400001928E-02 0.  1.
    10030    2    1    2    0    0  0.00000000000E+00  0.00000000000E+00 -0.73617579396E+03  0.16774802417E+04  0.15073105724E+04 0.  0.
        1    1    3    3  502    0  0.26370313373E+03 -0.27478526412E+03 -0.10918555776E+04  0.11563714310E+04  0.50400001928E-02 0.  1.
       -1    1    3    3    0  502 -0.26370313373E+03  0.27478526412E+03  0.35567978361E+03  0.52110881072E+03  0.50400001928E-02 0. -1.
</event>
<event>
 5   0  0.8191876E-04  0.1516124E+04  0.7818609E-02  0.8873801E-01
        1   -1    0    0  501    0  0.00000000000E+00  0.00000000000E+00  0.16009891598E+04  0.16009891598E+04  0.50400001928E-02 0. -1.
       -1   -1    0    0    0  501  0.00000000000E+00  0.00000000000E+00 -0.35893931413E+03  0.35893931416E+03  0.50400001928E-02 0.  1.
    10030    2    1    2    0    0  0.00000000000E+00  0.00000000000E+00  0.12420498457E+04  0.19599284740E+04  0.15161239408E+04 0.  0.
        2    1    3    3  502    0  0.30157602448E+03 -0.40938831779E+03 -0.10579255237E+03  0.51936399320E+03  0.25500000920E-02 0.  1.
       -2    1    3    3    0  502 -0.30157602448E+03  0.40938831779E+03  0.13478423981E+04  0.14405644808E+04  0.25500000920E-02 0. -1.
</event>
<event>
 5   0  0.1552067E-03  0.1510013E+04  0.7818609E-02  0.8877821E-01
        2   -1    0    0  501    0  0.00000000000E+00  0.00000000000E+00  0.17764843231E+04  0.17764843231E+04  0.25500000920E-02 0. -1.
       -2   -1    0    0    0  501  0.00000000000E+00  0.00000000000E+00 -0.32087821556E+03  0.32087821557E+03  0.25500000920E-02 0.  1.
    10030    2    1    2    0    0  0.00000000000E+00  0.00000000000E+00  0.14556061076E+04  0.20973625387E+04  0.15100134034E+04 0.  0.
        3    1    3    3  502    0 -0.66557954700E+03 -0.31757081303E+03  0.50303124696E+03  0.89268572314E+03  0.10100000352E+00 0. -1.
       -3    1    3    3    0  502  0.66557954700E+03  0.31757081303E+03  0.95257486060E+03  0.12046768156E+04  0.10100000352E+00 0.  1.
</event>
<event>
 5   0  0.1552067E-03  0.1904003E+04  0.7818609E-02  0.8652866E-01
       -2   -1    0    0    0  501  0.00000000000E+00  0.00000000000E+00  0.46376489696E+03  0.46376489697E+03  0.25500000920E-02 0. -1.
        2   -1    0    0  501    0  0.00000000000E+00  0.00000000000E+00 -0.19542383764E+04  0.19542383764E+04  0.25500000920E-02 0.  1.
    10030    2    1    2    0    0  0.00000000000E+00  0.00000000000E+00 -0.14904734794E+04  0.24180032733E+04  0.19040033186E+04 0.  0.
        3    1    3    3  502    0 -0.79284810442E+03 -0.24625895728E+03 -0.15357342903E+03  0.84429639288E+03  0.10100000352E+00 0. -1.
       -3    1    3    3    0  502  0.79284810442E+03  0.24625895728E+03 -0.13369000504E+04  0.15737068805E+04  0.10100000352E+00 0.  1.
</event>
<event>
 5   0  0.8365016E-04  0.1486097E+04  0.7818609E-02  0.8893751E-01
        1   -1    0    0  501    0  0.00000000000E+00  0.00000000000E+00  0.49747965693E+03  0.49747965696E+03  0.50400001928E-02 0.  1.
       -1   -1    0    0    0  501  0.00000000000E+00  0.00000000000E+00 -0.11098361978E+04  0.11098361978E+04  0.50400001928E-02 0. -1.
    10030    2    1    2    0    0  0.00000000000E+00  0.00000000000E+00 -0.61235654084E+03  0.16073158547E+04  0.14860968084E+04 0.  0.
        3    1    3    3  502    0  0.19285963047E+03  0.18296271247E+03  0.44428605432E+03  0.51774540025E+03  0.10100000352E+00 0.  1.
       -3    1    3    3    0  502 -0.19285963047E+03 -0.18296271247E+03 -0.10566425952E+04  0.10895704545E+04  0.10100000352E+00 0. -1.
</event>
<event>
 5   0  0.1526126E-03  0.1499116E+04  0.7818609E-02  0.8885041E-01
        2   -1    0    0  501    0  0.00000000000E+00  0.00000000000E+00  0.12282306403E+04  0.12282306403E+04  0.25500000920E-02 0.  1.
       -2   -1    0    0    0  501  0.00000000000E+00  0.00000000000E+00 -0.45743604024E+03  0.45743604025E+03  0.25500000920E-02 0. -1.
    10030    2    1    2    0    0  0.00000000000E+00  0.00000000000E+00  0.77079460003E+03  0.16856666805E+04  0.14991156868E+04 0.  0.
        2    1    3    3  502    0  0.31050307830E+03  0.67438181681E+03  0.50135087665E+03  0.89585473041E+03  0.25500000920E-02 0.  1.
       -2    1    3    3    0  502 -0.31050307830E+03 -0.67438181681E+03  0.26944372338E+03  0.78981195012E+03  0.25500000920E-02 0. -1.
</event>
<event>
 5   0  0.1511546E-03  0.1494861E+04  0.7818609E-02  0.8887877E-01
        2   -1    0    0  501    0  0.00000000000E+00  0.00000000000E+00  0.13875439078E+04  0.13875439078E+04  0.25500000920E-02 0. -1.
       -2   -1    0    0    0  501  0.00000000000E+00  0.00000000000E+00 -0.40261983267E+03  0.40261983268E+03  0.25500000920E-02 0.  1.
    10030    2    1    2    0    0  0.00000000000E+00  0.00000000000E+00  0.98492407510E+03  0.17901637405E+04  0.14948614598E+04 0.  0.
        1    1    3    3  502    0  0.67985172713E+03 -0.19300237492E+03  0.20107593548E+03  0.73476514579E+03  0.50400001928E-02 0.  1.
       -1    1    3    3    0  502 -0.67985172713E+03  0.19300237492E+03  0.78384813962E+03  0.10553985947E+04  0.50400001928E-02 0. -1.
</event>
<event>
 5   0  0.1500956E-03  0.1516153E+04  0.7818609E-02  0.8873782E-01
        2   -1    0    0  501    0  0.00000000000E+00  0.00000000000E+00  0.15465445114E+04  0.15465445114E+04  0.25500000920E-02 0.  1.
       -2   -1    0    0    0  501  0.00000000000E+00  0.00000000000E+00 -0.37158988946E+03  0.37158988947E+03  0.25500000920E-02 0. -1.
    10030    2    1    2    0    0  0.00000000000E+00  0.00000000000E+00  0.11749546219E+04  0.19181344009E+04  0.15161534277E+04 0.  0.
        4    1    3    3  502    0 -0.52977570423E+03  0.42509552679E+03  0.16161386770E+03  0.69820423861E+03  0.12699999809E+01 0. -1.
       -4    1    3    3    0  502  0.52977570423E+03 -0.42509552679E+03  0.10133407542E+04  0.12199301622E+04  0.12699999809E+01 0.  1.
</event>
<event>
 5   0  0.8058234E-04  0.1462646E+04  0.7818609E-02  0.8909680E-01
        1   -1    0    0  501    0  0.00000000000E+00  0.00000000000E+00  0.53135170766E+03  0.53135170769E+03  0.50400001928E-02 0.  1.
       -1   -1    0    0    0  501  0.00000000000E+00  0.00000000000E+00 -0.10065528809E+04  0.10065528809E+04  0.50400001928E-02 0. -1.
    10030    2    1    2    0    0  0.00000000000E+00  0.00000000000E+00 -0.47520117327E+03  0.15379045886E+04  0.14626463580E+04 0.  0.
        5    1    3    3  502    0 -0.94017558428E+02  0.52299010701E+03 -0.76590081534E+03  0.93219316789E+03  0.46999998093E+01 0. -1.
       -5    1    3    3    0  502  0.94017558428E+02 -0.52299010701E+03  0.29069964207E+03  0.60571142074E+03  0.46999998093E+01 0.  1.
</event>
<event>
 5   0  0.1511546E-03  0.1490447E+04  0.7818609E-02  0.8890831E-01
        2   -1    0    0  501    0  0.00000000000E+00  0.00000000000E+00  0.10646923067E+04  0.10646923067E+04  0.25500000920E-02 0. -1.
       -2   -1    0    0    0  501  0.00000000000E+00  0.00000000000E+00 -0.52161351998E+03  0.52161351999E+03  0.25500000920E-02 0.  1.
    10030    2    1    2    0    0  0.00000000000E+00  0.00000000000E+00  0.54307878667E+03  0.15863058266E+04  0.14904467810E+04 0.  0.
        1    1    3    3  502    0  0.35811092737E+03 -0.65292387472E+03  0.30173444783E+03  0.80349032322E+03  0.50400001928E-02 0.  1.
       -1    1    3    3    0  502 -0.35811092737E+03  0.65292387472E+03  0.24134433884E+03  0.78281550342E+03  0.50400001928E-02 0. -1.
</event>
<event>
 5   0  0.1552067E-03  0.1499935E+04  0.7818609E-02  0.8884496E-01
       -2   -1    0    0    0  501  0.00000000000E+00  0.00000000000E+00  0.42623020530E+03  0.42623020531E+03  0.25500000920E-02 0.  1.
        2   -1    0    0  501    0  0.00000000000E+00  0.00000000000E+00 -0.13195946136E+04  0.13195946136E+04  0.25500000920E-02 0. -1.
    10030    2    1    2    0    0  0.00000000000E+00  0.00000000000E+00 -0.89336440832E+03  0.17458248189E+04  0.14999347760E+04 0.  0.
        3    1    3    3  502    0 -0.73855032591E+03 -0.28165933996E+02 -0.29853226863E+03  0.79710189396E+03  0.10100000352E+00 0. -1.
       -3    1    3    3    0  502  0.73855032591E+03  0.28165933996E+02 -0.59483213969E+03  0.94872292497E+03  0.10100000352E+00 0.  1.
</event>
<event>
 5   0  0.8306301E-04  0.1455341E+04  0.7818609E-02  0.8914706E-01
        1   -1    0    0  501    0  0.00000000000E+00  0.00000000000E+00  0.67070188635E+03  0.67070188637E+03  0.50400001928E-02 0.  1.
       -1   -1    0    0    0  501  0.00000000000E+00  0.00000000000E+00 -0.78947828651E+03  0.78947828652E+03  0.50400001928E-02 0. -1.
    10030    2    1    2    0    0  0.00000000000E+00  0.00000000000E+00 -0.11877640015E+03  0.14601801729E+04  0.14553413016E+04 0.  0.
        4    1    3    3  502    0 -0.89695455164E+02 -0.51753301808E+03  0.44589050906E+03  0.68898886671E+03  0.12699999809E+01 0.  1.
       -4    1    3    3    0  502  0.89695455164E+02  0.51753301808E+03 -0.56466690921E+03  0.77119130619E+03  0.12699999809E+01 0. -1.
</event>
<event>
 5   0  0.1484056E-03  0.1618692E+04  0.7818609E-02  0.8809146E-01
       -2   -1    0    0    0  501  0.00000000000E+00  0.00000000000E+00  0.35747659737E+03  0.35747659737E+03  0.25500000920E-02 0. -1.
        2   -1    0    0  501    0  0.00000000000E+00  0.00000000000E+00 -0.18324022831E+04  0.18324022831E+04  0.25500000920E-02 0.  1.
    10030    2    1    2    0    0  0.00000000000E+00  0.00000000000E+00 -0.14749256857E+04  0.21898788804E+04  0.16186919820E+04 0.  0.
        5    1    3    3  502    0 -0.67984196280E+03  0.69859210745E+02 -0.15094528383E+03  0.69990854575E+03  0.46999998093E+01 0. -1.
       -5    1    3    3    0  502  0.67984196280E+03 -0.69859210745E+02 -0.13239804019E+04  0.14899703347E+04  0.46999998093E+01 0.  1.
</event>
<event>
 5   0  0.1526126E-03  0.1537895E+04  0.7818609E-02  0.8859637E-01
       -2   -1    0    0    0  501  0.00000000000E+00  0.00000000000E+00  0.42697702875E+03  0.42697702876E+03  0.25500000920E-02 0.  1.
        2   -1    0    0  501    0  0.00000000000E+00  0.00000000000E+00 -0.13848053576E+04  0.13848053576E+04  0.25500000920E-02 0. -1.
    10030    2    1    2    0    0  0.00000000000E+00  0.00000000000E+00 -0.95782832882E+03  0.18117823863E+04  0.15378947649E+04 0.  0.
        2    1    3    3  502    0  0.39543332358E+03 -0.34261999054E+03 -0.11427608105E+04  0.12568445573E+04  0.25500000920E-02 0. -1.
       -2    1    3    3    0  502 -0.39543332358E+03  0.34261999054E+03  0.18493248164E+03  0.55493782903E+03  0.25500000920E-02 0.  1.
</event>
<event>
 5   0  0.1526126E-03  0.1505430E+04  0.7818609E-02  0.8880850E-01
       -2   -1    0    0    0  501  0.00000000000E+00  0.00000000000E+00  0.59139045061E+03  0.59139045061E+03  0.25500000920E-02 0. -1.
        2   -1    0    0  501    0  0.00000000000E+00  0.00000000000E+00 -0.95804694561E+03  0.95804694562E+03  0.25500000920E-02 0.  1.
    10030    2    1    2    0    0  0.00000000000E+00  0.00000000000E+00 -0.36665649500E+03  0.15494373962E+04  0.15054299251E+04 0.  0.
        2    1    3    3  502    0 -0.69426996270E+03  0.16048467557E+03 -0.43293294229E+03  0.83378477123E+03  0.25500000920E-02 0. -1.
       -2    1    3    3    0  502  0.69426996270E+03 -0.16048467557E+03  0.66276447285E+02  0.71565262500E+03  0.25500000920E-02 0.  1.
</event>
<event>
 5   0  0.8365016E-04  0.1491161E+04  0.7818609E-02  0.8890352E-01
       -1   -1    0    0    0  501  0.00000000000E+00  0.00000000000E+00  0.47874953885E+03  0.47874953888E+03  0.50400001928E-02 0. -1.
        1   -1    0    0  501    0  0.00000000000E+00  0.00000000000E+00 -0.11611299663E+04  0.11611299663E+04  0.50400001928E-02 0.  1.
    10030    2    1    2    0    0  0.00000000000E+00  0.00000000000E+00 -0.68238042744E+03  0.16398795052E+04  0.14911612065E+04 0.  0.
        3    1    3    3  502    0  0.17249496917E+03 -0.44260418508E+03  0.29078566202E+03  0.55696435296E+03  0.10100000352E+00 0. -1.
       -3    1    3    3    0  502 -0.17249496917E+03  0.44260418508E+03 -0.97316608946E+03  0.10829151522E+04  0.10100000352E+00 0.  1.
</event>
<event>
 5   0  0.8191876E-04  0.1496499E+04  0.7818609E-02  0.8886784E-01
       -1   -1    0    0    0  501  0.00000000000E+00  0.00000000000E+00  0.46721957714E+03  0.46721957716E+03  0.50400001928E-02 0.  1.
        1   -1    0    0  501    0  0.00000000000E+00  0.00000000000E+00 -0.11983173343E+04  0.11983173343E+04  0.50400001928E-02 0. -1.
    10030    2    1    2    0    0  0.00000000000E+00  0.00000000000E+00 -0.73109775716E+03  0.16655369115E+04  0.14964990053E+04 0.  0.
        2    1    3    3  502    0  0.29892856665E+03 -0.53503133421E+02 -0.11266481240E+04  0.11668576900E+04  0.25500000920E-02 0. -1.
       -2    1    3    3    0  502 -0.29892856665E+03  0.53503133421E+02  0.39555036686E+03  0.49867922152E+03  0.25500000920E-02 0.  1.
</event>
<event>
 5   0  0.1511546E-03  0.1447956E+04  0.7818609E-02  0.8919819E-01
        2   -1    0    0  501    0  0.00000000000E+00  0.00000000000E+00  0.58806738390E+03  0.58806738391E+03  0.25500000920E-02 0.  1.
       -2   -1    0    0    0  501  0.00000000000E+00  0.00000000000E+00 -0.89129888055E+03  0.89129888056E+03  0.25500000920E-02 0. -1.
    10030    2    1    2    0    0  0.00000000000E+00  0.00000000000E+00 -0.30323149665E+03  0.14793662645E+04  0.14479555255E+04 0.  0.
        1    1    3    3  502    0 -0.49569830489E+03  0.39903738961E+02 -0.68918044294E+03  0.84986987287E+03  0.50400001928E-02 0. -1.
       -1    1    3    3    0  502  0.49569830489E+03 -0.39903738961E+02  0.38594894629E+03  0.62949639159E+03  0.50400001928E-02 0.  1.
</event>
<event>
 5   0  0.8191876E-04  0.1180270E+04  0.7818609E-02  0.9130304E-01
       -1   -1    0    0    0  501  0.00000000000E+00  0.00000000000E+00  0.22993524214E+03  0.22993524219E+03  0.50400001928E-02 0. -1.
        1   -1    0    0  501    0  0.00000000000E+00  0.00000000000E+00 -0.15145974098E+04  0.15145974098E+04  0.50400001928E-02 0.  1.
    10030    2    1    2    0    0  0.00000000000E+00  0.00000000000E+00 -0.12846621677E+04  0.17445326520E+04  0.11802700068E+04 0.  0.
        2    1    3    3  502    0 -0.27616328587E+03  0.30955588443E+03 -0.21945591643E+02  0.41541860219E+03  0.25500000920E-02 0.  1.
       -2    1    3    3    0  502  0.27616328587E+03 -0.30955588443E+03 -0.12627165760E+04  0.13291140498E+04  0.25500000920E-02 0. -1.
</event>
<event>
 5   0  0.8058234E-04  0.1510753E+04  0.7818609E-02  0.8877334E-01
        1   -1    0    0  501    0  0.00000000000E+00  0.00000000000E+00  0.61310742840E+03  0.61310742842E+03  0.50400001928E-02 0.  1.
       -1   -1    0    0    0  501  0.00000000000E+00  0.00000000000E+00 -0.93065823365E+03  0.93065823367E+03  0.50400001928E-02 0. -1.
    10030    2    1    2    0    0  0.00000000000E+00  0.00000000000E+00 -0.31755080525E+03  0.15437656621E+04  0.15107527612E+04 0.  0.
        5    1    3    3  502    0  0.21666726693E+03 -0.10403599842E+03 -0.89052642908E+03  0.92240316804E+03  0.46999998093E+01 0. -1.
       -5    1    3    3    0  502 -0.21666726693E+03  0.10403599842E+03  0.57297562383E+03  0.62136249406E+03  0.46999998093E+01 0.  1.
</event>
<event>
 5   0  0.1484056E-03  0.1506549E+04  0.7818609E-02  0.8880110E-01
        2   -1    0    0  501    0  0.00000000000E+00  0.00000000000E+00  0.16011058458E+04  0.16011058458E+04  0.25500000920E-02 0. -1.
       -2   -1    0    0    0  501  0.00000000000E+00  0.00000000000E+00 -0.35439387502E+03  0.35439387503E+03  0.25500000920E-02 0.  1.
    10030    2    1    2    0    0  0.00000000000E+00  0.00000000000E+00  0.12467119707E+04  0.19554997208E+04  0.15065485123E+04 0.  0.
        5    1    3    3  502    0 -0.72527888037E+03  0.19371970017E+03  0.54288796755E+03  0.92644817009E+03  0.46999998093E+01 0.  1.
       -5    1    3    3    0  502  0.72527888037E+03 -0.19371970017E+03  0.70382400318E+03  0.10290515507E+04  0.46999998093E+01 0. -1.
</event>
<event>
 5   0  0.8191876E-04  0.1548792E+04  0.7818609E-02  0.8852640E-01
       -1   -1    0    0    0  501  0.00000000000E+00  0.00000000000E+00  0.52098619357E+03  0.52098619359E+03  0.50400001928E-02 0.  1.
        1   -1    0    0  501    0  0.00000000000E+00  0.00000000000E+00 -0.11510655448E+04  0.11510655448E+04  0.50400001928E-02 0. -1.
    10030    2    1    2    0    0  0.00000000000E+00  0.00000000000E+00 -0.63007935125E+03  0.16720517384E+04  0.15487921187E+04 0.  0.
        2    1    3    3  502    0  0.36180453934E+03 -0.29777110005E+03 -0.98064445261E+03  0.10868457550E+04  0.25500000920E-02 0. -1.
       -2    1    3    3    0  502 -0.36180453934E+03  0.29777110005E+03  0.35056510137E+03  0.58520598341E+03  0.25500000920E-02 0.  1.
</event>
<event>
 5   0  0.8365016E-04  0.1504319E+04  0.7818609E-02  0.8881586E-01
        1   -1    0    0  501    0  0.00000000000E+00  0.00000000000E+00  0.50317671446E+03  0.50317671449E+03  0.50400001928E-02 0.  1.
       -1   -1    0    0    0  501  0.00000000000E+00  0.00000000000E+00 -0.11243449375E+04  0.11243449375E+04  0.50400001928E-02 0. -1.
    10030    2    1    2    0    0  0.00000000000E+00  0.00000000000E+00 -0.62116822305E+03  0.16275216520E+04  0.15043193698E+04 0.  0.
        3    1    3    3  502    0 -0.19381303448E+03  0.78861623852E+02 -0.10922226726E+04  0.11120849899E+04  0.10100000352E+00 0. -1.
       -3    1    3    3    0  502  0.19381303448E+03 -0.78861623852E+02  0.47105444952E+03  0.51543666213E+03  0.10100000352E+00 0.  1.
</event>
<event>
 5   0  0.8058234E-04  0.1492515E+04  0.7818609E-02  0.8889446E-01
        1   -1    0    0  501    0  0.00000000000E+00  0.00000000000E+00  0.82917244426E+03  0.82917244428E+03  0.50400001928E-02 0.  1.
       -1   -1    0    0    0  501  0.00000000000E+00  0.00000000000E+00 -0.67163392380E+03  0.67163392382E+03  0.50400001928E-02 0. -1.
    10030    2    1    2    0    0  0.00000000000E+00  0.00000000000E+00  0.15753852046E+03  0.15008063681E+04  0.14925151152E+04 0.  0.
        5    1    3    3  502    0 -0.43148681189E+03 -0.60557676963E+03  0.14216040198E+03  0.75705730472E+03  0.46999998093E+01 0. -1.
       -5    1    3    3    0  502  0.43148681189E+03  0.60557676963E+03  0.15378118488E+02  0.74374906338E+03  0.46999998093E+01 0.  1.
</event>
<event>
 5   0  0.1526126E-03  0.1518746E+04  0.7818609E-02  0.8872082E-01
       -2   -1    0    0    0  501  0.00000000000E+00  0.00000000000E+00  0.72306413360E+03  0.72306413361E+03  0.25500000920E-02 0. -1.
        2   -1    0    0  501    0  0.00000000000E+00  0.00000000000E+00 -0.79750462204E+03  0.79750462204E+03  0.25500000920E-02 0.  1.
    10030    2    1    2    0    0  0.00000000000E+00  0.00000000000E+00 -0.74440488435E+02  0.15205687556E+04  0.15187455199E+04 0.  0.
        2    1    3    3  502    0  0.75680731818E+03  0.20900099983E+02 -0.96051806802E+02  0.76316451740E+03  0.25500000920E-02 0.  1.
       -2    1    3    3    0  502 -0.75680731818E+03 -0.20900099983E+02  0.21611318366E+02  0.75740423825E+03  0.25500000920E-02 0. -1.
</event>
<event>
 5   0  0.1552067E-03  0.1253765E+04  0.7818609E-02  0.9067055E-01
        2   -1    0    0  501    0  0.00000000000E+00  0.00000000000E+00  0.16590858358E+04  0.16590858358E+04  0.25500000920E-02 0.  1.
       -2   -1    0    0    0  501  0.00000000000E+00  0.00000000000E+00 -0.23686642059E+03  0.23686642061E+03  0.25500000920E-02 0. -1.
    10030    2    1    2    0    0  0.00000000000E+00  0.00000000000E+00  0.14222194152E+04  0.18959522564E+04  0.12537650871E+04 0.  0.
        3    1    3    3  502    0  0.17794847198E+03 -0.30940714350E+03  0.14904221047E+04  0.15325653328E+04  0.10100000352E+00 0.  1.
       -3    1    3    3    0  502 -0.17794847198E+03  0.30940714350E+03 -0.68202689516E+02  0.36338692352E+03  0.10100000352E+00 0. -1.
</event>
<event>
 5   0  0.8365016E-04  0.1497639E+04  0.7818609E-02  0.8886024E-01
       -1   -1    0    0    0  501  0.00000000000E+00  0.00000000000E+00  0.22103664217E+03  0.22103664222E+03  0.50400001928E-02 0.  1.
        1   -1    0    0  501    0  0.00000000000E+00  0.00000000000E+00 -0.25368236005E+04  0.25368236005E+04  0.50400001928E-02 0. -1.
    10030    2    1    2    0    0  0.00000000000E+00  0.00000000000E+00 -0.23157869583E+04  0.27578602427E+04  0.14976394366E+04 0.  0.
        3    1    3    3  502    0 -0.11010968186E+03  0.30490380126E+03  0.85120868930E+02  0.33516569424E+03  0.10100000352E+00 0.  1.
       -3    1    3    3    0  502  0.11010968186E+03 -0.30490380126E+03 -0.24009078273E+04  0.24226945485E+04  0.10100000352E+00 0. -1.
</event>
<event>
 5   0  0.1511546E-03  0.1486832E+04  0.7818609E-02  0.8893257E-01
       -2   -1    0    0    0  501  0.00000000000E+00  0.00000000000E+00  0.84004293553E+03  0.84004293554E+03  0.25500000920E-02 0.  1.
        2   -1    0    0  501    0  0.00000000000E+00  0.00000000000E+00 -0.65790405655E+03  0.65790405656E+03  0.25500000920E-02 0. -1.
    10030    2    1    2    0    0  0.00000000000E+00  0.00000000000E+00  0.18213887898E+03  0.14979469921E+04  0.14868324115E+04 0.  0.
        1    1    3    3  502    0  0.42736742626E+03  0.26028439915E+03  0.64497638593E+03  0.81632433744E+03  0.50400001928E-02 0.  1.
       -1    1    3    3    0  502 -0.42736742626E+03 -0.26028439915E+03 -0.46283750695E+03  0.68162265465E+03  0.50400001928E-02 0. -1.
</event>
<event>
 5   0  0.1511546E-03  0.1471369E+04  0.7818609E-02  0.8903719E-01
        2   -1    0    0  501    0  0.00000000000E+00  0.00000000000E+00  0.12943096628E+04  0.12943096628E+04  0.25500000920E-02 0.  1.
       -2   -1    0    0    0  501  0.00000000000E+00  0.00000000000E+00 -0.41816243617E+03  0.41816243618E+03  0.25500000920E-02 0. -1.
    10030    2    1    2    0    0  0.00000000000E+00  0.00000000000E+00  0.87614722664E+03  0.17124720990E+04  0.14713689976E+04 0.  0.
        1    1    3    3  502    0 -0.83248664618E+02  0.68861862057E+03  0.72341178006E+03  0.10022228037E+04  0.50400001928E-02 0.  1.
       -1    1    3    3    0  502  0.83248664618E+02 -0.68861862057E+03  0.15273544659E+03  0.71024929527E+03  0.50400001928E-02 0. -1.
</event>
<event>
 5   0  0.1484056E-03  0.9406949E+03  0.7818609E-02  0.9376093E-01
        2   -1    0    0  501    0  0.00000000000E+00  0.00000000000E+00  0.12566982844E+04  0.12566982844E+04  0.25500000920E-02 0. -1.
       -2   -1    0    0    0  501  0.00000000000E+00  0.00000000000E+00 -0.17603807063E+03  0.17603807065E+03  0.25500000920E-02 0.  1.
    10030    2    1    2    0    0  0.00000000000E+00  0.00000000000E+00  0.10806602137E+04  0.14327363550E+04  0.94069493749E+03 0.  0.
        5    1    3    3  502    0 -0.28144909405E+03 -0.16218681628E+03  0.10583647535E+04  0.11071026137E+04  0.46999998093E+01 0. -1.
       -5    1    3    3    0  502  0.28144909405E+03  0.16218681628E+03  0.22295460250E+02  0.32563374128E+03  0.46999998093E+01 0.  1.
</event>
<event>
 5   0  0.1552067E-03  0.1093993E+04  0.7818609E-02  0.9211067E-01
       -2   -1    0    0    0  501  0.00000000000E+00  0.00000000000E+00  0.18492360056E+03  0.18492360058E+03  0.25500000920E-02 0. -1.
        2   -1    0    0  501    0  0.00000000000E+00  0.00000000000E+00 -0.16179922615E+04  0.16179922615E+04  0.25500000920E-02 0.  1.
    10030    2    1    2    0    0  0.00000000000E+00  0.00000000000E+00 -0.14330686609E+04  0.18029158620E+04  0.10939926045E+04 0.  0.
        3    1    3    3  502    0 -0.29636677747E+03  0.20162954899E+03 -0.13974600156E+04  0.14426996386E+04  0.10100000352E+00 0.  1.
       -3    1    3    3    0  502  0.29636677747E+03 -0.20162954899E+03 -0.35608645313E+02  0.36021622345E+03  0.10100000352E+00 0. -1.
</event>
<event>
 5   0  0.7870317E-04  0.1507587E+04  0.7818609E-02  0.8879423E-01
        1   -1    0    0  501    0  0.00000000000E+00  0.00000000000E+00  0.33242949781E+03  0.33242949785E+03  0.50400001928E-02 0.  1.
       -1   -1    0    0    0  501  0.00000000000E+00  0.00000000000E+00 -0.17092479629E+04  0.17092479629E+04  0.50400001928E-02 0. -1.
    10030    2    1    2    0    0  0.00000000000E+00  0.00000000000E+00 -0.13768184651E+04  0.20416774607E+04  0.15075867365E+04 0.  0.
        1    1    3    3  502    0 -0.16836838353E+03 -0.43703805292E+02 -0.16816953652E+04  0.16906676896E+04  0.50400001928E-02 0. -1.
       -1    1    3    3    0  502  0.16836838353E+03  0.43703805292E+02  0.30487690016E+03  0.35100977115E+03  0.50400001928E-02 0.  1.
</event>
<event>
 5   0  0.7870317E-04  0.1468525E+04  0.7818609E-02  0.8905658E-01
        1   -1    0    0  501    0  0.00000000000E+00  0.00000000000E+00  0.92524805838E+03  0.92524805840E+03  0.50400001928E-02 0.  1.
       -1   -1    0    0    0  501  0.00000000000E+00  0.00000000000E+00 -0.58269910881E+03  0.58269910883E+03  0.50400001928E-02 0. -1.
    10030    2    1    2    0    0  0.00000000000E+00  0.00000000000E+00  0.34254894957E+03  0.15079471672E+04  0.14685247278E+04 0.  0.
        1    1    3    3  502    0  0.37509823534E+03  0.28025486367E+03 -0.40950573386E+03  0.62204213752E+03  0.50400001928E-02 0. -1.
       -1    1    3    3    0  502 -0.37509823534E+03 -0.28025486367E+03  0.75205468343E+03  0.88590502971E+03  0.50400001928E-02 0.  1.
</event>
<event>
 5   0  0.7870317E-04  0.1484102E+04  0.7818609E-02  0.8895094E-01
       -1   -1    0    0    0  501  0.00000000000E+00  0.00000000000E+00  0.43935607112E+03  0.43935607115E+03  0.50400001928E-02 0. -1.
        1   -1    0    0  501    0  0.00000000000E+00  0.00000000000E+00 -0.12532875883E+04  0.12532875883E+04  0.50400001928E-02 0.  1.
    10030    2    1    2    0    0  0.00000000000E+00  0.00000000000E+00 -0.81393151714E+03  0.16926436594E+04  0.14841017631E+04 0.  0.
        1    1    3    3  502    0  0.29220736599E+03 -0.67956067270E+03 -0.33995944187E+03  0.81410089962E+03  0.50400001928E-02 0.  1.
       -1    1    3    3    0  502 -0.29220736599E+03  0.67956067270E+03 -0.47397207527E+03  0.87854275979E+03  0.50400001928E-02 0. -1.
</event>
<event>
 5   0  0.1484056E-03  0.1217877E+04  0.7818609E-02  0.9097351E-01
        2   -1    0    0  501    0  0.00000000000E+00  0.00000000000E+00  0.18509253337E+04  0.18509253337E+04  0.25500000920E-02 0. -1.
       -2   -1    0    0    0  501  0.00000000000E+00  0.00000000000E+00 -0.20033568199E+03  0.20033568201E+03  0.25500000920E-02 0.  1.
    10030    2    1    2    0    0  0.00000000000E+00  0.00000000000E+00  0.16505896517E+04  0.20512610157E+04  0.12178774800E+04 0.  0.
        5    1    3    3  502    0  0.24763370684E+03  0.37420908035E+03  0.15185797020E+04  0.15834965393E+04  0.46999998093E+01 0. -1.
       -5    1    3    3    0  502 -0.24763370684E+03 -0.37420908035E+03  0.13200994969E+03  0.46776447641E+03  0.46999998093E+01 0.  1.
</event>
<event>
 5   0  0.1511546E-03  0.1556481E+04  0.7818609E-02  0.8847739E-01
        2   -1    0    0  501    0  0.00000000000E+00  0.00000000000E+00  0.11151184220E+04  0.11151184220E+04  0.25500000920E-02 0. -1.
       -2   -1    0    0    0  501  0.00000000000E+00  0.00000000000E+00 -0.54313345148E+03  0.54313345149E+03  0.25500000920E-02 0.  1.
    10030    2    1    2    0    0  0.00000000000E+00  0.00000000000E+00  0.57198497050E+03  0.16582518735E+04  0.15564807963E+04 0.  0.
        1    1    3    3  502    0 -0.57376446250E+03 -0.20148167035E+03 -0.23141375600E+03  0.65065570650E+03  0.50400001928E-02 0.  1.
       -1    1    3    3    0  502  0.57376446250E+03  0.20148167035E+03  0.80339872651E+03  0.10075961670E+04  0.50400001928E-02 0. -1.
</event>
<event>
 5   0  0.8058234E-04  0.1242344E+04  0.7818609E-02  0.9076580E-01
        1   -1    0    0  501    0  0.00000000000E+00  0.00000000000E+00  0.13481504719E+04  0.13481504719E+04  0.50400001928E-02 0. -1.
       -1   -1    0    0    0  501  0.00000000000E+00  0.00000000000E+00 -0.28621027935E+03  0.28621027939E+03  0.50400001928E-02 0.  1.
    10030    2    1    2    0    0  0.00000000000E+00  0.00000000000E+00  0.10619401925E+04  0.16343607513E+04  0.12423437901E+04 0.  0.
        5    1    3    3  502    0 -0.56027332574E+03 -0.83626680325E+02  0.19574367844E+03  0.59936407871E+03  0.46999998093E+01 0. -1.
       -5    1    3    3    0  502  0.56027332574E+03  0.83626680325E+02  0.86619651411E+03  0.10349966726E+04  0.46999998093E+01 0.  1.
</event>
<event>
 5   0  0.8058234E-04  0.1147718E+04  0.7818609E-02  0.9159891E-01
        1   -1    0    0  501    0  0.00000000000E+00  0.00000000000E+00  0.51502788641E+03  0.51502788643E+03  0.50400001928E-02 0.  1.
       -1   -1    0    0    0  501  0.00000000000E+00  0.00000000000E+00 -0.63941079712E+03  0.63941079714E+03  0.50400001928E-02 0. -1.
    10030    2    1    2    0    0  0.00000000000E+00  0.00000000000E+00 -0.12438291072E+03  0.11544386836E+04  0.11477184174E+04 0.  0.
        5    1    3    3  502    0  0.96463394259E+02  0.43755836999E+03 -0.42280116436E+03  0.61607258352E+03  0.46999998093E+01 0. -1.
       -5    1    3    3    0  502 -0.96463394259E+02 -0.43755836999E+03  0.29841825364E+03  0.53836610005E+03  0.46999998093E+01 0.  1.
</event>
<event>
 5   0  0.1511546E-03  0.1499744E+04  0.7818609E-02  0.8884623E-01
       -2   -1    0    0    0  501  0.00000000000E+00  0.00000000000E+00  0.45106198498E+03  0.45106198499E+03  0.25500000920E-02 0. -1.
        2   -1    0    0  501    0  0.00000000000E+00  0.00000000000E+00 -0.12466319305E+04  0.12466319305E+04  0.25500000920E-02 0.  1.
    10030    2    1    2    0    0  0.00000000000E+00  0.00000000000E+00 -0.79556994554E+03  0.16976939155E+04  0.14997443424E+04 0.  0.
        1    1    3    3  502    0  0.89904188287E+02  0.66841128852E+03 -0.26720711666E+02  0.67495956186E+03  0.50400001928E-02 0. -1.
       -1    1    3    3    0  502 -0.89904188287E+02 -0.66841128852E+03 -0.76884923387E+03  0.10227343537E+04  0.50400001928E-02 0.  1.
</event>
<event>
 5   0  0.7870317E-04  0.1567678E+04  0.7818609E-02  0.8840655E-01
       -1   -1    0    0    0  501  0.00000000000E+00  0.00000000000E+00  0.53192309557E+03  0.53192309559E+03  0.50400001928E-02 0. -1.
        1   -1    0    0  501    0  0.00000000000E+00  0.00000000000E+00 -0.11550604264E+04  0.11550604264E+04  0.50400001928E-02 0.  1.
    10030    2    1    2    0    0  0.00000000000E+00  0.00000000000E+00 -0.62313733078E+03  0.16869835220E+04  0.15676776679E+04 0.  0.
        1    1    3    3  502    0 -0.57657997039E+03 -0.52889293380E+03 -0.26073920231E+03  0.82471639327E+03  0.50400001928E-02 0. -1.
       -1    1    3    3    0  502  0.57657997039E+03  0.52889293380E+03 -0.36239812847E+03  0.86226712869E+03  0.50400001928E-02 0.  1.
</event>
<event>
 5   0  0.8191876E-04  0.1539394E+04  0.7818609E-02  0.8858671E-01
        1   -1    0    0  501    0  0.00000000000E+00  0.00000000000E+00  0.15752995447E+04  0.15752995447E+04  0.50400001928E-02 0.  1.
       -1   -1    0    0    0  501  0.00000000000E+00  0.00000000000E+00 -0.37607653947E+03  0.37607653950E+03  0.50400001928E-02 0. -1.
    10030    2    1    2    0    0  0.00000000000E+00  0.00000000000E+00  0.11992230052E+04  0.19513760842E+04  0.15393936487E+04 0.  0.
        2    1    3    3  502    0 -0.70862723708E+03 -0.20754233490E+03  0.32419265398E+03  0.80642870658E+03  0.25500000920E-02 0. -1.
       -2    1    3    3    0  502  0.70862723708E+03  0.20754233490E+03  0.87503035120E+03  0.11449473776E+04  0.25500000920E-02 0.  1.
</event>
<event>
 5   0  0.8306301E-04  0.1467528E+04  0.7818609E-02  0.8906338E-01
        1   -1    0    0  501    0  0.00000000000E+00  0.00000000000E+00  0.10185431039E+04  0.10185431039E+04  0.50400001928E-02 0.  1.
       -1   -1    0    0    0  501  0.00000000000E+00  0.00000000000E+00 -0.52860744418E+03  0.52860744421E+03  0.50400001928E-02 0. -1.
    10030    2    1    2    0    0  0.00000000000E+00  0.00000000000E+00  0.48993565974E+03  0.15471505481E+04  0.14675278082E+04 0.  0.
        4    1    3    3  502    0 -0.34168450911E+03 -0.14836177955E+03 -0.42150928094E+03  0.56252218465E+03  0.12699999809E+01 0. -1.
       -4    1    3    3    0  502  0.34168450911E+03  0.14836177955E+03  0.91144494069E+03  0.98462836350E+03  0.12699999809E+01 0.  1.
</event>
<event>
 5   0  0.8306301E-04  0.1416159E+04  0.7818609E-02  0.8942204E-01
       -1   -1    0    0    0  501  0.00000000000E+00  0.00000000000E+00  0.54155290887E+03  0.54155290889E+03  0.50400001928E-02 0.  1.
        1   -1    0    0  501    0  0.00000000000E+00  0.00000000000E+00 -0.92581319848E+03  0.92581319849E+03  0.50400001928E-02 0. -1.
    10030    2    1    2    0    0  0.00000000000E+00  0.00000000000E+00 -0.38426028961E+03  0.14673661074E+04  0.14161593565E+04 0.  0.
        4    1    3    3  502    0  0.43657777265E+03 -0.42897545192E+02  0.38378675239E+03  0.58286725347E+03  0.12699999809E+01 0.  1.
       -4    1    3    3    0  502 -0.43657777265E+03  0.42897545192E+02 -0.76804704200E+03  0.88449885392E+03  0.12699999809E+01 0. -1.
</event>
<event>
 5   0  0.7870317E-04  0.1499486E+04  0.7818609E-02  0.8884795E-01
       -1   -1    0    0    0  501  0.00000000000E+00  0.00000000000E+00  0.53058009527E+03  0.53058009530E+03  0.50400001928E-02 0.  1.
        1   -1    0    0  501    0  0.00000000000E+00  0.00000000000E+00 -0.10594338966E+04  0.10594338967E+04  0.50400001928E-02 0. -1.
    10030    2    1    2    0    0  0.00000000000E+00  0.00000000000E+00 -0.52885380136E+03  0.15900139919E+04  0.14994859624E+04 0.  0.
        1    1    3    3  502    0  0.86713349064E+02 -0.62427195266E+03  0.16614169379E+03  0.65179577954E+03  0.50400001928E-02 0.  1.
       -1    1    3    3    0  502 -0.86713349064E+02  0.62427195266E+03 -0.69499549515E+03  0.93821821241E+03  0.50400001928E-02 0. -1.
</event>
<event>
 5   0  0.8365016E-04  0.1473352E+04  0.7818609E-02  0.8902369E-01
       -1   -1    0    0    0  501  0.00000000000E+00  0.00000000000E+00  0.88681542877E+03  0.88681542878E+03  0.50400001928E-02 0. -1.
        1   -1    0    0  501    0  0.00000000000E+00  0.00000000000E+00 -0.61195540436E+03  0.61195540438E+03  0.50400001928E-02 0.  1.
    10030    2    1    2    0    0  0.00000000000E+00  0.00000000000E+00  0.27486002440E+03  0.14987708332E+04  0.14733519530E+04 0.  0.
        3    1    3    3  502    0  0.38240669640E+03  0.38850063421E+03  0.64148228963E+03  0.84182371216E+03  0.10100000352E+00 0. -1.
       -3    1    3    3    0  502 -0.38240669640E+03 -0.38850063421E+03 -0.36662226523E+03  0.65694712101E+03  0.10100000352E+00 0.  1.
</event>
<event>
 5   0  0.8306301E-04  0.1468706E+04  0.7818609E-02  0.8905534E-01
        1   -1    0    0  501    0  0.00000000000E+00  0.00000000000E+00  0.12163693481E+04  0.12163693481E+04  0.50400001928E-02 0.  1.
       -1   -1    0    0    0  501  0.00000000000E+00  0.00000000000E+00 -0.44334748588E+03  0.44334748591E+03  0.50400001928E-02 0. -1.
    10030    2    1    2    0    0  0.00000000000E+00  0.00000000000E+00  0.77302186223E+03  0.16597168340E+04  0.14687059507E+04 0.  0.
        4    1    3    3  502    0  0.73140735571E+03  0.62883546467E+02  0.40800035827E+03  0.83986723097E+03  0.12699999809E+01 0.  1.
       -4    1    3    3    0  502 -0.73140735571E+03 -0.62883546467E+02  0.36502150396E+03  0.81984960307E+03  0.12699999809E+01 0. -1.
</event>
<event>
 5   0  0.1484056E-03  0.1489090E+04  0.7818609E-02  0.8891741E-01
       -2   -1    0    0    0  501  0.00000000000E+00  0.00000000000E+00  0.36944112260E+03  0.36944112261E+03  0.25500000920E-02 0.  1.
        2   -1    0    0  501    0  0.00000000000E+00  0.00000000000E+00 -0.15005020580E+04  0.15005020580E+04  0.25500000920E-02 0. -1.
    10030    2    1    2    0    0  0.00000000000E+00  0.00000000000E+00 -0.11310609354E+04  0.18699431806E+04  0.14890898761E+04 0.  0.
        5    1    3    3  502    0 -0.56754156370E+03 -0.34375246616E+03 -0.98962859898E+03  0.11914931970E+04  0.46999998093E+01 0. -1.
       -5    1    3    3    0  502  0.56754156370E+03  0.34375246616E+03 -0.14143233644E+03  0.67844998365E+03  0.46999998093E+01 0.  1.
</event>
<event>
 5   0  0.8191876E-04  0.1456193E+04  0.7818609E-02  0.8914118E-01
        1   -1    0    0  501    0  0.00000000000E+00  0.00000000000E+00  0.62823022382E+03  0.62823022384E+03  0.50400001928E-02 0.  1.
       -1   -1    0    0    0  501  0.00000000000E+00  0.00000000000E+00 -0.84383773434E+03  0.84383773436E+03  0.50400001928E-02 0. -1.
    10030    2    1    2    0    0  0.00000000000E+00  0.00000000000E+00 -0.21560751052E+03  0.14720679582E+04  0.14561928014E+04 0.  0.
        2    1    3    3  502    0  0.49646789406E+03 -0.11302004800E+03  0.41832229860E+03  0.65897454169E+03  0.25500000920E-02 0.  1.
       -2    1    3    3    0  502 -0.49646789406E+03  0.11302004800E+03 -0.63392980912E+03  0.81309341651E+03  0.25500000920E-02 0. -1.
</event>
<event>
 5   0  0.8365016E-04  0.1488539E+04  0.7818609E-02  0.8892110E-01
       -1   -1    0    0    0  501  0.00000000000E+00  0.00000000000E+00  0.75239936631E+03  0.75239936632E+03  0.50400001928E-02 0.  1.
        1   -1    0    0  501    0  0.00000000000E+00  0.00000000000E+00 -0.73622726965E+03  0.73622726967E+03  0.50400001928E-02 0. -1.
    10030    2    1    2    0    0  0.00000000000E+00  0.00000000000E+00  0.16172096654E+02  0.14886266360E+04  0.14885387884E+04 0.  0.
        3    1    3    3  502    0 -0.12858467251E+03 -0.14468661328E+03  0.72678601945E+03  0.75212110883E+03  0.10100000352E+00 0.  1.
       -3    1    3    3    0  502  0.12858467251E+03  0.14468661328E+03 -0.71061392280E+03  0.73650552717E+03  0.10100000352E+00 0. -1.
</event>
<event>
 5   0  0.8191876E-04  0.1426416E+04  0.7818609E-02  0.8934916E-01
       -1   -1    0    0    0  501  0.00000000000E+00  0.00000000000E+00  0.45426726281E+03  0.45426726284E+03  0.50400001928E-02 0. -1.
        1   -1    0    0  501    0  0.00000000000E+00  0.00000000000E+00 -0.11197498620E+04  0.11197498620E+04  0.50400001928E-02 0.  1.
    10030    2    1    2    0    0  0.00000000000E+00  0.00000000000E+00 -0.66548259919E+03  0.15740171248E+04  0.14264160752E+04 0.  0.
        2    1    3    3  502    0  0.32628496611E+03 -0.49242275663E+03  0.10826810170E+03  0.60055310523E+03  0.25500000920E-02 0. -1.
       -2    1    3    3    0  502 -0.32628496611E+03  0.49242275663E+03 -0.77375070089E+03  0.97346401961E+03  0.25500000920E-02 0.  1.
</event>
<event>
 5   0  0.1511546E-03  0.1512174E+04  0.7818609E-02  0.8876397E-01
        2   -1    0    0  501    0  0.00000000000E+00  0.00000000000E+00  0.16787183362E+04  0.16787183362E+04  0.25500000920E-02 0.  1.
       -2   -1    0    0    0  501  0.00000000000E+00  0.00000000000E+00 -0.34053813995E+03  0.34053813996E+03  0.25500000920E-02 0. -1.
    10030    2    1    2    0    0  0.00000000000E+00  0.00000000000E+00  0.13381801962E+04  0.20192564761E+04  0.15121740901E+04 0.  0.
        1    1    3    3  502    0 -0.51072628309E+03  0.52451796457E+03  0.41676089349E+03  0.84240730871E+03  0.50400001928E-02 0.  1.
       -1    1    3    3    0  502  0.51072628309E+03 -0.52451796457E+03  0.92141930270E+03  0.11768491674E+04  0.50400001928E-02 0. -1.
</event>
<event>
 5   0  0.7870317E-04  0.1519350E+04  0.7818609E-02  0.8871687E-01
        1   -1    0    0  501    0  0.00000000000E+00  0.00000000000E+00  0.11599860789E+04  0.11599860789E+04  0.50400001928E-02 0.  1.
       -1   -1    0    0    0  501  0.00000000000E+00  0.00000000000E+00 -0.49751106058E+03  0.49751106060E+03  0.50400001928E-02 0. -1.
    10030    2    1    2    0    0  0.00000000000E+00  0.00000000000E+00  0.66247501828E+03  0.16574971395E+04  0.15193497351E+04 0.  0.
        1    1    3    3  502    0 -0.45996350159E+03 -0.36737798392E+03 -0.19260309985E+03  0.61937788140E+03  0.50400001928E-02 0. -1.
       -1    1    3    3    0  502  0.45996350159E+03  0.36737798392E+03  0.85507811813E+03  0.10381192581E+04  0.50400001928E-02 0.  1.
</event>
<event>
 5   0  0.1526126E-03  0.1489419E+04  0.7818609E-02  0.8891520E-01
       -2   -1    0    0    0  501  0.00000000000E+00  0.00000000000E+00  0.51557096317E+03  0.51557096317E+03  0.25500000920E-02 0.  1.
        2   -1    0    0  501    0  0.00000000000E+00  0.00000000000E+00 -0.10756854292E+04  0.10756854292E+04  0.25500000920E-02 0. -1.
    10030    2    1    2    0    0  0.00000000000E+00  0.00000000000E+00 -0.56011446608E+03  0.15912563924E+04  0.14894189106E+04 0.  0.
        2    1    3    3  502    0  0.69763592513E+03  0.24769398832E+03 -0.19363127987E+03  0.76520668347E+03  0.25500000920E-02 0.  1.
       -2    1    3    3    0  502 -0.69763592513E+03 -0.24769398832E+03 -0.36648318621E+03  0.82604970895E+03  0.25500000920E-02 0. -1.
</event>
<event>
 5   0  0.5603875E-04  0.1499567E+04  0.7818609E-02  0.8884741E-01
        3   -1    0    0  501    0  0.00000000000E+00  0.00000000000E+00  0.50366219863E+03  0.50366220876E+03  0.10100000352E+00 0.  1.
       -3   -1    0    0    0  501  0.00000000000E+00  0.00000000000E+00 -0.11161753904E+04  0.11161753950E+04  0.10100000352E+00 0. -1.
    10030    2    1    2    0    0  0.00000000000E+00  0.00000000000E+00 -0.61251319180E+03  0.16198376038E+04  0.14995670883E+04 0.  0.
        2    1    3    3  502    0 -0.29114080795E+03 -0.49352333715E+03 -0.82861859928E+03  0.10074408357E+04  0.25500000920E-02 0. -1.
       -2    1    3    3    0  502  0.29114080795E+03  0.49352333715E+03  0.21610540749E+03  0.61239676805E+03  0.25500000920E-02 0.  1.
</event>
<event>
 5   0  0.7870317E-04  0.1500652E+04  0.7818609E-02  0.8884020E-01
       -1   -1    0    0    0  501  0.00000000000E+00  0.00000000000E+00  0.53592291724E+03  0.53592291726E+03  0.50400001928E-02 0. -1.
        1   -1    0    0  501    0  0.00000000000E+00  0.00000000000E+00 -0.10505037793E+04  0.10505037793E+04  0.50400001928E-02 0.  1.
    10030    2    1    2    0    0  0.00000000000E+00  0.00000000000E+00 -0.51458086203E+03  0.15864266965E+04  0.15006519250E+04 0.  0.
        1    1    3    3  502    0 -0.39051238680E+03 -0.24117346559E+03 -0.88478714078E+03  0.99675114711E+03  0.50400001928E-02 0.  1.
       -1    1    3    3    0  502  0.39051238680E+03  0.24117346559E+03  0.37020627875E+03  0.58967554943E+03  0.50400001928E-02 0. -1.
</event>
<event>
 5   0  0.8365016E-04  0.1707379E+04  0.7818609E-02  0.8757167E-01
       -1   -1    0    0    0  501  0.00000000000E+00  0.00000000000E+00  0.51369198801E+03  0.51369198804E+03  0.50400001928E-02 0.  1.
        1   -1    0    0  501    0  0.00000000000E+00  0.00000000000E+00 -0.14187207325E+04  0.14187207325E+04  0.50400001928E-02 0. -1.
    10030    2    1    2    0    0  0.00000000000E+00  0.00000000000E+00 -0.90502874451E+03  0.19324127206E+04  0.17073786616E+04 0.  0.
        3    1    3    3  502    0 -0.46091734513E+03  0.11499795240E+03 -0.12553084519E+04  0.13421880076E+04  0.10100000352E+00 0. -1.
       -3    1    3    3    0  502  0.46091734513E+03 -0.11499795240E+03  0.35027970744E+03  0.59022471293E+03  0.10100000352E+00 0.  1.
</event>
<event>
 5   0  0.1552067E-03  0.1471760E+04  0.7818609E-02  0.8903453E-01
        2   -1    0    0  501    0  0.00000000000E+00  0.00000000000E+00  0.11926303625E+04  0.11926303625E+04  0.25500000920E-02 0.  1.
       -2   -1    0    0    0  501  0.00000000000E+00  0.00000000000E+00 -0.45405450486E+03  0.45405450486E+03  0.25500000920E-02 0. -1.
    10030    2    1    2    0    0  0.00000000000E+00  0.00000000000E+00  0.73857585766E+03  0.16466848674E+04  0.14717597477E+04 0.  0.
        3    1    3    3  502    0 -0.24540403112E+03  0.64860559275E+03  0.64473257829E+03  0.94688566424E+03  0.10100000352E+00 0.  1.
       -3    1    3    3    0  502  0.24540403112E+03 -0.64860559275E+03  0.93843279371E+02  0.69979920314E+03  0.10100000352E+00 0. -1.
</event>
<event>
 5   0  0.1500956E-03  0.1479084E+04  0.7818609E-02  0.8898482E-01
       -2   -1    0    0    0  501  0.00000000000E+00  0.00000000000E+00  0.63144005039E+03  0.63144005040E+03  0.25500000920E-02 0. -1.
        2   -1    0    0  501    0  0.00000000000E+00  0.00000000000E+00 -0.86615083197E+03  0.86615083197E+03  0.25500000920E-02 0.  1.
    10030    2    1    2    0    0  0.00000000000E+00  0.00000000000E+00 -0.23471078157E+03  0.14975908824E+04  0.14790839395E+04 0.  0.
        4    1    3    3  502    0  0.43873622983E+03 -0.53121999780E+03 -0.38948691487E+03  0.79144540885E+03  0.12699999809E+01 0.  1.
       -4    1    3    3    0  502 -0.43873622983E+03  0.53121999780E+03  0.15477613330E+03  0.70614547352E+03  0.12699999809E+01 0. -1.
</event>
<event>
 5   0  0.7870317E-04  0.1521435E+04  0.7818609E-02  0.8870323E-01
       -1   -1    0    0    0  501  0.00000000000E+00  0.00000000000E+00  0.29678658148E+03  0.29678658152E+03  0.50400001928E-02 0.  1.
        1   -1    0    0  501    0  0.00000000000E+00  0.00000000000E+00 -0.19498552097E+04  0.19498552097E+04  0.50400001928E-02 0. -1.
    10030    2    1    2    0    0  0.00000000000E+00  0.00000000000E+00 -0.16530686283E+04  0.22466417913E+04  0.15214346678E+04 0.  0.
        1    1    3    3  502    0 -0.20215720450E+03  0.15704025992E+03  0.23127560686E+03  0.34498925334E+03  0.50400001928E-02 0.  1.
       -1    1    3    3    0  502  0.20215720450E+03 -0.15704025992E+03 -0.18843442351E+04  0.19016525379E+04  0.50400001928E-02 0. -1.
</event>
<event>
 5   0  0.8058234E-04  0.1405016E+04  0.7818609E-02  0.8950196E-01
       -1   -1    0    0    0  501  0.00000000000E+00  0.00000000000E+00  0.40929363901E+03  0.40929363904E+03  0.50400001928E-02 0.  1.
        1   -1    0    0  501    0  0.00000000000E+00  0.00000000000E+00 -0.12057789056E+04  0.12057789056E+04  0.50400001928E-02 0. -1.
    10030    2    1    2    0    0  0.00000000000E+00  0.00000000000E+00 -0.79648526655E+03  0.16150725446E+04  0.14050162079E+04 0.  0.
        5    1    3    3  502    0  0.50853015001E+03  0.24874223843E+03  0.79901430250E+02  0.57173590337E+03  0.46999998093E+01 0.  1.
       -5    1    3    3    0  502 -0.50853015001E+03 -0.24874223843E+03 -0.87638669680E+03  0.10433366413E+04  0.46999998093E+01 0. -1.
</event>
<event>
 5   0  0.1552067E-03  0.1500684E+04  0.7818609E-02  0.8883998E-01
       -2   -1    0    0    0  501  0.00000000000E+00  0.00000000000E+00  0.66189252546E+03  0.66189252546E+03  0.25500000920E-02 0. -1.
        2   -1    0    0  501    0  0.00000000000E+00  0.00000000000E+00 -0.85061098177E+03  0.85061098178E+03  0.25500000920E-02 0.  1.
    10030    2    1    2    0    0  0.00000000000E+00  0.00000000000E+00 -0.18871845631E+03  0.15125035072E+04  0.15006839120E+04 0.  0.
        3    1    3    3  502    0 -0.65966838036E+01  0.18782023473E+03  0.63778705973E+03  0.66490021851E+03  0.10100000352E+00 0. -1.
       -3    1    3    3    0  502  0.65966838036E+01 -0.18782023473E+03 -0.82650551605E+03  0.84760328873E+03  0.10100000352E+00 0.  1.
</event>
<event>
 5   0  0.8306301E-04  0.1527351E+04  0.7818609E-02  0.8866466E-01
       -1   -1    0    0    0  501  0.00000000000E+00  0.00000000000E+00  0.34160434785E+03  0.34160434789E+03  0.50400001928E-02 0.  1.
        1   -1    0    0  501    0  0.00000000000E+00  0.00000000000E+00 -0.17072379807E+04  0.17072379807E+04  0.50400001928E-02 0. -1.
    10030    2    1    2    0    0  0.00000000000E+00  0.00000000000E+00 -0.13656336329E+04  0.20488423286E+04  0.15273505388E+04 0.  0.
        4    1    3    3  502    0 -0.43265921521E+03 -0.62889129584E+03 -0.65282003450E+03  0.10044271347E+04  0.12699999809E+01 0. -1.
       -4    1    3    3    0  502  0.43265921521E+03  0.62889129584E+03 -0.71281359838E+03  0.10444151940E+04  0.12699999809E+01 0.  1.
</event>
<event>
 5   0  0.1552067E-03  0.1473724E+04  0.7818609E-02  0.8902116E-01
        2   -1    0    0  501    0  0.00000000000E+00  0.00000000000E+00  0.20886174981E+04  0.20886174981E+04  0.25500000920E-02 0.  1.
       -2   -1    0    0    0  501  0.00000000000E+00  0.00000000000E+00 -0.25996426551E+03  0.25996426552E+03  0.25500000920E-02 0. -1.
    10030    2    1    2    0    0  0.00000000000E+00  0.00000000000E+00  0.18286532325E+04  0.23485817636E+04  0.14737244163E+04 0.  0.
        3    1    3    3  502    0 -0.23808422325E+03  0.52660049369E+03  0.18581706693E+03  0.60705862145E+03  0.10100000352E+00 0. -1.
       -3    1    3    3    0  502  0.23808422325E+03 -0.52660049369E+03  0.16428361656E+04  0.17415231421E+04  0.10100000352E+00 0.  1.
</event>
<event>
 5   0  0.5603875E-04  0.1474422E+04  0.7818609E-02  0.8901642E-01
        3   -1    0    0  501    0  0.00000000000E+00  0.00000000000E+00  0.83901958228E+03  0.83901958836E+03  0.10100000352E+00 0.  1.
       -3   -1    0    0    0  501  0.00000000000E+00  0.00000000000E+00 -0.64775635087E+03  0.64775635874E+03  0.10100000352E+00 0. -1.
    10030    2    1    2    0    0  0.00000000000E+00  0.00000000000E+00  0.19126323141E+03  0.14867759471E+04  0.14744222913E+04 0.  0.
        2    1    3    3  502    0 -0.63136828197E+03 -0.16718813361E+03  0.44040642440E+03  0.78774081915E+03  0.25500000920E-02 0.  1.
       -2    1    3    3    0  502  0.63136828197E+03  0.16718813361E+03 -0.24914319298E+03  0.69903512796E+03  0.25500000920E-02 0. -1.
</event>
<event>
 5   0  0.8191876E-04  0.1508584E+04  0.7818609E-02  0.8878765E-01
       -1   -1    0    0    0  501  0.00000000000E+00  0.00000000000E+00  0.58778103810E+03  0.58778103813E+03  0.50400001928E-02 0. -1.
        1   -1    0    0  501    0  0.00000000000E+00  0.00000000000E+00 -0.96797328444E+03  0.96797328446E+03  0.50400001928E-02 0.  1.
    10030    2    1    2    0    0  0.00000000000E+00  0.00000000000E+00 -0.38019224634E+03  0.15557543226E+04  0.15085838949E+04 0.  0.
        2    1    3    3  502    0  0.20921703205E+03  0.54027935292E+03  0.30799970641E+03  0.65615346135E+03  0.25500000920E-02 0. -1.
       -2    1    3    3    0  502 -0.20921703205E+03 -0.54027935292E+03 -0.68819195275E+03  0.89960086123E+03  0.25500000920E-02 0.  1.
</event>
<event>
 5   0  0.1484056E-03  0.1460355E+04  0.7818609E-02  0.8911253E-01
       -2   -1    0    0    0  501  0.00000000000E+00  0.00000000000E+00  0.39130389791E+03  0.39130389792E+03  0.25500000920E-02 0.  1.
        2   -1    0    0  501    0  0.00000000000E+00  0.00000000000E+00 -0.13625193331E+04  0.13625193331E+04  0.25500000920E-02 0. -1.
    10030    2    1    2    0    0  0.00000000000E+00  0.00000000000E+00 -0.97121543515E+03  0.17538232310E+04  0.14603549240E+04 0.  0.
        5    1    3    3  502    0 -0.65485269513E+03  0.25502964361E+03 -0.24763375017E+03  0.74512867054E+03  0.46999998093E+01 0.  1.
       -5    1    3    3    0  502  0.65485269513E+03 -0.25502964361E+03 -0.72358168499E+03  0.10086945605E+04  0.46999998093E+01 0. -1.
</event>
<event>
 5   0  0.7870317E-04  0.1166493E+04  0.7818609E-02  0.9142702E-01
        1   -1    0    0  501    0  0.00000000000E+00  0.00000000000E+00  0.61900474250E+03  0.61900474252E+03  0.50400001928E-02 0. -1.
       -1   -1    0    0    0  501  0.00000000000E+00  0.00000000000E+00 -0.54955383818E+03  0.54955383820E+03  0.50400001928E-02 0.  1.
    10030    2    1    2    0    0  0.00000000000E+00  0.00000000000E+00  0.69450904324E+02  0.11685585807E+04  0.11664929183E+04 0.  0.
        1    1    3    3  502    0  0.68256959097E+02  0.40564043445E+03 -0.37949589371E+03  0.55966088651E+03  0.50400001928E-02 0.  1.
       -1    1    3    3    0  502 -0.68256959097E+02 -0.40564043445E+03  0.44894679803E+03  0.60889769421E+03  0.50400001928E-02 0. -1.
</event>
<event>
 5   0  0.7870317E-04  0.1497788E+04  0.7818609E-02  0.8885925E-01
        1   -1    0    0  501    0  0.00000000000E+00  0.00000000000E+00  0.64788949094E+03  0.64788949096E+03  0.50400001928E-02 0.  1.
       -1   -1    0    0    0  501  0.00000000000E+00  0.00000000000E+00 -0.86564465884E+03  0.86564465885E+03  0.50400001928E-02 0. -1.
    10030    2    1    2    0    0  0.00000000000E+00  0.00000000000E+00 -0.21775516790E+03  0.15135341498E+04  0.14977878052E+04 0.  0.
        1    1    3    3  502    0  0.42906586623E+03  0.39303598168E+03 -0.58528630001E+03  0.82530894426E+03  0.50400001928E-02 0. -1.
       -1    1    3    3    0  502 -0.42906586623E+03 -0.39303598168E+03  0.36753113211E+03  0.68822520556E+03  0.50400001928E-02 0.  1.
</event>
<event>
 5   0  0.1484056E-03  0.1627263E+04  0.7818609E-02  0.8803972E-01
       -2   -1    0    0    0  501  0.00000000000E+00  0.00000000000E+00  0.31572037676E+03  0.31572037677E+03  0.25500000920E-02 0.  1.
        2   -1    0    0  501    0  0.00000000000E+00  0.00000000000E+00 -0.20967811107E+04  0.20967811107E+04  0.25500000920E-02 0. -1.
    10030    2    1    2    0    0  0.00000000000E+00  0.00000000000E+00 -0.17810607339E+04  0.24125014875E+04  0.16272633742E+04 0.  0.
        5    1    3    3  502    0  0.62904331698E+03  0.51581896464E+03 -0.91200093190E+03  0.12221016687E+04  0.46999998093E+01 0. -1.
       -5    1    3    3    0  502 -0.62904331698E+03 -0.51581896464E+03 -0.86905980202E+03  0.11903998187E+04  0.46999998093E+01 0.  1.
</event>
<event>
 5   0  0.8306301E-04  0.1501052E+04  0.7818609E-02  0.8883754E-01
        1   -1    0    0  501    0  0.00000000000E+00  0.00000000000E+00  0.38660875715E+03  0.38660875718E+03  0.50400001928E-02 0.  1.
       -1   -1    0    0    0  501  0.00000000000E+00  0.00000000000E+00 -0.14570007513E+04  0.14570007513E+04  0.50400001928E-02 0. -1.
    10030    2    1    2    0    0  0.00000000000E+00  0.00000000000E+00 -0.10703919942E+04  0.18436095085E+04  0.15010519640E+04 0.  0.
        4    1    3    3  502    0 -0.24833997807E+03 -0.70392942203E+03 -0.63110871794E+03  0.97749128010E+03  0.12699999809E+01 0. -1.
       -4    1    3    3    0  502  0.24833997807E+03  0.70392942203E+03 -0.43928327624E+03  0.86611822842E+03  0.12699999809E+01 0.  1.
</event>
<event>
 5   0  0.7870317E-04  0.1503877E+04  0.7818609E-02  0.8881879E-01
       -1   -1    0    0    0  501  0.00000000000E+00  0.00000000000E+00  0.61186357616E+03  0.61186357618E+03  0.50400001928E-02 0.  1.
        1   -1    0    0  501    0  0.00000000000E+00  0.00000000000E+00 -0.92408051786E+03  0.92408051788E+03  0.50400001928E-02 0. -1.
    10030    2    1    2    0    0  0.00000000000E+00  0.00000000000E+00 -0.31221694171E+03  0.15359440941E+04  0.15038766044E+04 0.  0.
        1    1    3    3  502    0  0.84566135410E+02  0.41507245617E+03 -0.79062448567E+03  0.89695242488E+03  0.50400001928E-02 0. -1.
       -1    1    3    3    0  502 -0.84566135410E+02 -0.41507245617E+03  0.47840754396E+03  0.63899166918E+03  0.50400001928E-02 0.  1.
</event>
<event>
 5   0  0.1484056E-03  0.1511765E+04  0.7818609E-02  0.8876667E-01
        2   -1    0    0  501    0  0.00000000000E+00  0.00000000000E+00  0.62182638308E+03  0.62182638309E+03  0.25500000920E-02 0. -1.
       -2   -1    0    0    0  501  0.00000000000E+00  0.00000000000E+00 -0.91883917056E+03  0.91883917057E+03  0.25500000920E-02 0.  1.
    10030    2    1    2    0    0  0.00000000000E+00  0.00000000000E+00 -0.29701278748E+03  0.15406655537E+04  0.15117651115E+04 0.  0.
        5    1    3    3  502    0  0.66274773736E+03  0.22046766026E+03 -0.44298676878E+03  0.82710333085E+03  0.46999998093E+01 0.  1.
       -5    1    3    3    0  502 -0.66274773736E+03 -0.22046766026E+03  0.14597398130E+03  0.71356222280E+03  0.46999998093E+01 0. -1.
</event>
<event>
 5   0  0.8058234E-04  0.1559120E+04  0.7818609E-02  0.8846063E-01
        1   -1    0    0  501    0  0.00000000000E+00  0.00000000000E+00  0.50587230481E+03  0.50587230483E+03  0.50400001928E-02 0.  1.
       -1   -1    0    0    0  501  0.00000000000E+00  0.00000000000E+00 -0.12013183130E+04  0.12013183130E+04  0.50400001928E-02 0. -1.
    10030    2    1    2    0    0  0.00000000000E+00  0.00000000000E+00 -0.69544600819E+03  0.17071906178E+04  0.15591198335E+04 0.  0.
        5    1    3    3  502    0  0.60279122290E+03 -0.10301768099E+03 -0.87708408954E+03  0.10692373409E+04  0.46999998093E+01 0.  1.
       -5    1    3    3    0  502 -0.60279122290E+03  0.10301768099E+03  0.18163808135E+03  0.63795327697E+03  0.46999998093E+01 0. -1.
</event>
<event>
 5   0  0.1552067E-03  0.1478963E+04  0.7818609E-02  0.8898564E-01
       -2   -1    0    0    0  501  0.00000000000E+00  0.00000000000E+00  0.22884978071E+04  0.22884978071E+04  0.25500000920E-02 0. -1.
        2   -1    0    0  501    0  0.00000000000E+00  0.00000000000E+00 -0.23894826644E+03  0.23894826646E+03  0.25500000920E-02 0.  1.
    10030    2    1    2    0    0  0.00000000000E+00  0.00000000000E+00  0.20495495407E+04  0.25274460736E+04  0.14789625875E+04 0.  0.
        3    1    3    3  502    0 -0.23412584837E+01  0.56792596828E+03  0.21544234250E+03  0.60742143531E+03  0.10100000352E+00 0.  1.
       -3    1    3    3    0  502  0.23412584837E+01 -0.56792596828E+03  0.18341071982E+04  0.19200246383E+04  0.10100000352E+00 0. -1.
</event>
<event>
 5   0  0.8191876E-04  0.1504787E+04  0.7818609E-02  0.8881276E-01
       -1   -1    0    0    0  501  0.00000000000E+00  0.00000000000E+00  0.45323540192E+03  0.45323540195E+03  0.50400001928E-02 0.  1.
        1   -1    0    0  501    0  0.00000000000E+00  0.00000000000E+00 -0.12490107778E+04  0.12490107778E+04  0.50400001928E-02 0. -1.
    10030    2    1    2    0    0  0.00000000000E+00  0.00000000000E+00 -0.79577537585E+03  0.17022461797E+04  0.15047868977E+04 0.  0.
        2    1    3    3  502    0 -0.62930698915E+03 -0.28991058067E+03 -0.66109161527E+02  0.69602144552E+03  0.25500000920E-02 0.  1.
       -2    1    3    3    0  502  0.62930698915E+03  0.28991058067E+03 -0.72966621432E+03  0.10062247342E+04  0.25500000920E-02 0. -1.
</event>
<event>
 5   0  0.8306301E-04  0.1501510E+04  0.7818609E-02  0.8883449E-01
       -1   -1    0    0    0  501  0.00000000000E+00  0.00000000000E+00  0.88256340845E+03  0.88256340846E+03  0.50400001928E-02 0. -1.
        1   -1    0    0  501    0  0.00000000000E+00  0.00000000000E+00 -0.63863171043E+03  0.63863171045E+03  0.50400001928E-02 0.  1.
    10030    2    1    2    0    0  0.00000000000E+00  0.00000000000E+00  0.24393169802E+03  0.15211951189E+04  0.15015098789E+04 0.  0.
        4    1    3    3  502    0 -0.48270733935E+03  0.77718405124E+02 -0.45522687183E+03  0.66804164817E+03  0.12699999809E+01 0.  1.
       -4    1    3    3    0  502  0.48270733935E+03 -0.77718405124E+02  0.69915856985E+03  0.85315347075E+03  0.12699999809E+01 0. -1.
</event>
<event>
 5   0  0.7870317E-04  0.1519499E+04  0.7818609E-02  0.8871589E-01
        1   -1    0    0  501    0  0.00000000000E+00  0.00000000000E+00  0.13957798842E+04  0.13957798842E+04  0.50400001928E-02 0. -1.
       -1   -1    0    0    0  501  0.00000000000E+00  0.00000000000E+00 -0.41354625457E+03  0.41354625460E+03  0.50400001928E-02 0.  1.
    10030    2    1    2    0    0  0.00000000000E+00  0.00000000000E+00  0.98223362963E+03  0.18093261388E+04  0.15194993167E+04 0.  0.
        1    1    3    3  502    0 -0.27240300577E+03  0.67396869360E+03  0.75411193393E+03  0.10474359200E+04  0.50400001928E-02 0. -1.
       -1    1    3    3    0  502  0.27240300577E+03 -0.67396869360E+03  0.22812169569E+03  0.76189021885E+03  0.50400001928E-02 0.  1.
</event>
<event>
 5   0  0.8306301E-04  0.1474502E+04  0.7818609E-02  0.8901588E-01
       -1   -1    0    0    0  501  0.00000000000E+00  0.00000000000E+00  0.80361832084E+03  0.80361832086E+03  0.50400001928E-02 0.  1.
        1   -1    0    0  501    0  0.00000000000E+00  0.00000000000E+00 -0.67636507432E+03  0.67636507433E+03  0.50400001928E-02 0. -1.
    10030    2    1    2    0    0  0.00000000000E+00  0.00000000000E+00  0.12725324653E+03  0.14799833952E+04  0.14745024453E+04 0.  0.
        4    1    3    3  502    0  0.12128318610E+02  0.54084854464E+03  0.56636118983E+03  0.78321826753E+03  0.12699999809E+01 0.  1.
       -4    1    3    3    0  502 -0.12128318610E+02 -0.54084854464E+03 -0.43910794330E+03  0.69676512766E+03  0.12699999809E+01 0. -1.
</event>
<event>
 5   0  0.1526126E-03  0.1053079E+04  0.7818609E-02  0.9252171E-01
        2   -1    0    0  501    0  0.00000000000E+00  0.00000000000E+00  0.56611223113E+03  0.56611223113E+03  0.25500000920E-02 0. -1.
       -2   -1    0    0    0  501  0.00000000000E+00  0.00000000000E+00 -0.48973307319E+03  0.48973307320E+03  0.25500000920E-02 0.  1.
    10030    2    1    2    0    0  0.00000000000E+00  0.00000000000E+00  0.76379157932E+02  0.10558453043E+04  0.10530790715E+04 0.  0.
        2    1    3    3  502    0  0.77386178912E+02 -0.51117945843E+03  0.13820542624E+03  0.53515773307E+03  0.25500000920E-02 0.  1.
       -2    1    3    3    0  502 -0.77386178912E+02  0.51117945843E+03 -0.61826268307E+02  0.52068757127E+03  0.25500000920E-02 0. -1.
</event>
<event>
 5   0  0.1511546E-03  0.1499903E+04  0.7818609E-02  0.8884517E-01
        2   -1    0    0  501    0  0.00000000000E+00  0.00000000000E+00  0.13320057336E+04  0.13320057336E+04  0.25500000920E-02 0. -1.
       -2   -1    0    0    0  501  0.00000000000E+00  0.00000000000E+00 -0.42224090281E+03  0.42224090282E+03  0.25500000920E-02 0.  1.
    10030    2    1    2    0    0  0.00000000000E+00  0.00000000000E+00  0.90976483083E+03  0.17542466365E+04  0.14999030682E+04 0.  0.
        1    1    3    3  502    0  0.27790594072E+02 -0.73320283995E+03  0.63633063459E+03  0.97122366022E+03  0.50400001928E-02 0.  1.
       -1    1    3    3    0  502 -0.27790594072E+02  0.73320283995E+03  0.27343419624E+03  0.78302297624E+03  0.50400001928E-02 0. -1.
</event>
<event>
 5   0  0.1552067E-03  0.1375963E+04  0.7818609E-02  0.8971404E-01
        2   -1    0    0  501    0  0.00000000000E+00  0.00000000000E+00  0.13441484451E+04  0.13441484451E+04  0.25500000920E-02 0.  1.
       -2   -1    0    0    0  501  0.00000000000E+00  0.00000000000E+00 -0.35213248724E+03  0.35213248725E+03  0.25500000920E-02 0. -1.
    10030    2    1    2    0    0  0.00000000000E+00  0.00000000000E+00  0.99201595782E+03  0.16962809323E+04  0.13759626960E+04 0.  0.
        3    1    3    3  502    0  0.33561198002E+03 -0.56064398301E+03  0.23056656600E+03  0.69290549744E+03  0.10100000352E+00 0. -1.
       -3    1    3    3    0  502 -0.33561198002E+03  0.56064398301E+03  0.76144939182E+03  0.10033754349E+04  0.10100000352E+00 0.  1.
</event>
<event>
 5   0  0.1511546E-03  0.1493564E+04  0.7818609E-02  0.8888744E-01
       -2   -1    0    0    0  501  0.00000000000E+00  0.00000000000E+00  0.31015069526E+03  0.31015069527E+03  0.25500000920E-02 0.  1.
        2   -1    0    0  501    0  0.00000000000E+00  0.00000000000E+00 -0.17981034209E+04  0.17981034209E+04  0.25500000920E-02 0. -1.
    10030    2    1    2    0    0  0.00000000000E+00  0.00000000000E+00 -0.14879527256E+04  0.21082541161E+04  0.14935635589E+04 0.  0.
        1    1    3    3  502    0 -0.27974260829E+03  0.44399988536E+02  0.23138558348E+03  0.36574112996E+03  0.50400001928E-02 0.  1.
       -1    1    3    3    0  502  0.27974260829E+03 -0.44399988536E+02 -0.17193383091E+04  0.17425129862E+04  0.50400001928E-02 0. -1.
</event>
<event>
 5   0  0.1500956E-03  0.1496006E+04  0.7818609E-02  0.8887113E-01
       -2   -1    0    0    0  501  0.00000000000E+00  0.00000000000E+00  0.11014292692E+04  0.11014292692E+04  0.25500000920E-02 0.  1.
        2   -1    0    0  501    0  0.00000000000E+00  0.00000000000E+00 -0.50798387525E+03  0.50798387525E+03  0.25500000920E-02 0. -1.
    10030    2    1    2    0    0  0.00000000000E+00  0.00000000000E+00  0.59344539395E+03  0.16094131445E+04  0.14960057600E+04 0.  0.
        4    1    3    3  502    0 -0.19128738015E+03 -0.54589327247E+03 -0.21348242012E+03  0.61657658351E+03  0.12699999809E+01 0. -1.
       -4    1    3    3    0  502  0.19128738015E+03  0.54589327247E+03  0.80692781407E+03  0.99283656095E+03  0.12699999809E+01 0.  1.
</event>
<event>
 5   0  0.8365016E-04  0.1507757E+04  0.7818609E-02  0.8879311E-01
       -1   -1    0    0    0  501  0.00000000000E+00  0.00000000000E+00  0.42366538082E+03  0.42366538085E+03  0.50400001928E-02 0.  1.
        1   -1    0    0  501    0  0.00000000000E+00  0.00000000000E+00 -0.13414660497E+04  0.13414660497E+04  0.50400001928E-02 0. -1.
    10030    2    1    2    0    0  0.00000000000E+00  0.00000000000E+00 -0.91780066889E+03  0.17651314306E+04  0.15077569099E+04 0.  0.
        3    1    3    3  502    0  0.14225057381E+03 -0.63379292915E+03 -0.90684277266E+03  0.11154786091E+04  0.10100000352E+00 0.  1.
       -3    1    3    3    0  502 -0.14225057381E+03  0.63379292915E+03 -0.10957896232E+02  0.64965282150E+03  0.10100000352E+00 0. -1.
</event>
<event>
 5   0  0.7870317E-04  0.1501628E+04  0.7818609E-02  0.8883371E-01
        1   -1    0    0  501    0  0.00000000000E+00  0.00000000000E+00  0.51643323253E+03  0.51643323256E+03  0.50400001928E-02 0. -1.
       -1   -1    0    0    0  501  0.00000000000E+00  0.00000000000E+00 -0.10915675086E+04  0.10915675086E+04  0.50400001928E-02 0.  1.
    10030    2    1    2    0    0  0.00000000000E+00  0.00000000000E+00 -0.57513427603E+03  0.16080007411E+04  0.15016280991E+04 0.  0.
        1    1    3    3  502    0  0.22638958300E+03  0.36151692016E+03 -0.94921605637E+03  0.10406526070E+04  0.50400001928E-02 0.  1.
       -1    1    3    3    0  502 -0.22638958300E+03 -0.36151692016E+03  0.37408178034E+03  0.56734813409E+03  0.50400001928E-02 0. -1.
</event>
<event>
 5   0  0.5603875E-04  0.1487353E+04  0.7818609E-02  0.8892907E-01
       -3   -1    0    0    0  501  0.00000000000E+00  0.00000000000E+00  0.58835200455E+03  0.58835201322E+03  0.10100000352E+00 0. -1.
        3   -1    0    0  501    0  0.00000000000E+00  0.00000000000E+00 -0.94000597846E+03  0.94000598389E+03  0.10100000352E+00 0.  1.
    10030    2    1    2    0    0  0.00000000000E+00  0.00000000000E+00 -0.35165397391E+03  0.15283579971E+04  0.14873525641E+04 0.  0.
        4    1    3    3  502    0  0.34204152529E+03 -0.60025777146E+03  0.10698991412E+03  0.69910675282E+03  0.12699999809E+01 0. -1.
       -4    1    3    3    0  502 -0.34204152529E+03  0.60025777146E+03 -0.45864388803E+03  0.82925124428E+03  0.12699999809E+01 0.  1.
</event>
<event>
 5   0  0.7870317E-04  0.1517625E+04  0.7818609E-02  0.8872816E-01
       -1   -1    0    0    0  501  0.00000000000E+00  0.00000000000E+00  0.63266172233E+03  0.63266172235E+03  0.50400001928E-02 0. -1.
        1   -1    0    0  501    0  0.00000000000E+00  0.00000000000E+00 -0.91011768480E+03  0.91011768481E+03  0.50400001928E-02 0.  1.
    10030    2    1    2    0    0  0.00000000000E+00  0.00000000000E+00 -0.27745596247E+03  0.15427794072E+04  0.15176252792E+04 0.  0.
        1    1    3    3  502    0 -0.41744108416E+03 -0.24916111838E+03  0.45355942381E+03  0.66487177155E+03  0.50400001928E-02 0. -1.
       -1    1    3    3    0  502  0.41744108416E+03  0.24916111838E+03 -0.73101538628E+03  0.87790763561E+03  0.50400001928E-02 0.  1.
</event>
<event>
 5   0  0.8306301E-04  0.1487171E+04  0.7818609E-02  0.8893029E-01
       -1   -1    0    0    0  501  0.00000000000E+00  0.00000000000E+00  0.70199239545E+03  0.70199239547E+03  0.50400001928E-02 0.  1.
        1   -1    0    0  501    0  0.00000000000E+00  0.00000000000E+00 -0.78764303136E+03  0.78764303138E+03  0.50400001928E-02 0. -1.
    10030    2    1    2    0    0  0.00000000000E+00  0.00000000000E+00 -0.85650635908E+02  0.14896354269E+04  0.14871710303E+04 0.  0.
        4    1    3    3  502    0  0.50695776887E+03 -0.54397603973E+03 -0.41521522573E+02  0.74474274817E+03  0.12699999809E+01 0. -1.
       -4    1    3    3    0  502 -0.50695776887E+03  0.54397603973E+03 -0.44129113335E+02  0.74489267868E+03  0.12699999809E+01 0.  1.
</event>
<event>
 5   0  0.8365016E-04  0.1571876E+04  0.7818609E-02  0.8838015E-01
        1   -1    0    0  501    0  0.00000000000E+00  0.00000000000E+00  0.49209299776E+03  0.49209299778E+03  0.50400001928E-02 0.  1.
       -1   -1    0    0    0  501  0.00000000000E+00  0.00000000000E+00 -0.12552470502E+04  0.12552470502E+04  0.50400001928E-02 0. -1.
    10030    2    1    2    0    0  0.00000000000E+00  0.00000000000E+00 -0.76315405246E+03  0.17473400480E+04  0.15718756743E+04 0.  0.
        3    1    3    3  502    0 -0.12412969425E+03  0.25864119909E+03 -0.11949623302E+04  0.12289175854E+04  0.10100000352E+00 0. -1.
       -3    1    3    3    0  502  0.12412969425E+03 -0.25864119909E+03  0.43180827773E+03  0.51842246265E+03  0.10100000352E+00 0.  1.
</event>
<event>
 5   0  0.1500956E-03  0.1504068E+04  0.7818609E-02  0.8881752E-01
        2   -1    0    0  501    0  0.00000000000E+00  0.00000000000E+00  0.49157482651E+03  0.49157482651E+03  0.25500000920E-02 0.  1.
       -2   -1    0    0    0  501  0.00000000000E+00  0.00000000000E+00 -0.11504964450E+04  0.11504964450E+04  0.25500000920E-02 0. -1.
    10030    2    1    2    0    0  0.00000000000E+00  0.00000000000E+00 -0.65892161846E+03  0.16420712715E+04  0.15040679377E+04 0.  0.
        4    1    3    3  502    0 -0.35926581029E+03 -0.47153046880E+03  0.17575162260E+03  0.61830668053E+03  0.12699999809E+01 0. -1.
       -4    1    3    3    0  502  0.35926581029E+03  0.47153046880E+03 -0.83467324106E+03  0.10237645910E+04  0.12699999809E+01 0.  1.
</event>
<event>
 5   0  0.8191876E-04  0.1516802E+04  0.7818609E-02  0.8873356E-01
       -1   -1    0    0    0  501  0.00000000000E+00  0.00000000000E+00  0.40335715725E+03  0.40335715728E+03  0.50400001928E-02 0.  1.
        1   -1    0    0  501    0  0.00000000000E+00  0.00000000000E+00 -0.14259614032E+04  0.14259614032E+04  0.50400001928E-02 0. -1.
    10030    2    1    2    0    0  0.00000000000E+00  0.00000000000E+00 -0.10226042460E+04  0.18293185605E+04  0.15168015533E+04 0.  0.
        2    1    3    3  502    0  0.35800763262E+03  0.37181337648E+03 -0.11814475261E+04  0.12892761181E+04  0.25500000920E-02 0. -1.
       -2    1    3    3    0  502 -0.35800763262E+03 -0.37181337648E+03  0.15884328008E+03  0.54004244238E+03  0.25500000920E-02 0.  1.
</event>
<event>
 5   0  0.8365016E-04  0.1543074E+04  0.7818609E-02  0.8856304E-01
        1   -1    0    0  501    0  0.00000000000E+00  0.00000000000E+00  0.40696763905E+03  0.40696763908E+03  0.50400001928E-02 0. -1.
       -1   -1    0    0    0  501  0.00000000000E+00  0.00000000000E+00 -0.14626945755E+04  0.14626945755E+04  0.50400001928E-02 0.  1.
    10030    2    1    2    0    0  0.00000000000E+00  0.00000000000E+00 -0.10557269365E+04  0.18696622146E+04  0.15430740204E+04 0.  0.
        3    1    3    3  502    0  0.76269387067E+03 -0.85722084513E+02 -0.62341579587E+03  0.98878586199E+03  0.10100000352E+00 0. -1.
       -3    1    3    3    0  502 -0.76269387067E+03  0.85722084513E+02 -0.43231114062E+03  0.88087635264E+03  0.10100000352E+00 0.  1.
</event>
<event>
 5   0  0.1484056E-03  0.1506611E+04  0.7818609E-02  0.8880068E-01
       -2   -1    0    0    0  501  0.00000000000E+00  0.00000000000E+00  0.18058643497E+04  0.18058643497E+04  0.25500000920E-02 0. -1.
        2   -1    0    0  501    0  0.00000000000E+00  0.00000000000E+00 -0.31423707486E+03  0.31423707488E+03  0.25500000920E-02 0.  1.
    10030    2    1    2    0    0  0.00000000000E+00  0.00000000000E+00  0.14916272748E+04  0.21201014246E+04  0.15066114706E+04 0.  0.
        5    1    3    3  502    0 -0.12770653335E+03 -0.18318852874E+03 -0.26656809042E+03  0.34777526156E+03  0.46999998093E+01 0.  1.
       -5    1    3    3    0  502  0.12770653335E+03  0.18318852874E+03  0.17581953653E+04  0.17723261630E+04  0.46999998093E+01 0. -1.
</event>
<event>
 5   0  0.8191876E-04  0.1488781E+04  0.7818609E-02  0.8891948E-01
        1   -1    0    0  501    0  0.00000000000E+00  0.00000000000E+00  0.70277711738E+03  0.70277711739E+03  0.50400001928E-02 0. -1.
       -1   -1    0    0    0  501  0.00000000000E+00  0.00000000000E+00 -0.78846826523E+03  0.78846826525E+03  0.50400001928E-02 0.  1.
    10030    2    1    2    0    0  0.00000000000E+00  0.00000000000E+00 -0.85691147857E+02  0.14912453826E+04  0.14887813199E+04 0.  0.
        2    1    3    3  502    0  0.73067900822E+03  0.10951905573E+03 -0.13372179357E+03  0.75084469413E+03  0.25500000920E-02 0.  1.
       -2    1    3    3    0  502 -0.73067900822E+03 -0.10951905573E+03  0.48030645715E+02  0.74040068851E+03  0.25500000920E-02 0. -1.
</event>
<event>
 5   0  0.8058234E-04  0.1446147E+04  0.7818609E-02  0.8921076E-01
       -1   -1    0    0    0  501  0.00000000000E+00  0.00000000000E+00  0.55020982120E+03  0.55020982123E+03  0.50400001928E-02 0. -1.
        1   -1    0    0  501    0  0.00000000000E+00  0.00000000000E+00 -0.95024655385E+03  0.95024655386E+03  0.50400001928E-02 0.  1.
    10030    2    1    2    0    0  0.00000000000E+00  0.00000000000E+00 -0.40003673264E+03  0.15004563751E+04  0.14461465853E+04 0.  0.
        5    1    3    3  502    0  0.27996031415E+03 -0.56068017433E+03  0.17418216798E+03  0.65046256851E+03  0.46999998093E+01 0. -1.
       -5    1    3    3    0  502 -0.27996031415E+03  0.56068017433E+03 -0.57421890062E+03  0.84999380658E+03  0.46999998093E+01 0.  1.
</event>
<event>
 5   0  0.8058234E-04  0.1496301E+04  0.7818609E-02  0.8886916E-01
       -1   -1    0    0    0  501  0.00000000000E+00  0.00000000000E+00  0.34789944669E+03  0.34789944673E+03  0.50400001928E-02 0. -1.
        1   -1    0    0  501    0  0.00000000000E+00  0.00000000000E+00 -0.16088819077E+04  0.16088819078E+04  0.50400001928E-02 0.  1.
    10030    2    1    2    0    0  0.00000000000E+00  0.00000000000E+00 -0.12609824611E+04  0.19567813545E+04  0.14963009397E+04 0.  0.
        5    1    3    3  502    0  0.41656091846E+03  0.44419389884E+02  0.18011180249E+03  0.45602459624E+03  0.46999998093E+01 0. -1.
       -5    1    3    3    0  502 -0.41656091846E+03 -0.44419389884E+02 -0.14410942635E+04  0.15007567582E+04  0.46999998093E+01 0.  1.
</event>
<event>
 5   0  0.1526126E-03  0.1583462E+04  0.7818609E-02  0.8830773E-01
       -2   -1    0    0    0  501  0.00000000000E+00  0.00000000000E+00  0.10929534054E+04  0.10929534054E+04  0.25500000920E-02 0.  1.
        2   -1    0    0  501    0  0.00000000000E+00  0.00000000000E+00 -0.57352663275E+03  0.57352663276E+03  0.25500000920E-02 0. -1.
    10030    2    1    2    0    0  0.00000000000E+00  0.00000000000E+00  0.51942677263E+03  0.16664800381E+04  0.15834618863E+04 0.  0.
        2    1    3    3  502    0  0.30985546404E+03  0.26774101120E+03 -0.45341236678E+03  0.61096516433E+03  0.25500000920E-02 0. -1.
       -2    1    3    3    0  502 -0.30985546404E+03 -0.26774101120E+03  0.97283913940E+03  0.10555148738E+04  0.25500000920E-02 0.  1.
</event>
<event>
 5   0  0.1526126E-03  0.1434243E+04  0.7818609E-02  0.8929398E-01
        2   -1    0    0  501    0  0.00000000000E+00  0.00000000000E+00  0.67602409435E+03  0.67602409435E+03  0.25500000920E-02 0.  1.
       -2   -1    0    0    0  501  0.00000000000E+00  0.00000000000E+00 -0.76071778431E+03  0.76071778432E+03  0.25500000920E-02 0. -1.
    10030    2    1    2    0    0  0.00000000000E+00  0.00000000000E+00 -0.84693689969E+02  0.14367418787E+04  0.14342434259E+04 0.  0.
        2    1    3    3  502    0 -0.61961557904E+03 -0.33926849041E+03 -0.16600002406E+03  0.72566010113E+03  0.25500000920E-02 0.  1.
       -2    1    3    3    0  502  0.61961557904E+03  0.33926849041E+03  0.81306334089E+02  0.71108177754E+03  0.25500000920E-02 0. -1.
</event>
<event>
 5   0  0.1484056E-03  0.1538822E+04  0.7818609E-02  0.8859040E-01
        2   -1    0    0  501    0  0.00000000000E+00  0.00000000000E+00  0.93472735433E+03  0.93472735434E+03  0.25500000920E-02 0.  1.
       -2   -1    0    0    0  501  0.00000000000E+00  0.00000000000E+00 -0.63333218797E+03  0.63333218797E+03  0.25500000920E-02 0. -1.
    10030    2    1    2    0    0  0.00000000000E+00  0.00000000000E+00  0.30139516637E+03  0.15680595423E+04  0.15388215237E+04 0.  0.
        5    1    3    3  502    0  0.95847464004E+02  0.63494693879E+03  0.58257398663E+03  0.86704030548E+03  0.46999998093E+01 0.  1.
       -5    1    3    3    0  502 -0.95847464004E+02 -0.63494693879E+03 -0.28117882027E+03  0.70101923683E+03  0.46999998093E+01 0. -1.
</event>
<event>
 5   0  0.1500956E-03  0.1189772E+04  0.7818609E-02  0.9121856E-01
        2   -1    0    0  501    0  0.00000000000E+00  0.00000000000E+00  0.10696432020E+04  0.10696432020E+04  0.25500000920E-02 0.  1.
       -2   -1    0    0    0  501  0.00000000000E+00  0.00000000000E+00 -0.33084812988E+03  0.33084812989E+03  0.25500000920E-02 0. -1.
    10030    2    1    2    0    0  0.00000000000E+00  0.00000000000E+00  0.73879507209E+03  0.14004913319E+04  0.11897721681E+04 0.  0.
        4    1    3    3  502    0  0.27866280166E+03  0.43970539036E+03  0.70830279368E+03  0.87902687546E+03  0.12699999809E+01 0.  1.
       -4    1    3    3    0  502 -0.27866280166E+03 -0.43970539036E+03  0.30492278407E+02  0.52146445640E+03  0.12699999809E+01 0. -1.
</event>
<event>
 5   0  0.7870317E-04  0.1505109E+04  0.7818609E-02  0.8881063E-01
       -1   -1    0    0    0  501  0.00000000000E+00  0.00000000000E+00  0.10766232312E+04  0.10766232312E+04  0.50400001928E-02 0. -1.
        1   -1    0    0  501    0  0.00000000000E+00  0.00000000000E+00 -0.52603181610E+03  0.52603181613E+03  0.50400001928E-02 0.  1.
    10030    2    1    2    0    0  0.00000000000E+00  0.00000000000E+00  0.55059141510E+03  0.16026550473E+04  0.15051087317E+04 0.  0.
        1    1    3    3  502    0 -0.11259348691E+03 -0.19220767269E+03 -0.49012208170E+03  0.53836858910E+03  0.50400001928E-02 0.  1.
       -1    1    3    3    0  502  0.11259348691E+03  0.19220767269E+03  0.10407134968E+04  0.10642864582E+04  0.50400001928E-02 0. -1.
</event>
<event>
 5   0  0.1500956E-03  0.1477023E+04  0.7818609E-02  0.8899878E-01
       -2   -1    0    0    0  501  0.00000000000E+00  0.00000000000E+00  0.21960065946E+03  0.21960065947E+03  0.25500000920E-02 0. -1.
        2   -1    0    0  501    0  0.00000000000E+00  0.00000000000E+00 -0.24835959854E+04  0.24835959854E+04  0.25500000920E-02 0.  1.
    10030    2    1    2    0    0  0.00000000000E+00  0.00000000000E+00 -0.22639953259E+04  0.27031966449E+04  0.14770231092E+04 0.  0.
        4    1    3    3  502    0 -0.85774582201E+02 -0.69777905360E+03 -0.71810172618E+03  0.10049500429E+04  0.12699999809E+01 0. -1.
       -4    1    3    3    0  502  0.85774582201E+02  0.69777905360E+03 -0.15458935997E+04  0.16982466020E+04  0.12699999809E+01 0.  1.
</event>
<event>
 5   0  0.8306301E-04  0.1480457E+04  0.7818609E-02  0.8897554E-01
        1   -1    0    0  501    0  0.00000000000E+00  0.00000000000E+00  0.53970866381E+03  0.53970866383E+03  0.50400001928E-02 0.  1.
       -1   -1    0    0    0  501  0.00000000000E+00  0.00000000000E+00 -0.10152481178E+04  0.10152481178E+04  0.50400001928E-02 0. -1.
    10030    2    1    2    0    0  0.00000000000E+00  0.00000000000E+00 -0.47553945401E+03  0.15549567817E+04  0.14804569634E+04 0.  0.
        4    1    3    3  502    0 -0.72966562731E+03  0.11904560173E+03 -0.19913829394E+03  0.76566406210E+03  0.12699999809E+01 0. -1.
       -4    1    3    3    0  502  0.72966562731E+03 -0.11904560173E+03 -0.27640116008E+03  0.78929271957E+03  0.12699999809E+01 0.  1.
</event>
<event>
 5   0  0.1511546E-03  0.1457660E+04  0.7818609E-02  0.8913107E-01
       -2   -1    0    0    0  501  0.00000000000E+00  0.00000000000E+00  0.11688562778E+04  0.11688562778E+04  0.25500000920E-02 0.  1.
        2   -1    0    0  501    0  0.00000000000E+00  0.00000000000E+00 -0.45445570841E+03  0.45445570842E+03  0.25500000920E-02 0. -1.
    10030    2    1    2    0    0  0.00000000000E+00  0.00000000000E+00  0.71440056944E+03  0.16233119863E+04  0.14576603278E+04 0.  0.
        1    1    3    3  502    0  0.44804962958E+03 -0.10606884238E+03  0.98637788236E+03  0.10885496758E+04  0.50400001928E-02 0.  1.
       -1    1    3    3    0  502 -0.44804962958E+03  0.10606884238E+03 -0.27197731293E+03  0.53476231044E+03  0.50400001928E-02 0. -1.
</event>
<event>
 5   0  0.8365016E-04  0.1494416E+04  0.7818609E-02  0.8888175E-01
        1   -1    0    0  501    0  0.00000000000E+00  0.00000000000E+00  0.74161190659E+03  0.74161190661E+03  0.50400001928E-02 0.  1.
       -1   -1    0    0    0  501  0.00000000000E+00  0.00000000000E+00 -0.75284611115E+03  0.75284611116E+03  0.50400001928E-02 0. -1.
    10030    2    1    2    0    0  0.00000000000E+00  0.00000000000E+00 -0.11234204556E+02  0.14944580178E+04  0.14944157921E+04 0.  0.
        3    1    3    3  502    0 -0.14582748545E+03  0.68593517113E+03  0.25235707451E+03  0.74528975423E+03  0.10100000352E+00 0.  1.
       -3    1    3    3    0  502  0.14582748545E+03 -0.68593517113E+03 -0.26359127906E+03  0.74916826354E+03  0.10100000352E+00 0. -1.
</event>
<event>
 5   0  0.1552067E-03  0.1437871E+04  0.7818609E-02  0.8926852E-01
       -2   -1    0    0    0  501  0.00000000000E+00  0.00000000000E+00  0.72037224533E+03  0.72037224534E+03  0.25500000920E-02 0.  1.
        2   -1    0    0  501    0  0.00000000000E+00  0.00000000000E+00 -0.71750198038E+03  0.71750198038E+03  0.25500000920E-02 0. -1.
    10030    2    1    2    0    0  0.00000000000E+00  0.00000000000E+00  0.28702649554E+01  0.14378742257E+04  0.14378713609E+04 0.  0.
        3    1    3    3  502    0 -0.98434662903E+02  0.47242545473E+02 -0.70916269582E+03  0.71751862715E+03  0.10100000352E+00 0. -1.
       -3    1    3    3    0  502  0.98434662903E+02 -0.47242545473E+02  0.71203296077E+03  0.72035559857E+03  0.10100000352E+00 0.  1.
</event>
<event>
 5   0  0.8058234E-04  0.1514843E+04  0.7818609E-02  0.8874642E-01
        1   -1    0    0  501    0  0.00000000000E+00  0.00000000000E+00  0.75939010201E+03  0.75939010203E+03  0.50400001928E-02 0. -1.
       -1   -1    0    0    0  501  0.00000000000E+00  0.00000000000E+00 -0.75545753278E+03  0.75545753280E+03  0.50400001928E-02 0.  1.
    10030    2    1    2    0    0  0.00000000000E+00  0.00000000000E+00  0.39325692301E+01  0.15148476348E+04  0.15148425303E+04 0.  0.
        5    1    3    3  502    0 -0.27870837658E+03 -0.80864858081E+02  0.70157381532E+03  0.75924001000E+03  0.46999998093E+01 0. -1.
       -5    1    3    3    0  502  0.27870837658E+03  0.80864858081E+02 -0.69764124609E+03  0.75560762482E+03  0.46999998093E+01 0.  1.
</event>
<event>
 5   0  0.1511546E-03  0.1589237E+04  0.7818609E-02  0.8827188E-01
        2   -1    0    0  501    0  0.00000000000E+00  0.00000000000E+00  0.55361721820E+03  0.55361721821E+03  0.25500000920E-02 0. -1.
       -2   -1    0    0    0  501  0.00000000000E+00  0.00000000000E+00 -0.11405321784E+04  0.11405321784E+04  0.25500000920E-02 0.  1.
    10030    2    1    2    0    0  0.00000000000E+00  0.00000000000E+00 -0.58691496021E+03  0.16941493966E+04  0.15892366116E+04 0.  0.
        1    1    3    3  502    0  0.49495561314E+03  0.54554927468E+03  0.24231286534E+02  0.73701575652E+03  0.50400001928E-02 0. -1.
       -1    1    3    3    0  502 -0.49495561314E+03 -0.54554927468E+03 -0.61114624674E+03  0.95713364010E+03  0.50400001928E-02 0.  1.
</event>
<event>
 5   0  0.1552067E-03  0.1500136E+04  0.7818609E-02  0.8884363E-01
       -2   -1    0    0    0  501  0.00000000000E+00  0.00000000000E+00  0.74572109728E+03  0.74572109729E+03  0.25500000920E-02 0. -1.
        2   -1    0    0  501    0  0.00000000000E+00  0.00000000000E+00 -0.75443983560E+03  0.75443983560E+03  0.25500000920E-02 0.  1.
    10030    2    1    2    0    0  0.00000000000E+00  0.00000000000E+00 -0.87187383191E+01  0.15001609329E+04  0.15001355966E+04 0.  0.
        3    1    3    3  502    0 -0.60229755420E+03 -0.44149217935E+03 -0.74531799275E+02  0.75048829939E+03  0.10100000352E+00 0.  1.
       -3    1    3    3    0  502  0.60229755420E+03  0.44149217935E+03  0.65813060956E+02  0.74967263350E+03  0.10100000352E+00 0. -1.
</event>
<event>
 5   0  0.5603875E-04  0.1536495E+04  0.7818609E-02  0.8860540E-01
       -3   -1    0    0    0  501  0.00000000000E+00  0.00000000000E+00  0.65171106526E+03  0.65171107309E+03  0.10100000352E+00 0.  1.
        3   -1    0    0  501    0  0.00000000000E+00  0.00000000000E+00 -0.90562242510E+03  0.90562243073E+03  0.10100000352E+00 0. -1.
    10030    2    1    2    0    0  0.00000000000E+00  0.00000000000E+00 -0.25391135983E+03  0.15573335038E+04  0.15364949279E+04 0.  0.
        4    1    3    3  502    0  0.28786206589E+03 -0.68318472071E+03  0.77262989211E+02  0.74537045420E+03  0.12699999809E+01 0. -1.
       -4    1    3    3    0  502 -0.28786206589E+03  0.68318472071E+03 -0.33117434904E+03  0.81196304962E+03  0.12699999809E+01 0.  1.
</event>
<event>
 5   0  0.8306301E-04  0.1521222E+04  0.7818609E-02  0.8870462E-01
        1   -1    0    0  501    0  0.00000000000E+00  0.00000000000E+00  0.10522642826E+04  0.10522642826E+04  0.50400001928E-02 0.  1.
       -1   -1    0    0    0  501  0.00000000000E+00  0.00000000000E+00 -0.54979462513E+03  0.54979462516E+03  0.50400001928E-02 0. -1.
    10030    2    1    2    0    0  0.00000000000E+00  0.00000000000E+00  0.50246965743E+03  0.16020589077E+04  0.15212222018E+04 0.  0.
        4    1    3    3  502    0  0.49495109656E+03  0.26607750090E+03 -0.28859929871E+03  0.63171591129E+03  0.12699999809E+01 0. -1.
       -4    1    3    3    0  502 -0.49495109656E+03 -0.26607750090E+03  0.79106895614E+03  0.97034299644E+03  0.12699999809E+01 0.  1.
</event>
<event>
 5   0  0.8191876E-04  0.1492723E+04  0.7818609E-02  0.8889307E-01
        1   -1    0    0  501    0  0.00000000000E+00  0.00000000000E+00  0.74222852206E+03  0.74222852208E+03  0.50400001928E-02 0.  1.
       -1   -1    0    0    0  501  0.00000000000E+00  0.00000000000E+00 -0.75051724415E+03  0.75051724417E+03  0.50400001928E-02 0. -1.
    10030    2    1    2    0    0  0.00000000000E+00  0.00000000000E+00 -0.82887220917E+01  0.14927457662E+04  0.14927227538E+04 0.  0.
        2    1    3    3  502    0  0.47560602950E+03  0.49174850183E+03 -0.30254068455E+03  0.74802977893E+03  0.25500000920E-02 0. -1.
       -2    1    3    3    0  502 -0.47560602950E+03 -0.49174850183E+03  0.29425196246E+03  0.74471598732E+03  0.25500000920E-02 0.  1.
</event>
<event>
 5   0  0.1500956E-03  0.1478126E+04  0.7818609E-02  0.8899131E-01
       -2   -1    0    0    0  501  0.00000000000E+00  0.00000000000E+00  0.70161063650E+03  0.70161063650E+03  0.25500000920E-02 0.  1.
        2   -1    0    0  501    0  0.00000000000E+00  0.00000000000E+00 -0.77851461763E+03  0.77851461763E+03  0.25500000920E-02 0. -1.
    10030    2    1    2    0    0  0.00000000000E+00  0.00000000000E+00 -0.76903981130E+02  0.14801252541E+04  0.14781260249E+04 0.  0.
        4    1    3    3  502    0  0.16975114404E+03  0.41389393386E+03 -0.62754087819E+03  0.77067036149E+03  0.12699999809E+01 0. -1.
       -4    1    3    3    0  502 -0.16975114404E+03 -0.41389393386E+03  0.55063689706E+03  0.70945489264E+03  0.12699999809E+01 0.  1.
</event>
<event>
 5   0  0.1511546E-03  0.1494519E+04  0.7818609E-02  0.8888106E-01
        2   -1    0    0  501    0  0.00000000000E+00  0.00000000000E+00  0.12229544213E+04  0.12229544213E+04  0.25500000920E-02 0. -1.
       -2   -1    0    0    0  501  0.00000000000E+00  0.00000000000E+00 -0.45659650981E+03  0.45659650981E+03  0.25500000920E-02 0.  1.
    10030    2    1    2    0    0  0.00000000000E+00  0.00000000000E+00  0.76635791149E+03  0.16795509311E+04  0.14945189466E+04 0.  0.
        1    1    3    3  502    0  0.45732681263E+03 -0.31307491348E+03 -0.18010852595E+03  0.58275449046E+03  0.50400001928E-02 0.  1.
       -1    1    3    3    0  502 -0.45732681263E+03  0.31307491348E+03  0.94646643745E+03  0.10967964407E+04  0.50400001928E-02 0. -1.
</event>
<event>
 5   0  0.7870317E-04  0.1511226E+04  0.7818609E-02  0.8877022E-01
       -1   -1    0    0    0  501  0.00000000000E+00  0.00000000000E+00  0.60853234903E+03  0.60853234905E+03  0.50400001928E-02 0. -1.
        1   -1    0    0  501    0  0.00000000000E+00  0.00000000000E+00 -0.93824269236E+03  0.93824269238E+03  0.50400001928E-02 0.  1.
    10030    2    1    2    0    0  0.00000000000E+00  0.00000000000E+00 -0.32971034333E+03  0.15467750414E+04  0.15112260315E+04 0.  0.
        1    1    3    3  502    0 -0.27055672819E+03  0.20220358644E+03 -0.85667196792E+03  0.92085508859E+03  0.50400001928E-02 0.  1.
       -1    1    3    3    0  502  0.27055672819E+03 -0.20220358644E+03  0.52696162459E+03  0.62591995283E+03  0.50400001928E-02 0. -1.
</event>
<event>
 5   0  0.1484056E-03  0.1474932E+04  0.7818609E-02  0.8901296E-01
       -2   -1    0    0    0  501  0.00000000000E+00  0.00000000000E+00  0.13153057376E+04  0.13153057376E+04  0.25500000920E-02 0.  1.
        2   -1    0    0  501    0  0.00000000000E+00  0.00000000000E+00 -0.41348249696E+03  0.41348249697E+03  0.25500000920E-02 0. -1.
    10030    2    1    2    0    0  0.00000000000E+00  0.00000000000E+00  0.90182324060E+03  0.17287882345E+04  0.14749317281E+04 0.  0.
        5    1    3    3  502    0  0.48177001470E+03  0.32511379620E+03  0.98294358847E+03  0.11419288575E+04  0.46999998093E+01 0.  1.
       -5    1    3    3    0  502 -0.48177001470E+03 -0.32511379620E+03 -0.81120347874E+02  0.58685937700E+03  0.46999998093E+01 0. -1.
</event>
<event>
 5   0  0.8306301E-04  0.1472321E+04  0.7818609E-02  0.8903071E-01
       -1   -1    0    0    0  501  0.00000000000E+00  0.00000000000E+00  0.83112563171E+03  0.83112563173E+03  0.50400001928E-02 0. -1.
        1   -1    0    0  501    0  0.00000000000E+00  0.00000000000E+00 -0.65204585580E+03  0.65204585582E+03  0.50400001928E-02 0.  1.
    10030    2    1    2    0    0  0.00000000000E+00  0.00000000000E+00  0.17907977591E+03  0.14831714875E+04  0.14723206496E+04 0.  0.
        4    1    3    3  502    0  0.61725590507E+03  0.78831903805E+02 -0.30669224026E+03  0.69374423567E+03  0.12699999809E+01 0.  1.
       -4    1    3    3    0  502 -0.61725590507E+03 -0.78831903805E+02  0.48577201617E+03  0.78942725187E+03  0.12699999809E+01 0. -1.
</event>
<event>
 5   0  0.8365016E-04  0.1377445E+04  0.7818609E-02  0.8970309E-01
        1   -1    0    0  501    0  0.00000000000E+00  0.00000000000E+00  0.38694197781E+03  0.38694197784E+03  0.50400001928E-02 0. -1.
       -1   -1    0    0    0  501  0.00000000000E+00  0.00000000000E+00 -0.12258650705E+04  0.12258650705E+04  0.50400001928E-02 0.  1.
    10030    2    1    2    0    0  0.00000000000E+00  0.00000000000E+00 -0.83892309272E+03  0.16128070484E+04  0.13774449607E+04 0.  0.
        3    1    3    3  502    0  0.12700498081E+03 -0.51752763417E+03  0.91409672973E+02  0.54066704707E+03  0.10100000352E+00 0. -1.
       -3    1    3    3    0  502 -0.12700498081E+03  0.51752763417E+03 -0.93033276570E+03  0.10721400013E+04  0.10100000352E+00 0.  1.
</event>
<event>
 5   0  0.8191876E-04  0.1466043E+04  0.7818609E-02  0.8907353E-01
        1   -1    0    0  501    0  0.00000000000E+00  0.00000000000E+00  0.29280420491E+04  0.29280420491E+04  0.50400001928E-02 0. -1.
       -1   -1    0    0    0  501  0.00000000000E+00  0.00000000000E+00 -0.18350853573E+03  0.18350853580E+03  0.50400001928E-02 0.  1.
    10030    2    1    2    0    0  0.00000000000E+00  0.00000000000E+00  0.27445335133E+04  0.31115505849E+04  0.14660432587E+04 0.  0.
        2    1    3    3  502    0 -0.61442096409E+03  0.38531059704E+03  0.11462188976E+04  0.13563904816E+04  0.25500000920E-02 0. -1.
       -2    1    3    3    0  502  0.61442096409E+03 -0.38531059704E+03  0.15983146158E+04  0.17551601033E+04  0.25500000920E-02 0.  1.
</event>
<event>
 5   0  0.1500956E-03  0.1467711E+04  0.7818609E-02  0.8906213E-01
        2   -1    0    0  501    0  0.00000000000E+00  0.00000000000E+00  0.15268759095E+04  0.15268759095E+04  0.25500000920E-02 0.  1.
       -2   -1    0    0    0  501  0.00000000000E+00  0.00000000000E+00 -0.35270949797E+03  0.35270949798E+03  0.25500000920E-02 0. -1.
    10030    2    1    2    0    0  0.00000000000E+00  0.00000000000E+00  0.11741664115E+04  0.18795854075E+04  0.14677106466E+04 0.  0.
        4    1    3    3  502    0 -0.60792677738E+03  0.26820035145E+03  0.98600450909E+03  0.11889965938E+04  0.12699999809E+01 0.  1.
       -4    1    3    3    0  502  0.60792677738E+03 -0.26820035145E+03  0.18816190244E+03  0.69058881369E+03  0.12699999809E+01 0. -1.
</event>
<event>
 5   0  0.7870317E-04  0.1468490E+04  0.7818609E-02  0.8905681E-01
        1   -1    0    0  501    0  0.00000000000E+00  0.00000000000E+00  0.12405973010E+04  0.12405973010E+04  0.50400001928E-02 0.  1.
       -1   -1    0    0    0  501  0.00000000000E+00  0.00000000000E+00 -0.43456168837E+03  0.43456168840E+03  0.50400001928E-02 0. -1.
    10030    2    1    2    0    0  0.00000000000E+00  0.00000000000E+00  0.80603561266E+03  0.16751589894E+04  0.14684904600E+04 0.  0.
        1    1    3    3  502    0 -0.60917621249E+03 -0.27509496797E+03  0.56370950645E+02  0.67078355925E+03  0.50400001928E-02 0. -1.
       -1    1    3    3    0  502  0.60917621249E+03  0.27509496797E+03  0.74966466201E+03  0.10043754302E+04  0.50400001928E-02 0.  1.
</event>
<event>
 5   0  0.8365016E-04  0.1503531E+04  0.7818609E-02  0.8882108E-01
        1   -1    0    0  501    0  0.00000000000E+00  0.00000000000E+00  0.51386075600E+03  0.51386075603E+03  0.50400001928E-02 0.  1.
       -1   -1    0    0    0  501  0.00000000000E+00  0.00000000000E+00 -0.10998148148E+04  0.10998148148E+04  0.50400001928E-02 0. -1.
    10030    2    1    2    0    0  0.00000000000E+00  0.00000000000E+00 -0.58595405879E+03  0.16136755708E+04  0.15035314060E+04 0.  0.
        3    1    3    3  502    0  0.68238652951E+03  0.31381557342E+03 -0.25869873641E+03  0.79439073270E+03  0.10100000352E+00 0.  1.
       -3    1    3    3    0  502 -0.68238652951E+03 -0.31381557342E+03 -0.32725532238E+03  0.81928483814E+03  0.10100000352E+00 0. -1.
</event>
<event>
 5   0  0.1526126E-03  0.1512127E+04  0.7818609E-02  0.8876429E-01
        2   -1    0    0  501    0  0.00000000000E+00  0.00000000000E+00  0.27290766874E+04  0.27290766874E+04  0.25500000920E-02 0. -1.
       -2   -1    0    0    0  501  0.00000000000E+00  0.00000000000E+00 -0.20945972280E+03  0.20945972281E+03  0.25500000920E-02 0.  1.
    10030    2    1    2    0    0  0.00000000000E+00  0.00000000000E+00  0.25196169646E+04  0.29385364102E+04  0.15121265112E+04 0.  0.
        2    1    3    3  502    0 -0.19074457333E+03 -0.59686056859E+03  0.20820062184E+04  0.21742529577E+04  0.25500000920E-02 0. -1.
       -2    1    3    3    0  502  0.19074457333E+03  0.59686056859E+03  0.43761074620E+03  0.76428345251E+03  0.25500000920E-02 0.  1.
</event>
<event>
 5   0  0.1500956E-03  0.1461410E+04  0.7818609E-02  0.8910529E-01
        2   -1    0    0  501    0  0.00000000000E+00  0.00000000000E+00  0.10735135547E+04  0.10735135547E+04  0.25500000920E-02 0.  1.
       -2   -1    0    0    0  501  0.00000000000E+00  0.00000000000E+00 -0.49736628006E+03  0.49736628006E+03  0.25500000920E-02 0. -1.
    10030    2    1    2    0    0  0.00000000000E+00  0.00000000000E+00  0.57614727465E+03  0.15708798348E+04  0.14614095159E+04 0.  0.
        4    1    3    3  502    0  0.66760949847E+02 -0.17424586042E+03  0.10474705294E+04  0.10639618260E+04  0.12699999809E+01 0.  1.
       -4    1    3    3    0  502 -0.66760949847E+02  0.17424586042E+03 -0.47132325473E+03  0.50691800880E+03  0.12699999809E+01 0. -1.
</event>
<event>
 5   0  0.8058234E-04  0.1482474E+04  0.7818609E-02  0.8896192E-01
       -1   -1    0    0    0  501  0.00000000000E+00  0.00000000000E+00  0.93194842804E+03  0.93194842806E+03  0.50400001928E-02 0.  1.
        1   -1    0    0  501    0  0.00000000000E+00  0.00000000000E+00 -0.58955203649E+03  0.58955203651E+03  0.50400001928E-02 0. -1.
    10030    2    1    2    0    0  0.00000000000E+00  0.00000000000E+00  0.34239639155E+03  0.15215004646E+04  0.14824737349E+04 0.  0.
        5    1    3    3  502    0  0.19044105889E+03 -0.42432516308E+03 -0.42113505884E+03  0.62745236370E+03  0.46999998093E+01 0. -1.
       -5    1    3    3    0  502 -0.19044105889E+03  0.42432516308E+03  0.76353145039E+03  0.89404810087E+03  0.46999998093E+01 0.  1.
</event>
<event>
 5   0  0.1500956E-03  0.1506251E+04  0.7818609E-02  0.8880307E-01
        2   -1    0    0  501    0  0.00000000000E+00  0.00000000000E+00  0.14368274953E+04  0.14368274953E+04  0.25500000920E-02 0. -1.
       -2   -1    0    0    0  501  0.00000000000E+00  0.00000000000E+00 -0.39475723808E+03  0.39475723809E+03  0.25500000920E-02 0.  1.
    10030    2    1    2    0    0  0.00000000000E+00  0.00000000000E+00  0.10420702572E+04  0.18315847333E+04  0.15062510463E+04 0.  0.
        4    1    3    3  502    0 -0.74421118008E+02  0.62773505372E+03  0.10188584793E+04  0.11990262775E+04  0.12699999809E+01 0. -1.
       -4    1    3    3    0  502  0.74421118008E+02 -0.62773505372E+03  0.23211777858E+02  0.63255845580E+03  0.12699999809E+01 0.  1.
</event>
<event>
 5   0  0.8191876E-04  0.1512770E+04  0.7818609E-02  0.8876005E-01
       -1   -1    0    0    0  501  0.00000000000E+00  0.00000000000E+00  0.36902231012E+03  0.36902231016E+03  0.50400001928E-02 0.  1.
        1   -1    0    0  501    0  0.00000000000E+00  0.00000000000E+00 -0.15503615366E+04  0.15503615366E+04  0.50400001928E-02 0. -1.
    10030    2    1    2    0    0  0.00000000000E+00  0.00000000000E+00 -0.11813392264E+04  0.19193838467E+04  0.15127696398E+04 0.  0.
        2    1    3    3  502    0  0.50453487789E+03 -0.48336399173E+03 -0.22311113754E+03  0.73346763474E+03  0.25500000920E-02 0.  1.
       -2    1    3    3    0  502 -0.50453487789E+03  0.48336399173E+03 -0.95822808891E+03  0.11859162120E+04  0.25500000920E-02 0. -1.
</event>
<event>
 5   0  0.1484056E-03  0.1383747E+04  0.7818609E-02  0.8965668E-01
        2   -1    0    0  501    0  0.00000000000E+00  0.00000000000E+00  0.11116998851E+04  0.11116998851E+04  0.25500000920E-02 0. -1.
       -2   -1    0    0    0  501  0.00000000000E+00  0.00000000000E+00 -0.43059178079E+03  0.43059178079E+03  0.25500000920E-02 0.  1.
    10030    2    1    2    0    0  0.00000000000E+00  0.00000000000E+00  0.68110810428E+03  0.15422916659E+04  0.13837468457E+04 0.  0.
        5    1    3    3  502    0  0.15631622115E+03  0.42812103228E+03 -0.23960881492E+03  0.51493383406E+03  0.46999998093E+01 0.  1.
       -5    1    3    3    0  502 -0.15631622115E+03 -0.42812103228E+03  0.92071691920E+03  0.10273578318E+04  0.46999998093E+01 0. -1.
</event>
<event>
 5   0  0.8306301E-04  0.1499725E+04  0.7818609E-02  0.8884636E-01
       -1   -1    0    0    0  501  0.00000000000E+00  0.00000000000E+00  0.66266769198E+03  0.66266769200E+03  0.50400001928E-02 0.  1.
        1   -1    0    0  501    0  0.00000000000E+00  0.00000000000E+00 -0.84853033326E+03  0.84853033328E+03  0.50400001928E-02 0. -1.
    10030    2    1    2    0    0  0.00000000000E+00  0.00000000000E+00 -0.18586264129E+03  0.15111980253E+04  0.14997248248E+04 0.  0.
        4    1    3    3  502    0 -0.31008932935E+03  0.15514958975E+03  0.57703501259E+03  0.67319967768E+03  0.12699999809E+01 0.  1.
       -4    1    3    3    0  502  0.31008932935E+03 -0.15514958975E+03 -0.76289765388E+03  0.83799834759E+03  0.12699999809E+01 0. -1.
</event>
<event>
 5   0  0.1552067E-03  0.1438223E+04  0.7818609E-02  0.8926606E-01
        2   -1    0    0  501    0  0.00000000000E+00  0.00000000000E+00  0.14225098457E+04  0.14225098457E+04  0.25500000920E-02 0. -1.
       -2   -1    0    0    0  501  0.00000000000E+00  0.00000000000E+00 -0.36352735365E+03  0.36352735366E+03  0.25500000920E-02 0.  1.
    10030    2    1    2    0    0  0.00000000000E+00  0.00000000000E+00  0.10589824921E+04  0.17860371994E+04  0.14382228475E+04 0.  0.
        3    1    3    3  502    0  0.53446293520E+02 -0.60764605439E+02 -0.35785471678E+03  0.36689079041E+03  0.10100000352E+00 0.  1.
       -3    1    3    3    0  502 -0.53446293520E+02  0.60764605439E+02  0.14168372088E+04  0.14191464090E+04  0.10100000352E+00 0. -1.
</event>
<event>
 5   0  0.5603875E-04  0.1492800E+04  0.7818609E-02  0.8889255E-01
       -4   -1    0    0    0  501  0.00000000000E+00  0.00000000000E+00  0.45440166616E+03  0.45440344091E+03  0.12699999809E+01 0. -1.
        4   -1    0    0  501    0  0.00000000000E+00  0.00000000000E+00 -0.12260323133E+04  0.12260329711E+04  0.12699999809E+01 0.  1.
    10030    2    1    2    0    0  0.00000000000E+00  0.00000000000E+00 -0.77163064714E+03  0.16804364120E+04  0.14928002810E+04 0.  0.
        5    1    3    3  502    0  0.11559899003E+03 -0.10116982795E+03 -0.12080287850E+04  0.12177660268E+04  0.46999998093E+01 0.  1.
       -5    1    3    3    0  502 -0.11559899003E+03  0.10116982795E+03  0.43639813788E+03  0.46267038519E+03  0.46999998093E+01 0. -1.
</event>
<event>
 5   0  0.1526126E-03  0.1497405E+04  0.7818609E-02  0.8886180E-01
        2   -1    0    0  501    0  0.00000000000E+00  0.00000000000E+00  0.11503409786E+04  0.11503409786E+04  0.25500000920E-02 0. -1.
       -2   -1    0    0    0  501  0.00000000000E+00  0.00000000000E+00 -0.48729505096E+03  0.48729505097E+03  0.25500000920E-02 0.  1.
    10030    2    1    2    0    0  0.00000000000E+00  0.00000000000E+00  0.66304592764E+03  0.16376360296E+04  0.14974050431E+04 0.  0.
        2    1    3    3  502    0  0.19605200002E+03  0.36948571371E+03 -0.34759662918E+03  0.54385613536E+03  0.25500000920E-02 0.  1.
       -2    1    3    3    0  502 -0.19605200002E+03 -0.36948571371E+03  0.10106425568E+04  0.10937798942E+04  0.25500000920E-02 0. -1.
</event>
<event>
 5   0  0.5603875E-04  0.1459404E+04  0.7818609E-02  0.8911907E-01
        3   -1    0    0  501    0  0.00000000000E+00  0.00000000000E+00  0.67889819881E+03  0.67889820633E+03  0.10100000352E+00 0.  1.
       -3   -1    0    0    0  501  0.00000000000E+00  0.00000000000E+00 -0.78430783751E+03  0.78430784402E+03  0.10100000352E+00 0. -1.
    10030    2    1    2    0    0  0.00000000000E+00  0.00000000000E+00 -0.10540963870E+03  0.14632060503E+04  0.14594042462E+04 0.  0.
        1    1    3    3  502    0  0.68651434886E+03 -0.24332204083E+03 -0.83445405900E+01  0.72840730236E+03  0.50400001928E-02 0. -1.
       -1    1    3    3    0  502 -0.68651434886E+03  0.24332204083E+03 -0.97065098112E+02  0.73479874799E+03  0.50400001928E-02 0.  1.
</event>
<event>
 5   0  0.1500956E-03  0.1493733E+04  0.7818609E-02  0.8888631E-01
        2   -1    0    0  501    0  0.00000000000E+00  0.00000000000E+00  0.10183178994E+04  0.10183178994E+04  0.25500000920E-02 0. -1.
       -2   -1    0    0    0  501  0.00000000000E+00  0.00000000000E+00 -0.54777525198E+03  0.54777525199E+03  0.25500000920E-02 0.  1.
    10030    2    1    2    0    0  0.00000000000E+00  0.00000000000E+00  0.47054264746E+03  0.15660931514E+04  0.14937326989E+04 0.  0.
        4    1    3    3  502    0  0.28730159059E+03 -0.16344968727E+03  0.93745382190E+03  0.99402177306E+03  0.12699999809E+01 0. -1.
       -4    1    3    3    0  502 -0.28730159059E+03  0.16344968727E+03 -0.46691117444E+03  0.57207137837E+03  0.12699999809E+01 0.  1.
</event>
<event>
 5   0  0.1484056E-03  0.1490301E+04  0.7818609E-02  0.8890929E-01
        2   -1    0    0  501    0  0.00000000000E+00  0.00000000000E+00  0.13570230302E+04  0.13570230302E+04  0.25500000920E-02 0. -1.
       -2   -1    0    0    0  501  0.00000000000E+00  0.00000000000E+00 -0.40916690973E+03  0.40916690974E+03  0.25500000920E-02 0.  1.
    10030    2    1    2    0    0  0.00000000000E+00  0.00000000000E+00  0.94785612047E+03  0.17661899399E+04  0.14903005331E+04 0.  0.
        5    1    3    3  502    0 -0.20511395864E+03  0.67751523770E+03  0.19820357921E+03  0.73512269870E+03  0.46999998093E+01 0.  1.
       -5    1    3    3    0  502  0.20511395864E+03 -0.67751523770E+03  0.74965254126E+03  0.10310672412E+04  0.46999998093E+01 0. -1.
</event>
<event>
 5   0  0.8306301E-04  0.1483938E+04  0.7818609E-02  0.8895205E-01
        1   -1    0    0  501    0  0.00000000000E+00  0.00000000000E+00  0.12565302758E+04  0.12565302759E+04  0.50400001928E-02 0.  1.
       -1   -1    0    0    0  501  0.00000000000E+00  0.00000000000E+00 -0.43812574349E+03  0.43812574352E+03  0.50400001928E-02 0. -1.
    10030    2    1    2    0    0  0.00000000000E+00  0.00000000000E+00  0.81840453235E+03  0.16946560194E+04  0.14839383563E+04 0.  0.
        4    1    3    3  502    0  0.32769385433E+03  0.38255810636E+03 -0.21293322207E+03  0.54687853941E+03  0.12699999809E+01 0. -1.
       -4    1    3    3    0  502 -0.32769385433E+03 -0.38255810636E+03  0.10313377544E+04  0.11477774800E+04  0.12699999809E+01 0.  1.
</event>
<event>
 5   0  0.8191876E-04  0.1520343E+04  0.7818609E-02  0.8871037E-01
        1   -1    0    0  501    0  0.00000000000E+00  0.00000000000E+00  0.11177983274E+04  0.11177983275E+04  0.50400001928E-02 0.  1.
       -1   -1    0    0    0  501  0.00000000000E+00  0.00000000000E+00 -0.51696299105E+03  0.51696299107E+03  0.50400001928E-02 0. -1.
    10030    2    1    2    0    0  0.00000000000E+00  0.00000000000E+00  0.60083533640E+03  0.16347613185E+04  0.15203425493E+04 0.  0.
        2    1    3    3  502    0  0.25287936297E+03  0.71002675574E+03  0.40672371585E+03  0.85645206937E+03  0.25500000920E-02 0.  1.
       -2    1    3    3    0  502 -0.25287936297E+03 -0.71002675574E+03  0.19411162055E+03  0.77830924916E+03  0.25500000920E-02 0. -1.
</event>
<event>
 5   0  0.1484056E-03  0.1226310E+04  0.7818609E-02  0.9090134E-01
        2   -1    0    0  501    0  0.00000000000E+00  0.00000000000E+00  0.11630585577E+04  0.11630585577E+04  0.25500000920E-02 0.  1.
       -2   -1    0    0    0  501  0.00000000000E+00  0.00000000000E+00 -0.32325056309E+03  0.32325056310E+03  0.25500000920E-02 0. -1.
    10030    2    1    2    0    0  0.00000000000E+00  0.00000000000E+00  0.83980799459E+03  0.14863091208E+04  0.12263104561E+04 0.  0.
        5    1    3    3  502    0  0.46330963063E+03 -0.57489707353E+02 -0.61827194682E+02  0.47096238946E+03  0.46999998093E+01 0. -1.
       -5    1    3    3    0  502 -0.46330963063E+03  0.57489707353E+02  0.90163518927E+03  0.10153467313E+04  0.46999998093E+01 0.  1.
</event>
<event>
 5   0  0.8365016E-04  0.1491778E+04  0.7818609E-02  0.8889939E-01
       -1   -1    0    0    0  501  0.00000000000E+00  0.00000000000E+00  0.95787732182E+03  0.95787732183E+03  0.50400001928E-02 0.  1.
        1   -1    0    0  501    0  0.00000000000E+00  0.00000000000E+00 -0.58081575572E+03  0.58081575574E+03  0.50400001928E-02 0. -1.
    10030    2    1    2    0    0  0.00000000000E+00  0.00000000000E+00  0.37706156610E+03  0.15386930776E+04  0.14917777859E+04 0.  0.
        3    1    3    3  502    0  0.68050514807E+02  0.18833437596E+03 -0.55257072140E+03  0.58773729002E+03  0.10100000352E+00 0. -1.
       -3    1    3    3    0  502 -0.68050514807E+02 -0.18833437596E+03  0.92963228750E+03  0.95095578756E+03  0.10100000352E+00 0.  1.
</event>
<event>
 5   0  0.1511546E-03  0.1510115E+04  0.7818609E-02  0.8877754E-01
        2   -1    0    0  501    0  0.00000000000E+00  0.00000000000E+00  0.13444044504E+04  0.13444044504E+04  0.25500000920E-02 0.  1.
       -2   -1    0    0    0  501  0.00000000000E+00  0.00000000000E+00 -0.42406285418E+03  0.42406285419E+03  0.25500000920E-02 0. -1.
    10030    2    1    2    0    0  0.00000000000E+00  0.00000000000E+00  0.92034159620E+03  0.17684673046E+04  0.15101152121E+04 0.  0.
        1    1    3    3  502    0  0.13767954327E+03 -0.14011821647E+03 -0.39361332077E+03  0.43990932877E+03  0.50400001928E-02 0. -1.
       -1    1    3    3    0  502 -0.13767954327E+03  0.14011821647E+03  0.13139549170E+04  0.13285579758E+04  0.50400001928E-02 0.  1.
</event>
<event>
 5   0  0.7870317E-04  0.1497216E+04  0.7818609E-02  0.8886307E-01
       -1   -1    0    0    0  501  0.00000000000E+00  0.00000000000E+00  0.77214842024E+03  0.77214842026E+03  0.50400001928E-02 0.  1.
        1   -1    0    0  501    0  0.00000000000E+00  0.00000000000E+00 -0.72578490030E+03  0.72578490032E+03  0.50400001928E-02 0. -1.
    10030    2    1    2    0    0  0.00000000000E+00  0.00000000000E+00  0.46363519934E+02  0.14979333206E+04  0.14972156347E+04 0.  0.
        1    1    3    3  502    0 -0.69783429015E+02 -0.61986269109E+03 -0.39091781583E+03  0.73614959182E+03  0.50400001928E-02 0. -1.
       -1    1    3    3    0  502  0.69783429015E+02  0.61986269109E+03  0.43728133577E+03  0.76178372876E+03  0.50400001928E-02 0.  1.
</event>
<event>
 5   0  0.1511546E-03  0.1504957E+04  0.7818609E-02  0.8881163E-01
       -2   -1    0    0    0  501  0.00000000000E+00  0.00000000000E+00  0.37697526443E+03  0.37697526444E+03  0.25500000920E-02 0.  1.
        2   -1    0    0  501    0  0.00000000000E+00  0.00000000000E+00 -0.15020189291E+04  0.15020189291E+04  0.25500000920E-02 0. -1.
    10030    2    1    2    0    0  0.00000000000E+00  0.00000000000E+00 -0.11250436647E+04  0.18789941936E+04  0.15049571196E+04 0.  0.
        1    1    3    3  502    0  0.38458988406E+03 -0.41169020917E+03  0.60278729265E+02  0.56659662236E+03  0.50400001928E-02 0.  1.
       -1    1    3    3    0  502 -0.38458988406E+03  0.41169020917E+03 -0.11853223940E+04  0.13123975712E+04  0.50400001928E-02 0. -1.
</event>
<event>
 5   0  0.1511546E-03  0.1511927E+04  0.7818609E-02  0.8876560E-01
        2   -1    0    0  501    0  0.00000000000E+00  0.00000000000E+00  0.22455282516E+04  0.22455282516E+04  0.25500000920E-02 0.  1.
       -2   -1    0    0    0  501  0.00000000000E+00  0.00000000000E+00 -0.25449710452E+03  0.25449710454E+03  0.25500000920E-02 0. -1.
    10030    2    1    2    0    0  0.00000000000E+00  0.00000000000E+00  0.19910311471E+04  0.25000253561E+04  0.15119265037E+04 0.  0.
        1    1    3    3  502    0 -0.16355885656E+03 -0.42314308253E+03 -0.44007691647E+01  0.45367492177E+03  0.50400001928E-02 0. -1.
       -1    1    3    3    0  502  0.16355885656E+03  0.42314308253E+03  0.19954319162E+04  0.20463504344E+04  0.50400001928E-02 0.  1.
</event>
<event>
 5   0  0.1484056E-03  0.1467296E+04  0.7818609E-02  0.8906497E-01
       -2   -1    0    0    0  501  0.00000000000E+00  0.00000000000E+00  0.43594731143E+03  0.43594731143E+03  0.25500000920E-02 0. -1.
        2   -1    0    0  501    0  0.00000000000E+00  0.00000000000E+00 -0.12346429639E+04  0.12346429639E+04  0.25500000920E-02 0.  1.
    10030    2    1    2    0    0  0.00000000000E+00  0.00000000000E+00 -0.79869565251E+03  0.16705902754E+04  0.14672958539E+04 0.  0.
        5    1    3    3  502    0  0.44937407932E+03  0.30195354491E+03 -0.96302133081E+03  0.11047828656E+04  0.46999998093E+01 0.  1.
       -5    1    3    3    0  502 -0.44937407932E+03 -0.30195354491E+03  0.16432567831E+03  0.56580740981E+03  0.46999998093E+01 0. -1.
</event>
<event>
 5   0  0.1552067E-03  0.1502851E+04  0.7818609E-02  0.8882559E-01
       -2   -1    0    0    0  501  0.00000000000E+00  0.00000000000E+00  0.52234746789E+03  0.52234746790E+03  0.25500000920E-02 0.  1.
        2   -1    0    0  501    0  0.00000000000E+00  0.00000000000E+00 -0.10809666318E+04  0.10809666318E+04  0.25500000920E-02 0. -1.
    10030    2    1    2    0    0  0.00000000000E+00  0.00000000000E+00 -0.55861916390E+03  0.16033140997E+04  0.15028508682E+04 0.  0.
        3    1    3    3  502    0  0.91879648585E+02 -0.37222203850E+03 -0.96876863391E+03  0.10418751326E+04  0.10100000352E+00 0. -1.
       -3    1    3    3    0  502 -0.91879648585E+02  0.37222203850E+03  0.41014947001E+03  0.56143896705E+03  0.10100000352E+00 0.  1.
</event>
<event>
 5   0  0.8191876E-04  0.1542406E+04  0.7818609E-02  0.8856733E-01
        1   -1    0    0  501    0  0.00000000000E+00  0.00000000000E+00  0.84139385902E+03  0.84139385904E+03  0.50400001928E-02 0.  1.
       -1   -1    0    0    0  501  0.00000000000E+00  0.00000000000E+00 -0.70686779838E+03  0.70686779839E+03  0.50400001928E-02 0. -1.
    10030    2    1    2    0    0  0.00000000000E+00  0.00000000000E+00  0.13452606065E+03  0.15482616574E+04  0.15424062042E+04 0.  0.
        2    1    3    3  502    0  0.10582714743E+03 -0.64176279319E+02 -0.69683384548E+03  0.70773963304E+03  0.25500000920E-02 0. -1.
       -2    1    3    3    0  502 -0.10582714743E+03  0.64176279319E+02  0.83135990613E+03  0.84052202439E+03  0.25500000920E-02 0.  1.
</event>
<event>
 5   0  0.8365016E-04  0.1004824E+04  0.7818609E-02  0.9303269E-01
        1   -1    0    0  501    0  0.00000000000E+00  0.00000000000E+00  0.31459359321E+03  0.31459359325E+03  0.50400001928E-02 0. -1.
       -1   -1    0    0    0  501  0.00000000000E+00  0.00000000000E+00 -0.80236207517E+03  0.80236207518E+03  0.50400001928E-02 0.  1.
    10030    2    1    2    0    0  0.00000000000E+00  0.00000000000E+00 -0.48776848196E+03  0.11169556684E+04  0.10048242997E+04 0.  0.
        3    1    3    3  502    0  0.81214989064E+02 -0.92323205108E+02 -0.78537782171E+03  0.79494514382E+03  0.10100000352E+00 0.  1.
       -3    1    3    3    0  502 -0.81214989064E+02  0.92323205108E+02  0.29760933975E+03  0.32201052461E+03  0.10100000352E+00 0. -1.
</event>
<event>
 5   0  0.5603875E-04  0.1459726E+04  0.7818609E-02  0.8911685E-01
        3   -1    0    0  501    0  0.00000000000E+00  0.00000000000E+00  0.82830922233E+03  0.82830922849E+03  0.10100000352E+00 0. -1.
       -3   -1    0    0    0  501  0.00000000000E+00  0.00000000000E+00 -0.64311768514E+03  0.64311769308E+03  0.10100000352E+00 0.  1.
    10030    2    1    2    0    0  0.00000000000E+00  0.00000000000E+00  0.18519153719E+03  0.14714269216E+04  0.14597264401E+04 0.  0.
        3    1    3    3  502    0  0.16892107900E+03 -0.44651658488E+03  0.64909787119E+03  0.80575396250E+03  0.10100000352E+00 0. -1.
       -3    1    3    3    0  502 -0.16892107900E+03  0.44651658488E+03 -0.46390633400E+03  0.66567295906E+03  0.10100000352E+00 0.  1.
</event>
<event>
 5   0  0.8191876E-04  0.1490277E+04  0.7818609E-02  0.8890945E-01
       -1   -1    0    0    0  501  0.00000000000E+00  0.00000000000E+00  0.63928701638E+03  0.63928701640E+03  0.50400001928E-02 0. -1.
        1   -1    0    0  501    0  0.00000000000E+00  0.00000000000E+00 -0.86851632358E+03  0.86851632359E+03  0.50400001928E-02 0.  1.
    10030    2    1    2    0    0  0.00000000000E+00  0.00000000000E+00 -0.22922930720E+03  0.15078033400E+04  0.14902767652E+04 0.  0.
        2    1    3    3  502    0 -0.51737496401E+03 -0.27853257321E+03  0.34900356246E+03  0.68341841820E+03  0.25500000920E-02 0. -1.
       -2    1    3    3    0  502  0.51737496401E+03  0.27853257321E+03 -0.57823286965E+03  0.82438492179E+03  0.25500000920E-02 0.  1.
</event>
<event>
 5   0  0.7870317E-04  0.1561910E+04  0.7818609E-02  0.8844296E-01
        1   -1    0    0  501    0  0.00000000000E+00  0.00000000000E+00  0.73906042705E+03  0.73906042706E+03  0.50400001928E-02 0. -1.
       -1   -1    0    0    0  501  0.00000000000E+00  0.00000000000E+00 -0.82522421442E+03  0.82522421443E+03  0.50400001928E-02 0.  1.
    10030    2    1    2    0    0  0.00000000000E+00  0.00000000000E+00 -0.86163787372E+02  0.15642846415E+04  0.15619098058E+04 0.  0.
        1    1    3    3  502    0  0.60701459300E+03 -0.15700688299E+02  0.44876289439E+03  0.75505056991E+03  0.50400001928E-02 0. -1.
       -1    1    3    3    0  502 -0.60701459300E+03  0.15700688299E+02 -0.53492668176E+03  0.80923407158E+03  0.50400001928E-02 0.  1.
</event>
<event>
 5   0  0.1511546E-03  0.1486139E+04  0.7818609E-02  0.8893723E-01
        2   -1    0    0  501    0  0.00000000000E+00  0.00000000000E+00  0.95413039083E+03  0.95413039083E+03  0.25500000920E-02 0. -1.
       -2   -1    0    0    0  501  0.00000000000E+00  0.00000000000E+00 -0.57869686581E+03  0.57869686582E+03  0.25500000920E-02 0.  1.
    10030    2    1    2    0    0  0.00000000000E+00  0.00000000000E+00  0.37543352502E+03  0.15328272566E+04  0.14861389797E+04 0.  0.
        1    1    3    3  502    0  0.63061805850E+03  0.21582399619E+03  0.52650684810E+03  0.84939307400E+03  0.50400001928E-02 0.  1.
       -1    1    3    3    0  502 -0.63061805850E+03 -0.21582399619E+03 -0.15107332309E+03  0.68343418265E+03  0.50400001928E-02 0. -1.
</event>
<event>
 5   0  0.8365016E-04  0.1517577E+04  0.7818609E-02  0.8872848E-01
       -1   -1    0    0    0  501  0.00000000000E+00  0.00000000000E+00  0.55568827447E+03  0.55568827449E+03  0.50400001928E-02 0. -1.
        1   -1    0    0  501    0  0.00000000000E+00  0.00000000000E+00 -0.10361199497E+04  0.10361199497E+04  0.50400001928E-02 0.  1.
    10030    2    1    2    0    0  0.00000000000E+00  0.00000000000E+00 -0.48043167521E+03  0.15918082242E+04  0.15175766300E+04 0.  0.
        3    1    3    3  502    0  0.48707014960E+03  0.10818476648E+03 -0.83985968068E+03  0.97688564723E+03  0.10100000352E+00 0.  1.
       -3    1    3    3    0  502 -0.48707014960E+03 -0.10818476648E+03  0.35942800547E+03  0.61492257695E+03  0.10100000352E+00 0. -1.
</event>
<event>
 5   0  0.1526126E-03  0.1469878E+04  0.7818609E-02  0.8904734E-01
        2   -1    0    0  501    0  0.00000000000E+00  0.00000000000E+00  0.14946328584E+04  0.14946328584E+04  0.25500000920E-02 0.  1.
       -2   -1    0    0    0  501  0.00000000000E+00  0.00000000000E+00 -0.36138345415E+03  0.36138345416E+03  0.25500000920E-02 0. -1.
    10030    2    1    2    0    0  0.00000000000E+00  0.00000000000E+00  0.11332494042E+04  0.18560163125E+04  0.14698783420E+04 0.  0.
        2    1    3    3  502    0 -0.54743877497E+03 -0.26623022010E+03  0.46662055700E+02  0.61052853323E+03  0.25500000920E-02 0. -1.
       -2    1    3    3    0  502  0.54743877497E+03  0.26623022010E+03  0.10865873485E+04  0.12454877793E+04  0.25500000920E-02 0.  1.
</event>
<event>
 5   0  0.8058234E-04  0.1478417E+04  0.7818609E-02  0.8898934E-01
       -1   -1    0    0    0  501  0.00000000000E+00  0.00000000000E+00  0.71173893901E+03  0.71173893903E+03  0.50400001928E-02 0.  1.
        1   -1    0    0  501    0  0.00000000000E+00  0.00000000000E+00 -0.76773829536E+03  0.76773829537E+03  0.50400001928E-02 0. -1.
    10030    2    1    2    0    0  0.00000000000E+00  0.00000000000E+00 -0.55999356351E+02  0.14794772344E+04  0.14784170451E+04 0.  0.
        5    1    3    3  502    0  0.73385761540E+03  0.87971725934E+02 -0.39013276334E+02  0.74015549040E+03  0.46999998093E+01 0.  1.
       -5    1    3    3    0  502 -0.73385761540E+03 -0.87971725934E+02 -0.16986080017E+02  0.73932174400E+03  0.46999998093E+01 0. -1.
</event>
<event>
 5   0  0.1500956E-03  0.1524857E+04  0.7818609E-02  0.8868089E-01
        2   -1    0    0  501    0  0.00000000000E+00  0.00000000000E+00  0.50792865489E+03  0.50792865490E+03  0.25500000920E-02 0. -1.
       -2   -1    0    0    0  501  0.00000000000E+00  0.00000000000E+00 -0.11444469795E+04  0.11444469795E+04  0.25500000920E-02 0.  1.
    10030    2    1    2    0    0  0.00000000000E+00  0.00000000000E+00 -0.63651832464E+03  0.16523756344E+04  0.15248572588E+04 0.  0.
        4    1    3    3  502    0 -0.36935467499E+03  0.65340684608E+03 -0.46336972856E+03  0.88208644740E+03  0.12699999809E+01 0.  1.
       -4    1    3    3    0  502  0.36935467499E+03 -0.65340684608E+03 -0.17314859608E+03  0.77028918704E+03  0.12699999809E+01 0. -1.
</event>
<event>
 5   0  0.1511546E-03  0.1534415E+04  0.7818609E-02  0.8861884E-01
        2   -1    0    0  501    0  0.00000000000E+00  0.00000000000E+00  0.17291063137E+04  0.17291063137E+04  0.25500000920E-02 0. -1.
       -2   -1    0    0    0  501  0.00000000000E+00  0.00000000000E+00 -0.34041143785E+03  0.34041143786E+03  0.25500000920E-02 0.  1.
    10030    2    1    2    0    0  0.00000000000E+00  0.00000000000E+00  0.13886948758E+04  0.20695177515E+04  0.15344152846E+04 0.  0.
        1    1    3    3  502    0 -0.41332311964E+03  0.64159236771E+03  0.79995250933E+03  0.11056223518E+04  0.50400001928E-02 0. -1.
       -1    1    3    3    0  502  0.41332311964E+03 -0.64159236771E+03  0.58874236651E+03  0.96389539976E+03  0.50400001928E-02 0.  1.
</event>
<event>
 5   0  0.1511546E-03  0.1518149E+04  0.7818609E-02  0.8872473E-01
       -2   -1    0    0    0  501  0.00000000000E+00  0.00000000000E+00  0.23930967697E+03  0.23930967698E+03  0.25500000920E-02 0. -1.
        2   -1    0    0  501    0  0.00000000000E+00  0.00000000000E+00 -0.24077357579E+04  0.24077357579E+04  0.25500000920E-02 0.  1.
    10030    2    1    2    0    0  0.00000000000E+00  0.00000000000E+00 -0.21684260809E+04  0.26470454348E+04  0.15181494873E+04 0.  0.
        1    1    3    3  502    0 -0.26951272614E+02  0.30066381771E+03  0.13015067343E+03  0.32873134958E+03  0.50400001928E-02 0. -1.
       -1    1    3    3    0  502  0.26951272614E+02 -0.30066381771E+03 -0.22985767543E+04  0.23183140853E+04  0.50400001928E-02 0.  1.
</event>
<event>
 5   0  0.8306301E-04  0.1472264E+04  0.7818609E-02  0.8903110E-01
       -1   -1    0    0    0  501  0.00000000000E+00  0.00000000000E+00  0.82766980741E+03  0.82766980743E+03  0.50400001928E-02 0. -1.
        1   -1    0    0  501    0  0.00000000000E+00  0.00000000000E+00 -0.65471782911E+03  0.65471782913E+03  0.50400001928E-02 0.  1.
    10030    2    1    2    0    0  0.00000000000E+00  0.00000000000E+00  0.17295197830E+03  0.14823876366E+04  0.14722638073E+04 0.  0.
        4    1    3    3  502    0 -0.47206736985E+03 -0.38208078858E+03  0.50533563407E+03  0.79006268526E+03  0.12699999809E+01 0. -1.
       -4    1    3    3    0  502  0.47206736985E+03  0.38208078858E+03 -0.33238365576E+03  0.69232495130E+03  0.12699999809E+01 0.  1.
</event>
<event>
 5   0  0.1500956E-03  0.1511470E+04  0.7818609E-02  0.8876861E-01
        2   -1    0    0  501    0  0.00000000000E+00  0.00000000000E+00  0.53789285467E+03  0.53789285468E+03  0.25500000920E-02 0. -1.
       -2   -1    0    0    0  501  0.00000000000E+00  0.00000000000E+00 -0.10618011417E+04  0.10618011417E+04  0.25500000920E-02 0.  1.
    10030    2    1    2    0    0  0.00000000000E+00  0.00000000000E+00 -0.52390828701E+03  0.15996939964E+04  0.15114698107E+04 0.  0.
        4    1    3    3  502    0  0.18764770967E+03 -0.28781876418E+03 -0.97435757129E+03  0.10331629076E+04  0.12699999809E+01 0.  1.
       -4    1    3    3    0  502 -0.18764770967E+03  0.28781876418E+03  0.45044928428E+03  0.56653108879E+03  0.12699999809E+01 0. -1.
</event>
<event>
 5   0  0.1500956E-03  0.1505298E+04  0.7818609E-02  0.8880937E-01
        2   -1    0    0  501    0  0.00000000000E+00  0.00000000000E+00  0.54717202843E+03  0.54717202844E+03  0.25500000920E-02 0. -1.
       -2   -1    0    0    0  501  0.00000000000E+00  0.00000000000E+00 -0.10352880049E+04  0.10352880049E+04  0.25500000920E-02 0.  1.
    10030    2    1    2    0    0  0.00000000000E+00  0.00000000000E+00 -0.48811597646E+03  0.15824600333E+04  0.15052981600E+04 0.  0.
        4    1    3    3  502    0 -0.35890414628E+03 -0.62081328441E+03 -0.37404958703E+01  0.71710314776E+03  0.12699999809E+01 0. -1.
       -4    1    3    3    0  502  0.35890414628E+03  0.62081328441E+03 -0.48437548059E+03  0.86535688558E+03  0.12699999809E+01 0.  1.
</event>
<event>
 5   0  0.8191876E-04  0.1512710E+04  0.7818609E-02  0.8876045E-01
       -1   -1    0    0    0  501  0.00000000000E+00  0.00000000000E+00  0.48834697506E+03  0.48834697509E+03  0.50400001928E-02 0.  1.
        1   -1    0    0  501    0  0.00000000000E+00  0.00000000000E+00 -0.11714476957E+04  0.11714476957E+04  0.50400001928E-02 0. -1.
    10030    2    1    2    0    0  0.00000000000E+00  0.00000000000E+00 -0.68310072065E+03  0.16597946708E+04  0.15127100696E+04 0.  0.
        2    1    3    3  502    0 -0.77031839397E+02 -0.73182216442E+03 -0.53341034936E+03  0.90885872688E+03  0.25500000920E-02 0.  1.
       -2    1    3    3    0  502  0.77031839397E+02  0.73182216442E+03 -0.14969037129E+03  0.75093594392E+03  0.25500000920E-02 0. -1.
</event>
<event>
 5   0  0.1511546E-03  0.1508681E+04  0.7818609E-02  0.8878701E-01
        2   -1    0    0  501    0  0.00000000000E+00  0.00000000000E+00  0.78460941688E+03  0.78460941689E+03  0.25500000920E-02 0.  1.
       -2   -1    0    0    0  501  0.00000000000E+00  0.00000000000E+00 -0.72523932132E+03  0.72523932132E+03  0.25500000920E-02 0. -1.
    10030    2    1    2    0    0  0.00000000000E+00  0.00000000000E+00  0.59370095567E+02  0.15098487382E+04  0.15086810147E+04 0.  0.
        1    1    3    3  502    0 -0.31424395026E+03  0.61949617106E+03  0.32402973785E+03  0.76649855660E+03  0.50400001928E-02 0.  1.
       -1    1    3    3    0  502  0.31424395026E+03 -0.61949617106E+03 -0.26465964228E+03  0.74335018161E+03  0.50400001928E-02 0. -1.
</event>
<event>
 5   0  0.8058234E-04  0.1507544E+04  0.7818609E-02  0.8879452E-01
        1   -1    0    0  501    0  0.00000000000E+00  0.00000000000E+00  0.10805741745E+04  0.10805741745E+04  0.50400001928E-02 0.  1.
       -1   -1    0    0    0  501  0.00000000000E+00  0.00000000000E+00 -0.52580563866E+03  0.52580563868E+03  0.50400001928E-02 0. -1.
    10030    2    1    2    0    0  0.00000000000E+00  0.00000000000E+00  0.55476853587E+03  0.16063798132E+04  0.15075436896E+04 0.  0.
        5    1    3    3  502    0 -0.33865881639E+03 -0.28317364279E+01  0.99492082989E+03  0.10509935111E+04  0.46999998093E+01 0.  1.
       -5    1    3    3    0  502  0.33865881639E+03  0.28317364279E+01 -0.44015229402E+03  0.55538630211E+03  0.46999998093E+01 0. -1.
</event>
<event>
 5   0  0.8058234E-04  0.1509304E+04  0.7818609E-02  0.8878289E-01
       -1   -1    0    0    0  501  0.00000000000E+00  0.00000000000E+00  0.56598184397E+03  0.56598184400E+03  0.50400001928E-02 0. -1.
        1   -1    0    0  501    0  0.00000000000E+00  0.00000000000E+00 -0.10062159874E+04  0.10062159875E+04  0.50400001928E-02 0.  1.
    10030    2    1    2    0    0  0.00000000000E+00  0.00000000000E+00 -0.44023414347E+03  0.15721978315E+04  0.15093044491E+04 0.  0.
        5    1    3    3  502    0  0.68736933144E+03 -0.25240066630E+03 -0.30043766055E+02  0.73287612325E+03  0.46999998093E+01 0. -1.
       -5    1    3    3    0  502 -0.68736933144E+03  0.25240066630E+03 -0.41019037741E+03  0.83932170821E+03  0.46999998093E+01 0.  1.
</event>
<event>
 5   0  0.8058234E-04  0.1584308E+04  0.7818609E-02  0.8830247E-01
       -1   -1    0    0    0  501  0.00000000000E+00  0.00000000000E+00  0.72799267808E+03  0.72799267809E+03  0.50400001928E-02 0. -1.
        1   -1    0    0  501    0  0.00000000000E+00  0.00000000000E+00 -0.86196969909E+03  0.86196969911E+03  0.50400001928E-02 0.  1.
    10030    2    1    2    0    0  0.00000000000E+00  0.00000000000E+00 -0.13397702101E+03  0.15899623772E+04  0.15843075834E+04 0.  0.
        5    1    3    3  502    0  0.11804722434E+03 -0.52749102965E+02 -0.85129436632E+03  0.86107014997E+03  0.46999998093E+01 0.  1.
       -5    1    3    3    0  502 -0.11804722434E+03  0.52749102965E+02  0.71731734531E+03  0.72889222723E+03  0.46999998093E+01 0. -1.
</event>
<event>
 5   0  0.8191876E-04  0.1477847E+04  0.7818609E-02  0.8899320E-01
        1   -1    0    0  501    0  0.00000000000E+00  0.00000000000E+00  0.16730180965E+04  0.16730180965E+04  0.50400001928E-02 0. -1.
       -1   -1    0    0    0  501  0.00000000000E+00  0.00000000000E+00 -0.32636088361E+03  0.32636088365E+03  0.50400001928E-02 0.  1.
    10030    2    1    2    0    0  0.00000000000E+00  0.00000000000E+00  0.13466572129E+04  0.19993789802E+04  0.14778466285E+04 0.  0.
        2    1    3    3  502    0 -0.46293081553E+03  0.57334023886E+03  0.74722835483E+03  0.10494637601E+04  0.25500000920E-02 0.  1.
       -2    1    3    3    0  502  0.46293081553E+03 -0.57334023886E+03  0.59942885811E+03  0.94991522011E+03  0.25500000920E-02 0. -1.
</event>
<event>
 5   0  0.1552067E-03  0.1498384E+04  0.7818609E-02  0.8885528E-01
       -2   -1    0    0    0  501  0.00000000000E+00  0.00000000000E+00  0.80272502245E+03  0.80272502246E+03  0.25500000920E-02 0.  1.
        2   -1    0    0  501    0  0.00000000000E+00  0.00000000000E+00 -0.69922870972E+03  0.69922870973E+03  0.25500000920E-02 0. -1.
    10030    2    1    2    0    0  0.00000000000E+00  0.00000000000E+00  0.10349631273E+03  0.15019537322E+04  0.14983836381E+04 0.  0.
        3    1    3    3  502    0 -0.93605834675E+02 -0.72676235918E+03  0.20814166791E+03  0.76175359738E+03  0.10100000352E+00 0.  1.
       -3    1    3    3    0  502  0.93605834675E+02  0.72676235918E+03 -0.10464535518E+03  0.74020013480E+03  0.10100000352E+00 0. -1.
</event>
<event>
 5   0  0.1484056E-03  0.1454894E+04  0.7818609E-02  0.8915015E-01
       -2   -1    0    0    0  501  0.00000000000E+00  0.00000000000E+00  0.47693109719E+03  0.47693109719E+03  0.25500000920E-02 0. -1.
        2   -1    0    0  501    0  0.00000000000E+00  0.00000000000E+00 -0.11095499024E+04  0.11095499024E+04  0.25500000920E-02 0.  1.
    10030    2    1    2    0    0  0.00000000000E+00  0.00000000000E+00 -0.63261880521E+03  0.15864809996E+04  0.14548936076E+04 0.  0.
        5    1    3    3  502    0  0.66220537821E+03  0.97000132408E+02 -0.55197095086E+01  0.66931124734E+03  0.46999998093E+01 0. -1.
       -5    1    3    3    0  502 -0.66220537821E+03 -0.97000132408E+02 -0.62709909570E+03  0.91716975225E+03  0.46999998093E+01 0.  1.
</event>
<event>
 5   0  0.1526126E-03  0.1545748E+04  0.7818609E-02  0.8854588E-01
       -2   -1    0    0    0  501  0.00000000000E+00  0.00000000000E+00  0.63165527780E+03  0.63165527780E+03  0.25500000920E-02 0.  1.
        2   -1    0    0  501    0  0.00000000000E+00  0.00000000000E+00 -0.94566445665E+03  0.94566445665E+03  0.25500000920E-02 0. -1.
    10030    2    1    2    0    0  0.00000000000E+00  0.00000000000E+00 -0.31400917886E+03  0.15773197345E+04  0.15457476444E+04 0.  0.
        2    1    3    3  502    0 -0.19705670945E+03 -0.52255989341E+02 -0.91773265670E+03  0.94010385827E+03  0.25500000920E-02 0. -1.
       -2    1    3    3    0  502  0.19705670945E+03  0.52255989341E+02  0.60372347784E+03  0.63721587619E+03  0.25500000920E-02 0.  1.
</event>
<event>
 5   0  0.8191876E-04  0.1384123E+04  0.7818609E-02  0.8965392E-01
        1   -1    0    0  501    0  0.00000000000E+00  0.00000000000E+00  0.10562894727E+04  0.10562894727E+04  0.50400001928E-02 0.  1.
       -1   -1    0    0    0  501  0.00000000000E+00  0.00000000000E+00 -0.45342629179E+03  0.45342629181E+03  0.50400001928E-02 0. -1.
    10030    2    1    2    0    0  0.00000000000E+00  0.00000000000E+00  0.60286318095E+03  0.15097157646E+04  0.13841234319E+04 0.  0.
        2    1    3    3  502    0  0.51840226801E+03  0.30907462775E+03 -0.67942839037E+02  0.60735843320E+03  0.25500000920E-02 0. -1.
       -2    1    3    3    0  502 -0.51840226801E+03 -0.30907462775E+03  0.67080601999E+03  0.90235733136E+03  0.25500000920E-02 0.  1.
</event>
<event>
 5   0  0.1511546E-03  0.1977679E+04  0.7818609E-02  0.8617128E-01
       -2   -1    0    0    0  501  0.00000000000E+00  0.00000000000E+00  0.97362631462E+03  0.97362631462E+03  0.25500000920E-02 0. -1.
        2   -1    0    0  501    0  0.00000000000E+00  0.00000000000E+00 -0.10042902320E+04  0.10042902320E+04  0.25500000920E-02 0.  1.
    10030    2    1    2    0    0  0.00000000000E+00  0.00000000000E+00 -0.30663917385E+02  0.19779165466E+04  0.19776788388E+04 0.  0.
        1    1    3    3  502    0  0.67635350997E+03 -0.39621680640E+03 -0.61819921045E+03  0.99830460880E+03  0.50400001928E-02 0.  1.
       -1    1    3    3    0  502 -0.67635350997E+03  0.39621680640E+03  0.58753529306E+03  0.97961193783E+03  0.50400001928E-02 0. -1.
</event>
<event>
 5   0  0.5603875E-04  0.1337168E+04  0.7818609E-02  0.9000599E-01
        3   -1    0    0  501    0  0.00000000000E+00  0.00000000000E+00  0.38797470391E+03  0.38797471706E+03  0.10100000352E+00 0. -1.
       -3   -1    0    0    0  501  0.00000000000E+00  0.00000000000E+00 -0.11521486591E+04  0.11521486636E+04  0.10100000352E+00 0.  1.
    10030    2    1    2    0    0  0.00000000000E+00  0.00000000000E+00 -0.76417395523E+03  0.15401233806E+04  0.13371679751E+04 0.  0.
        5    1    3    3  502    0 -0.24004354413E+03  0.32388004899E+03  0.23221603562E+03  0.46525860165E+03  0.46999998093E+01 0. -1.
       -5    1    3    3    0  502  0.24004354413E+03 -0.32388004899E+03 -0.99638999085E+03  0.10748647790E+04  0.46999998093E+01 0.  1.
</event>
<event>
 5   0  0.8191876E-04  0.1683607E+04  0.7818609E-02  0.8770770E-01
        1   -1    0    0  501    0  0.00000000000E+00  0.00000000000E+00  0.21045632351E+04  0.21045632351E+04  0.50400001928E-02 0. -1.
       -1   -1    0    0    0  501  0.00000000000E+00  0.00000000000E+00 -0.33671262201E+03  0.33671262204E+03  0.50400001928E-02 0.  1.
    10030    2    1    2    0    0  0.00000000000E+00  0.00000000000E+00  0.17678506131E+04  0.24412758571E+04  0.16836068485E+04 0.  0.
        2    1    3    3  502    0  0.83269800231E+03 -0.94274533761E+02  0.76829206918E+03  0.11369020865E+04  0.25500000920E-02 0.  1.
       -2    1    3    3    0  502 -0.83269800231E+03  0.94274533761E+02  0.99955854390E+03  0.13043737706E+04  0.25500000920E-02 0. -1.
</event>
<event>
 5   0  0.7870317E-04  0.1511668E+04  0.7818609E-02  0.8876731E-01
        1   -1    0    0  501    0  0.00000000000E+00  0.00000000000E+00  0.37279106693E+03  0.37279106696E+03  0.50400001928E-02 0.  1.
       -1   -1    0    0    0  501  0.00000000000E+00  0.00000000000E+00 -0.15324535266E+04  0.15324535266E+04  0.50400001928E-02 0. -1.
    10030    2    1    2    0    0  0.00000000000E+00  0.00000000000E+00 -0.11596624597E+04  0.19052445936E+04  0.15116679334E+04 0.  0.
        1    1    3    3  502    0  0.19647033744E+03  0.96871902225E+02  0.33190622979E+03  0.39767638141E+03  0.50400001928E-02 0.  1.
       -1    1    3    3    0  502 -0.19647033744E+03 -0.96871902225E+02 -0.14915686895E+04  0.15075682122E+04  0.50400001928E-02 0. -1.
</event>
<event>
 5   0  0.8365016E-04  0.1269654E+04  0.7818609E-02  0.9053982E-01
        1   -1    0    0  501    0  0.00000000000E+00  0.00000000000E+00  0.17837325129E+04  0.17837325130E+04  0.50400001928E-02 0. -1.
       -1   -1    0    0    0  501  0.00000000000E+00  0.00000000000E+00 -0.22593356174E+03  0.22593356180E+03  0.50400001928E-02 0.  1.
    10030    2    1    2    0    0  0.00000000000E+00  0.00000000000E+00  0.15577989512E+04  0.20096660747E+04  0.12696535589E+04 0.  0.
        3    1    3    3  502    0  0.35195100107E+03 -0.46107045504E+03  0.11872294436E+04  0.13213512908E+04  0.10100000352E+00 0.  1.
       -3    1    3    3    0  502 -0.35195100107E+03  0.46107045504E+03  0.37056950759E+03  0.68831478396E+03  0.10100000352E+00 0. -1.
</event>
<event>
 5   0  0.8191876E-04  0.1587251E+04  0.7818609E-02  0.8828419E-01
       -1   -1    0    0    0  501  0.00000000000E+00  0.00000000000E+00  0.62207555594E+03  0.62207555596E+03  0.50400001928E-02 0.  1.
        1   -1    0    0  501    0  0.00000000000E+00  0.00000000000E+00 -0.10124837924E+04  0.10124837924E+04  0.50400001928E-02 0. -1.
    10030    2    1    2    0    0  0.00000000000E+00  0.00000000000E+00 -0.39040823647E+03  0.16345593484E+04  0.15872509796E+04 0.  0.
        2    1    3    3  502    0 -0.66347580833E+03  0.30207364891E+03  0.12782130688E+03  0.74012628929E+03  0.25500000920E-02 0. -1.
       -2    1    3    3    0  502  0.66347580833E+03 -0.30207364891E+03 -0.51822954335E+03  0.89443305910E+03  0.25500000920E-02 0.  1.
</event>
<event>
 5   0  0.8365016E-04  0.1206864E+04  0.7818609E-02  0.9106869E-01
       -1   -1    0    0    0  501  0.00000000000E+00  0.00000000000E+00  0.46203878208E+03  0.46203878210E+03  0.50400001928E-02 0.  1.
        1   -1    0    0  501    0  0.00000000000E+00  0.00000000000E+00 -0.78809471200E+03  0.78809471201E+03  0.50400001928E-02 0. -1.
    10030    2    1    2    0    0  0.00000000000E+00  0.00000000000E+00 -0.32605592992E+03  0.12501334941E+04  0.12068642358E+04 0.  0.
        3    1    3    3  502    0 -0.72818679555E+01 -0.38990246983E+03 -0.64003034012E+03  0.74947702303E+03  0.10100000352E+00 0. -1.
       -3    1    3    3    0  502  0.72818679555E+01  0.38990246983E+03  0.31397441020E+03  0.50065647109E+03  0.10100000352E+00 0.  1.
</event>
<event>
 5   0  0.7870317E-04  0.1504839E+04  0.7818609E-02  0.8881241E-01
       -1   -1    0    0    0  501  0.00000000000E+00  0.00000000000E+00  0.49476844290E+03  0.49476844293E+03  0.50400001928E-02 0. -1.
        1   -1    0    0  501    0  0.00000000000E+00  0.00000000000E+00 -0.11442427794E+04  0.11442427795E+04  0.50400001928E-02 0.  1.
    10030    2    1    2    0    0  0.00000000000E+00  0.00000000000E+00 -0.64947433655E+03  0.16390112224E+04  0.15048391520E+04 0.  0.
        1    1    3    3  502    0 -0.59431520307E+03  0.37881114141E+03 -0.61171962365E+03  0.93322523511E+03  0.50400001928E-02 0.  1.
       -1    1    3    3    0  502  0.59431520307E+03 -0.37881114141E+03 -0.37754712898E+02  0.70578598728E+03  0.50400001928E-02 0. -1.
</event>
<event>
 5   0  0.8191876E-04  0.1505849E+04  0.7818609E-02  0.8880573E-01
       -1   -1    0    0    0  501  0.00000000000E+00  0.00000000000E+00  0.56934598409E+03  0.56934598411E+03  0.50400001928E-02 0.  1.
        1   -1    0    0  501    0  0.00000000000E+00  0.00000000000E+00 -0.99569572862E+03  0.99569572864E+03  0.50400001928E-02 0. -1.
    10030    2    1    2    0    0  0.00000000000E+00  0.00000000000E+00 -0.42634974454E+03  0.15650417127E+04  0.15058490821E+04 0.  0.
        2    1    3    3  502    0  0.27983482935E+02 -0.96547209520E+02 -0.98869048047E+03  0.99378735409E+03  0.25500000920E-02 0. -1.
       -2    1    3    3    0  502 -0.27983482935E+02  0.96547209520E+02  0.56234073593E+03  0.57125435865E+03  0.25500000920E-02 0.  1.
</event>
<event>
 5   0  0.1526126E-03  0.1507921E+04  0.7818609E-02  0.8879203E-01
       -2   -1    0    0    0  501  0.00000000000E+00  0.00000000000E+00  0.52384209324E+03  0.52384209325E+03  0.25500000920E-02 0.  1.
        2   -1    0    0  501    0  0.00000000000E+00  0.00000000000E+00 -0.10851668963E+04  0.10851668963E+04  0.25500000920E-02 0. -1.
    10030    2    1    2    0    0  0.00000000000E+00  0.00000000000E+00 -0.56132480301E+03  0.16090089895E+04  0.15079205529E+04 0.  0.
        2    1    3    3  502    0  0.58906701184E+03 -0.97762844150E+01 -0.78269295632E+03  0.97964472338E+03  0.25500000920E-02 0. -1.
       -2    1    3    3    0  502 -0.58906701184E+03  0.97762844150E+01  0.22136815330E+03  0.62936426613E+03  0.25500000920E-02 0.  1.
</event>
<event>
 5   0  0.8191876E-04  0.1018549E+04  0.7818609E-02  0.9288432E-01
        1   -1    0    0  501    0  0.00000000000E+00  0.00000000000E+00  0.36943540857E+03  0.36943540860E+03  0.50400001928E-02 0.  1.
       -1   -1    0    0    0  501  0.00000000000E+00  0.00000000000E+00 -0.70204501653E+03  0.70204501654E+03  0.50400001928E-02 0. -1.
    10030    2    1    2    0    0  0.00000000000E+00  0.00000000000E+00 -0.33260960796E+03  0.10714804251E+04  0.10185485507E+04 0.  0.
        2    1    3    3  502    0  0.31126471067E+03  0.30898566906E+03 -0.43860488009E+03  0.62026776850E+03  0.25500000920E-02 0. -1.
       -2    1    3    3    0  502 -0.31126471067E+03 -0.30898566906E+03  0.10599527213E+03  0.45121265664E+03  0.25500000920E-02 0.  1.
</event>
<event>
 5   0  0.8058234E-04  0.1497993E+04  0.7818609E-02  0.8885789E-01
        1   -1    0    0  501    0  0.00000000000E+00  0.00000000000E+00  0.11870728208E+04  0.11870728208E+04  0.50400001928E-02 0. -1.
       -1   -1    0    0    0  501  0.00000000000E+00  0.00000000000E+00 -0.47258743876E+03  0.47258743879E+03  0.50400001928E-02 0.  1.
    10030    2    1    2    0    0  0.00000000000E+00  0.00000000000E+00  0.71448538206E+03  0.16596602596E+04  0.14979929293E+04 0.  0.
        5    1    3    3  502    0 -0.23838904389E+03  0.35113564594E+03  0.10409737235E+04  0.11241770151E+04  0.46999998093E+01 0. -1.
       -5    1    3    3    0  502  0.23838904389E+03 -0.35113564594E+03 -0.32648834148E+03  0.53548324457E+03  0.46999998093E+01 0.  1.
</event>
<event>
 5   0  0.5603875E-04  0.1498490E+04  0.7818609E-02  0.8885458E-01
        3   -1    0    0  501    0  0.00000000000E+00  0.00000000000E+00  0.82631416380E+03  0.82631416997E+03  0.10100000352E+00 0.  1.
       -3   -1    0    0    0  501  0.00000000000E+00  0.00000000000E+00 -0.67936382258E+03  0.67936383009E+03  0.10100000352E+00 0. -1.
    10030    2    1    2    0    0  0.00000000000E+00  0.00000000000E+00  0.14695034122E+03  0.15056780001E+04  0.14984898522E+04 0.  0.
        3    1    3    3  502    0  0.22207619483E+03 -0.57178088092E+03  0.50579100413E+03  0.79503192524E+03  0.10100000352E+00 0.  1.
       -3    1    3    3    0  502 -0.22207619483E+03  0.57178088092E+03 -0.35884066291E+03  0.71064607482E+03  0.10100000352E+00 0. -1.
</event>
<event>
 5   0  0.1552067E-03  0.1481120E+04  0.7818609E-02  0.8897106E-01
       -2   -1    0    0    0  501  0.00000000000E+00  0.00000000000E+00  0.40559588904E+03  0.40559588904E+03  0.25500000920E-02 0.  1.
        2   -1    0    0  501    0  0.00000000000E+00  0.00000000000E+00 -0.13521571093E+04  0.13521571093E+04  0.25500000920E-02 0. -1.
    10030    2    1    2    0    0  0.00000000000E+00  0.00000000000E+00 -0.94656122026E+03  0.17577529983E+04  0.14811203393E+04 0.  0.
        3    1    3    3  502    0  0.34855039025E+03  0.54643068969E+03 -0.89846245463E+03  0.11078396390E+04  0.10100000352E+00 0. -1.
       -3    1    3    3    0  502 -0.34855039025E+03 -0.54643068969E+03 -0.48098765629E+02  0.64991335933E+03  0.10100000352E+00 0.  1.
</event>
<event>
 5   0  0.1552067E-03  0.1487620E+04  0.7818609E-02  0.8892727E-01
        2   -1    0    0  501    0  0.00000000000E+00  0.00000000000E+00  0.53693842139E+03  0.53693842140E+03  0.25500000920E-02 0.  1.
       -2   -1    0    0    0  501  0.00000000000E+00  0.00000000000E+00 -0.10303850735E+04  0.10303850735E+04  0.25500000920E-02 0. -1.
    10030    2    1    2    0    0  0.00000000000E+00  0.00000000000E+00 -0.49344665215E+03  0.15673234949E+04  0.14876200252E+04 0.  0.
        3    1    3    3  502    0  0.31762412908E+03 -0.17462870242E+03 -0.93104062904E+03  0.99910806933E+03  0.10100000352E+00 0. -1.
       -3    1    3    3    0  502 -0.31762412908E+03  0.17462870242E+03  0.43759397689E+03  0.56821542561E+03  0.10100000352E+00 0.  1.
</event>
<event>
 5   0  0.1500956E-03  0.1497768E+04  0.7818609E-02  0.8885938E-01
        2   -1    0    0  501    0  0.00000000000E+00  0.00000000000E+00  0.11828520743E+04  0.11828520743E+04  0.25500000920E-02 0.  1.
       -2   -1    0    0    0  501  0.00000000000E+00  0.00000000000E+00 -0.47413154181E+03  0.47413154182E+03  0.25500000920E-02 0. -1.
    10030    2    1    2    0    0  0.00000000000E+00  0.00000000000E+00  0.70872053248E+03  0.16569836161E+04  0.14977683102E+04 0.  0.
        4    1    3    3  502    0  0.44351370528E+03 -0.49977768241E+03  0.72845340868E+03  0.98849791103E+03  0.12699999809E+01 0.  1.
       -4    1    3    3    0  502 -0.44351370528E+03  0.49977768241E+03 -0.19732876202E+02  0.66848570508E+03  0.12699999809E+01 0. -1.
</event>
<event>
 5   0  0.1552067E-03  0.1418408E+04  0.7818609E-02  0.8940601E-01
        2   -1    0    0  501    0  0.00000000000E+00  0.00000000000E+00  0.37751750601E+03  0.37751750602E+03  0.25500000920E-02 0. -1.
       -2   -1    0    0    0  501  0.00000000000E+00  0.00000000000E+00 -0.13323092206E+04  0.13323092206E+04  0.25500000920E-02 0.  1.
    10030    2    1    2    0    0  0.00000000000E+00  0.00000000000E+00 -0.95479171463E+03  0.17098267267E+04  0.14184076342E+04 0.  0.
        3    1    3    3  502    0  0.43708486329E+03  0.45810030818E+03 -0.86252126461E+03  0.10699729025E+04  0.10100000352E+00 0.  1.
       -3    1    3    3    0  502 -0.43708486329E+03 -0.45810030818E+03 -0.92270450017E+02  0.63985382411E+03  0.10100000352E+00 0. -1.
</event>
<event>
 5   0  0.1511546E-03  0.1500461E+04  0.7818609E-02  0.8884146E-01
        2   -1    0    0  501    0  0.00000000000E+00  0.00000000000E+00  0.17477478892E+04  0.17477478892E+04  0.25500000920E-02 0.  1.
       -2   -1    0    0    0  501  0.00000000000E+00  0.00000000000E+00 -0.32204078743E+03  0.32204078744E+03  0.25500000920E-02 0. -1.
    10030    2    1    2    0    0  0.00000000000E+00  0.00000000000E+00  0.14257071018E+04  0.20697886767E+04  0.15004614044E+04 0.  0.
        1    1    3    3  502    0 -0.40543070408E+03 -0.55735436054E+03  0.30404677219E+03  0.75330098814E+03  0.50400001928E-02 0. -1.
       -1    1    3    3    0  502  0.40543070408E+03  0.55735436054E+03  0.11216603296E+04  0.13164876885E+04  0.50400001928E-02 0.  1.
</event>
<event>
 5   0  0.1484056E-03  0.1483722E+04  0.7818609E-02  0.8895350E-01
        2   -1    0    0  501    0  0.00000000000E+00  0.00000000000E+00  0.20256359097E+04  0.20256359097E+04  0.25500000920E-02 0. -1.
       -2   -1    0    0    0  501  0.00000000000E+00  0.00000000000E+00 -0.27169630046E+03  0.27169630047E+03  0.25500000920E-02 0.  1.
    10030    2    1    2    0    0  0.00000000000E+00  0.00000000000E+00  0.17539396092E+04  0.22973322101E+04  0.14837220531E+04 0.  0.
        5    1    3    3  502    0 -0.64118711804E+03 -0.29574298809E+03  0.52473681842E+03  0.87974749442E+03  0.46999998093E+01 0. -1.
       -5    1    3    3    0  502  0.64118711804E+03  0.29574298809E+03  0.12292027908E+04  0.14175847157E+04  0.46999998093E+01 0.  1.
</event>
<event>
 5   0  0.1484056E-03  0.1494829E+04  0.7818609E-02  0.8887899E-01
        2   -1    0    0  501    0  0.00000000000E+00  0.00000000000E+00  0.25617694566E+04  0.25617694566E+04  0.25500000920E-02 0.  1.
       -2   -1    0    0    0  501  0.00000000000E+00  0.00000000000E+00 -0.21806362133E+03  0.21806362135E+03  0.25500000920E-02 0. -1.
    10030    2    1    2    0    0  0.00000000000E+00  0.00000000000E+00  0.23437058353E+04  0.27798330779E+04  0.14948293879E+04 0.  0.
        5    1    3    3  502    0 -0.69320072002E+03 -0.27058761096E+03  0.10421878431E+04  0.12805945821E+04  0.46999998093E+01 0. -1.
       -5    1    3    3    0  502  0.69320072002E+03  0.27058761096E+03  0.13015179921E+04  0.14992384958E+04  0.46999998093E+01 0.  1.
</event>
<event>
 5   0  0.8365016E-04  0.1212849E+04  0.7818609E-02  0.9101684E-01
       -1   -1    0    0    0  501  0.00000000000E+00  0.00000000000E+00  0.48929361706E+03  0.48929361709E+03  0.50400001928E-02 0. -1.
        1   -1    0    0  501    0  0.00000000000E+00  0.00000000000E+00 -0.75159475301E+03  0.75159475303E+03  0.50400001928E-02 0.  1.
    10030    2    1    2    0    0  0.00000000000E+00  0.00000000000E+00 -0.26230113595E+03  0.12408883701E+04  0.12128487380E+04 0.  0.
        3    1    3    3  502    0 -0.17195193760E+03  0.36846863120E+03 -0.59145615302E+03  0.71774437801E+03  0.10100000352E+00 0.  1.
       -3    1    3    3    0  502  0.17195193760E+03 -0.36846863120E+03  0.32915501706E+03  0.52314399211E+03  0.10100000352E+00 0. -1.
</event>
<event>
 5   0  0.7870317E-04  0.1491656E+04  0.7818609E-02  0.8890020E-01
       -1   -1    0    0    0  501  0.00000000000E+00  0.00000000000E+00  0.46508879739E+03  0.46508879741E+03  0.50400001928E-02 0.  1.
        1   -1    0    0  501    0  0.00000000000E+00  0.00000000000E+00 -0.11960287246E+04  0.11960287246E+04  0.50400001928E-02 0. -1.
    10030    2    1    2    0    0  0.00000000000E+00  0.00000000000E+00 -0.73093992723E+03  0.16611175220E+04  0.14916562087E+04 0.  0.
        1    1    3    3  502    0 -0.11380109406E+03  0.72475395733E+03 -0.51504419814E+03  0.89637576593E+03  0.50400001928E-02 0. -1.
       -1    1    3    3    0  502  0.11380109406E+03 -0.72475395733E+03 -0.21589572909E+03  0.76474175612E+03  0.50400001928E-02 0.  1.
</event>
<event>
 5   0  0.8365016E-04  0.1517166E+04  0.7818609E-02  0.8873117E-01
       -1   -1    0    0    0  501  0.00000000000E+00  0.00000000000E+00  0.63869146316E+03  0.63869146318E+03  0.50400001928E-02 0.  1.
        1   -1    0    0  501    0  0.00000000000E+00  0.00000000000E+00 -0.90097990661E+03  0.90097990662E+03  0.50400001928E-02 0. -1.
    10030    2    1    2    0    0  0.00000000000E+00  0.00000000000E+00 -0.26228844345E+03  0.15396713698E+04  0.15171660092E+04 0.  0.
        3    1    3    3  502    0  0.56273180701E+01 -0.10554424805E+03  0.63118237064E+03  0.63997066355E+03  0.10100000352E+00 0.  1.
       -3    1    3    3    0  502 -0.56273180701E+01  0.10554424805E+03 -0.89347081409E+03  0.89970070625E+03  0.10100000352E+00 0. -1.
</event>
<event>
 5   0  0.7870317E-04  0.1497867E+04  0.7818609E-02  0.8885873E-01
        1   -1    0    0  501    0  0.00000000000E+00  0.00000000000E+00  0.52445575929E+03  0.52445575932E+03  0.50400001928E-02 0. -1.
       -1   -1    0    0    0  501  0.00000000000E+00  0.00000000000E+00 -0.10694923384E+04  0.10694923384E+04  0.50400001928E-02 0.  1.
    10030    2    1    2    0    0  0.00000000000E+00  0.00000000000E+00 -0.54503657914E+03  0.15939480978E+04  0.14978670387E+04 0.  0.
        1    1    3    3  502    0  0.61637557921E+03 -0.97280545336E+01  0.18007249025E+03  0.64221459923E+03  0.50400001928E-02 0. -1.
       -1    1    3    3    0  502 -0.61637557921E+03  0.97280545336E+01 -0.72510906939E+03  0.95173349853E+03  0.50400001928E-02 0.  1.
</event>
<event>
 5   0  0.8306301E-04  0.1484176E+04  0.7818609E-02  0.8895045E-01
       -1   -1    0    0    0  501  0.00000000000E+00  0.00000000000E+00  0.74901595062E+03  0.74901595064E+03  0.50400001928E-02 0. -1.
        1   -1    0    0  501    0  0.00000000000E+00  0.00000000000E+00 -0.73522368588E+03  0.73522368589E+03  0.50400001928E-02 0.  1.
    10030    2    1    2    0    0  0.00000000000E+00  0.00000000000E+00  0.13792264748E+02  0.14842396365E+04  0.14841755530E+04 0.  0.
        4    1    3    3  502    0  0.30155968914E+03  0.18748521711E+03 -0.64474822626E+03  0.73606442715E+03  0.12699999809E+01 0.  1.
       -4    1    3    3    0  502 -0.30155968914E+03 -0.18748521711E+03  0.65854049101E+03  0.74817520939E+03  0.12699999809E+01 0. -1.
</event>
<event>
 5   0  0.1500956E-03  0.1490698E+04  0.7818609E-02  0.8890662E-01
        2   -1    0    0  501    0  0.00000000000E+00  0.00000000000E+00  0.14199829049E+04  0.14199829050E+04  0.25500000920E-02 0.  1.
       -2   -1    0    0    0  501  0.00000000000E+00  0.00000000000E+00 -0.39123356419E+03  0.39123356420E+03  0.25500000920E-02 0. -1.
    10030    2    1    2    0    0  0.00000000000E+00  0.00000000000E+00  0.10287493408E+04  0.18112164692E+04  0.14906977870E+04 0.  0.
        4    1    3    3  502    0 -0.60315789782E+03 -0.11853643945E+03  0.10265467970E+04  0.11965158906E+04  0.12699999809E+01 0.  1.
       -4    1    3    3    0  502  0.60315789782E+03  0.11853643945E+03  0.22025437769E+01  0.61470057855E+03  0.12699999809E+01 0. -1.
</event>
<event>
 5   0  0.1484056E-03  0.1516214E+04  0.7818609E-02  0.8873742E-01
       -2   -1    0    0    0  501  0.00000000000E+00  0.00000000000E+00  0.43108943522E+03  0.43108943522E+03  0.25500000920E-02 0. -1.
        2   -1    0    0  501    0  0.00000000000E+00  0.00000000000E+00 -0.13331954536E+04  0.13331954536E+04  0.25500000920E-02 0.  1.
    10030    2    1    2    0    0  0.00000000000E+00  0.00000000000E+00 -0.90210601838E+03  0.17642848888E+04  0.15162143320E+04 0.  0.
        5    1    3    3  502    0  0.58982952602E+03  0.26557539950E+03 -0.91104808214E+03  0.11173450052E+04  0.46999998093E+01 0.  1.
       -5    1    3    3    0  502 -0.58982952602E+03 -0.26557539950E+03  0.89420637557E+01  0.64693988367E+03  0.46999998093E+01 0. -1.
</event>
<event>
 5   0  0.7870317E-04  0.1510941E+04  0.7818609E-02  0.8877210E-01
       -1   -1    0    0    0  501  0.00000000000E+00  0.00000000000E+00  0.97478451446E+03  0.97478451447E+03  0.50400001928E-02 0. -1.
        1   -1    0    0  501    0  0.00000000000E+00  0.00000000000E+00 -0.58549895921E+03  0.58549895923E+03  0.50400001928E-02 0.  1.
    10030    2    1    2    0    0  0.00000000000E+00  0.00000000000E+00  0.38928555525E+03  0.15602834737E+04  0.15109405266E+04 0.  0.
        1    1    3    3  502    0  0.11213692206E+03 -0.20642110590E+03 -0.54682441020E+03  0.59514813102E+03  0.50400001928E-02 0.  1.
       -1    1    3    3    0  502 -0.11213692206E+03  0.20642110590E+03  0.93610996545E+03  0.96513534268E+03  0.50400001928E-02 0. -1.
</event>
<event>
 5   0  0.1552067E-03  0.1492342E+04  0.7818609E-02  0.8889561E-01
        2   -1    0    0  501    0  0.00000000000E+00  0.00000000000E+00  0.13205905678E+04  0.13205905678E+04  0.25500000920E-02 0.  1.
       -2   -1    0    0    0  501  0.00000000000E+00  0.00000000000E+00 -0.42160768147E+03  0.42160768148E+03  0.25500000920E-02 0. -1.
    10030    2    1    2    0    0  0.00000000000E+00  0.00000000000E+00  0.89898288636E+03  0.17421982493E+04  0.14923419548E+04 0.  0.
        3    1    3    3  502    0 -0.48669285522E+03 -0.39629923681E+03 -0.21616653309E+02  0.62800502412E+03  0.10100000352E+00 0. -1.
       -3    1    3    3    0  502  0.48669285522E+03  0.39629923681E+03  0.92059953967E+03  0.11141932252E+04  0.10100000352E+00 0.  1.
</event>
<event>
 5   0  0.1511546E-03  0.1493570E+04  0.7818609E-02  0.8888740E-01
       -2   -1    0    0    0  501  0.00000000000E+00  0.00000000000E+00  0.98530796796E+03  0.98530796796E+03  0.25500000920E-02 0.  1.
        2   -1    0    0  501    0  0.00000000000E+00  0.00000000000E+00 -0.56600385931E+03  0.56600385932E+03  0.25500000920E-02 0. -1.
    10030    2    1    2    0    0  0.00000000000E+00  0.00000000000E+00  0.41930410865E+03  0.15513118273E+04  0.14935703699E+04 0.  0.
        1    1    3    3  502    0 -0.25287175018E+03 -0.77375757292E+02  0.93504806352E+03  0.97172321726E+03  0.50400001928E-02 0.  1.
       -1    1    3    3    0  502  0.25287175018E+03  0.77375757292E+02 -0.51574395487E+03  0.57958861002E+03  0.50400001928E-02 0. -1.
</event>
<event>
 5   0  0.1526126E-03  0.1506614E+04  0.7818609E-02  0.8880067E-01
       -2   -1    0    0    0  501  0.00000000000E+00  0.00000000000E+00  0.33136441011E+03  0.33136441012E+03  0.25500000920E-02 0. -1.
        2   -1    0    0  501    0  0.00000000000E+00  0.00000000000E+00 -0.17125299280E+04  0.17125299280E+04  0.25500000920E-02 0.  1.
    10030    2    1    2    0    0  0.00000000000E+00  0.00000000000E+00 -0.13811655179E+04  0.20438943381E+04  0.15066140440E+04 0.  0.
        2    1    3    3  502    0  0.36497098868E+03  0.12586375782E+03 -0.15681203723E+04  0.16149448939E+04  0.25500000920E-02 0.  1.
       -2    1    3    3    0  502 -0.36497098868E+03 -0.12586375782E+03  0.18695485445E+03  0.42894944424E+03  0.25500000920E-02 0. -1.
</event>
<event>
 5   0  0.8191876E-04  0.1416265E+04  0.7818609E-02  0.8942129E-01
        1   -1    0    0  501    0  0.00000000000E+00  0.00000000000E+00  0.74583015706E+03  0.74583015708E+03  0.50400001928E-02 0. -1.
       -1   -1    0    0    0  501  0.00000000000E+00  0.00000000000E+00 -0.67233982949E+03  0.67233982951E+03  0.50400001928E-02 0.  1.
    10030    2    1    2    0    0  0.00000000000E+00  0.00000000000E+00  0.73490327565E+02  0.14181699866E+04  0.14162645525E+04 0.  0.
        2    1    3    3  502    0 -0.79978221871E+01  0.12461540570E+03 -0.66122802884E+03  0.67291564897E+03  0.25500000920E-02 0.  1.
       -2    1    3    3    0  502  0.79978221871E+01 -0.12461540570E+03  0.73471835640E+03  0.74525433762E+03  0.25500000920E-02 0. -1.
</event>
<event>
 5   0  0.8306301E-04  0.1460506E+04  0.7818609E-02  0.8911149E-01
        1   -1    0    0  501    0  0.00000000000E+00  0.00000000000E+00  0.89892668662E+03  0.89892668664E+03  0.50400001928E-02 0. -1.
       -1   -1    0    0    0  501  0.00000000000E+00  0.00000000000E+00 -0.59322935136E+03  0.59322935138E+03  0.50400001928E-02 0.  1.
    10030    2    1    2    0    0  0.00000000000E+00  0.00000000000E+00  0.30569733526E+03  0.14921560380E+04  0.14605063440E+04 0.  0.
        4    1    3    3  502    0  0.14902005107E+03  0.70497857622E+03  0.31677039362E+02  0.72125364212E+03  0.12699999809E+01 0.  1.
       -4    1    3    3    0  502 -0.14902005107E+03 -0.70497857622E+03  0.27402029590E+03  0.77090239590E+03  0.12699999809E+01 0. -1.
</event>
<event>
 5   0  0.1484056E-03  0.1503418E+04  0.7818609E-02  0.8882183E-01
        2   -1    0    0  501    0  0.00000000000E+00  0.00000000000E+00  0.97802252703E+03  0.97802252703E+03  0.25500000920E-02 0. -1.
       -2   -1    0    0    0  501  0.00000000000E+00  0.00000000000E+00 -0.57776452769E+03  0.57776452769E+03  0.25500000920E-02 0.  1.
    10030    2    1    2    0    0  0.00000000000E+00  0.00000000000E+00  0.40025799934E+03  0.15557870547E+04  0.15034184027E+04 0.  0.
        5    1    3    3  502    0  0.71814789596E+03 -0.90918572769E+02 -0.95161375568E+01  0.72395803347E+03  0.46999998093E+01 0.  1.
       -5    1    3    3    0  502 -0.71814789596E+03  0.90918572769E+02  0.40977413690E+03  0.83182902126E+03  0.46999998093E+01 0. -1.
</event>
<event>
 5   0  0.5603875E-04  0.1493530E+04  0.7818609E-02  0.8888767E-01
       -4   -1    0    0    0  501  0.00000000000E+00  0.00000000000E+00  0.92992496512E+03  0.92992583234E+03  0.12699999809E+01 0. -1.
        4   -1    0    0  501    0  0.00000000000E+00  0.00000000000E+00 -0.59967880686E+03  0.59968015167E+03  0.12699999809E+01 0.  1.
    10030    2    1    2    0    0  0.00000000000E+00  0.00000000000E+00  0.33024615825E+03  0.15296059840E+04  0.14935300269E+04 0.  0.
        5    1    3    3  502    0  0.29103282046E+03 -0.28451899813E+03 -0.47608678020E+03  0.62636401171E+03  0.46999998093E+01 0.  1.
       -5    1    3    3    0  502 -0.29103282046E+03  0.28451899813E+03  0.80633293845E+03  0.90324197230E+03  0.46999998093E+01 0. -1.
</event>
<event>
 5   0  0.8058234E-04  0.1513028E+04  0.7818609E-02  0.8875835E-01
        1   -1    0    0  501    0  0.00000000000E+00  0.00000000000E+00  0.65075691750E+03  0.65075691752E+03  0.50400001928E-02 0.  1.
       -1   -1    0    0    0  501  0.00000000000E+00  0.00000000000E+00 -0.87945862600E+03  0.87945862601E+03  0.50400001928E-02 0. -1.
    10030    2    1    2    0    0  0.00000000000E+00  0.00000000000E+00 -0.22870170849E+03  0.15302155435E+04  0.15130284658E+04 0.  0.
        5    1    3    3  502    0  0.27081838850E+03 -0.69856491687E+03 -0.84902098852E+01  0.74928613780E+03  0.46999998093E+01 0.  1.
       -5    1    3    3    0  502 -0.27081838850E+03  0.69856491687E+03 -0.22021149861E+03  0.78092940574E+03  0.46999998093E+01 0. -1.
</event>
<event>
 5   0  0.8306301E-04  0.1484356E+04  0.7818609E-02  0.8894923E-01
       -1   -1    0    0    0  501  0.00000000000E+00  0.00000000000E+00  0.71004693678E+03  0.71004693679E+03  0.50400001928E-02 0. -1.
        1   -1    0    0  501    0  0.00000000000E+00  0.00000000000E+00 -0.77576299140E+03  0.77576299142E+03  0.50400001928E-02 0.  1.
    10030    2    1    2    0    0  0.00000000000E+00  0.00000000000E+00 -0.65716054628E+02  0.14858099282E+04  0.14843559354E+04 0.  0.
        4    1    3    3  502    0 -0.19354184798E+03 -0.26380466110E+03  0.63395903729E+03  0.71341223707E+03  0.12699999809E+01 0. -1.
       -4    1    3    3    0  502  0.19354184798E+03  0.26380466110E+03 -0.69967509192E+03  0.77239769115E+03  0.12699999809E+01 0.  1.
</event>
<event>
 5   0  0.8365016E-04  0.1502420E+04  0.7818609E-02  0.8882845E-01
       -1   -1    0    0    0  501  0.00000000000E+00  0.00000000000E+00  0.27643444252E+04  0.27643444252E+04  0.50400001928E-02 0. -1.
        1   -1    0    0  501    0  0.00000000000E+00  0.00000000000E+00 -0.20414106267E+03  0.20414106274E+03  0.50400001928E-02 0.  1.
    10030    2    1    2    0    0  0.00000000000E+00  0.00000000000E+00  0.25602033625E+04  0.29684854880E+04  0.15024196600E+04 0.  0.
        3    1    3    3  502    0 -0.27349639323E+03  0.64471760493E+03  0.18170518823E+04  0.19473414237E+04  0.10100000352E+00 0. -1.
       -3    1    3    3    0  502  0.27349639323E+03 -0.64471760493E+03  0.74315148024E+03  0.10211440643E+04  0.10100000352E+00 0.  1.
</event>
<event>
 5   0  0.8058234E-04  0.1509042E+04  0.7818609E-02  0.8878462E-01
       -1   -1    0    0    0  501  0.00000000000E+00  0.00000000000E+00  0.58302185895E+03  0.58302185898E+03  0.50400001928E-02 0. -1.
        1   -1    0    0  501    0  0.00000000000E+00  0.00000000000E+00 -0.97646804430E+03  0.97646804432E+03  0.50400001928E-02 0.  1.
    10030    2    1    2    0    0  0.00000000000E+00  0.00000000000E+00 -0.39344618535E+03  0.15594899033E+04  0.15090423644E+04 0.  0.
        5    1    3    3  502    0 -0.84736867142E+02  0.39869642005E+02 -0.97042362376E+03  0.97494308785E+03  0.46999998093E+01 0.  1.
       -5    1    3    3    0  502  0.84736867142E+02 -0.39869642005E+02  0.57697743841E+03  0.58454681544E+03  0.46999998093E+01 0. -1.
</event>
<event>
 5   0  0.7870317E-04  0.1507810E+04  0.7818609E-02  0.8879276E-01
       -1   -1    0    0    0  501  0.00000000000E+00  0.00000000000E+00  0.34638311063E+03  0.34638311066E+03  0.50400001928E-02 0. -1.
        1   -1    0    0  501    0  0.00000000000E+00  0.00000000000E+00 -0.16408799756E+04  0.16408799756E+04  0.50400001928E-02 0.  1.
    10030    2    1    2    0    0  0.00000000000E+00  0.00000000000E+00 -0.12944968650E+04  0.19872630863E+04  0.15078104790E+04 0.  0.
        1    1    3    3  502    0  0.34729759276E+03 -0.66486197500E+03 -0.74689365492E+03  0.10585401247E+04  0.50400001928E-02 0. -1.
       -1    1    3    3    0  502 -0.34729759276E+03  0.66486197500E+03 -0.54760321006E+03  0.92872296161E+03  0.50400001928E-02 0.  1.
</event>
<event>
 5   0  0.5603875E-04  0.1519658E+04  0.7818609E-02  0.8871485E-01
        3   -1    0    0  501    0  0.00000000000E+00  0.00000000000E+00  0.55299227741E+03  0.55299228664E+03  0.10100000352E+00 0. -1.
       -3   -1    0    0    0  501  0.00000000000E+00  0.00000000000E+00 -0.10440286396E+04  0.10440286444E+04  0.10100000352E+00 0.  1.
    10030    2    1    2    0    0  0.00000000000E+00  0.00000000000E+00 -0.49103636215E+03  0.15970209311E+04  0.15196575750E+04 0.  0.
        3    1    3    3  502    0  0.34769887610E+03  0.47379574371E+03 -0.75166218604E+03  0.95413466939E+03  0.10100000352E+00 0.  1.
       -3    1    3    3    0  502 -0.34769887610E+03 -0.47379574371E+03  0.26062582389E+03  0.64288626170E+03  0.10100000352E+00 0. -1.
</event>
<event>
 5   0  0.1511546E-03  0.1493709E+04  0.7818609E-02  0.8888647E-01
        2   -1    0    0  501    0  0.00000000000E+00  0.00000000000E+00  0.93459033751E+03  0.93459033752E+03  0.25500000920E-02 0.  1.
       -2   -1    0    0    0  501  0.00000000000E+00  0.00000000000E+00 -0.59682972211E+03  0.59682972212E+03  0.25500000920E-02 0. -1.
    10030    2    1    2    0    0  0.00000000000E+00  0.00000000000E+00  0.33776061540E+03  0.15314200596E+04  0.14937085277E+04 0.  0.
        1    1    3    3  502    0 -0.46546872102E+03  0.10427436195E+03 -0.42030851455E+03  0.63576215697E+03  0.50400001928E-02 0. -1.
       -1    1    3    3    0  502  0.46546872102E+03 -0.10427436195E+03  0.75806912995E+03  0.89565790267E+03  0.50400001928E-02 0.  1.
</event>
<event>
 5   0  0.7870317E-04  0.1498357E+04  0.7818609E-02  0.8885546E-01
        1   -1    0    0  501    0  0.00000000000E+00  0.00000000000E+00  0.22837946283E+04  0.22837946283E+04  0.50400001928E-02 0.  1.
       -1   -1    0    0    0  501  0.00000000000E+00  0.00000000000E+00 -0.24576143907E+03  0.24576143912E+03  0.50400001928E-02 0. -1.
    10030    2    1    2    0    0  0.00000000000E+00  0.00000000000E+00  0.20380331892E+04  0.25295560674E+04  0.14983573064E+04 0.  0.
        1    1    3    3  502    0  0.45749255331E+03  0.42574506287E+03  0.32149307105E+03  0.70279164028E+03  0.50400001928E-02 0. -1.
       -1    1    3    3    0  502 -0.45749255331E+03 -0.42574506287E+03  0.17165401181E+04  0.18267644271E+04  0.50400001928E-02 0.  1.
</event>
<event>
 5   0  0.1500956E-03  0.1528080E+04  0.7818609E-02  0.8865992E-01
        2   -1    0    0  501    0  0.00000000000E+00  0.00000000000E+00  0.16671595184E+04  0.16671595184E+04  0.25500000920E-02 0. -1.
       -2   -1    0    0    0  501  0.00000000000E+00  0.00000000000E+00 -0.35015083126E+03  0.35015083127E+03  0.25500000920E-02 0.  1.
    10030    2    1    2    0    0  0.00000000000E+00  0.00000000000E+00  0.13170086872E+04  0.20173103497E+04  0.15280802220E+04 0.  0.
        4    1    3    3  502    0 -0.53387198685E+03  0.78053049485E+01  0.13799877225E+04  0.14796783260E+04  0.12699999809E+01 0. -1.
       -4    1    3    3    0  502  0.53387198685E+03 -0.78053049485E+01 -0.62979035366E+02  0.53763202372E+03  0.12699999809E+01 0.  1.
</event>
<event>
 5   0  0.1484056E-03  0.1507455E+04  0.7818609E-02  0.8879511E-01
        2   -1    0    0  501    0  0.00000000000E+00  0.00000000000E+00  0.10156263215E+04  0.10156263215E+04  0.25500000920E-02 0.  1.
       -2   -1    0    0    0  501  0.00000000000E+00  0.00000000000E+00 -0.55936409680E+03  0.55936409680E+03  0.25500000920E-02 0. -1.
    10030    2    1    2    0    0  0.00000000000E+00  0.00000000000E+00  0.45626222473E+03  0.15749904183E+04  0.15074546760E+04 0.  0.
        5    1    3    3  502    0 -0.36487550683E+03  0.67986386912E+02  0.91351313908E+03  0.98604494297E+03  0.46999998093E+01 0.  1.
       -5    1    3    3    0  502  0.36487550683E+03 -0.67986386912E+02 -0.45725091434E+03  0.58894547537E+03  0.46999998093E+01 0. -1.
</event>
<event>
 5   0  0.8191876E-04  0.1781119E+04  0.7818609E-02  0.8716405E-01
       -1   -1    0    0    0  501  0.00000000000E+00  0.00000000000E+00  0.65991671136E+03  0.65991671138E+03  0.50400001928E-02 0. -1.
        1   -1    0    0  501    0  0.00000000000E+00  0.00000000000E+00 -0.12018130785E+04  0.12018130785E+04  0.50400001928E-02 0.  1.
    10030    2    1    2    0    0  0.00000000000E+00  0.00000000000E+00 -0.54189636714E+03  0.18617297899E+04  0.17811193497E+04 0.  0.
        2    1    3    3  502    0  0.60528502647E+03  0.47430091857E+02  0.41005742116E+03  0.73264361428E+03  0.25500000920E-02 0. -1.
       -2    1    3    3    0  502 -0.60528502647E+03 -0.47430091857E+02 -0.95195378830E+03  0.11290861756E+04  0.25500000920E-02 0.  1.
</event>
<event>
 5   0  0.7870317E-04  0.1503849E+04  0.7818609E-02  0.8881897E-01
       -1   -1    0    0    0  501  0.00000000000E+00  0.00000000000E+00  0.77784058857E+03  0.77784058859E+03  0.50400001928E-02 0. -1.
        1   -1    0    0  501    0  0.00000000000E+00  0.00000000000E+00 -0.72687206948E+03  0.72687206949E+03  0.50400001928E-02 0.  1.
    10030    2    1    2    0    0  0.00000000000E+00  0.00000000000E+00  0.50968519096E+02  0.15047126581E+04  0.15038491924E+04 0.  0.
        1    1    3    3  502    0  0.17007590173E+03  0.62296463384E+03 -0.35993796416E+03  0.73930107902E+03  0.50400001928E-02 0.  1.
       -1    1    3    3    0  502 -0.17007590173E+03 -0.62296463384E+03  0.41090648326E+03  0.76541157907E+03  0.50400001928E-02 0. -1.
</event>
<event>
 5   0  0.1526126E-03  0.1505381E+04  0.7818609E-02  0.8880882E-01
        2   -1    0    0  501    0  0.00000000000E+00  0.00000000000E+00  0.20358024886E+04  0.20358024886E+04  0.25500000920E-02 0. -1.
       -2   -1    0    0    0  501  0.00000000000E+00  0.00000000000E+00 -0.27828981860E+03  0.27828981861E+03  0.25500000920E-02 0.  1.
    10030    2    1    2    0    0  0.00000000000E+00  0.00000000000E+00  0.17575126700E+04  0.23140923072E+04  0.15053811548E+04 0.  0.
        2    1    3    3  502    0  0.29684578537E+03  0.28043417401E+03 -0.93198348456E+02  0.41886355583E+03  0.25500000920E-02 0.  1.
       -2    1    3    3    0  502 -0.29684578537E+03 -0.28043417401E+03  0.18507110184E+04  0.18952287514E+04  0.25500000920E-02 0. -1.
</event>
<event>
 5   0  0.8365016E-04  0.1627528E+04  0.7818609E-02  0.8803813E-01
        1   -1    0    0  501    0  0.00000000000E+00  0.00000000000E+00  0.65135181472E+03  0.65135181474E+03  0.50400001928E-02 0. -1.
       -1   -1    0    0    0  501  0.00000000000E+00  0.00000000000E+00 -0.10166734275E+04  0.10166734275E+04  0.50400001928E-02 0.  1.
    10030    2    1    2    0    0  0.00000000000E+00  0.00000000000E+00 -0.36532161277E+03  0.16680252422E+04  0.16275282879E+04 0.  0.
        3    1    3    3  502    0 -0.17877780939E+03 -0.13692061559E+03  0.61878374275E+03  0.65848469276E+03  0.10100000352E+00 0. -1.
       -3    1    3    3    0  502  0.17877780939E+03  0.13692061559E+03 -0.98410535552E+03  0.10095405495E+04  0.10100000352E+00 0.  1.
</event>
<event>
 5   0  0.8365016E-04  0.1587649E+04  0.7818609E-02  0.8828172E-01
       -1   -1    0    0    0  501  0.00000000000E+00  0.00000000000E+00  0.62214257227E+03  0.62214257229E+03  0.50400001928E-02 0. -1.
        1   -1    0    0  501    0  0.00000000000E+00  0.00000000000E+00 -0.10128827611E+04  0.10128827611E+04  0.50400001928E-02 0.  1.
    10030    2    1    2    0    0  0.00000000000E+00  0.00000000000E+00 -0.39074018882E+03  0.16350253334E+04  0.15876491885E+04 0.  0.
        3    1    3    3  502    0  0.75979613867E+03 -0.22901479007E+03 -0.17427646285E+03  0.81247168696E+03  0.10100000352E+00 0. -1.
       -3    1    3    3    0  502 -0.75979613867E+03  0.22901479007E+03 -0.21646372597E+03  0.82255364644E+03  0.10100000352E+00 0.  1.
</event>
<event>
 5   0  0.1526126E-03  0.1490080E+04  0.7818609E-02  0.8891077E-01
       -2   -1    0    0    0  501  0.00000000000E+00  0.00000000000E+00  0.55592031618E+03  0.55592031619E+03  0.25500000920E-02 0. -1.
        2   -1    0    0  501    0  0.00000000000E+00  0.00000000000E+00 -0.99849648552E+03  0.99849648553E+03  0.25500000920E-02 0.  1.
    10030    2    1    2    0    0  0.00000000000E+00  0.00000000000E+00 -0.44257616934E+03  0.15544168017E+04  0.14900798394E+04 0.  0.
        2    1    3    3  502    0  0.14526095276E+02  0.12183101604E+03 -0.98788516182E+03  0.99547521157E+03  0.25500000920E-02 0.  1.
       -2    1    3    3    0  502 -0.14526095276E+02 -0.12183101604E+03  0.54530899248E+03  0.55894159015E+03  0.25500000920E-02 0. -1.
</event>
<event>
 5   0  0.8058234E-04  0.1503631E+04  0.7818609E-02  0.8882042E-01
        1   -1    0    0  501    0  0.00000000000E+00  0.00000000000E+00  0.77296741649E+03  0.77296741650E+03  0.50400001928E-02 0. -1.
       -1   -1    0    0    0  501  0.00000000000E+00  0.00000000000E+00 -0.73124221236E+03  0.73124221237E+03  0.50400001928E-02 0.  1.
    10030    2    1    2    0    0  0.00000000000E+00  0.00000000000E+00  0.41725204130E+02  0.15042096289E+04  0.15036308107E+04 0.  0.
        5    1    3    3  502    0 -0.37721976946E+03  0.64947871822E+03 -0.12119072369E+02  0.75118993724E+03  0.46999998093E+01 0.  1.
       -5    1    3    3    0  502  0.37721976946E+03 -0.64947871822E+03  0.53844276498E+02  0.75301969164E+03  0.46999998093E+01 0. -1.
</event>
<event>
 5   0  0.1552067E-03  0.1509045E+04  0.7818609E-02  0.8878460E-01
       -2   -1    0    0    0  501  0.00000000000E+00  0.00000000000E+00  0.37880299620E+03  0.37880299621E+03  0.25500000920E-02 0. -1.
        2   -1    0    0  501    0  0.00000000000E+00  0.00000000000E+00 -0.15029040948E+04  0.15029040948E+04  0.25500000920E-02 0.  1.
    10030    2    1    2    0    0  0.00000000000E+00  0.00000000000E+00 -0.11241010986E+04  0.18817070911E+04  0.15090454919E+04 0.  0.
        3    1    3    3  502    0  0.65172659926E+03 -0.31541735713E+03 -0.29732970323E+03  0.78271363345E+03  0.10100000352E+00 0.  1.
       -3    1    3    3    0  502 -0.65172659926E+03  0.31541735713E+03 -0.82677139541E+03  0.10989934576E+04  0.10100000352E+00 0. -1.
</event>
<event>
 5   0  0.1552067E-03  0.1508540E+04  0.7818609E-02  0.8878793E-01
        2   -1    0    0  501    0  0.00000000000E+00  0.00000000000E+00  0.75176959331E+03  0.75176959331E+03  0.25500000920E-02 0.  1.
       -2   -1    0    0    0  501  0.00000000000E+00  0.00000000000E+00 -0.75677918443E+03  0.75677918444E+03  0.25500000920E-02 0. -1.
    10030    2    1    2    0    0  0.00000000000E+00  0.00000000000E+00 -0.50095911215E+01  0.15085487778E+04  0.15085404598E+04 0.  0.
        3    1    3    3  502    0  0.52796228106E+03 -0.53523165648E+03  0.58376351468E+02  0.75407221467E+03  0.10100000352E+00 0.  1.
       -3    1    3    3    0  502 -0.52796228106E+03  0.53523165648E+03 -0.63385942590E+02  0.75447656308E+03  0.10100000352E+00 0. -1.
</event>
<event>
 5   0  0.1526126E-03  0.1515176E+04  0.7818609E-02  0.8874423E-01
       -2   -1    0    0    0  501  0.00000000000E+00  0.00000000000E+00  0.11914997679E+04  0.11914997679E+04  0.25500000920E-02 0.  1.
        2   -1    0    0  501    0  0.00000000000E+00  0.00000000000E+00 -0.48169537379E+03  0.48169537380E+03  0.25500000920E-02 0. -1.
    10030    2    1    2    0    0  0.00000000000E+00  0.00000000000E+00  0.70980439408E+03  0.16731951417E+04  0.15151764598E+04 0.  0.
        2    1    3    3  502    0 -0.35745571472E+03  0.29689650188E+03  0.10156499478E+04  0.11169005942E+04  0.25500000920E-02 0.  1.
       -2    1    3    3    0  502  0.35745571472E+03 -0.29689650188E+03 -0.30584555373E+03  0.55629454748E+03  0.25500000920E-02 0. -1.
</event>
<event>
 5   0  0.8306301E-04  0.1499411E+04  0.7818609E-02  0.8884845E-01
        1   -1    0    0  501    0  0.00000000000E+00  0.00000000000E+00  0.72422495139E+03  0.72422495141E+03  0.50400001928E-02 0. -1.
       -1   -1    0    0    0  501  0.00000000000E+00  0.00000000000E+00 -0.77608244339E+03  0.77608244341E+03  0.50400001928E-02 0.  1.
    10030    2    1    2    0    0  0.00000000000E+00  0.00000000000E+00 -0.51857492000E+02  0.15003073948E+04  0.14994109108E+04 0.  0.
        4    1    3    3  502    0 -0.28519325753E+03  0.21187773559E+03  0.63463964594E+03  0.72732142969E+03  0.12699999809E+01 0. -1.
       -4    1    3    3    0  502  0.28519325753E+03 -0.21187773559E+03 -0.68649713794E+03  0.77298596513E+03  0.12699999809E+01 0.  1.
</event>
<event>
 5   0  0.1511546E-03  0.9500065E+03  0.7818609E-02  0.9365143E-01
       -2   -1    0    0    0  501  0.00000000000E+00  0.00000000000E+00  0.12645028822E+03  0.12645028825E+03  0.25500000920E-02 0.  1.
        2   -1    0    0  501    0  0.00000000000E+00  0.00000000000E+00 -0.17843223894E+04  0.17843223894E+04  0.25500000920E-02 0. -1.
    10030    2    1    2    0    0  0.00000000000E+00  0.00000000000E+00 -0.16578721011E+04  0.19107726776E+04  0.95000648513E+03 0.  0.
        1    1    3    3  502    0  0.14544582295E+03  0.24054460279E+03 -0.15990713759E+04  0.16235902989E+04  0.50400001928E-02 0. -1.
       -1    1    3    3    0  502 -0.14544582295E+03 -0.24054460279E+03 -0.58800725228E+02  0.28718237873E+03  0.50400001928E-02 0.  1.
</event>
<event>
 5   0  0.1526126E-03  0.1280162E+04  0.7818609E-02  0.9045447E-01
        2   -1    0    0  501    0  0.00000000000E+00  0.00000000000E+00  0.59562324068E+03  0.59562324069E+03  0.25500000920E-02 0.  1.
       -2   -1    0    0    0  501  0.00000000000E+00  0.00000000000E+00 -0.68785704931E+03  0.68785704932E+03  0.25500000920E-02 0. -1.
    10030    2    1    2    0    0  0.00000000000E+00  0.00000000000E+00 -0.92233808631E+02  0.12834802900E+04  0.12801619348E+04 0.  0.
        2    1    3    3  502    0  0.33542983979E+03 -0.54366044947E+03 -0.57162590223E+01  0.63883686288E+03  0.25500000920E-02 0.  1.
       -2    1    3    3    0  502 -0.33542983979E+03  0.54366044947E+03 -0.86517549609E+02  0.64464342713E+03  0.25500000920E-02 0. -1.
</event>
<event>
 5   0  0.1511546E-03  0.1464951E+04  0.7818609E-02  0.8908101E-01
        2   -1    0    0  501    0  0.00000000000E+00  0.00000000000E+00  0.21791126280E+04  0.21791126280E+04  0.25500000920E-02 0. -1.
       -2   -1    0    0    0  501  0.00000000000E+00  0.00000000000E+00 -0.24621037207E+03  0.24621037209E+03  0.25500000920E-02 0.  1.
    10030    2    1    2    0    0  0.00000000000E+00  0.00000000000E+00  0.19329022559E+04  0.24253230000E+04  0.14649506899E+04 0.  0.
        1    1    3    3  502    0 -0.40104756037E+03 -0.59139564523E+03  0.69984749739E+03  0.10001872197E+04  0.50400001928E-02 0.  1.
       -1    1    3    3    0  502  0.40104756037E+03  0.59139564523E+03  0.12330547585E+04  0.14251357803E+04  0.50400001928E-02 0. -1.
</event>
<event>
 5   0  0.1552067E-03  0.1488341E+04  0.7818609E-02  0.8892243E-01
       -2   -1    0    0    0  501  0.00000000000E+00  0.00000000000E+00  0.28116472798E+03  0.28116472799E+03  0.25500000920E-02 0. -1.
        2   -1    0    0  501    0  0.00000000000E+00  0.00000000000E+00 -0.19696284291E+04  0.19696284291E+04  0.25500000920E-02 0.  1.
    10030    2    1    2    0    0  0.00000000000E+00  0.00000000000E+00 -0.16884637011E+04  0.22507931571E+04  0.14883414145E+04 0.  0.
        3    1    3    3  502    0 -0.27322751107E+03  0.39929625279E+03 -0.16993061156E+04  0.17668423967E+04  0.10100000352E+00 0.  1.
       -3    1    3    3    0  502  0.27322751107E+03 -0.39929625279E+03  0.10842414437E+02  0.48395076036E+03  0.10100000352E+00 0. -1.
</event>
<event>
 5   0  0.8191876E-04  0.1489875E+04  0.7818609E-02  0.8891214E-01
        1   -1    0    0  501    0  0.00000000000E+00  0.00000000000E+00  0.86455339617E+03  0.86455339618E+03  0.50400001928E-02 0. -1.
       -1   -1    0    0    0  501  0.00000000000E+00  0.00000000000E+00 -0.64187137566E+03  0.64187137568E+03  0.50400001928E-02 0.  1.
    10030    2    1    2    0    0  0.00000000000E+00  0.00000000000E+00  0.22268202050E+03  0.15064247719E+04  0.14898752669E+04 0.  0.
        2    1    3    3  502    0  0.22629993476E+03 -0.65381963410E+03  0.39052457349E+03  0.79448172849E+03  0.25500000920E-02 0. -1.
       -2    1    3    3    0  502 -0.22629993476E+03  0.65381963410E+03 -0.16784255298E+03  0.71194304337E+03  0.25500000920E-02 0.  1.
</event>
<event>
 5   0  0.1552067E-03  0.1500848E+04  0.7818609E-02  0.8883889E-01
       -2   -1    0    0    0  501  0.00000000000E+00  0.00000000000E+00  0.50075768082E+03  0.50075768083E+03  0.25500000920E-02 0. -1.
        2   -1    0    0  501    0  0.00000000000E+00  0.00000000000E+00 -0.11245678965E+04  0.11245678965E+04  0.25500000920E-02 0.  1.
    10030    2    1    2    0    0  0.00000000000E+00  0.00000000000E+00 -0.62381021570E+03  0.16253255773E+04  0.15008477761E+04 0.  0.
        3    1    3    3  502    0 -0.47971489986E+03  0.49051582227E+03  0.17286491683E+02  0.68631697490E+03  0.10100000352E+00 0. -1.
       -3    1    3    3    0  502  0.47971489986E+03 -0.49051582227E+03 -0.64109670738E+03  0.93900860244E+03  0.10100000352E+00 0.  1.
</event>
<event>
 5   0  0.1500956E-03  0.1472501E+04  0.7818609E-02  0.8902948E-01
        2   -1    0    0  501    0  0.00000000000E+00  0.00000000000E+00  0.84576679852E+03  0.84576679853E+03  0.25500000920E-02 0.  1.
       -2   -1    0    0    0  501  0.00000000000E+00  0.00000000000E+00 -0.64091546066E+03  0.64091546067E+03  0.25500000920E-02 0. -1.
    10030    2    1    2    0    0  0.00000000000E+00  0.00000000000E+00  0.20485133786E+03  0.14866822592E+04  0.14725012968E+04 0.  0.
        4    1    3    3  502    0  0.51440768287E+03  0.47958484338E+00 -0.42938029326E+03  0.67006308907E+03  0.12699999809E+01 0. -1.
       -4    1    3    3    0  502 -0.51440768287E+03 -0.47958484338E+00  0.63423163112E+03  0.81661917012E+03  0.12699999809E+01 0.  1.
</event>
<event>
 5   0  0.7870317E-04  0.1503327E+04  0.7818609E-02  0.8882243E-01
       -1   -1    0    0    0  501  0.00000000000E+00  0.00000000000E+00  0.49988225889E+03  0.49988225892E+03  0.50400001928E-02 0.  1.
        1   -1    0    0  501    0  0.00000000000E+00  0.00000000000E+00 -0.11302627126E+04  0.11302627126E+04  0.50400001928E-02 0. -1.
    10030    2    1    2    0    0  0.00000000000E+00  0.00000000000E+00 -0.63038045369E+03  0.16301449715E+04  0.15033273468E+04 0.  0.
        1    1    3    3  502    0  0.12469249403E+03  0.51619237054E+03  0.26165915697E+03  0.59200362830E+03  0.50400001928E-02 0.  1.
       -1    1    3    3    0  502 -0.12469249403E+03 -0.51619237054E+03 -0.89203961066E+03  0.10381413432E+04  0.50400001928E-02 0. -1.
</event>
<event>
 5   0  0.8191876E-04  0.1581560E+04  0.7818609E-02  0.8831957E-01
       -1   -1    0    0    0  501  0.00000000000E+00  0.00000000000E+00  0.96867028528E+03  0.96867028530E+03  0.50400001928E-02 0.  1.
        1   -1    0    0  501    0  0.00000000000E+00  0.00000000000E+00 -0.64555841627E+03  0.64555841629E+03  0.50400001928E-02 0. -1.
    10030    2    1    2    0    0  0.00000000000E+00  0.00000000000E+00  0.32311186901E+03  0.16142287016E+04  0.15815603122E+04 0.  0.
        2    1    3    3  502    0 -0.29047052965E+03  0.24438188552E+03  0.86959805196E+03  0.94883950516E+03  0.25500000920E-02 0.  1.
       -2    1    3    3    0  502  0.29047052965E+03 -0.24438188552E+03 -0.54648618294E+03  0.66538919643E+03  0.25500000920E-02 0. -1.
</event>
<event>
 5   0  0.8058234E-04  0.1489449E+04  0.7818609E-02  0.8891500E-01
        1   -1    0    0  501    0  0.00000000000E+00  0.00000000000E+00  0.45357836200E+03  0.45357836203E+03  0.50400001928E-02 0. -1.
       -1   -1    0    0    0  501  0.00000000000E+00  0.00000000000E+00 -0.12227531504E+04  0.12227531504E+04  0.50400001928E-02 0.  1.
    10030    2    1    2    0    0  0.00000000000E+00  0.00000000000E+00 -0.76917478841E+03  0.16763315124E+04  0.14894487183E+04 0.  0.
        5    1    3    3  502    0  0.23987923109E+03  0.90711065184E+02  0.40229460350E+03  0.47710961095E+03  0.46999998093E+01 0. -1.
       -5    1    3    3    0  502 -0.23987923109E+03 -0.90711065184E+02 -0.11714693919E+04  0.11992219015E+04  0.46999998093E+01 0.  1.
</event>
<event>
 5   0  0.5603875E-04  0.1493891E+04  0.7818609E-02  0.8888526E-01
        3   -1    0    0  501    0  0.00000000000E+00  0.00000000000E+00  0.59622139701E+03  0.59622140557E+03  0.10100000352E+00 0.  1.
       -3   -1    0    0    0  501  0.00000000000E+00  0.00000000000E+00 -0.93577188811E+03  0.93577189356E+03  0.10100000352E+00 0. -1.
    10030    2    1    2    0    0  0.00000000000E+00  0.00000000000E+00 -0.33955049109E+03  0.15319932991E+04  0.14938905357E+04 0.  0.
        1    1    3    3  502    0  0.57644115158E+03  0.47125346270E+03 -0.10856186657E+03  0.75242933637E+03  0.50400001928E-02 0. -1.
       -1    1    3    3    0  502 -0.57644115158E+03 -0.47125346270E+03 -0.23098862452E+03  0.77956396275E+03  0.50400001928E-02 0.  1.
</event>
<event>
 5   0  0.8365016E-04  0.1529343E+04  0.7818609E-02  0.8865171E-01
        1   -1    0    0  501    0  0.00000000000E+00  0.00000000000E+00  0.16295091066E+04  0.16295091066E+04  0.50400001928E-02 0. -1.
       -1   -1    0    0    0  501  0.00000000000E+00  0.00000000000E+00 -0.35883346906E+03  0.35883346909E+03  0.50400001928E-02 0.  1.
    10030    2    1    2    0    0  0.00000000000E+00  0.00000000000E+00  0.12706756376E+04  0.19883425757E+04  0.15293428728E+04 0.  0.
        3    1    3    3  502    0  0.16526478960E+03  0.57185756966E+03  0.12593845187E+04  0.13929762765E+04  0.10100000352E+00 0. -1.
       -3    1    3    3    0  502 -0.16526478960E+03 -0.57185756966E+03  0.11291118815E+02  0.59536629920E+03  0.10100000352E+00 0.  1.
</event>
<event>
 5   0  0.1500956E-03  0.1499823E+04  0.7818609E-02  0.8884571E-01
        2   -1    0    0  501    0  0.00000000000E+00  0.00000000000E+00  0.23128832499E+04  0.23128832499E+04  0.25500000920E-02 0. -1.
       -2   -1    0    0    0  501  0.00000000000E+00  0.00000000000E+00 -0.24314557919E+03  0.24314557921E+03  0.25500000920E-02 0.  1.
    10030    2    1    2    0    0  0.00000000000E+00  0.00000000000E+00  0.20697376707E+04  0.25560288291E+04  0.14998231061E+04 0.  0.
        4    1    3    3  502    0  0.71628802530E+03 -0.22142408713E+03  0.10069402609E+04  0.12553993243E+04  0.12699999809E+01 0. -1.
       -4    1    3    3    0  502 -0.71628802530E+03  0.22142408713E+03  0.10627974097E+04  0.13006295047E+04  0.12699999809E+01 0.  1.
</event>
<event>
 5   0  0.7870317E-04  0.1582691E+04  0.7818609E-02  0.8831253E-01
        1   -1    0    0  501    0  0.00000000000E+00  0.00000000000E+00  0.87457293699E+03  0.87457293701E+03  0.50400001928E-02 0.  1.
       -1   -1    0    0    0  501  0.00000000000E+00  0.00000000000E+00 -0.71603814868E+03  0.71603814870E+03  0.50400001928E-02 0. -1.
    10030    2    1    2    0    0  0.00000000000E+00  0.00000000000E+00  0.15853478831E+03  0.15906110857E+04  0.15826908564E+04 0.  0.
        1    1    3    3  502    0 -0.12842300637E+03  0.74565193550E+03  0.31224271076E+03  0.81852598488E+03  0.50400001928E-02 0.  1.
       -1    1    3    3    0  502  0.12842300637E+03 -0.74565193550E+03 -0.15370792245E+03  0.77208510083E+03  0.50400001928E-02 0. -1.
</event>
<event>
 5   0  0.1484056E-03  0.1527409E+04  0.7818609E-02  0.8866428E-01
        2   -1    0    0  501    0  0.00000000000E+00  0.00000000000E+00  0.62546835198E+03  0.62546835199E+03  0.25500000920E-02 0. -1.
       -2   -1    0    0    0  501  0.00000000000E+00  0.00000000000E+00 -0.93249232575E+03  0.93249232575E+03  0.25500000920E-02 0.  1.
    10030    2    1    2    0    0  0.00000000000E+00  0.00000000000E+00 -0.30702397377E+03  0.15579606777E+04  0.15274088362E+04 0.  0.
        5    1    3    3  502    0 -0.51087588007E+03 -0.48848191063E+03  0.14143208467E+03  0.72085634243E+03  0.46999998093E+01 0. -1.
       -5    1    3    3    0  502  0.51087588007E+03  0.48848191063E+03 -0.44845605844E+03  0.83710433531E+03  0.46999998093E+01 0.  1.
</event>
<event>
 5   0  0.1484056E-03  0.1506867E+04  0.7818609E-02  0.8879899E-01
       -2   -1    0    0    0  501  0.00000000000E+00  0.00000000000E+00  0.25732851215E+04  0.25732851215E+04  0.25500000920E-02 0. -1.
        2   -1    0    0  501    0  0.00000000000E+00  0.00000000000E+00 -0.22059828004E+03  0.22059828006E+03  0.25500000920E-02 0.  1.
    10030    2    1    2    0    0  0.00000000000E+00  0.00000000000E+00  0.23526868415E+04  0.27938834016E+04  0.15068673092E+04 0.  0.
        5    1    3    3  502    0 -0.75180344788E+02 -0.41381528406E+03  0.17352628297E+02  0.42097313129E+03  0.46999998093E+01 0.  1.
       -5    1    3    3    0  502  0.75180344788E+02  0.41381528406E+03  0.23353342132E+04  0.23729102703E+04  0.46999998093E+01 0. -1.
</event>
<event>
 5   0  0.1484056E-03  0.1464406E+04  0.7818609E-02  0.8908474E-01
       -2   -1    0    0    0  501  0.00000000000E+00  0.00000000000E+00  0.13966273957E+04  0.13966273957E+04  0.25500000920E-02 0.  1.
        2   -1    0    0  501    0  0.00000000000E+00  0.00000000000E+00 -0.38386861599E+03  0.38386861600E+03  0.25500000920E-02 0. -1.
    10030    2    1    2    0    0  0.00000000000E+00  0.00000000000E+00  0.10127587797E+04  0.17804960117E+04  0.14644062626E+04 0.  0.
        5    1    3    3  502    0  0.39301155501E+03 -0.46478263840E+03  0.11574870912E+02  0.60879968049E+03  0.46999998093E+01 0. -1.
       -5    1    3    3    0  502 -0.39301155501E+03  0.46478263840E+03  0.10011839088E+04  0.11716963312E+04  0.46999998093E+01 0.  1.
</event>
<event>
 5   0  0.1526126E-03  0.1511844E+04  0.7818609E-02  0.8876615E-01
        2   -1    0    0  501    0  0.00000000000E+00  0.00000000000E+00  0.24290170848E+04  0.24290170848E+04  0.25500000920E-02 0. -1.
       -2   -1    0    0    0  501  0.00000000000E+00  0.00000000000E+00 -0.23524653412E+03  0.23524653413E+03  0.25500000920E-02 0.  1.
    10030    2    1    2    0    0  0.00000000000E+00  0.00000000000E+00  0.21937705507E+04  0.26642636190E+04  0.15118437096E+04 0.  0.
        2    1    3    3  502    0  0.10067024929E+02  0.62157126818E+03  0.33897838523E+03  0.70806675679E+03  0.25500000920E-02 0.  1.
       -2    1    3    3    0  502 -0.10067024929E+02 -0.62157126818E+03  0.18547921655E+04  0.19561968622E+04  0.25500000920E-02 0. -1.
</event>
<event>
 5   0  0.8306301E-04  0.1486163E+04  0.7818609E-02  0.8893707E-01
       -1   -1    0    0    0  501  0.00000000000E+00  0.00000000000E+00  0.10467689809E+04  0.10467689809E+04  0.50400001928E-02 0.  1.
        1   -1    0    0  501    0  0.00000000000E+00  0.00000000000E+00 -0.52749948872E+03  0.52749948875E+03  0.50400001928E-02 0. -1.
    10030    2    1    2    0    0  0.00000000000E+00  0.00000000000E+00  0.51926949216E+03  0.15742684696E+04  0.14861629820E+04 0.  0.
        4    1    3    3  502    0  0.13616186607E+02 -0.58093793017E+03 -0.23095689537E+03  0.62531350511E+03  0.12699999809E+01 0. -1.
       -4    1    3    3    0  502 -0.13616186607E+02  0.58093793017E+03  0.75022638754E+03  0.94895496453E+03  0.12699999809E+01 0.  1.
</event>
<event>
 5   0  0.1511546E-03  0.1508530E+04  0.7818609E-02  0.8878800E-01
        2   -1    0    0  501    0  0.00000000000E+00  0.00000000000E+00  0.12096427699E+04  0.12096427699E+04  0.25500000920E-02 0.  1.
       -2   -1    0    0    0  501  0.00000000000E+00  0.00000000000E+00 -0.47031727710E+03  0.47031727711E+03  0.25500000920E-02 0. -1.
    10030    2    1    2    0    0  0.00000000000E+00  0.00000000000E+00  0.73932549282E+03  0.16799600470E+04  0.15085302699E+04 0.  0.
        1    1    3    3  502    0  0.14736465389E+03  0.47170123656E+03 -0.26491435127E+03  0.56071205741E+03  0.50400001928E-02 0. -1.
       -1    1    3    3    0  502 -0.14736465389E+03 -0.47170123656E+03  0.10042398441E+04  0.11192479896E+04  0.50400001928E-02 0.  1.
</event>
<event>
 5   0  0.1484056E-03  0.1516810E+04  0.7818609E-02  0.8873351E-01
        2   -1    0    0  501    0  0.00000000000E+00  0.00000000000E+00  0.15303318185E+04  0.15303318185E+04  0.25500000920E-02 0.  1.
       -2   -1    0    0    0  501  0.00000000000E+00  0.00000000000E+00 -0.37585167899E+03  0.37585167899E+03  0.25500000920E-02 0. -1.
    10030    2    1    2    0    0  0.00000000000E+00  0.00000000000E+00  0.11544801395E+04  0.19061834975E+04  0.15168095245E+04 0.  0.
        5    1    3    3  502    0  0.60635096961E+02 -0.22780143353E+03 -0.32862227134E+03  0.40445617232E+03  0.46999998093E+01 0. -1.
       -5    1    3    3    0  502 -0.60635096961E+02  0.22780143353E+03  0.14831024109E+04  0.15017273252E+04  0.46999998093E+01 0.  1.
</event>
<event>
 5   0  0.1500956E-03  0.1498545E+04  0.7818609E-02  0.8885421E-01
       -2   -1    0    0    0  501  0.00000000000E+00  0.00000000000E+00  0.25254966188E+03  0.25254966190E+03  0.25500000920E-02 0. -1.
        2   -1    0    0  501    0  0.00000000000E+00  0.00000000000E+00 -0.22229662107E+04  0.22229662107E+04  0.25500000920E-02 0.  1.
    10030    2    1    2    0    0  0.00000000000E+00  0.00000000000E+00 -0.19704165489E+04  0.24755158726E+04  0.14985451143E+04 0.  0.
        4    1    3    3  502    0 -0.64513389463E+03  0.36370583375E+03 -0.11730373626E+04  0.13872627518E+04  0.12699999809E+01 0.  1.
       -4    1    3    3    0  502  0.64513389463E+03 -0.36370583375E+03 -0.79737918626E+03  0.10882531209E+04  0.12699999809E+01 0. -1.
</event>
<event>
 5   0  0.1484056E-03  0.1503759E+04  0.7818609E-02  0.8881957E-01
       -2   -1    0    0    0  501  0.00000000000E+00  0.00000000000E+00  0.11675573460E+04  0.11675573460E+04  0.25500000920E-02 0. -1.
        2   -1    0    0  501    0  0.00000000000E+00  0.00000000000E+00 -0.48419276242E+03  0.48419276242E+03  0.25500000920E-02 0.  1.
    10030    2    1    2    0    0  0.00000000000E+00  0.00000000000E+00  0.68336458354E+03  0.16517501084E+04  0.15037590454E+04 0.  0.
        5    1    3    3  502    0 -0.72149758312E+03 -0.12219965436E+03  0.53132725587E+03  0.90433525907E+03  0.46999998093E+01 0. -1.
       -5    1    3    3    0  502  0.72149758312E+03  0.12219965436E+03  0.15203732767E+03  0.74741484931E+03  0.46999998093E+01 0.  1.
</event>
<event>
 5   0  0.1484056E-03  0.1418597E+04  0.7818609E-02  0.8940466E-01
        2   -1    0    0  501    0  0.00000000000E+00  0.00000000000E+00  0.21407228711E+04  0.21407228711E+04  0.25500000920E-02 0.  1.
       -2   -1    0    0    0  501  0.00000000000E+00  0.00000000000E+00 -0.23501615210E+03  0.23501615211E+03  0.25500000920E-02 0. -1.
    10030    2    1    2    0    0  0.00000000000E+00  0.00000000000E+00  0.19057067190E+04  0.23757390232E+04  0.14185971266E+04 0.  0.
        5    1    3    3  502    0 -0.48616983892E+03  0.75344482165E+02  0.18085048176E+04  0.18742330881E+04  0.46999998093E+01 0.  1.
       -5    1    3    3    0  502  0.48616983892E+03 -0.75344482165E+02  0.97201901347E+02  0.50150593505E+03  0.46999998093E+01 0. -1.
</event>
<event>
 5   0  0.8306301E-04  0.1462151E+04  0.7818609E-02  0.8910020E-01
       -1   -1    0    0    0  501  0.00000000000E+00  0.00000000000E+00  0.53103386822E+03  0.53103386825E+03  0.50400001928E-02 0. -1.
        1   -1    0    0  501    0  0.00000000000E+00  0.00000000000E+00 -0.10064727599E+04  0.10064727599E+04  0.50400001928E-02 0.  1.
    10030    2    1    2    0    0  0.00000000000E+00  0.00000000000E+00 -0.47543889165E+03  0.15375066281E+04  0.14621506392E+04 0.  0.
        4    1    3    3  502    0 -0.12412069398E+03  0.51994936108E+02  0.51789667021E+03  0.53509624739E+03  0.12699999809E+01 0. -1.
       -4    1    3    3    0  502  0.12412069398E+03 -0.51994936108E+02 -0.99333556186E+03  0.10024103807E+04  0.12699999809E+01 0.  1.
</event>
<event>
 5   0  0.8365016E-04  0.1508853E+04  0.7818609E-02  0.8878587E-01
       -1   -1    0    0    0  501  0.00000000000E+00  0.00000000000E+00  0.77584217759E+03  0.77584217760E+03  0.50400001928E-02 0.  1.
        1   -1    0    0  501    0  0.00000000000E+00  0.00000000000E+00 -0.73360160683E+03  0.73360160684E+03  0.50400001928E-02 0. -1.
    10030    2    1    2    0    0  0.00000000000E+00  0.00000000000E+00  0.42240570759E+02  0.15094437844E+04  0.15088526345E+04 0.  0.
        3    1    3    3  502    0 -0.62587160010E+03  0.28392446484E+02 -0.39932721809E+03  0.74295600687E+03  0.10100000352E+00 0.  1.
       -3    1    3    3    0  502  0.62587160010E+03 -0.28392446484E+02  0.44156778884E+03  0.76648777758E+03  0.10100000352E+00 0. -1.
</event>
<event>
 5   0  0.8058234E-04  0.1428677E+04  0.7818609E-02  0.8933318E-01
        1   -1    0    0  501    0  0.00000000000E+00  0.00000000000E+00  0.63529889003E+03  0.63529889005E+03  0.50400001928E-02 0.  1.
       -1   -1    0    0    0  501  0.00000000000E+00  0.00000000000E+00 -0.80321185907E+03  0.80321185908E+03  0.50400001928E-02 0. -1.
    10030    2    1    2    0    0  0.00000000000E+00  0.00000000000E+00 -0.16791296904E+03  0.14385107491E+04  0.14286771539E+04 0.  0.
        5    1    3    3  502    0  0.40750996450E+03 -0.56093398824E+03 -0.25702969284E+03  0.73945768191E+03  0.46999998093E+01 0. -1.
       -5    1    3    3    0  502 -0.40750996450E+03  0.56093398824E+03  0.89116723801E+02  0.69905306723E+03  0.46999998093E+01 0.  1.
</event>
<event>
 5   0  0.1511546E-03  0.1489089E+04  0.7818609E-02  0.8891741E-01
        2   -1    0    0  501    0  0.00000000000E+00  0.00000000000E+00  0.55247519877E+03  0.55247519878E+03  0.25500000920E-02 0. -1.
       -2   -1    0    0    0  501  0.00000000000E+00  0.00000000000E+00 -0.10033868448E+04  0.10033868448E+04  0.25500000920E-02 0.  1.
    10030    2    1    2    0    0  0.00000000000E+00  0.00000000000E+00 -0.45091164606E+03  0.15558620436E+04  0.14890887771E+04 0.  0.
        1    1    3    3  502    0  0.46701297793E+03 -0.57403700691E+03 -0.13976135130E+03  0.75309550669E+03  0.50400001928E-02 0.  1.
       -1    1    3    3    0  502 -0.46701297793E+03  0.57403700691E+03 -0.31115029477E+03  0.80276653693E+03  0.50400001928E-02 0. -1.
</event>
<event>
 5   0  0.1484056E-03  0.1510784E+04  0.7818609E-02  0.8877313E-01
        2   -1    0    0  501    0  0.00000000000E+00  0.00000000000E+00  0.95517732154E+03  0.95517732155E+03  0.25500000920E-02 0. -1.
       -2   -1    0    0    0  501  0.00000000000E+00  0.00000000000E+00 -0.59739384653E+03  0.59739384653E+03  0.25500000920E-02 0.  1.
    10030    2    1    2    0    0  0.00000000000E+00  0.00000000000E+00  0.35778347501E+03  0.15525711681E+04  0.15107839743E+04 0.  0.
        5    1    3    3  502    0 -0.46700361665E+03  0.34240169518E+03 -0.31956397438E+03  0.66141856834E+03  0.46999998093E+01 0.  1.
       -5    1    3    3    0  502  0.46700361665E+03 -0.34240169518E+03  0.67734744939E+03  0.89115259974E+03  0.46999998093E+01 0. -1.
</event>
<event>
 5   0  0.8058234E-04  0.1566756E+04  0.7818609E-02  0.8841235E-01
        1   -1    0    0  501    0  0.00000000000E+00  0.00000000000E+00  0.79593027714E+03  0.79593027716E+03  0.50400001928E-02 0.  1.
       -1   -1    0    0    0  501  0.00000000000E+00  0.00000000000E+00 -0.77102368646E+03  0.77102368647E+03  0.50400001928E-02 0. -1.
    10030    2    1    2    0    0  0.00000000000E+00  0.00000000000E+00  0.24906590688E+02  0.15669539636E+04  0.15667560071E+04 0.  0.
        5    1    3    3  502    0  0.39584680952E+03 -0.71005093172E+01 -0.66358617115E+03  0.77273139600E+03  0.46999998093E+01 0. -1.
       -5    1    3    3    0  502 -0.39584680952E+03  0.71005093172E+01  0.68849276183E+03  0.79422256763E+03  0.46999998093E+01 0.  1.
</event>
<event>
 5   0  0.7870317E-04  0.1388604E+04  0.7818609E-02  0.8962109E-01
       -1   -1    0    0    0  501  0.00000000000E+00  0.00000000000E+00  0.35012594922E+03  0.35012594926E+03  0.50400001928E-02 0. -1.
        1   -1    0    0  501    0  0.00000000000E+00  0.00000000000E+00 -0.13768059895E+04  0.13768059895E+04  0.50400001928E-02 0.  1.
    10030    2    1    2    0    0  0.00000000000E+00  0.00000000000E+00 -0.10266800403E+04  0.17269319388E+04  0.13886043411E+04 0.  0.
        1    1    3    3  502    0 -0.27492120720E+03 -0.13270832940E+03  0.26218290739E+03  0.40240905533E+03  0.50400001928E-02 0. -1.
       -1    1    3    3    0  502  0.27492120720E+03  0.13270832940E+03 -0.12888629477E+04  0.13245228834E+04  0.50400001928E-02 0.  1.
</event>
<event>
 5   0  0.1500956E-03  0.1504412E+04  0.7818609E-02  0.8881524E-01
        2   -1    0    0  501    0  0.00000000000E+00  0.00000000000E+00  0.47319697834E+03  0.47319697835E+03  0.25500000920E-02 0. -1.
       -2   -1    0    0    0  501  0.00000000000E+00  0.00000000000E+00 -0.11957262520E+04  0.11957262520E+04  0.25500000920E-02 0.  1.
    10030    2    1    2    0    0  0.00000000000E+00  0.00000000000E+00 -0.72252927361E+03  0.16689232303E+04  0.15044122432E+04 0.  0.
        4    1    3    3  502    0 -0.79055981833E+02  0.32558280782E+03  0.38584806359E+03  0.51101306646E+03  0.12699999809E+01 0. -1.
       -4    1    3    3    0  502  0.79055981833E+02 -0.32558280782E+03 -0.11083773372E+04  0.11579101639E+04  0.12699999809E+01 0.  1.
</event>
<event>
 5   0  0.7870317E-04  0.1495411E+04  0.7818609E-02  0.8887511E-01
       -1   -1    0    0    0  501  0.00000000000E+00  0.00000000000E+00  0.41126524114E+03  0.41126524117E+03  0.50400001928E-02 0. -1.
        1   -1    0    0  501    0  0.00000000000E+00  0.00000000000E+00 -0.13593738171E+04  0.13593738171E+04  0.50400001928E-02 0.  1.
    10030    2    1    2    0    0  0.00000000000E+00  0.00000000000E+00 -0.94810857595E+03  0.17706390583E+04  0.14954105800E+04 0.  0.
        1    1    3    3  502    0  0.31513287097E+02  0.54020318895E+03 -0.10850172900E+04  0.12124665324E+04  0.50400001928E-02 0.  1.
       -1    1    3    3    0  502 -0.31513287097E+02 -0.54020318895E+03  0.13690871403E+03  0.55817252586E+03  0.50400001928E-02 0. -1.
</event>
<event>
 5   0  0.1500956E-03  0.9479042E+03  0.7818609E-02  0.9367604E-01
       -2   -1    0    0    0  501  0.00000000000E+00  0.00000000000E+00  0.29606960163E+03  0.29606960164E+03  0.25500000920E-02 0.  1.
        2   -1    0    0  501    0  0.00000000000E+00  0.00000000000E+00 -0.75870874670E+03  0.75870874670E+03  0.25500000920E-02 0. -1.
    10030    2    1    2    0    0  0.00000000000E+00  0.00000000000E+00 -0.46263914507E+03  0.10547783483E+04  0.94790420697E+03 0.  0.
        4    1    3    3  502    0 -0.26269645090E+03  0.34569839019E+03 -0.19861818022E+02  0.43464112439E+03  0.12699999809E+01 0. -1.
       -4    1    3    3    0  502  0.26269645090E+03 -0.34569839019E+03 -0.44277732704E+03  0.62013722396E+03  0.12699999809E+01 0.  1.
</event>
<event>
 5   0  0.1511546E-03  0.1420716E+04  0.7818609E-02  0.8938958E-01
       -2   -1    0    0    0  501  0.00000000000E+00  0.00000000000E+00  0.44872123960E+03  0.44872123961E+03  0.25500000920E-02 0.  1.
        2   -1    0    0  501    0  0.00000000000E+00  0.00000000000E+00 -0.11245475741E+04  0.11245475741E+04  0.25500000920E-02 0. -1.
    10030    2    1    2    0    0  0.00000000000E+00  0.00000000000E+00 -0.67582633451E+03  0.15732688137E+04  0.14207158498E+04 0.  0.
        1    1    3    3  502    0  0.69922923547E+03 -0.91449432264E+02 -0.24314429847E+03  0.74592470954E+03  0.50400001928E-02 0.  1.
       -1    1    3    3    0  502 -0.69922923547E+03  0.91449432264E+02 -0.43268203605E+03  0.82734410419E+03  0.50400001928E-02 0. -1.
</event>
<event>
 5   0  0.5603875E-04  0.1526773E+04  0.7818609E-02  0.8866842E-01
       -4   -1    0    0    0  501  0.00000000000E+00  0.00000000000E+00  0.31726480249E+03  0.31726734436E+03  0.12699999809E+01 0. -1.
        4   -1    0    0  501    0  0.00000000000E+00  0.00000000000E+00 -0.18368118721E+04  0.18368123111E+04  0.12699999809E+01 0.  1.
    10030    2    1    2    0    0  0.00000000000E+00  0.00000000000E+00 -0.15195470696E+04  0.21540796555E+04  0.15267730236E+04 0.  0.
        3    1    3    3  502    0  0.11244604953E+01  0.27938249939E+03 -0.17620909400E+04  0.17841021093E+04  0.10100000352E+00 0.  1.
       -3    1    3    3    0  502 -0.11244604953E+01 -0.27938249939E+03  0.24254387044E+03  0.36997754616E+03  0.10100000352E+00 0. -1.
</event>
<event>
 5   0  0.7870317E-04  0.1488882E+04  0.7818609E-02  0.8891880E-01
       -1   -1    0    0    0  501  0.00000000000E+00  0.00000000000E+00  0.11015079793E+04  0.11015079793E+04  0.50400001928E-02 0.  1.
        1   -1    0    0  501    0  0.00000000000E+00  0.00000000000E+00 -0.50312149747E+03  0.50312149749E+03  0.50400001928E-02 0. -1.
    10030    2    1    2    0    0  0.00000000000E+00  0.00000000000E+00  0.59838648180E+03  0.16046294768E+04  0.14888819215E+04 0.  0.
        1    1    3    3  502    0  0.25941384312E+03 -0.27166899538E+03  0.99188225590E+03  0.10606271704E+04  0.50400001928E-02 0.  1.
       -1    1    3    3    0  502 -0.25941384312E+03  0.27166899538E+03 -0.39349577409E+03  0.54400230635E+03  0.50400001928E-02 0. -1.
</event>
<event>
 5   0  0.5603875E-04  0.1106701E+04  0.7818609E-02  0.9198685E-01
        3   -1    0    0  501    0  0.00000000000E+00  0.00000000000E+00  0.12867473412E+04  0.12867473451E+04  0.10100000352E+00 0.  1.
       -3   -1    0    0    0  501  0.00000000000E+00  0.00000000000E+00 -0.23796202691E+03  0.23796204835E+03  0.10100000352E+00 0. -1.
    10030    2    1    2    0    0  0.00000000000E+00  0.00000000000E+00  0.10487853142E+04  0.15247093935E+04  0.11067014499E+04 0.  0.
        4    1    3    3  502    0  0.38933122784E+03 -0.76004260633E+02  0.10559086887E+04  0.11279628648E+04  0.12699999809E+01 0.  1.
       -4    1    3    3    0  502 -0.38933122784E+03  0.76004260633E+02 -0.71233744965E+01  0.39674652862E+03  0.12699999809E+01 0. -1.
</event>
<event>
 5   0  0.1500956E-03  0.1513135E+04  0.7818609E-02  0.8875765E-01
       -2   -1    0    0    0  501  0.00000000000E+00  0.00000000000E+00  0.90524974578E+03  0.90524974578E+03  0.25500000920E-02 0.  1.
        2   -1    0    0  501    0  0.00000000000E+00  0.00000000000E+00 -0.63230549635E+03  0.63230549636E+03  0.25500000920E-02 0. -1.
    10030    2    1    2    0    0  0.00000000000E+00  0.00000000000E+00  0.27294424943E+03  0.15375552421E+04  0.15131350103E+04 0.  0.
        4    1    3    3  502    0  0.75378393135E+03  0.62657310110E+02  0.11957170844E+03  0.76577748728E+03  0.12699999809E+01 0. -1.
       -4    1    3    3    0  502 -0.75378393135E+03 -0.62657310110E+02  0.15337254098E+03  0.77177775486E+03  0.12699999809E+01 0.  1.
</event>
<event>
 5   0  0.8306301E-04  0.1473519E+04  0.7818609E-02  0.8902256E-01
        1   -1    0    0  501    0  0.00000000000E+00  0.00000000000E+00  0.11138143628E+04  0.11138143628E+04  0.50400001928E-02 0. -1.
       -1   -1    0    0    0  501  0.00000000000E+00  0.00000000000E+00 -0.48734726768E+03  0.48734726771E+03  0.50400001928E-02 0.  1.
    10030    2    1    2    0    0  0.00000000000E+00  0.00000000000E+00  0.62646709513E+03  0.16011616305E+04  0.14735187633E+04 0.  0.
        4    1    3    3  502    0 -0.38591387643E+01 -0.46639608188E+03  0.93296455792E+03  0.10430554527E+04  0.12699999809E+01 0. -1.
       -4    1    3    3    0  502  0.38591387643E+01  0.46639608188E+03 -0.30649746279E+03  0.55810617784E+03  0.12699999809E+01 0.  1.
</event>
<event>
 5   0  0.1500956E-03  0.1524193E+04  0.7818609E-02  0.8868522E-01
       -2   -1    0    0    0  501  0.00000000000E+00  0.00000000000E+00  0.56393588582E+03  0.56393588583E+03  0.25500000920E-02 0. -1.
        2   -1    0    0  501    0  0.00000000000E+00  0.00000000000E+00 -0.10298888744E+04  0.10298888744E+04  0.25500000920E-02 0.  1.
    10030    2    1    2    0    0  0.00000000000E+00  0.00000000000E+00 -0.46595298858E+03  0.15938247602E+04  0.15241932879E+04 0.  0.
        4    1    3    3  502    0  0.55768610916E+03  0.53783531933E+02  0.30723168638E+03  0.63898308794E+03  0.12699999809E+01 0. -1.
       -4    1    3    3    0  502 -0.55768610916E+03 -0.53783531933E+02 -0.77318467496E+03  0.95484167229E+03  0.12699999809E+01 0.  1.
</event>
<event>
 5   0  0.8191876E-04  0.1491759E+04  0.7818609E-02  0.8889952E-01
        1   -1    0    0  501    0  0.00000000000E+00  0.00000000000E+00  0.10772997772E+04  0.10772997772E+04  0.50400001928E-02 0.  1.
       -1   -1    0    0    0  501  0.00000000000E+00  0.00000000000E+00 -0.51641738994E+03  0.51641738997E+03  0.50400001928E-02 0. -1.
    10030    2    1    2    0    0  0.00000000000E+00  0.00000000000E+00  0.56088238723E+03  0.15937171672E+04  0.14917591483E+04 0.  0.
        2    1    3    3  502    0  0.43003287146E+03 -0.32412887951E+03  0.83180429621E+03  0.99090170464E+03  0.25500000920E-02 0.  1.
       -2    1    3    3    0  502 -0.43003287146E+03  0.32412887951E+03 -0.27092190898E+03  0.60281546251E+03  0.25500000920E-02 0. -1.
</event>
<event>
 5   0  0.1511546E-03  0.1603156E+04  0.7818609E-02  0.8818611E-01
        2   -1    0    0  501    0  0.00000000000E+00  0.00000000000E+00  0.15514091309E+04  0.15514091309E+04  0.25500000920E-02 0. -1.
       -2   -1    0    0    0  501  0.00000000000E+00  0.00000000000E+00 -0.41415738208E+03  0.41415738209E+03  0.25500000920E-02 0.  1.
    10030    2    1    2    0    0  0.00000000000E+00  0.00000000000E+00  0.11372517488E+04  0.19655665130E+04  0.16031563170E+04 0.  0.
        1    1    3    3  502    0  0.17149327521E+03 -0.15776925826E+03 -0.37171248505E+03  0.43871545888E+03  0.50400001928E-02 0.  1.
       -1    1    3    3    0  502 -0.17149327521E+03  0.15776925826E+03  0.15089642339E+04  0.15268510541E+04  0.50400001928E-02 0. -1.
</event>
<event>
 5   0  0.8365016E-04  0.1482107E+04  0.7818609E-02  0.8896439E-01
        1   -1    0    0  501    0  0.00000000000E+00  0.00000000000E+00  0.18943599602E+04  0.18943599602E+04  0.50400001928E-02 0.  1.
       -1   -1    0    0    0  501  0.00000000000E+00  0.00000000000E+00 -0.28989227763E+03  0.28989227768E+03  0.50400001928E-02 0. -1.
    10030    2    1    2    0    0  0.00000000000E+00  0.00000000000E+00  0.16044676826E+04  0.21842522379E+04  0.14821070455E+04 0.  0.
        3    1    3    3  502    0  0.44810617250E+03  0.28323036577E+03  0.15653759579E+04  0.16527009656E+04  0.10100000352E+00 0.  1.
       -3    1    3    3    0  502 -0.44810617250E+03 -0.28323036577E+03  0.39091724673E+02  0.53155127229E+03  0.10100000352E+00 0. -1.
</event>
<event>
 5   0  0.7870317E-04  0.1524577E+04  0.7818609E-02  0.8868272E-01
        1   -1    0    0  501    0  0.00000000000E+00  0.00000000000E+00  0.17476366951E+04  0.17476366951E+04  0.50400001928E-02 0. -1.
       -1   -1    0    0    0  501  0.00000000000E+00  0.00000000000E+00 -0.33249700986E+03  0.33249700990E+03  0.50400001928E-02 0.  1.
    10030    2    1    2    0    0  0.00000000000E+00  0.00000000000E+00  0.14151396853E+04  0.20801337050E+04  0.15245772863E+04 0.  0.
        1    1    3    3  502    0  0.33651680151E+03  0.68224473166E+03  0.77416800743E+03  0.10853743757E+04  0.50400001928E-02 0. -1.
       -1    1    3    3    0  502 -0.33651680151E+03 -0.68224473166E+03  0.64097167784E+03  0.99475932938E+03  0.50400001928E-02 0.  1.
</event>
<event>
 5   0  0.8365016E-04  0.1225531E+04  0.7818609E-02  0.9090798E-01
       -1   -1    0    0    0  501  0.00000000000E+00  0.00000000000E+00  0.26644464025E+03  0.26644464030E+03  0.50400001928E-02 0.  1.
        1   -1    0    0  501    0  0.00000000000E+00  0.00000000000E+00 -0.14092299856E+04  0.14092299856E+04  0.50400001928E-02 0. -1.
    10030    2    1    2    0    0  0.00000000000E+00  0.00000000000E+00 -0.11427853454E+04  0.16756746259E+04  0.12255313567E+04 0.  0.
        3    1    3    3  502    0  0.52418718436E+03 -0.72521877408E+02 -0.14896384375E+03  0.54974709085E+03  0.10100000352E+00 0.  1.
       -3    1    3    3    0  502 -0.52418718436E+03  0.72521877408E+02 -0.99382150160E+03  0.11259275351E+04  0.10100000352E+00 0. -1.
</event>
<event>
 5   0  0.1552067E-03  0.1476263E+04  0.7818609E-02  0.8900393E-01
       -2   -1    0    0    0  501  0.00000000000E+00  0.00000000000E+00  0.33106099864E+03  0.33106099865E+03  0.25500000920E-02 0. -1.
        2   -1    0    0  501    0  0.00000000000E+00  0.00000000000E+00 -0.16457335400E+04  0.16457335400E+04  0.25500000920E-02 0.  1.
    10030    2    1    2    0    0  0.00000000000E+00  0.00000000000E+00 -0.13146725414E+04  0.19767945387E+04  0.14762631056E+04 0.  0.
        3    1    3    3  502    0 -0.27027045718E+03 -0.59324912308E+03 -0.19376947258E+03  0.68010091954E+03  0.10100000352E+00 0. -1.
       -3    1    3    3    0  502  0.27027045718E+03  0.59324912308E+03 -0.11209030688E+04  0.12966936191E+04  0.10100000352E+00 0.  1.
</event>
<event>
 5   0  0.1526126E-03  0.1514881E+04  0.7818609E-02  0.8874617E-01
        2   -1    0    0  501    0  0.00000000000E+00  0.00000000000E+00  0.17241514896E+04  0.17241514896E+04  0.25500000920E-02 0. -1.
       -2   -1    0    0    0  501  0.00000000000E+00  0.00000000000E+00 -0.33275272873E+03  0.33275272874E+03  0.25500000920E-02 0.  1.
    10030    2    1    2    0    0  0.00000000000E+00  0.00000000000E+00  0.13913987608E+04  0.20569042183E+04  0.15148810025E+04 0.  0.
        2    1    3    3  502    0  0.24618320171E+03 -0.28542802935E+03  0.15877649673E+04  0.16318924352E+04  0.25500000920E-02 0. -1.
       -2    1    3    3    0  502 -0.24618320171E+03  0.28542802935E+03 -0.19636620644E+03  0.42501178310E+03  0.25500000920E-02 0.  1.
</event>
<event>
 5   0  0.8306301E-04  0.1508688E+04  0.7818609E-02  0.8878696E-01
        1   -1    0    0  501    0  0.00000000000E+00  0.00000000000E+00  0.24983195114E+04  0.24983195114E+04  0.50400001928E-02 0. -1.
       -1   -1    0    0    0  501  0.00000000000E+00  0.00000000000E+00 -0.22776712448E+03  0.22776712453E+03  0.50400001928E-02 0.  1.
    10030    2    1    2    0    0  0.00000000000E+00  0.00000000000E+00  0.22705523869E+04  0.27260866359E+04  0.15086882398E+04 0.  0.
        4    1    3    3  502    0  0.19170319399E+03 -0.10867123453E+03 -0.16830960668E+03  0.27728917830E+03  0.12699999809E+01 0.  1.
       -4    1    3    3    0  502 -0.19170319399E+03  0.10867123453E+03  0.24388619936E+04  0.24487974576E+04  0.12699999809E+01 0. -1.
</event>
<event>
 5   0  0.1511546E-03  0.1455528E+04  0.7818609E-02  0.8914577E-01
       -2   -1    0    0    0  501  0.00000000000E+00  0.00000000000E+00  0.53141662021E+03  0.53141662021E+03  0.25500000920E-02 0.  1.
        2   -1    0    0  501    0  0.00000000000E+00  0.00000000000E+00 -0.99665749080E+03  0.99665749080E+03  0.25500000920E-02 0. -1.
    10030    2    1    2    0    0  0.00000000000E+00  0.00000000000E+00 -0.46524087060E+03  0.15280741110E+04  0.14555278840E+04 0.  0.
        1    1    3    3  502    0 -0.46445976559E+03  0.46900455576E+03 -0.55441402152E+03  0.86201105240E+03  0.50400001928E-02 0. -1.
       -1    1    3    3    0  502  0.46445976559E+03 -0.46900455576E+03  0.89173150929E+02  0.66606305861E+03  0.50400001928E-02 0.  1.
</event>
<event>
 5   0  0.1484056E-03  0.1488907E+04  0.7818609E-02  0.8891863E-01
       -2   -1    0    0    0  501  0.00000000000E+00  0.00000000000E+00  0.51590437031E+03  0.51590437032E+03  0.25500000920E-02 0.  1.
        2   -1    0    0  501    0  0.00000000000E+00  0.00000000000E+00 -0.10742514050E+04  0.10742514050E+04  0.25500000920E-02 0. -1.
    10030    2    1    2    0    0  0.00000000000E+00  0.00000000000E+00 -0.55834703469E+03  0.15901557753E+04  0.14889069745E+04 0.  0.
        5    1    3    3  502    0  0.35849724924E+03 -0.14977937031E+03 -0.95736306442E+03  0.10332087227E+04  0.46999998093E+01 0. -1.
       -5    1    3    3    0  502 -0.35849724924E+03  0.14977937031E+03  0.39901602973E+03  0.55694705266E+03  0.46999998093E+01 0.  1.
</event>
<event>
 5   0  0.8306301E-04  0.1420375E+04  0.7818609E-02  0.8939201E-01
       -1   -1    0    0    0  501  0.00000000000E+00  0.00000000000E+00  0.47822296804E+03  0.47822296807E+03  0.50400001928E-02 0. -1.
        1   -1    0    0  501    0  0.00000000000E+00  0.00000000000E+00 -0.10546670945E+04  0.10546670945E+04  0.50400001928E-02 0.  1.
    10030    2    1    2    0    0  0.00000000000E+00  0.00000000000E+00 -0.57644412648E+03  0.15328900626E+04  0.14203746383E+04 0.  0.
        4    1    3    3  502    0  0.41158195490E+02  0.69449860437E+02  0.47325373684E+03  0.48009165011E+03  0.12699999809E+01 0. -1.
       -4    1    3    3    0  502 -0.41158195490E+02 -0.69449860437E+02 -0.10496978633E+04  0.10527984125E+04  0.12699999809E+01 0.  1.
</event>
<event>
 5   0  0.1511546E-03  0.1500805E+04  0.7818609E-02  0.8883918E-01
       -2   -1    0    0    0  501  0.00000000000E+00  0.00000000000E+00  0.45503812185E+03  0.45503812186E+03  0.25500000920E-02 0.  1.
        2   -1    0    0  501    0  0.00000000000E+00  0.00000000000E+00 -0.12374880033E+04  0.12374880033E+04  0.25500000920E-02 0. -1.
    10030    2    1    2    0    0  0.00000000000E+00  0.00000000000E+00 -0.78244988146E+03  0.16925261252E+04  0.15008054062E+04 0.  0.
        1    1    3    3  502    0 -0.81896213849E+02  0.67277600560E+03 -0.75450889841E+03  0.10142081746E+04  0.50400001928E-02 0. -1.
       -1    1    3    3    0  502  0.81896213849E+02 -0.67277600560E+03 -0.27940983053E+02  0.67831795060E+03  0.50400001928E-02 0.  1.
</event>
<event>
 5   0  0.7870317E-04  0.1518780E+04  0.7818609E-02  0.8872060E-01
       -1   -1    0    0    0  501  0.00000000000E+00  0.00000000000E+00  0.34121136747E+03  0.34121136751E+03  0.50400001928E-02 0.  1.
        1   -1    0    0  501    0  0.00000000000E+00  0.00000000000E+00 -0.16900752463E+04  0.16900752464E+04  0.50400001928E-02 0. -1.
    10030    2    1    2    0    0  0.00000000000E+00  0.00000000000E+00 -0.13488638789E+04  0.20312866139E+04  0.15187796232E+04 0.  0.
        1    1    3    3  502    0 -0.70704035895E+02 -0.71161535933E+03 -0.33272178277E+03  0.78873269559E+03  0.50400001928E-02 0.  1.
       -1    1    3    3    0  502  0.70704035895E+02  0.71161535933E+03 -0.10161420961E+04  0.12425539183E+04  0.50400001928E-02 0. -1.
</event>
<event>
 5   0  0.1511546E-03  0.1538455E+04  0.7818609E-02  0.8859276E-01
       -2   -1    0    0    0  501  0.00000000000E+00  0.00000000000E+00  0.79005820407E+03  0.79005820407E+03  0.25500000920E-02 0.  1.
        2   -1    0    0  501    0  0.00000000000E+00  0.00000000000E+00 -0.74894597113E+03  0.74894597113E+03  0.25500000920E-02 0. -1.
    10030    2    1    2    0    0  0.00000000000E+00  0.00000000000E+00  0.41112232935E+02  0.15390041752E+04  0.15384549508E+04 0.  0.
        1    1    3    3  502    0  0.15425220806E+03  0.53198952679E+03  0.55451095077E+03  0.78376590565E+03  0.50400001928E-02 0.  1.
       -1    1    3    3    0  502 -0.15425220806E+03 -0.53198952679E+03 -0.51339871783E+03  0.75523826956E+03  0.50400001928E-02 0. -1.
</event>
<event>
 5   0  0.8306301E-04  0.1500447E+04  0.7818609E-02  0.8884156E-01
       -1   -1    0    0    0  501  0.00000000000E+00  0.00000000000E+00  0.75279112534E+03  0.75279112535E+03  0.50400001928E-02 0.  1.
        1   -1    0    0  501    0  0.00000000000E+00  0.00000000000E+00 -0.74766430656E+03  0.74766430657E+03  0.50400001928E-02 0. -1.
    10030    2    1    2    0    0  0.00000000000E+00  0.00000000000E+00  0.51268187793E+01  0.15004554319E+04  0.15004466731E+04 0.  0.
        4    1    3    3  502    0  0.21888271227E+02 -0.45037635832E+03 -0.59703618918E+03  0.74817897902E+03  0.12699999809E+01 0. -1.
       -4    1    3    3    0  502 -0.21888271227E+02  0.45037635832E+03  0.60216300796E+03  0.75227645291E+03  0.12699999809E+01 0.  1.
</event>
<event>
 5   0  0.1526126E-03  0.1499714E+04  0.7818609E-02  0.8884643E-01
       -2   -1    0    0    0  501  0.00000000000E+00  0.00000000000E+00  0.34171433629E+03  0.34171433630E+03  0.25500000920E-02 0.  1.
        2   -1    0    0  501    0  0.00000000000E+00  0.00000000000E+00 -0.16454848122E+04  0.16454848122E+04  0.25500000920E-02 0. -1.
    10030    2    1    2    0    0  0.00000000000E+00  0.00000000000E+00 -0.13037704759E+04  0.19871991485E+04  0.14997143068E+04 0.  0.
        2    1    3    3  502    0 -0.24118176489E+03  0.18369088301E+03  0.25688661147E+03  0.39736848815E+03  0.25500000920E-02 0.  1.
       -2    1    3    3    0  502  0.24118176489E+03 -0.18369088301E+03 -0.15606570874E+04  0.15898306603E+04  0.25500000920E-02 0. -1.
</event>
<event>
 5   0  0.1526126E-03  0.1510370E+04  0.7818609E-02  0.8877586E-01
       -2   -1    0    0    0  501  0.00000000000E+00  0.00000000000E+00  0.31683063445E+03  0.31683063446E+03  0.25500000920E-02 0.  1.
        2   -1    0    0  501    0  0.00000000000E+00  0.00000000000E+00 -0.18000283644E+04  0.18000283644E+04  0.25500000920E-02 0. -1.
    10030    2    1    2    0    0  0.00000000000E+00  0.00000000000E+00 -0.14831977300E+04  0.21168589989E+04  0.15103696617E+04 0.  0.
        2    1    3    3  502    0 -0.22197430381E+03 -0.65560775341E+03 -0.11648809925E+04  0.13550062157E+04  0.25500000920E-02 0. -1.
       -2    1    3    3    0  502  0.22197430381E+03  0.65560775341E+03 -0.31831673745E+03  0.76185278317E+03  0.25500000920E-02 0.  1.
</event>
<event>
 5   0  0.8306301E-04  0.1510282E+04  0.7818609E-02  0.8877644E-01
       -1   -1    0    0    0  501  0.00000000000E+00  0.00000000000E+00  0.73341476858E+03  0.73341476860E+03  0.50400001928E-02 0. -1.
        1   -1    0    0  501    0  0.00000000000E+00  0.00000000000E+00 -0.77751062772E+03  0.77751062773E+03  0.50400001928E-02 0.  1.
    10030    2    1    2    0    0  0.00000000000E+00  0.00000000000E+00 -0.44095859136E+02  0.15109253963E+04  0.15102817977E+04 0.  0.
        4    1    3    3  502    0 -0.22464569560E+03 -0.32667743877E+03  0.62091742083E+03  0.73669796657E+03  0.12699999809E+01 0. -1.
       -4    1    3    3    0  502  0.22464569560E+03  0.32667743877E+03 -0.66501327997E+03  0.77422742976E+03  0.12699999809E+01 0.  1.
</event>
<event>
 5   0  0.8058234E-04  0.1537435E+04  0.7818609E-02  0.8859934E-01
        1   -1    0    0  501    0  0.00000000000E+00  0.00000000000E+00  0.17695334564E+04  0.17695334564E+04  0.50400001928E-02 0. -1.
       -1   -1    0    0    0  501  0.00000000000E+00  0.00000000000E+00 -0.33394489203E+03  0.33394489206E+03  0.50400001928E-02 0.  1.
    10030    2    1    2    0    0  0.00000000000E+00  0.00000000000E+00  0.14355885644E+04  0.21034783485E+04  0.15374350836E+04 0.  0.
        5    1    3    3  502    0  0.96604512834E+01  0.39740381689E+03 -0.18237823018E+03  0.43738658740E+03  0.46999998093E+01 0.  1.
       -5    1    3    3    0  502 -0.96604512834E+01 -0.39740381689E+03  0.16179667946E+04  0.16660917611E+04  0.46999998093E+01 0. -1.
</event>
<event>
 5   0  0.8191876E-04  0.1379096E+04  0.7818609E-02  0.8969091E-01
        1   -1    0    0  501    0  0.00000000000E+00  0.00000000000E+00  0.20898324048E+04  0.20898324048E+04  0.50400001928E-02 0. -1.
       -1   -1    0    0    0  501  0.00000000000E+00  0.00000000000E+00 -0.22751884294E+03  0.22751884300E+03  0.50400001928E-02 0.  1.
    10030    2    1    2    0    0  0.00000000000E+00  0.00000000000E+00  0.18623135618E+04  0.23173512478E+04  0.13790957193E+04 0.  0.
        2    1    3    3  502    0  0.54445060621E+03  0.40335088151E+03  0.71624480043E+03  0.98596400054E+03  0.25500000920E-02 0.  1.
       -2    1    3    3    0  502 -0.54445060621E+03 -0.40335088151E+03  0.11460687614E+04  0.13313872472E+04  0.25500000920E-02 0. -1.
</event>
<event>
 5   0  0.1552067E-03  0.1360172E+04  0.7818609E-02  0.8983164E-01
       -2   -1    0    0    0  501  0.00000000000E+00  0.00000000000E+00  0.94347155212E+03  0.94347155213E+03  0.25500000920E-02 0.  1.
        2   -1    0    0  501    0  0.00000000000E+00  0.00000000000E+00 -0.49022877507E+03  0.49022877507E+03  0.25500000920E-02 0. -1.
    10030    2    1    2    0    0  0.00000000000E+00  0.00000000000E+00  0.45324277706E+03  0.14337003272E+04  0.13601719058E+04 0.  0.
        3    1    3    3  502    0 -0.12026006003E+03  0.48149131571E+03 -0.26351059330E+03  0.56190231547E+03  0.10100000352E+00 0.  1.
       -3    1    3    3    0  502  0.12026006003E+03 -0.48149131571E+03  0.71675337035E+03  0.87179801173E+03  0.10100000352E+00 0. -1.
</event>
<event>
 5   0  0.8191876E-04  0.1509906E+04  0.7818609E-02  0.8877892E-01
        1   -1    0    0  501    0  0.00000000000E+00  0.00000000000E+00  0.88519414013E+03  0.88519414015E+03  0.50400001928E-02 0.  1.
       -1   -1    0    0    0  501  0.00000000000E+00  0.00000000000E+00 -0.64387440523E+03  0.64387440525E+03  0.50400001928E-02 0. -1.
    10030    2    1    2    0    0  0.00000000000E+00  0.00000000000E+00  0.24131973490E+03  0.15290685454E+04  0.15099057593E+04 0.  0.
        2    1    3    3  502    0  0.30402406556E+03 -0.68606712139E+03  0.20438392747E+03  0.77774772086E+03  0.25500000920E-02 0.  1.
       -2    1    3    3    0  502 -0.30402406556E+03  0.68606712139E+03  0.36935807439E+02  0.75132082453E+03  0.25500000920E-02 0. -1.
</event>
<event>
 5   0  0.7870317E-04  0.1492237E+04  0.7818609E-02  0.8889632E-01
        1   -1    0    0  501    0  0.00000000000E+00  0.00000000000E+00  0.55072308262E+03  0.55072308265E+03  0.50400001928E-02 0. -1.
       -1   -1    0    0    0  501  0.00000000000E+00  0.00000000000E+00 -0.10108396720E+04  0.10108396720E+04  0.50400001928E-02 0.  1.
    10030    2    1    2    0    0  0.00000000000E+00  0.00000000000E+00 -0.46011658937E+03  0.15615627546E+04  0.14922368984E+04 0.  0.
        1    1    3    3  502    0 -0.38273870708E+03 -0.99846235877E+02  0.43197366606E+03  0.58571275973E+03  0.50400001928E-02 0. -1.
       -1    1    3    3    0  502  0.38273870708E+03  0.99846235877E+02 -0.89209025543E+03  0.97584999492E+03  0.50400001928E-02 0.  1.
</event>
<event>
 5   0  0.1511546E-03  0.1494336E+04  0.7818609E-02  0.8888228E-01
        2   -1    0    0  501    0  0.00000000000E+00  0.00000000000E+00  0.10227820610E+04  0.10227820610E+04  0.25500000920E-02 0.  1.
       -2   -1    0    0    0  501  0.00000000000E+00  0.00000000000E+00 -0.54582504732E+03  0.54582504732E+03  0.25500000920E-02 0. -1.
    10030    2    1    2    0    0  0.00000000000E+00  0.00000000000E+00  0.47695701367E+03  0.15686071083E+04  0.14943360624E+04 0.  0.
        1    1    3    3  502    0  0.62435918444E+02  0.57185614763E+03 -0.26202381021E+03  0.63211879788E+03  0.50400001928E-02 0. -1.
       -1    1    3    3    0  502 -0.62435918444E+02 -0.57185614763E+03  0.73898082388E+03  0.93648831043E+03  0.50400001928E-02 0.  1.
</event>
<event>
 5   0  0.5603875E-04  0.1510872E+04  0.7818609E-02  0.8877255E-01
       -3   -1    0    0    0  501  0.00000000000E+00  0.00000000000E+00  0.70414223013E+03  0.70414223737E+03  0.10100000352E+00 0.  1.
        3   -1    0    0  501    0  0.00000000000E+00  0.00000000000E+00 -0.81046677962E+03  0.81046678592E+03  0.10100000352E+00 0. -1.
    10030    2    1    2    0    0  0.00000000000E+00  0.00000000000E+00 -0.10632454950E+03  0.15146090233E+04  0.15108724578E+04 0.  0.
        2    1    3    3  502    0 -0.29276056338E+03  0.61389250026E+03  0.27645348790E+03  0.73416570359E+03  0.25500000920E-02 0.  1.
       -2    1    3    3    0  502  0.29276056338E+03 -0.61389250026E+03 -0.38277803740E+03  0.78044331970E+03  0.25500000920E-02 0. -1.
</event>
<event>
 5   0  0.8058234E-04  0.1506006E+04  0.7818609E-02  0.8880469E-01
       -1   -1    0    0    0  501  0.00000000000E+00  0.00000000000E+00  0.57299839940E+03  0.57299839942E+03  0.50400001928E-02 0. -1.
        1   -1    0    0  501    0  0.00000000000E+00  0.00000000000E+00 -0.98955495025E+03  0.98955495026E+03  0.50400001928E-02 0.  1.
    10030    2    1    2    0    0  0.00000000000E+00  0.00000000000E+00 -0.41655655085E+03  0.15625533497E+04  0.15060058468E+04 0.  0.
        5    1    3    3  502    0 -0.72831532456E+03  0.11559081698E+02 -0.10287342521E+02  0.72849484815E+03  0.46999998093E+01 0. -1.
       -5    1    3    3    0  502  0.72831532456E+03 -0.11559081698E+02 -0.40626920833E+03  0.83405850154E+03  0.46999998093E+01 0.  1.
</event>
<event>
 5   0  0.1526126E-03  0.1560847E+04  0.7818609E-02  0.8844969E-01
       -2   -1    0    0    0  501  0.00000000000E+00  0.00000000000E+00  0.55235876495E+03  0.55235876496E+03  0.25500000920E-02 0.  1.
        2   -1    0    0  501    0  0.00000000000E+00  0.00000000000E+00 -0.11026542686E+04  0.11026542686E+04  0.25500000920E-02 0. -1.
    10030    2    1    2    0    0  0.00000000000E+00  0.00000000000E+00 -0.55029550365E+03  0.16550130336E+04  0.15608468855E+04 0.  0.
        2    1    3    3  502    0  0.42664433993E+03 -0.37468564404E+03 -0.84284145651E+03  0.10162659325E+04  0.25500000920E-02 0. -1.
       -2    1    3    3    0  502 -0.42664433993E+03  0.37468564404E+03  0.29254595286E+03  0.63874710111E+03  0.25500000920E-02 0.  1.
</event>
<event>
 5   0  0.1526126E-03  0.1524921E+04  0.7818609E-02  0.8868048E-01
        2   -1    0    0  501    0  0.00000000000E+00  0.00000000000E+00  0.17201291694E+04  0.17201291694E+04  0.25500000920E-02 0.  1.
       -2   -1    0    0    0  501  0.00000000000E+00  0.00000000000E+00 -0.33796638842E+03  0.33796638843E+03  0.25500000920E-02 0. -1.
    10030    2    1    2    0    0  0.00000000000E+00  0.00000000000E+00  0.13821627809E+04  0.20580955578E+04  0.15249207756E+04 0.  0.
        2    1    3    3  502    0  0.69999065172E+03 -0.22042572433E+03  0.41195870042E+03  0.84159633038E+03  0.25500000920E-02 0. -1.
       -2    1    3    3    0  502 -0.69999065172E+03  0.22042572433E+03  0.97020408051E+03  0.12164992274E+04  0.25500000920E-02 0.  1.
</event>
<event>
 5   0  0.8365016E-04  0.1543464E+04  0.7818609E-02  0.8856054E-01
        1   -1    0    0  501    0  0.00000000000E+00  0.00000000000E+00  0.11522153402E+04  0.11522153402E+04  0.50400001928E-02 0.  1.
       -1   -1    0    0    0  501  0.00000000000E+00  0.00000000000E+00 -0.51689114207E+03  0.51689114209E+03  0.50400001928E-02 0. -1.
    10030    2    1    2    0    0  0.00000000000E+00  0.00000000000E+00  0.63532419813E+03  0.16691064823E+04  0.15434635119E+04 0.  0.
        3    1    3    3  502    0 -0.63265496147E+03 -0.11580101230E+03  0.77888752426E+03  0.10101128454E+04  0.10100000352E+00 0.  1.
       -3    1    3    3    0  502  0.63265496147E+03  0.11580101230E+03 -0.14356332613E+03  0.65899363694E+03  0.10100000352E+00 0. -1.
</event>
<event>
 5   0  0.1484056E-03  0.1510504E+04  0.7818609E-02  0.8877498E-01
        2   -1    0    0  501    0  0.00000000000E+00  0.00000000000E+00  0.11795327991E+04  0.11795327991E+04  0.25500000920E-02 0.  1.
       -2   -1    0    0    0  501  0.00000000000E+00  0.00000000000E+00 -0.48358617769E+03  0.48358617770E+03  0.25500000920E-02 0. -1.
    10030    2    1    2    0    0  0.00000000000E+00  0.00000000000E+00  0.69594662144E+03  0.16631189768E+04  0.15105042308E+04 0.  0.
        5    1    3    3  502    0 -0.68300804798E+03 -0.15132075851E+03  0.66130588674E+03  0.96267623394E+03  0.46999998093E+01 0.  1.
       -5    1    3    3    0  502  0.68300804798E+03  0.15132075851E+03  0.34640734701E+02  0.70044274289E+03  0.46999998093E+01 0. -1.
</event>
<event>
 5   0  0.8306301E-04  0.1535799E+04  0.7818609E-02  0.8860990E-01
        1   -1    0    0  501    0  0.00000000000E+00  0.00000000000E+00  0.10865379650E+04  0.10865379650E+04  0.50400001928E-02 0.  1.
       -1   -1    0    0    0  501  0.00000000000E+00  0.00000000000E+00 -0.54270539639E+03  0.54270539641E+03  0.50400001928E-02 0. -1.
    10030    2    1    2    0    0  0.00000000000E+00  0.00000000000E+00  0.54383256864E+03  0.16292433615E+04  0.15357994883E+04 0.  0.
        4    1    3    3  502    0  0.24448028274E+03 -0.63512216467E+03 -0.10541860928E+03  0.68866934648E+03  0.12699999809E+01 0. -1.
       -4    1    3    3    0  502 -0.24448028274E+03  0.63512216467E+03  0.64925117792E+03  0.94057401497E+03  0.12699999809E+01 0.  1.
</event>
<event>
 5   0  0.1526126E-03  0.1501325E+04  0.7818609E-02  0.8883572E-01
       -2   -1    0    0    0  501  0.00000000000E+00  0.00000000000E+00  0.34065714239E+03  0.34065714240E+03  0.25500000920E-02 0.  1.
        2   -1    0    0  501    0  0.00000000000E+00  0.00000000000E+00 -0.16541385148E+04  0.16541385148E+04  0.25500000920E-02 0. -1.
    10030    2    1    2    0    0  0.00000000000E+00  0.00000000000E+00 -0.13134813725E+04  0.19947956572E+04  0.15013248810E+04 0.  0.
        2    1    3    3  502    0 -0.41660552867E+03 -0.55689928779E+03 -0.28140718451E+03  0.75025794681E+03  0.25500000920E-02 0.  1.
       -2    1    3    3    0  502  0.41660552867E+03  0.55689928779E+03 -0.10320741879E+04  0.12445377104E+04  0.25500000920E-02 0. -1.
</event>
<event>
 5   0  0.8058234E-04  0.1496131E+04  0.7818609E-02  0.8887030E-01
       -1   -1    0    0    0  501  0.00000000000E+00  0.00000000000E+00  0.93127202341E+03  0.93127202342E+03  0.50400001928E-02 0.  1.
        1   -1    0    0  501    0  0.00000000000E+00  0.00000000000E+00 -0.60090089396E+03  0.60090089399E+03  0.50400001928E-02 0. -1.
    10030    2    1    2    0    0  0.00000000000E+00  0.00000000000E+00  0.33037112944E+03  0.15321729174E+04  0.14961312662E+04 0.  0.
        5    1    3    3  502    0  0.42490651422E+03  0.37906497875E+03 -0.33162397020E+03  0.65896308816E+03  0.46999998093E+01 0. -1.
       -5    1    3    3    0  502 -0.42490651422E+03 -0.37906497875E+03  0.66199509965E+03  0.87320982925E+03  0.46999998093E+01 0.  1.
</event>
<event>
 5   0  0.5603875E-04  0.1488327E+04  0.7818609E-02  0.8892253E-01
        3   -1    0    0  501    0  0.00000000000E+00  0.00000000000E+00  0.65785539512E+03  0.65785540287E+03  0.10100000352E+00 0.  1.
       -3   -1    0    0    0  501  0.00000000000E+00  0.00000000000E+00 -0.84179499937E+03  0.84179500543E+03  0.10100000352E+00 0. -1.
    10030    2    1    2    0    0  0.00000000000E+00  0.00000000000E+00 -0.18393960426E+03  0.14996504083E+04  0.14883271042E+04 0.  0.
        2    1    3    3  502    0  0.13906260884E+03  0.53714137288E+03  0.40770641373E+03  0.68853742342E+03  0.25500000920E-02 0. -1.
       -2    1    3    3    0  502 -0.13906260884E+03 -0.53714137288E+03 -0.59164601799E+03  0.81111298488E+03  0.25500000920E-02 0.  1.
</event>
<event>
 5   0  0.8191876E-04  0.1236619E+04  0.7818609E-02  0.9081395E-01
        1   -1    0    0  501    0  0.00000000000E+00  0.00000000000E+00  0.11772277962E+04  0.11772277962E+04  0.50400001928E-02 0. -1.
       -1   -1    0    0    0  501  0.00000000000E+00  0.00000000000E+00 -0.32475147117E+03  0.32475147121E+03  0.50400001928E-02 0.  1.
    10030    2    1    2    0    0  0.00000000000E+00  0.00000000000E+00  0.85247632498E+03  0.15019792674E+04  0.12366187104E+04 0.  0.
        2    1    3    3  502    0  0.27502996219E+03  0.70221487926E+02  0.10934138212E+04  0.11296576127E+04  0.25500000920E-02 0. -1.
       -2    1    3    3    0  502 -0.27502996219E+03 -0.70221487926E+02 -0.24093749622E+03  0.37232165470E+03  0.25500000920E-02 0.  1.
</event>
<event>
 5   0  0.8058234E-04  0.1494968E+04  0.7818609E-02  0.8887806E-01
       -1   -1    0    0    0  501  0.00000000000E+00  0.00000000000E+00  0.44718008103E+03  0.44718008106E+03  0.50400001928E-02 0. -1.
        1   -1    0    0  501    0  0.00000000000E+00  0.00000000000E+00 -0.12494576649E+04  0.12494576649E+04  0.50400001928E-02 0.  1.
    10030    2    1    2    0    0  0.00000000000E+00  0.00000000000E+00 -0.80227758385E+03  0.16966377460E+04  0.14949683339E+04 0.  0.
        5    1    3    3  502    0  0.10550519896E+03 -0.20432473488E+03  0.40602125493E+03  0.46664257601E+03  0.46999998093E+01 0. -1.
       -5    1    3    3    0  502 -0.10550519896E+03  0.20432473488E+03 -0.12082988388E+04  0.12299951699E+04  0.46999998093E+01 0.  1.
</event>
<event>
 5   0  0.1526126E-03  0.1431979E+04  0.7818609E-02  0.8930990E-01
        2   -1    0    0  501    0  0.00000000000E+00  0.00000000000E+00  0.91942082071E+03  0.91942082071E+03  0.25500000920E-02 0. -1.
       -2   -1    0    0    0  501  0.00000000000E+00  0.00000000000E+00 -0.55756961859E+03  0.55756961860E+03  0.25500000920E-02 0.  1.
    10030    2    1    2    0    0  0.00000000000E+00  0.00000000000E+00  0.36185120212E+03  0.14769904393E+04  0.14319792126E+04 0.  0.
        2    1    3    3  502    0  0.19145514769E+03  0.37098741152E+03 -0.41904072269E+03  0.59150812366E+03  0.25500000920E-02 0.  1.
       -2    1    3    3    0  502 -0.19145514769E+03 -0.37098741152E+03  0.78089192481E+03  0.88548231564E+03  0.25500000920E-02 0. -1.
</event>
<event>
 5   0  0.1526126E-03  0.1491833E+04  0.7818609E-02  0.8889902E-01
        2   -1    0    0  501    0  0.00000000000E+00  0.00000000000E+00  0.13550895123E+04  0.13550895123E+04  0.25500000920E-02 0. -1.
       -2   -1    0    0    0  501  0.00000000000E+00  0.00000000000E+00 -0.41059410774E+03  0.41059410775E+03  0.25500000920E-02 0.  1.
    10030    2    1    2    0    0  0.00000000000E+00  0.00000000000E+00  0.94449540458E+03  0.17656836201E+04  0.14918334615E+04 0.  0.
        2    1    3    3  502    0  0.36508307431E+03  0.37242836171E+03 -0.15894186063E+03  0.54520734663E+03  0.25500000920E-02 0.  1.
       -2    1    3    3    0  502 -0.36508307431E+03 -0.37242836171E+03  0.11034372652E+04  0.12204762734E+04  0.25500000920E-02 0. -1.
</event>
<event>
 5   0  0.8306301E-04  0.1485635E+04  0.7818609E-02  0.8894062E-01
        1   -1    0    0  501    0  0.00000000000E+00  0.00000000000E+00  0.14775686382E+04  0.14775686383E+04  0.50400001928E-02 0. -1.
       -1   -1    0    0    0  501  0.00000000000E+00  0.00000000000E+00 -0.37343631877E+03  0.37343631881E+03  0.50400001928E-02 0.  1.
    10030    2    1    2    0    0  0.00000000000E+00  0.00000000000E+00  0.11041323195E+04  0.18510049571E+04  0.14856349391E+04 0.  0.
        4    1    3    3  502    0 -0.70452993996E+03 -0.22894382380E+03  0.48384088603E+03  0.88480581297E+03  0.12699999809E+01 0.  1.
       -4    1    3    3    0  502  0.70452993996E+03  0.22894382380E+03  0.62029143344E+03  0.96619914410E+03  0.12699999809E+01 0. -1.
</event>
<event>
 5   0  0.1500956E-03  0.1315502E+04  0.7818609E-02  0.9017362E-01
        2   -1    0    0  501    0  0.00000000000E+00  0.00000000000E+00  0.13576530907E+04  0.13576530907E+04  0.25500000920E-02 0.  1.
       -2   -1    0    0    0  501  0.00000000000E+00  0.00000000000E+00 -0.31866467024E+03  0.31866467025E+03  0.25500000920E-02 0. -1.
    10030    2    1    2    0    0  0.00000000000E+00  0.00000000000E+00  0.10389884204E+04  0.16763177609E+04  0.13155015385E+04 0.  0.
        4    1    3    3  502    0 -0.32795226384E+03  0.17037282582E+03  0.12128419340E+04  0.12678985594E+04  0.12699999809E+01 0.  1.
       -4    1    3    3    0  502  0.32795226384E+03 -0.17037282582E+03 -0.17385351354E+03  0.40841920156E+03  0.12699999809E+01 0. -1.
</event>
<event>
 5   0  0.5603875E-04  0.1408747E+04  0.7818609E-02  0.8947512E-01
       -3   -1    0    0    0  501  0.00000000000E+00  0.00000000000E+00  0.16597617768E+03  0.16597620841E+03  0.10100000352E+00 0.  1.
        3   -1    0    0  501    0  0.00000000000E+00  0.00000000000E+00 -0.29892342035E+04  0.29892342052E+04  0.10100000352E+00 0. -1.
    10030    2    1    2    0    0  0.00000000000E+00  0.00000000000E+00 -0.28232580258E+04  0.31552104136E+04  0.14087465612E+04 0.  0.
        1    1    3    3  502    0 -0.63566844026E+03  0.25501429296E+03 -0.17798929142E+04  0.19071249150E+04  0.50400001928E-02 0.  1.
       -1    1    3    3    0  502  0.63566844026E+03 -0.25501429296E+03 -0.10433651116E+04  0.12480854986E+04  0.50400001928E-02 0. -1.
</event>
<event>
 5   0  0.5603875E-04  0.1497162E+04  0.7818609E-02  0.8886342E-01
        3   -1    0    0  501    0  0.00000000000E+00  0.00000000000E+00  0.16701777853E+04  0.16701777883E+04  0.10100000352E+00 0. -1.
       -3   -1    0    0    0  501  0.00000000000E+00  0.00000000000E+00 -0.33551749240E+03  0.33551750760E+03  0.10100000352E+00 0.  1.
    10030    2    1    2    0    0  0.00000000000E+00  0.00000000000E+00  0.13346602929E+04  0.20056952959E+04  0.14971624904E+04 0.  0.
        2    1    3    3  502    0  0.19400599103E+03  0.13286981773E+03 -0.28475678938E+03  0.36929546724E+03  0.25500000920E-02 0.  1.
       -2    1    3    3    0  502 -0.19400599103E+03 -0.13286981773E+03  0.16194170823E+04  0.16363998287E+04  0.25500000920E-02 0. -1.
</event>
<event>
 5   0  0.8365016E-04  0.1672328E+04  0.7818609E-02  0.8777306E-01
       -1   -1    0    0    0  501  0.00000000000E+00  0.00000000000E+00  0.63424783568E+03  0.63424783570E+03  0.50400001928E-02 0. -1.
        1   -1    0    0  501    0  0.00000000000E+00  0.00000000000E+00 -0.11023617484E+04  0.11023617484E+04  0.50400001928E-02 0.  1.
    10030    2    1    2    0    0  0.00000000000E+00  0.00000000000E+00 -0.46811391270E+03  0.17366095841E+04  0.16723283805E+04 0.  0.
        3    1    3    3  502    0  0.12622500789E+03 -0.40741209007E+03  0.51279103570E+03  0.66698727143E+03  0.10100000352E+00 0. -1.
       -3    1    3    3    0  502 -0.12622500789E+03  0.40741209007E+03 -0.98090494840E+03  0.10696223127E+04  0.10100000352E+00 0.  1.
</event>
<event>
 5   0  0.1526126E-03  0.1343518E+04  0.7818609E-02  0.8995749E-01
        2   -1    0    0  501    0  0.00000000000E+00  0.00000000000E+00  0.10983991251E+04  0.10983991251E+04  0.25500000920E-02 0. -1.
       -2   -1    0    0    0  501  0.00000000000E+00  0.00000000000E+00 -0.41083444922E+03  0.41083444923E+03  0.25500000920E-02 0.  1.
    10030    2    1    2    0    0  0.00000000000E+00  0.00000000000E+00  0.68756467586E+03  0.15092335743E+04  0.13435180677E+04 0.  0.
        2    1    3    3  502    0 -0.35096377468E+03 -0.32303820141E+03 -0.18756190447E+03  0.51255118644E+03  0.25500000920E-02 0.  1.
       -2    1    3    3    0  502  0.35096377468E+03  0.32303820141E+03  0.87512658033E+03  0.99668238788E+03  0.25500000920E-02 0. -1.
</event>
<event>
 5   0  0.7870317E-04  0.1481977E+04  0.7818609E-02  0.8896527E-01
       -1   -1    0    0    0  501  0.00000000000E+00  0.00000000000E+00  0.36605216128E+03  0.36605216131E+03  0.50400001928E-02 0. -1.
        1   -1    0    0  501    0  0.00000000000E+00  0.00000000000E+00 -0.14999617888E+04  0.14999617888E+04  0.50400001928E-02 0.  1.
    10030    2    1    2    0    0  0.00000000000E+00  0.00000000000E+00 -0.11339096276E+04  0.18660139502E+04  0.14819774016E+04 0.  0.
        1    1    3    3  502    0 -0.40954852428E+03 -0.56302758339E+03 -0.24758470837E+03  0.73893723769E+03  0.50400001928E-02 0. -1.
       -1    1    3    3    0  502  0.40954852428E+03  0.56302758339E+03 -0.88632491919E+03  0.11270767125E+04  0.50400001928E-02 0.  1.
</event>
<event>
 5   0  0.1526126E-03  0.1483796E+04  0.7818609E-02  0.8895301E-01
       -2   -1    0    0    0  501  0.00000000000E+00  0.00000000000E+00  0.36857232222E+03  0.36857232223E+03  0.25500000920E-02 0.  1.
        2   -1    0    0  501    0  0.00000000000E+00  0.00000000000E+00 -0.14933631264E+04  0.14933631264E+04  0.25500000920E-02 0. -1.
    10030    2    1    2    0    0  0.00000000000E+00  0.00000000000E+00 -0.11247908042E+04  0.18619354487E+04  0.14837955593E+04 0.  0.
        2    1    3    3  502    0 -0.55008933685E+03 -0.23867215845E+03 -0.11105918578E+04  0.12621319076E+04  0.25500000920E-02 0. -1.
       -2    1    3    3    0  502  0.55008933685E+03  0.23867215845E+03 -0.14198946451E+02  0.59980354102E+03  0.25500000920E-02 0.  1.
</event>
<event>
 5   0  0.1526126E-03  0.1506256E+04  0.7818609E-02  0.8880303E-01
       -2   -1    0    0    0  501  0.00000000000E+00  0.00000000000E+00  0.24096642457E+03  0.24096642458E+03  0.25500000920E-02 0. -1.
        2   -1    0    0  501    0  0.00000000000E+00  0.00000000000E+00 -0.23538637803E+04  0.23538637803E+04  0.25500000920E-02 0.  1.
    10030    2    1    2    0    0  0.00000000000E+00  0.00000000000E+00 -0.21128973558E+04  0.25948302049E+04  0.15062564710E+04 0.  0.
        2    1    3    3  502    0 -0.19353545700E+03 -0.79801986941E+02 -0.23027345483E+04  0.23122306828E+04  0.25500000920E-02 0.  1.
       -2    1    3    3    0  502  0.19353545700E+03  0.79801986941E+02  0.18983719256E+03  0.28259952216E+03  0.25500000920E-02 0. -1.
</event>
<event>
 5   0  0.8365016E-04  0.1497741E+04  0.7818609E-02  0.8885956E-01
        1   -1    0    0  501    0  0.00000000000E+00  0.00000000000E+00  0.65725266886E+03  0.65725266888E+03  0.50400001928E-02 0.  1.
       -1   -1    0    0    0  501  0.00000000000E+00  0.00000000000E+00 -0.85325951739E+03  0.85325951740E+03  0.50400001928E-02 0. -1.
    10030    2    1    2    0    0  0.00000000000E+00  0.00000000000E+00 -0.19600684852E+03  0.15105121863E+04  0.14977410925E+04 0.  0.
        3    1    3    3  502    0  0.56947652346E+03 -0.48231022622E+03 -0.16082760620E+03  0.76340827491E+03  0.10100000352E+00 0. -1.
       -3    1    3    3    0  502 -0.56947652346E+03  0.48231022622E+03 -0.35179242326E+02  0.74710391137E+03  0.10100000352E+00 0.  1.
</event>
<event>
 5   0  0.7870317E-04  0.1538578E+04  0.7818609E-02  0.8859197E-01
       -1   -1    0    0    0  501  0.00000000000E+00  0.00000000000E+00  0.34401777135E+03  0.34401777139E+03  0.50400001928E-02 0. -1.
        1   -1    0    0  501    0  0.00000000000E+00  0.00000000000E+00 -0.17202763972E+04  0.17202763972E+04  0.50400001928E-02 0.  1.
    10030    2    1    2    0    0  0.00000000000E+00  0.00000000000E+00 -0.13762586258E+04  0.20642941686E+04  0.15385781128E+04 0.  0.
        1    1    3    3  502    0  0.40776098868E+03  0.25416549245E+03 -0.14941894713E+04  0.15695449333E+04  0.50400001928E-02 0.  1.
       -1    1    3    3    0  502 -0.40776098868E+03 -0.25416549245E+03  0.11793084550E+03  0.49474923526E+03  0.50400001928E-02 0. -1.
</event>
<event>
 5   0  0.8365016E-04  0.1516608E+04  0.7818609E-02  0.8873483E-01
       -1   -1    0    0    0  501  0.00000000000E+00  0.00000000000E+00  0.55127790274E+03  0.55127790276E+03  0.50400001928E-02 0.  1.
        1   -1    0    0  501    0  0.00000000000E+00  0.00000000000E+00 -0.10430767955E+04  0.10430767955E+04  0.50400001928E-02 0. -1.
    10030    2    1    2    0    0  0.00000000000E+00  0.00000000000E+00 -0.49179889280E+03  0.15943546983E+04  0.15166083057E+04 0.  0.
        3    1    3    3  502    0 -0.23166799217E+03 -0.57423430189E+03 -0.70607198575E+03  0.93912339515E+03  0.10100000352E+00 0. -1.
       -3    1    3    3    0  502  0.23166799217E+03  0.57423430189E+03  0.21427309295E+03  0.65523130315E+03  0.10100000352E+00 0.  1.
</event>
<event>
 5   0  0.5603875E-04  0.1486142E+04  0.7818609E-02  0.8893721E-01
        3   -1    0    0  501    0  0.00000000000E+00  0.00000000000E+00  0.58228013567E+03  0.58228014443E+03  0.10100000352E+00 0.  1.
       -3   -1    0    0    0  501  0.00000000000E+00  0.00000000000E+00 -0.94826288955E+03  0.94826289493E+03  0.10100000352E+00 0. -1.
    10030    2    1    2    0    0  0.00000000000E+00  0.00000000000E+00 -0.36598275389E+03  0.15305430394E+04  0.14861421935E+04 0.  0.
        4    1    3    3  502    0  0.54392945652E+03  0.47794121252E+03 -0.11072966807E+02  0.72416246781E+03  0.12699999809E+01 0.  1.
       -4    1    3    3    0  502 -0.54392945652E+03 -0.47794121252E+03 -0.35490978708E+03  0.80638057154E+03  0.12699999809E+01 0. -1.
</event>
<event>
 5   0  0.8306301E-04  0.1478736E+04  0.7818609E-02  0.8898718E-01
       -1   -1    0    0    0  501  0.00000000000E+00  0.00000000000E+00  0.82976254872E+03  0.82976254874E+03  0.50400001928E-02 0. -1.
        1   -1    0    0  501    0  0.00000000000E+00  0.00000000000E+00 -0.65882102582E+03  0.65882102584E+03  0.50400001928E-02 0.  1.
    10030    2    1    2    0    0  0.00000000000E+00  0.00000000000E+00  0.17094152290E+03  0.14885835746E+04  0.14787359650E+04 0.  0.
        4    1    3    3  502    0 -0.77281369254E+02 -0.17413208199E+03 -0.63368793115E+03  0.66170718524E+03  0.12699999809E+01 0.  1.
       -4    1    3    3    0  502  0.77281369254E+02  0.17413208199E+03  0.80462945405E+03  0.82687638934E+03  0.12699999809E+01 0. -1.
</event>
<event>
 5   0  0.8306301E-04  0.1522005E+04  0.7818609E-02  0.8869951E-01
       -1   -1    0    0    0  501  0.00000000000E+00  0.00000000000E+00  0.78351264584E+03  0.78351264585E+03  0.50400001928E-02 0. -1.
        1   -1    0    0  501    0  0.00000000000E+00  0.00000000000E+00 -0.73913873111E+03  0.73913873113E+03  0.50400001928E-02 0.  1.
    10030    2    1    2    0    0  0.00000000000E+00  0.00000000000E+00  0.44373914723E+02  0.15226513770E+04  0.15220046556E+04 0.  0.
        4    1    3    3  502    0 -0.61734098580E+03 -0.26519405829E+03 -0.33529546487E+03  0.75090774597E+03  0.12699999809E+01 0.  1.
       -4    1    3    3    0  502  0.61734098580E+03  0.26519405829E+03  0.37966937960E+03  0.77174363101E+03  0.12699999809E+01 0. -1.
</event>
<event>
 5   0  0.1511546E-03  0.1016272E+04  0.7818609E-02  0.9290876E-01
       -2   -1    0    0    0  501  0.00000000000E+00  0.00000000000E+00  0.31019294405E+03  0.31019294406E+03  0.25500000920E-02 0. -1.
        2   -1    0    0  501    0  0.00000000000E+00  0.00000000000E+00 -0.83239263054E+03  0.83239263055E+03  0.25500000920E-02 0.  1.
    10030    2    1    2    0    0  0.00000000000E+00  0.00000000000E+00 -0.52219968650E+03  0.11425855746E+04  0.10162722483E+04 0.  0.
        1    1    3    3  502    0 -0.42110462931E+03 -0.28254067175E+03 -0.29742645489E+03  0.58789525948E+03  0.50400001928E-02 0.  1.
       -1    1    3    3    0  502  0.42110462931E+03  0.28254067175E+03 -0.22477323161E+03  0.55469031513E+03  0.50400001928E-02 0. -1.
</event>
<event>
 5   0  0.1552067E-03  0.1558228E+04  0.7818609E-02  0.8846629E-01
        2   -1    0    0  501    0  0.00000000000E+00  0.00000000000E+00  0.21853377618E+04  0.21853377618E+04  0.25500000920E-02 0.  1.
       -2   -1    0    0    0  501  0.00000000000E+00  0.00000000000E+00 -0.27776879910E+03  0.27776879911E+03  0.25500000920E-02 0. -1.
    10030    2    1    2    0    0  0.00000000000E+00  0.00000000000E+00  0.19075689627E+04  0.24631065609E+04  0.15582280266E+04 0.  0.
        3    1    3    3  502    0 -0.34579972514E+01  0.52697295922E+03  0.46690826827E+02  0.52904867546E+03  0.10100000352E+00 0. -1.
       -3    1    3    3    0  502  0.34579972514E+01 -0.52697295922E+03  0.18608781358E+04  0.19340578854E+04  0.10100000352E+00 0.  1.
</event>
<event>
 5   0  0.5603875E-04  0.1478568E+04  0.7818609E-02  0.8898831E-01
        3   -1    0    0  501    0  0.00000000000E+00  0.00000000000E+00  0.90782192972E+03  0.90782193534E+03  0.10100000352E+00 0. -1.
       -3   -1    0    0    0  501  0.00000000000E+00  0.00000000000E+00 -0.60203533491E+03  0.60203534339E+03  0.10100000352E+00 0.  1.
    10030    2    1    2    0    0  0.00000000000E+00  0.00000000000E+00  0.30578659480E+03  0.15098572787E+04  0.14785680778E+04 0.  0.
        2    1    3    3  502    0 -0.46552907165E+03  0.55324358701E+03 -0.44620974191E+01  0.72305995148E+03  0.25500000920E-02 0.  1.
       -2    1    3    3    0  502  0.46552907165E+03 -0.55324358701E+03  0.31024869222E+03  0.78679732724E+03  0.25500000920E-02 0. -1.
</event>
<event>
 5   0  0.1526126E-03  0.1497694E+04  0.7818609E-02  0.8885988E-01
       -2   -1    0    0    0  501  0.00000000000E+00  0.00000000000E+00  0.45203427998E+03  0.45203427999E+03  0.25500000920E-02 0.  1.
        2   -1    0    0  501    0  0.00000000000E+00  0.00000000000E+00 -0.12405520729E+04  0.12405520729E+04  0.25500000920E-02 0. -1.
    10030    2    1    2    0    0  0.00000000000E+00  0.00000000000E+00 -0.78851779294E+03  0.16925863529E+04  0.14976943120E+04 0.  0.
        2    1    3    3  502    0 -0.68630318426E+03  0.26672381097E+03 -0.54846407592E+03  0.91813206820E+03  0.25500000920E-02 0. -1.
       -2    1    3    3    0  502  0.68630318426E+03 -0.26672381097E+03 -0.24005371702E+03  0.77445428472E+03  0.25500000920E-02 0.  1.
</event>
<event>
 5   0  0.1500956E-03  0.1494410E+04  0.7818609E-02  0.8888179E-01
       -2   -1    0    0    0  501  0.00000000000E+00  0.00000000000E+00  0.84537494592E+03  0.84537494592E+03  0.25500000920E-02 0. -1.
        2   -1    0    0  501    0  0.00000000000E+00  0.00000000000E+00 -0.66043509512E+03  0.66043509513E+03  0.25500000920E-02 0.  1.
    10030    2    1    2    0    0  0.00000000000E+00  0.00000000000E+00  0.18493985080E+03  0.15058100410E+04  0.14944099609E+04 0.  0.
        4    1    3    3  502    0  0.23399736814E+03  0.22096057965E+03 -0.58701492909E+03  0.66945237764E+03  0.12699999809E+01 0.  1.
       -4    1    3    3    0  502 -0.23399736814E+03 -0.22096057965E+03  0.77195477988E+03  0.83635766341E+03  0.12699999809E+01 0. -1.
</event>
<event>
 5   0  0.8306301E-04  0.1544808E+04  0.7818609E-02  0.8855191E-01
       -1   -1    0    0    0  501  0.00000000000E+00  0.00000000000E+00  0.13457729252E+04  0.13457729252E+04  0.50400001928E-02 0. -1.
        1   -1    0    0  501    0  0.00000000000E+00  0.00000000000E+00 -0.44331968117E+03  0.44331968120E+03  0.50400001928E-02 0.  1.
    10030    2    1    2    0    0  0.00000000000E+00  0.00000000000E+00  0.90245324407E+03  0.17890926064E+04  0.15448075921E+04 0.  0.
        4    1    3    3  502    0  0.63974474473E+03  0.22700480631E+03  0.87801314273E+03  0.11098257576E+04  0.12699999809E+01 0. -1.
       -4    1    3    3    0  502 -0.63974474473E+03 -0.22700480631E+03  0.24440101335E+02  0.67926684886E+03  0.12699999809E+01 0.  1.
</event>
<event>
 5   0  0.1484056E-03  0.1497656E+04  0.7818609E-02  0.8886013E-01
       -2   -1    0    0    0  501  0.00000000000E+00  0.00000000000E+00  0.72641133614E+03  0.72641133614E+03  0.25500000920E-02 0.  1.
        2   -1    0    0  501    0  0.00000000000E+00  0.00000000000E+00 -0.77193593613E+03  0.77193593614E+03  0.25500000920E-02 0. -1.
    10030    2    1    2    0    0  0.00000000000E+00  0.00000000000E+00 -0.45524599997E+02  0.14983472723E+04  0.14976555209E+04 0.  0.
        5    1    3    3  502    0 -0.83331909035E+02  0.23632891162E+03 -0.72872649351E+03  0.77062309456E+03  0.46999998093E+01 0. -1.
       -5    1    3    3    0  502  0.83331909035E+02 -0.23632891162E+03  0.68320189351E+03  0.72772417771E+03  0.46999998093E+01 0.  1.
</event>
<event>
 5   0  0.1552067E-03  0.1486229E+04  0.7818609E-02  0.8893662E-01
        2   -1    0    0  501    0  0.00000000000E+00  0.00000000000E+00  0.12168521552E+04  0.12168521552E+04  0.25500000920E-02 0. -1.
       -2   -1    0    0    0  501  0.00000000000E+00  0.00000000000E+00 -0.45380961146E+03  0.45380961146E+03  0.25500000920E-02 0.  1.
    10030    2    1    2    0    0  0.00000000000E+00  0.00000000000E+00  0.76304254377E+03  0.16706617667E+04  0.14862290588E+04 0.  0.
        3    1    3    3  502    0  0.11495359305E+03 -0.25154335600E+02  0.12063125656E+04  0.12120384009E+04  0.10100000352E+00 0. -1.
       -3    1    3    3    0  502 -0.11495359305E+03  0.25154335600E+02 -0.44327002185E+03  0.45862336576E+03  0.10100000352E+00 0.  1.
</event>
<event>
 5   0  0.8306301E-04  0.1520622E+04  0.7818609E-02  0.8870854E-01
       -1   -1    0    0    0  501  0.00000000000E+00  0.00000000000E+00  0.31055132098E+03  0.31055132103E+03  0.50400001928E-02 0. -1.
        1   -1    0    0  501    0  0.00000000000E+00  0.00000000000E+00 -0.18614410962E+04  0.18614410962E+04  0.50400001928E-02 0.  1.
    10030    2    1    2    0    0  0.00000000000E+00  0.00000000000E+00 -0.15508897752E+04  0.21719924172E+04  0.15206222298E+04 0.  0.
        4    1    3    3  502    0  0.20294807578E+03 -0.45742043408E+03 -0.15930471003E+04  0.16697970091E+04  0.12699999809E+01 0.  1.
       -4    1    3    3    0  502 -0.20294807578E+03  0.45742043408E+03  0.42157325081E+02  0.50219540812E+03  0.12699999809E+01 0. -1.
</event>
<event>
 5   0  0.8365016E-04  0.1496019E+04  0.7818609E-02  0.8887104E-01
       -1   -1    0    0    0  501  0.00000000000E+00  0.00000000000E+00  0.37487201913E+03  0.37487201917E+03  0.50400001928E-02 0. -1.
        1   -1    0    0  501    0  0.00000000000E+00  0.00000000000E+00 -0.14925584376E+04  0.14925584377E+04  0.50400001928E-02 0.  1.
    10030    2    1    2    0    0  0.00000000000E+00  0.00000000000E+00 -0.11176864185E+04  0.18674304568E+04  0.14960192448E+04 0.  0.
        3    1    3    3  502    0  0.20236853850E+03  0.30346122650E+03  0.25633935699E+03  0.44581567661E+03  0.10100000352E+00 0. -1.
       -3    1    3    3    0  502 -0.20236853850E+03 -0.30346122650E+03 -0.13740257755E+04  0.14216147802E+04  0.10100000352E+00 0.  1.
</event>
<event>
 5   0  0.1500956E-03  0.1507885E+04  0.7818609E-02  0.8879226E-01
       -2   -1    0    0    0  501  0.00000000000E+00  0.00000000000E+00  0.21122545277E+03  0.21122545279E+03  0.25500000920E-02 0. -1.
        2   -1    0    0  501    0  0.00000000000E+00  0.00000000000E+00 -0.26911015844E+04  0.26911015844E+04  0.25500000920E-02 0.  1.
    10030    2    1    2    0    0  0.00000000000E+00  0.00000000000E+00 -0.24798761316E+04  0.29023270372E+04  0.15078848108E+04 0.  0.
        4    1    3    3  502    0 -0.16148959734E+03  0.49452592749E+03 -0.18958515164E+03  0.55369569769E+03  0.12699999809E+01 0. -1.
       -4    1    3    3    0  502  0.16148959734E+03 -0.49452592749E+03 -0.22902909800E+04  0.23486313395E+04  0.12699999809E+01 0.  1.
</event>
<event>
 5   0  0.1552067E-03  0.1514805E+04  0.7818609E-02  0.8874667E-01
       -2   -1    0    0    0  501  0.00000000000E+00  0.00000000000E+00  0.71785883797E+03  0.71785883797E+03  0.25500000920E-02 0.  1.
        2   -1    0    0  501    0  0.00000000000E+00  0.00000000000E+00 -0.79912484347E+03  0.79912484348E+03  0.25500000920E-02 0. -1.
    10030    2    1    2    0    0  0.00000000000E+00  0.00000000000E+00 -0.81266005506E+02  0.15169836814E+04  0.15148053757E+04 0.  0.
        3    1    3    3  502    0  0.55805449356E+03  0.30437709827E+03 -0.45303653882E+03  0.78058462158E+03  0.10100000352E+00 0. -1.
       -3    1    3    3    0  502 -0.55805449356E+03 -0.30437709827E+03  0.37177053331E+03  0.73639905987E+03  0.10100000352E+00 0.  1.
</event>
<event>
 5   0  0.1526126E-03  0.1512968E+04  0.7818609E-02  0.8875875E-01
        2   -1    0    0  501    0  0.00000000000E+00  0.00000000000E+00  0.14811813475E+04  0.14811813475E+04  0.25500000920E-02 0.  1.
       -2   -1    0    0    0  501  0.00000000000E+00  0.00000000000E+00 -0.38635914670E+03  0.38635914670E+03  0.25500000920E-02 0. -1.
    10030    2    1    2    0    0  0.00000000000E+00  0.00000000000E+00  0.10948222008E+04  0.18675404942E+04  0.15129678933E+04 0.  0.
        2    1    3    3  502    0  0.11035940286E+03 -0.62373936236E+03  0.10579003306E+04  0.12330381581E+04  0.25500000920E-02 0.  1.
       -2    1    3    3    0  502 -0.11035940286E+03  0.62373936236E+03  0.36921870202E+02  0.63450233605E+03  0.25500000920E-02 0. -1.
</event>
<event>
 5   0  0.1526126E-03  0.1436476E+04  0.7818609E-02  0.8927830E-01
        2   -1    0    0  501    0  0.00000000000E+00  0.00000000000E+00  0.45313247049E+03  0.45313247050E+03  0.25500000920E-02 0.  1.
       -2   -1    0    0    0  501  0.00000000000E+00  0.00000000000E+00 -0.11384437614E+04  0.11384437614E+04  0.25500000920E-02 0. -1.
    10030    2    1    2    0    0  0.00000000000E+00  0.00000000000E+00 -0.68531129094E+03  0.15915762319E+04  0.14364760132E+04 0.  0.
        2    1    3    3  502    0 -0.67429577940E+03  0.24706480176E+03 -0.35622637773E+03  0.80163149051E+03  0.25500000920E-02 0. -1.
       -2    1    3    3    0  502  0.67429577940E+03 -0.24706480176E+03 -0.32908491321E+03  0.78994474141E+03  0.25500000920E-02 0.  1.
</event>
<event>
 5   0  0.1500956E-03  0.1568370E+04  0.7818609E-02  0.8840219E-01
        2   -1    0    0  501    0  0.00000000000E+00  0.00000000000E+00  0.85406234154E+03  0.85406234155E+03  0.25500000920E-02 0.  1.
       -2   -1    0    0    0  501  0.00000000000E+00  0.00000000000E+00 -0.72002495159E+03  0.72002495159E+03  0.25500000920E-02 0. -1.
    10030    2    1    2    0    0  0.00000000000E+00  0.00000000000E+00  0.13403738996E+03  0.15740872931E+04  0.15683701044E+04 0.  0.
        4    1    3    3  502    0 -0.42682122538E+03  0.64861103003E+03 -0.43254279419E+02  0.77765363260E+03  0.12699999809E+01 0. -1.
       -4    1    3    3    0  502  0.42682122538E+03 -0.64861103003E+03  0.17729166937E+03  0.79643366054E+03  0.12699999809E+01 0.  1.
</event>
<event>
 5   0  0.1484056E-03  0.1506620E+04  0.7818609E-02  0.8880063E-01
        2   -1    0    0  501    0  0.00000000000E+00  0.00000000000E+00  0.56333024462E+03  0.56333024462E+03  0.25500000920E-02 0. -1.
       -2   -1    0    0    0  501  0.00000000000E+00  0.00000000000E+00 -0.10073592991E+04  0.10073592991E+04  0.25500000920E-02 0.  1.
    10030    2    1    2    0    0  0.00000000000E+00  0.00000000000E+00 -0.44402905445E+03  0.15706895437E+04  0.15066200057E+04 0.  0.
        5    1    3    3  502    0  0.50104911334E+03 -0.48021362442E+03  0.83355599652E+02  0.69901758565E+03  0.46999998093E+01 0. -1.
       -5    1    3    3    0  502 -0.50104911334E+03  0.48021362442E+03 -0.52738465410E+03  0.87167195804E+03  0.46999998093E+01 0.  1.
</event>
<event>
 5   0  0.1484056E-03  0.1478406E+04  0.7818609E-02  0.8898941E-01
        2   -1    0    0  501    0  0.00000000000E+00  0.00000000000E+00  0.68234620637E+03  0.68234620638E+03  0.25500000920E-02 0.  1.
       -2   -1    0    0    0  501  0.00000000000E+00  0.00000000000E+00 -0.80079768395E+03  0.80079768395E+03  0.25500000920E-02 0. -1.
    10030    2    1    2    0    0  0.00000000000E+00  0.00000000000E+00 -0.11845147758E+03  0.14831438903E+04  0.14784062523E+04 0.  0.
        5    1    3    3  502    0  0.41302638861E+03 -0.56984290825E+03  0.16752386721E+03  0.72346255871E+03  0.46999998093E+01 0. -1.
       -5    1    3    3    0  502 -0.41302638861E+03  0.56984290825E+03 -0.28597534479E+03  0.75968133161E+03  0.46999998093E+01 0.  1.
</event>
<event>
 5   0  0.1552067E-03  0.1357496E+04  0.7818609E-02  0.8985173E-01
       -2   -1    0    0    0  501  0.00000000000E+00  0.00000000000E+00  0.36218029307E+03  0.36218029308E+03  0.25500000920E-02 0.  1.
        2   -1    0    0  501    0  0.00000000000E+00  0.00000000000E+00 -0.12720151178E+04  0.12720151178E+04  0.25500000920E-02 0. -1.
    10030    2    1    2    0    0  0.00000000000E+00  0.00000000000E+00 -0.90983482474E+03  0.16341954109E+04  0.13574959420E+04 0.  0.
        3    1    3    3  502    0 -0.34994135307E+03  0.55320889103E+03 -0.67093635358E+03  0.93736579224E+03  0.10100000352E+00 0. -1.
       -3    1    3    3    0  502  0.34994135307E+03 -0.55320889103E+03 -0.23889847116E+03  0.69682961865E+03  0.10100000352E+00 0.  1.
</event>
<event>
 5   0  0.7870317E-04  0.1501635E+04  0.7818609E-02  0.8883366E-01
        1   -1    0    0  501    0  0.00000000000E+00  0.00000000000E+00  0.77890364396E+03  0.77890364398E+03  0.50400001928E-02 0. -1.
       -1   -1    0    0    0  501  0.00000000000E+00  0.00000000000E+00 -0.72374396089E+03  0.72374396090E+03  0.50400001928E-02 0.  1.
    10030    2    1    2    0    0  0.00000000000E+00  0.00000000000E+00  0.55159683075E+02  0.15026476049E+04  0.15016348537E+04 0.  0.
        1    1    3    3  502    0 -0.37433866671E+03  0.20179847906E+03  0.64676589217E+03  0.77405308787E+03  0.50400001928E-02 0. -1.
       -1    1    3    3    0  502  0.37433866671E+03 -0.20179847906E+03 -0.59160620910E+03  0.72859451701E+03  0.50400001928E-02 0.  1.
</event>
<event>
 5   0  0.7870317E-04  0.1498391E+04  0.7818609E-02  0.8885524E-01
       -1   -1    0    0    0  501  0.00000000000E+00  0.00000000000E+00  0.61744080505E+03  0.61744080507E+03  0.50400001928E-02 0.  1.
        1   -1    0    0  501    0  0.00000000000E+00  0.00000000000E+00 -0.90906458342E+03  0.90906458343E+03  0.50400001928E-02 0. -1.
    10030    2    1    2    0    0  0.00000000000E+00  0.00000000000E+00 -0.29162377837E+03  0.15265053885E+04  0.14983905609E+04 0.  0.
        1    1    3    3  502    0 -0.87177507449E+02  0.73640367499E+03 -0.37022092011E+02  0.74246947793E+03  0.50400001928E-02 0.  1.
       -1    1    3    3    0  502  0.87177507449E+02 -0.73640367499E+03 -0.25460168636E+03  0.78403591057E+03  0.50400001928E-02 0. -1.
</event>
<event>
 5   0  0.1526126E-03  0.1473155E+04  0.7818609E-02  0.8902504E-01
       -2   -1    0    0    0  501  0.00000000000E+00  0.00000000000E+00  0.65556796014E+03  0.65556796015E+03  0.25500000920E-02 0.  1.
        2   -1    0    0  501    0  0.00000000000E+00  0.00000000000E+00 -0.82759721583E+03  0.82759721583E+03  0.25500000920E-02 0. -1.
    10030    2    1    2    0    0  0.00000000000E+00  0.00000000000E+00 -0.17202925568E+03  0.14831651760E+04  0.14731547354E+04 0.  0.
        2    1    3    3  502    0 -0.11052796260E+03 -0.71935974956E+03 -0.20014870728E+03  0.75482076338E+03  0.25500000920E-02 0. -1.
       -2    1    3    3    0  502  0.11052796260E+03  0.71935974956E+03  0.28119451600E+02  0.72834441260E+03  0.25500000920E-02 0.  1.
</event>
<event>
 5   0  0.1500956E-03  0.1412942E+04  0.7818609E-02  0.8944503E-01
        2   -1    0    0  501    0  0.00000000000E+00  0.00000000000E+00  0.14538162196E+04  0.14538162196E+04  0.25500000920E-02 0.  1.
       -2   -1    0    0    0  501  0.00000000000E+00  0.00000000000E+00 -0.34330439825E+03  0.34330439826E+03  0.25500000920E-02 0. -1.
    10030    2    1    2    0    0  0.00000000000E+00  0.00000000000E+00  0.11105118213E+04  0.17971206178E+04  0.14129423236E+04 0.  0.
        4    1    3    3  502    0 -0.41844552633E+03 -0.52160029340E+03  0.26539572406E+03  0.71944424928E+03  0.12699999809E+01 0. -1.
       -4    1    3    3    0  502  0.41844552633E+03  0.52160029340E+03  0.84511609724E+03  0.10776763685E+04  0.12699999809E+01 0.  1.
</event>
<event>
 5   0  0.8058234E-04  0.1465734E+04  0.7818609E-02  0.8907564E-01
        1   -1    0    0  501    0  0.00000000000E+00  0.00000000000E+00  0.46050591985E+03  0.46050591988E+03  0.50400001928E-02 0.  1.
       -1   -1    0    0    0  501  0.00000000000E+00  0.00000000000E+00 -0.11663135240E+04  0.11663135240E+04  0.50400001928E-02 0. -1.
    10030    2    1    2    0    0  0.00000000000E+00  0.00000000000E+00 -0.70580760417E+03  0.16268194439E+04  0.14657343310E+04 0.  0.
        5    1    3    3  502    0  0.97551386939E+02 -0.35163811562E+03 -0.10582860811E+04  0.11194450218E+04  0.46999998093E+01 0. -1.
       -5    1    3    3    0  502 -0.97551386939E+02  0.35163811562E+03  0.35247847695E+03  0.50737442206E+03  0.46999998093E+01 0.  1.
</event>
<event>
 5   0  0.5603875E-04  0.1515886E+04  0.7818609E-02  0.8873957E-01
        3   -1    0    0  501    0  0.00000000000E+00  0.00000000000E+00  0.71691601682E+03  0.71691602393E+03  0.10100000352E+00 0.  1.
       -3   -1    0    0    0  501  0.00000000000E+00  0.00000000000E+00 -0.80131817238E+03  0.80131817874E+03  0.10100000352E+00 0. -1.
    10030    2    1    2    0    0  0.00000000000E+00  0.00000000000E+00 -0.84402155562E+02  0.15182342027E+04  0.15158863316E+04 0.  0.
        5    1    3    3  502    0  0.49493594156E+03  0.50684483913E+02 -0.61486044072E+03  0.79095256160E+03  0.46999998093E+01 0. -1.
       -5    1    3    3    0  502 -0.49493594156E+03 -0.50684483913E+02  0.53045828515E+03  0.72728164107E+03  0.46999998093E+01 0.  1.
</event>
<event>
 5   0  0.1511546E-03  0.1458948E+04  0.7818609E-02  0.8912220E-01
        2   -1    0    0  501    0  0.00000000000E+00  0.00000000000E+00  0.18613364840E+04  0.18613364840E+04  0.25500000920E-02 0. -1.
       -2   -1    0    0    0  501  0.00000000000E+00  0.00000000000E+00 -0.28588741223E+03  0.28588741224E+03  0.25500000920E-02 0.  1.
    10030    2    1    2    0    0  0.00000000000E+00  0.00000000000E+00  0.15754490718E+04  0.21472238963E+04  0.14589484854E+04 0.  0.
        1    1    3    3  502    0 -0.87727137789E+02 -0.23250128456E+03 -0.22167172865E+03  0.33300338337E+03  0.50400001928E-02 0.  1.
       -1    1    3    3    0  502  0.87727137789E+02  0.23250128456E+03  0.17971208004E+04  0.18142205129E+04  0.50400001928E-02 0. -1.
</event>
<event>
 5   0  0.8058234E-04  0.1494705E+04  0.7818609E-02  0.8887981E-01
       -1   -1    0    0    0  501  0.00000000000E+00  0.00000000000E+00  0.29342292352E+03  0.29342292356E+03  0.50400001928E-02 0. -1.
        1   -1    0    0  501    0  0.00000000000E+00  0.00000000000E+00 -0.19035190471E+04  0.19035190471E+04  0.50400001928E-02 0.  1.
    10030    2    1    2    0    0  0.00000000000E+00  0.00000000000E+00 -0.16100961235E+04  0.21969419706E+04  0.14947054878E+04 0.  0.
        5    1    3    3  502    0 -0.34451721230E+03  0.60373597219E+03 -0.40165172445E+03  0.80282964036E+03  0.46999998093E+01 0.  1.
       -5    1    3    3    0  502  0.34451721230E+03 -0.60373597219E+03 -0.12084443991E+04  0.13941123303E+04  0.46999998093E+01 0. -1.
</event>
<event>
 5   0  0.8306301E-04  0.1471451E+04  0.7818609E-02  0.8903663E-01
       -1   -1    0    0    0  501  0.00000000000E+00  0.00000000000E+00  0.22085430728E+03  0.22085430734E+03  0.50400001928E-02 0. -1.
        1   -1    0    0  501    0  0.00000000000E+00  0.00000000000E+00 -0.24509015943E+04  0.24509015943E+04  0.50400001928E-02 0.  1.
    10030    2    1    2    0    0  0.00000000000E+00  0.00000000000E+00 -0.22300472870E+04  0.26717559016E+04  0.14714512209E+04 0.  0.
        4    1    3    3  502    0 -0.19059465993E+03  0.19586202920E+03 -0.23553167968E+04  0.23711193738E+04  0.12699999809E+01 0.  1.
       -4    1    3    3    0  502  0.19059465993E+03 -0.19586202920E+03  0.12526950977E+03  0.30063652781E+03  0.12699999809E+01 0. -1.
</event>
<event>
 5   0  0.7870317E-04  0.1521969E+04  0.7818609E-02  0.8869974E-01
        1   -1    0    0  501    0  0.00000000000E+00  0.00000000000E+00  0.12942624507E+04  0.12942624507E+04  0.50400001928E-02 0. -1.
       -1   -1    0    0    0  501  0.00000000000E+00  0.00000000000E+00 -0.44743416952E+03  0.44743416955E+03  0.50400001928E-02 0.  1.
    10030    2    1    2    0    0  0.00000000000E+00  0.00000000000E+00  0.84682828117E+03  0.17416966202E+04  0.15219687839E+04 0.  0.
        1    1    3    3  502    0 -0.10145502953E+03  0.21607148009E+03 -0.40348164741E+03  0.46880427403E+03  0.50400001928E-02 0.  1.
       -1    1    3    3    0  502  0.10145502953E+03 -0.21607148009E+03  0.12503099286E+04  0.12728923462E+04  0.50400001928E-02 0. -1.
</event>
<event>
 5   0  0.7870317E-04  0.1476256E+04  0.7818609E-02  0.8900398E-01
        1   -1    0    0  501    0  0.00000000000E+00  0.00000000000E+00  0.13566932049E+04  0.13566932049E+04  0.50400001928E-02 0.  1.
       -1   -1    0    0    0  501  0.00000000000E+00  0.00000000000E+00 -0.40158883494E+03  0.40158883497E+03  0.50400001928E-02 0. -1.
    10030    2    1    2    0    0  0.00000000000E+00  0.00000000000E+00  0.95510436996E+03  0.17582820399E+04  0.14762558634E+04 0.  0.
        1    1    3    3  502    0 -0.53325404896E+03 -0.49320198836E+03  0.63386821361E+03  0.96405238151E+03  0.50400001928E-02 0. -1.
       -1    1    3    3    0  502  0.53325404896E+03  0.49320198836E+03  0.32123615636E+03  0.79422965837E+03  0.50400001928E-02 0.  1.
</event>
<event>
 5   0  0.7870317E-04  0.1492040E+04  0.7818609E-02  0.8889763E-01
        1   -1    0    0  501    0  0.00000000000E+00  0.00000000000E+00  0.11325654025E+04  0.11325654025E+04  0.50400001928E-02 0.  1.
       -1   -1    0    0    0  501  0.00000000000E+00  0.00000000000E+00 -0.49140298487E+03  0.49140298490E+03  0.50400001928E-02 0. -1.
    10030    2    1    2    0    0  0.00000000000E+00  0.00000000000E+00  0.64116241764E+03  0.16239683874E+04  0.14920402399E+04 0.  0.
        1    1    3    3  502    0 -0.57748913023E+03 -0.56264954167E+02 -0.18980202095E+03  0.61047870379E+03  0.50400001928E-02 0. -1.
       -1    1    3    3    0  502  0.57748913023E+03  0.56264954167E+02  0.83096443860E+03  0.10134896836E+04  0.50400001928E-02 0.  1.
</event>
<event>
 5   0  0.8191876E-04  0.1497118E+04  0.7818609E-02  0.8886372E-01
       -1   -1    0    0    0  501  0.00000000000E+00  0.00000000000E+00  0.63593222545E+03  0.63593222547E+03  0.50400001928E-02 0.  1.
        1   -1    0    0  501    0  0.00000000000E+00  0.00000000000E+00 -0.88113229329E+03  0.88113229330E+03  0.50400001928E-02 0. -1.
    10030    2    1    2    0    0  0.00000000000E+00  0.00000000000E+00 -0.24520006784E+03  0.15170645188E+04  0.14971177912E+04 0.  0.
        2    1    3    3  502    0  0.69919433764E+03  0.20701995397E+03 -0.29399983989E+03  0.78623526314E+03  0.25500000920E-02 0.  1.
       -2    1    3    3    0  502 -0.69919433764E+03 -0.20701995397E+03  0.48799772053E+02  0.73082925564E+03  0.25500000920E-02 0. -1.
</event>
<event>
 5   0  0.8058234E-04  0.1866971E+04  0.7818609E-02  0.8671474E-01
       -1   -1    0    0    0  501  0.00000000000E+00  0.00000000000E+00  0.64600169812E+03  0.64600169814E+03  0.50400001928E-02 0.  1.
        1   -1    0    0  501    0  0.00000000000E+00  0.00000000000E+00 -0.13489060617E+04  0.13489060617E+04  0.50400001928E-02 0. -1.
    10030    2    1    2    0    0  0.00000000000E+00  0.00000000000E+00 -0.70290436361E+03  0.19949077599E+04  0.18669714583E+04 0.  0.
        5    1    3    3  502    0  0.62571118717E+03 -0.57625619826E+03 -0.76222761620E+03  0.11421903189E+04  0.46999998093E+01 0.  1.
       -5    1    3    3    0  502 -0.62571118717E+03  0.57625619826E+03  0.59323252587E+02  0.85271744094E+03  0.46999998093E+01 0. -1.
</event>
<event>
 5   0  0.1552067E-03  0.1523370E+04  0.7818609E-02  0.8869059E-01
       -2   -1    0    0    0  501  0.00000000000E+00  0.00000000000E+00  0.56075486339E+03  0.56075486339E+03  0.25500000920E-02 0. -1.
        2   -1    0    0  501    0  0.00000000000E+00  0.00000000000E+00 -0.10346126526E+04  0.10346126526E+04  0.25500000920E-02 0.  1.
    10030    2    1    2    0    0  0.00000000000E+00  0.00000000000E+00 -0.47385778923E+03  0.15953675160E+04  0.15233700492E+04 0.  0.
        3    1    3    3  502    0 -0.39754235118E+03  0.52910210740E+03  0.15795289998E+03  0.68039553927E+03  0.10100000352E+00 0. -1.
       -3    1    3    3    0  502  0.39754235118E+03 -0.52910210740E+03 -0.63181068921E+03  0.91497197675E+03  0.10100000352E+00 0.  1.
</event>
<event>
 5   0  0.8365016E-04  0.1504043E+04  0.7818609E-02  0.8881769E-01
       -1   -1    0    0    0  501  0.00000000000E+00  0.00000000000E+00  0.65590639665E+03  0.65590639667E+03  0.50400001928E-02 0. -1.
        1   -1    0    0  501    0  0.00000000000E+00  0.00000000000E+00 -0.86222079717E+03  0.86222079718E+03  0.50400001928E-02 0.  1.
    10030    2    1    2    0    0  0.00000000000E+00  0.00000000000E+00 -0.20631440051E+03  0.15181271939E+04  0.15040427337E+04 0.  0.
        3    1    3    3  502    0  0.69597988915E+03 -0.16121014261E+03 -0.34021693239E+03  0.79128015738E+03  0.10100000352E+00 0. -1.
       -3    1    3    3    0  502 -0.69597988915E+03  0.16121014261E+03  0.13390253188E+03  0.72684703647E+03  0.10100000352E+00 0.  1.
</event>
<event>
 5   0  0.8191876E-04  0.1483608E+04  0.7818609E-02  0.8895427E-01
        1   -1    0    0  501    0  0.00000000000E+00  0.00000000000E+00  0.11013396337E+04  0.11013396337E+04  0.50400001928E-02 0.  1.
       -1   -1    0    0    0  501  0.00000000000E+00  0.00000000000E+00 -0.49964013196E+03  0.49964013198E+03  0.50400001928E-02 0. -1.
    10030    2    1    2    0    0  0.00000000000E+00  0.00000000000E+00  0.60169950171E+03  0.16009797657E+04  0.14836084118E+04 0.  0.
        2    1    3    3  502    0 -0.29647850040E+03  0.43148415977E+03 -0.26627000379E+03  0.58734810484E+03  0.25500000920E-02 0. -1.
       -2    1    3    3    0  502  0.29647850040E+03 -0.43148415977E+03  0.86796950550E+03  0.10136316608E+04  0.25500000920E-02 0.  1.
</event>
<event>
 5   0  0.1484056E-03  0.1496740E+04  0.7818609E-02  0.8886624E-01
        2   -1    0    0  501    0  0.00000000000E+00  0.00000000000E+00  0.11813008425E+04  0.11813008425E+04  0.25500000920E-02 0.  1.
       -2   -1    0    0    0  501  0.00000000000E+00  0.00000000000E+00 -0.47410260622E+03  0.47410260623E+03  0.25500000920E-02 0. -1.
    10030    2    1    2    0    0  0.00000000000E+00  0.00000000000E+00  0.70719823631E+03  0.16554034488E+04  0.14967402022E+04 0.  0.
        5    1    3    3  502    0  0.66252807720E+03 -0.62870303000E+02 -0.24938706289E+02  0.66598810586E+03  0.46999998093E+01 0. -1.
       -5    1    3    3    0  502 -0.66252807720E+03  0.62870303000E+02  0.73213694260E+03  0.98941534291E+03  0.46999998093E+01 0.  1.
</event>
<event>
 5   0  0.1552067E-03  0.1330974E+04  0.7818609E-02  0.9005357E-01
        2   -1    0    0  501    0  0.00000000000E+00  0.00000000000E+00  0.49253773697E+03  0.49253773698E+03  0.25500000920E-02 0.  1.
       -2   -1    0    0    0  501  0.00000000000E+00  0.00000000000E+00 -0.89916513523E+03  0.89916513524E+03  0.25500000920E-02 0. -1.
    10030    2    1    2    0    0  0.00000000000E+00  0.00000000000E+00 -0.40662739826E+03  0.13917028722E+04  0.13309737201E+04 0.  0.
        3    1    3    3  502    0 -0.22585605081E+03  0.44881877041E+03 -0.65959988633E+03  0.82916902054E+03  0.10100000352E+00 0. -1.
       -3    1    3    3    0  502  0.22585605081E+03 -0.44881877041E+03  0.25297248808E+03  0.56253385168E+03  0.10100000352E+00 0.  1.
</event>
<event>
 5   0  0.7870317E-04  0.1465990E+04  0.7818609E-02  0.8907390E-01
        1   -1    0    0  501    0  0.00000000000E+00  0.00000000000E+00  0.59816539599E+03  0.59816539601E+03  0.50400001928E-02 0.  1.
       -1   -1    0    0    0  501  0.00000000000E+00  0.00000000000E+00 -0.89821532127E+03  0.89821532128E+03  0.50400001928E-02 0. -1.
    10030    2    1    2    0    0  0.00000000000E+00  0.00000000000E+00 -0.30004992528E+03  0.14963807173E+04  0.14659895271E+04 0.  0.
        1    1    3    3  502    0  0.20117269063E+03 -0.67310994630E+03  0.63436853717E+02  0.70538761379E+03  0.50400001928E-02 0.  1.
       -1    1    3    3    0  502 -0.20117269063E+03  0.67310994630E+03 -0.36348677900E+03  0.79099310350E+03  0.50400001928E-02 0. -1.
</event>
<event>
 5   0  0.1500956E-03  0.1495252E+04  0.7818609E-02  0.8887616E-01
        2   -1    0    0  501    0  0.00000000000E+00  0.00000000000E+00  0.85853653141E+03  0.85853653141E+03  0.25500000920E-02 0. -1.
       -2   -1    0    0    0  501  0.00000000000E+00  0.00000000000E+00 -0.65104385207E+03  0.65104385208E+03  0.25500000920E-02 0.  1.
    10030    2    1    2    0    0  0.00000000000E+00  0.00000000000E+00  0.20749267933E+03  0.15095803835E+04  0.14952523942E+04 0.  0.
        4    1    3    3  502    0  0.55811089767E+02  0.40821909624E+03  0.73357167109E+03  0.84136004053E+03  0.12699999809E+01 0. -1.
       -4    1    3    3    0  502 -0.55811089767E+02 -0.40821909624E+03 -0.52607899176E+03  0.66822034296E+03  0.12699999809E+01 0.  1.
</event>
<event>
 5   0  0.1511546E-03  0.1466218E+04  0.7818609E-02  0.8907234E-01
       -2   -1    0    0    0  501  0.00000000000E+00  0.00000000000E+00  0.67547305089E+03  0.67547305089E+03  0.25500000920E-02 0. -1.
        2   -1    0    0  501    0  0.00000000000E+00  0.00000000000E+00 -0.79566237557E+03  0.79566237557E+03  0.25500000920E-02 0.  1.
    10030    2    1    2    0    0  0.00000000000E+00  0.00000000000E+00 -0.12018932468E+03  0.14711354265E+04  0.14662175723E+04 0.  0.
        1    1    3    3  502    0 -0.43988820193E+03 -0.70137984133E+02 -0.64430833060E+03  0.78329700110E+03  0.50400001928E-02 0.  1.
       -1    1    3    3    0  502  0.43988820193E+03  0.70137984133E+02  0.52411900592E+03  0.68783842537E+03  0.50400001928E-02 0. -1.
</event>
<event>
 5   0  0.1552067E-03  0.1520039E+04  0.7818609E-02  0.8871235E-01
        2   -1    0    0  501    0  0.00000000000E+00  0.00000000000E+00  0.23054963156E+04  0.23054963156E+04  0.25500000920E-02 0. -1.
       -2   -1    0    0    0  501  0.00000000000E+00  0.00000000000E+00 -0.25054466387E+03  0.25054466389E+03  0.25500000920E-02 0.  1.
    10030    2    1    2    0    0  0.00000000000E+00  0.00000000000E+00  0.20549516517E+04  0.25560409795E+04  0.15200392093E+04 0.  0.
        3    1    3    3  502    0 -0.37767999528E+03 -0.64768289022E+03  0.12367914190E+04  0.14463016039E+04  0.10100000352E+00 0. -1.
       -3    1    3    3    0  502  0.37767999528E+03  0.64768289022E+03  0.81816023270E+03  0.11097393756E+04  0.10100000352E+00 0.  1.
</event>
<event>
 5   0  0.8058234E-04  0.1035122E+04  0.7818609E-02  0.9270841E-01
        1   -1    0    0  501    0  0.00000000000E+00  0.00000000000E+00  0.65814473870E+03  0.65814473872E+03  0.50400001928E-02 0. -1.
       -1   -1    0    0    0  501  0.00000000000E+00  0.00000000000E+00 -0.40700641920E+03  0.40700641923E+03  0.50400001928E-02 0.  1.
    10030    2    1    2    0    0  0.00000000000E+00  0.00000000000E+00  0.25113831950E+03  0.10651511580E+04  0.10351215068E+04 0.  0.
        5    1    3    3  502    0  0.79221958313E+02 -0.28178759895E+03 -0.31362279516E+03  0.42902414530E+03  0.46999998093E+01 0.  1.
       -5    1    3    3    0  502 -0.79221958313E+02  0.28178759895E+03  0.56476111466E+03  0.63612701266E+03  0.46999998093E+01 0. -1.
</event>
<event>
 5   0  0.8191876E-04  0.1566832E+04  0.7818609E-02  0.8841187E-01
       -1   -1    0    0    0  501  0.00000000000E+00  0.00000000000E+00  0.74688373924E+03  0.74688373926E+03  0.50400001928E-02 0.  1.
        1   -1    0    0  501    0  0.00000000000E+00  0.00000000000E+00 -0.82173525373E+03  0.82173525375E+03  0.50400001928E-02 0. -1.
    10030    2    1    2    0    0  0.00000000000E+00  0.00000000000E+00 -0.74851514489E+02  0.15686189930E+04  0.15668320893E+04 0.  0.
        2    1    3    3  502    0 -0.44785442333E+03  0.14640827705E+03 -0.66402431003E+03  0.81420958751E+03  0.25500000920E-02 0. -1.
       -2    1    3    3    0  502  0.44785442333E+03 -0.14640827705E+03  0.58917279554E+03  0.75440940549E+03  0.25500000920E-02 0.  1.
</event>
<event>
 5   0  0.7870317E-04  0.1447028E+04  0.7818609E-02  0.8920463E-01
        1   -1    0    0  501    0  0.00000000000E+00  0.00000000000E+00  0.12338103730E+04  0.12338103730E+04  0.50400001928E-02 0.  1.
       -1   -1    0    0    0  501  0.00000000000E+00  0.00000000000E+00 -0.42427328941E+03  0.42427328944E+03  0.50400001928E-02 0. -1.
    10030    2    1    2    0    0  0.00000000000E+00  0.00000000000E+00  0.80953708354E+03  0.16580836624E+04  0.14470283832E+04 0.  0.
        1    1    3    3  502    0 -0.73635641944E+02 -0.42919850094E+03 -0.25729255886E+03  0.50579938893E+03  0.50400001928E-02 0. -1.
       -1    1    3    3    0  502  0.73635641944E+02  0.42919850094E+03  0.10668296424E+04  0.11522842735E+04  0.50400001928E-02 0.  1.
</event>
<event>
 5   0  0.1526126E-03  0.1503335E+04  0.7818609E-02  0.8882238E-01
       -2   -1    0    0    0  501  0.00000000000E+00  0.00000000000E+00  0.26837897867E+03  0.26837897869E+03  0.25500000920E-02 0. -1.
        2   -1    0    0  501    0  0.00000000000E+00  0.00000000000E+00 -0.21052480714E+04  0.21052480714E+04  0.25500000920E-02 0.  1.
    10030    2    1    2    0    0  0.00000000000E+00  0.00000000000E+00 -0.18368690927E+04  0.23736270501E+04  0.15033353947E+04 0.  0.
        2    1    3    3  502    0  0.11554411246E+03  0.88335779171E+02  0.24595000852E+03  0.28573599442E+03  0.25500000920E-02 0. -1.
       -2    1    3    3    0  502 -0.11554411246E+03 -0.88335779171E+02 -0.20828191013E+04  0.20878910557E+04  0.25500000920E-02 0.  1.
</event>
<event>
 5   0  0.1500956E-03  0.1503806E+04  0.7818609E-02  0.8881926E-01
        2   -1    0    0  501    0  0.00000000000E+00  0.00000000000E+00  0.82783402834E+03  0.82783402835E+03  0.25500000920E-02 0.  1.
       -2   -1    0    0    0  501  0.00000000000E+00  0.00000000000E+00 -0.68293647180E+03  0.68293647180E+03  0.25500000920E-02 0. -1.
    10030    2    1    2    0    0  0.00000000000E+00  0.00000000000E+00  0.14489755655E+03  0.15107705001E+04  0.15038059058E+04 0.  0.
        4    1    3    3  502    0  0.71681191924E+02 -0.39201051612E+03  0.71301134541E+03  0.81682141843E+03  0.12699999809E+01 0.  1.
       -4    1    3    3    0  502 -0.71681191924E+02  0.39201051612E+03 -0.56811378886E+03  0.69394908172E+03  0.12699999809E+01 0. -1.
</event>
<event>
 5   0  0.8191876E-04  0.1526544E+04  0.7818609E-02  0.8866991E-01
        1   -1    0    0  501    0  0.00000000000E+00  0.00000000000E+00  0.79801676895E+03  0.79801676897E+03  0.50400001928E-02 0.  1.
       -1   -1    0    0    0  501  0.00000000000E+00  0.00000000000E+00 -0.73003963895E+03  0.73003963896E+03  0.50400001928E-02 0. -1.
    10030    2    1    2    0    0  0.00000000000E+00  0.00000000000E+00  0.67977130008E+02  0.15280564079E+04  0.15265436435E+04 0.  0.
        2    1    3    3  502    0  0.94924840251E+01  0.16195358666E+03 -0.71258215242E+03  0.73081625285E+03  0.25500000920E-02 0. -1.
       -2    1    3    3    0  502 -0.94924840251E+01 -0.16195358666E+03  0.78055928243E+03  0.79724015508E+03  0.25500000920E-02 0.  1.
</event>
<event>
 5   0  0.8058234E-04  0.1525081E+04  0.7818609E-02  0.8867944E-01
        1   -1    0    0  501    0  0.00000000000E+00  0.00000000000E+00  0.15412711012E+04  0.15412711012E+04  0.50400001928E-02 0.  1.
       -1   -1    0    0    0  501  0.00000000000E+00  0.00000000000E+00 -0.37726513748E+03  0.37726513751E+03  0.50400001928E-02 0. -1.
    10030    2    1    2    0    0  0.00000000000E+00  0.00000000000E+00  0.11640059637E+04  0.19185362387E+04  0.15250807899E+04 0.  0.
        5    1    3    3  502    0  0.32326890618E+02  0.64661407096E+03  0.75217287954E+02  0.65179330698E+03  0.46999998093E+01 0. -1.
       -5    1    3    3    0  502 -0.32326890618E+02 -0.64661407096E+03  0.10887886757E+04  0.12667429317E+04  0.46999998093E+01 0.  1.
</event>
<event>
 5   0  0.8191876E-04  0.1649587E+04  0.7818609E-02  0.8790651E-01
       -1   -1    0    0    0  501  0.00000000000E+00  0.00000000000E+00  0.61480483072E+03  0.61480483074E+03  0.50400001928E-02 0. -1.
        1   -1    0    0  501    0  0.00000000000E+00  0.00000000000E+00 -0.11065038549E+04  0.11065038549E+04  0.50400001928E-02 0.  1.
    10030    2    1    2    0    0  0.00000000000E+00  0.00000000000E+00 -0.49169902416E+03  0.17213086856E+04  0.16495865121E+04 0.  0.
        2    1    3    3  502    0  0.70117414147E+03  0.16812705391E+03  0.17202701785E+03  0.74128616458E+03  0.25500000920E-02 0. -1.
       -2    1    3    3    0  502 -0.70117414147E+03 -0.16812705391E+03 -0.66372604201E+03  0.98002252105E+03  0.25500000920E-02 0.  1.
</event>
<event>
 5   0  0.5603875E-04  0.1499644E+04  0.7818609E-02  0.8884690E-01
        3   -1    0    0  501    0  0.00000000000E+00  0.00000000000E+00  0.11983928848E+04  0.11983928891E+04  0.10100000352E+00 0. -1.
       -3   -1    0    0    0  501  0.00000000000E+00  0.00000000000E+00 -0.46915586363E+03  0.46915587450E+03  0.10100000352E+00 0.  1.
    10030    2    1    2    0    0  0.00000000000E+00  0.00000000000E+00  0.72923702120E+03  0.16675487636E+04  0.14996440397E+04 0.  0.
        5    1    3    3  502    0 -0.23248517854E+03  0.43064014440E+03 -0.26706134252E+03  0.55753398361E+03  0.46999998093E+01 0.  1.
       -5    1    3    3    0  502  0.23248517854E+03 -0.43064014440E+03  0.99629836373E+03  0.11100147800E+04  0.46999998093E+01 0. -1.
</event>
<event>
 5   0  0.1526126E-03  0.1526682E+04  0.7818609E-02  0.8866901E-01
       -2   -1    0    0    0  501  0.00000000000E+00  0.00000000000E+00  0.31142788892E+03  0.31142788893E+03  0.25500000920E-02 0. -1.
        2   -1    0    0  501    0  0.00000000000E+00  0.00000000000E+00 -0.18710242882E+04  0.18710242882E+04  0.25500000920E-02 0.  1.
    10030    2    1    2    0    0  0.00000000000E+00  0.00000000000E+00 -0.15595963993E+04  0.21824521771E+04  0.15266815571E+04 0.  0.
        2    1    3    3  502    0 -0.46699515868E+03 -0.26881197181E+03 -0.15527349482E+04  0.16435723817E+04  0.25500000920E-02 0.  1.
       -2    1    3    3    0  502  0.46699515868E+03  0.26881197181E+03 -0.68614510533E+01  0.53887979544E+03  0.25500000920E-02 0. -1.
</event>
<event>
 5   0  0.1552067E-03  0.1491434E+04  0.7818609E-02  0.8890169E-01
        2   -1    0    0  501    0  0.00000000000E+00  0.00000000000E+00  0.61660984716E+03  0.61660984716E+03  0.25500000920E-02 0. -1.
       -2   -1    0    0    0  501  0.00000000000E+00  0.00000000000E+00 -0.90185663073E+03  0.90185663073E+03  0.25500000920E-02 0.  1.
    10030    2    1    2    0    0  0.00000000000E+00  0.00000000000E+00 -0.28524678357E+03  0.15184664779E+04  0.14914337789E+04 0.  0.
        3    1    3    3  502    0  0.23035903281E+03  0.41656360079E+03  0.44180461527E+03  0.64944733872E+03  0.10100000352E+00 0. -1.
       -3    1    3    3    0  502 -0.23035903281E+03 -0.41656360079E+03 -0.72705139884E+03  0.86901913917E+03  0.10100000352E+00 0.  1.
</event>
<event>
 5   0  0.1526126E-03  0.1497029E+04  0.7818609E-02  0.8886431E-01
        2   -1    0    0  501    0  0.00000000000E+00  0.00000000000E+00  0.12333121197E+04  0.12333121197E+04  0.25500000920E-02 0.  1.
       -2   -1    0    0    0  501  0.00000000000E+00  0.00000000000E+00 -0.45428416969E+03  0.45428416969E+03  0.25500000920E-02 0. -1.
    10030    2    1    2    0    0  0.00000000000E+00  0.00000000000E+00  0.77902795000E+03  0.16875962894E+04  0.14970292880E+04 0.  0.
        2    1    3    3  502    0 -0.40249990588E+03 -0.12950252916E+03 -0.30676596190E+03  0.52238150300E+03  0.25500000920E-02 0. -1.
       -2    1    3    3    0  502  0.40249990588E+03  0.12950252916E+03  0.10857939119E+04  0.11652147864E+04  0.25500000920E-02 0.  1.
</event>
<event>
 5   0  0.8365016E-04  0.1490984E+04  0.7818609E-02  0.8890470E-01
       -1   -1    0    0    0  501  0.00000000000E+00  0.00000000000E+00  0.69008444169E+03  0.69008444171E+03  0.50400001928E-02 0. -1.
        1   -1    0    0  501    0  0.00000000000E+00  0.00000000000E+00 -0.80534860341E+03  0.80534860343E+03  0.50400001928E-02 0.  1.
    10030    2    1    2    0    0  0.00000000000E+00  0.00000000000E+00 -0.11526416173E+03  0.14954330451E+04  0.14909842942E+04 0.  0.
        3    1    3    3  502    0 -0.35623665017E+03 -0.77152462080E+02  0.59461704526E+03  0.69744282492E+03  0.10100000352E+00 0. -1.
       -3    1    3    3    0  502  0.35623665017E+03  0.77152462080E+02 -0.70988120698E+03  0.79799022021E+03  0.10100000352E+00 0.  1.
</event>
<event>
 5   0  0.8058234E-04  0.1472640E+04  0.7818609E-02  0.8902854E-01
       -1   -1    0    0    0  501  0.00000000000E+00  0.00000000000E+00  0.69524779276E+03  0.69524779278E+03  0.50400001928E-02 0. -1.
        1   -1    0    0  501    0  0.00000000000E+00  0.00000000000E+00 -0.77981825630E+03  0.77981825632E+03  0.50400001928E-02 0.  1.
    10030    2    1    2    0    0  0.00000000000E+00  0.00000000000E+00 -0.84570463539E+02  0.14750660491E+04  0.14726397000E+04 0.  0.
        5    1    3    3  502    0  0.43777784291E+03  0.58822779709E+03  0.24783663127E+02  0.73368774078E+03  0.46999998093E+01 0. -1.
       -5    1    3    3    0  502 -0.43777784291E+03 -0.58822779709E+03 -0.10935412667E+03  0.74137830831E+03  0.46999998093E+01 0.  1.
</event>
<event>
 5   0  0.1484056E-03  0.1459482E+04  0.7818609E-02  0.8911853E-01
        2   -1    0    0  501    0  0.00000000000E+00  0.00000000000E+00  0.19124253928E+04  0.19124253928E+04  0.25500000920E-02 0. -1.
       -2   -1    0    0    0  501  0.00000000000E+00  0.00000000000E+00 -0.27845361763E+03  0.27845361764E+03  0.25500000920E-02 0.  1.
    10030    2    1    2    0    0  0.00000000000E+00  0.00000000000E+00  0.16339717752E+04  0.21908790105E+04  0.14594817835E+04 0.  0.
        5    1    3    3  502    0  0.10574552377E+03 -0.29197790474E+03  0.18082652424E+04  0.18347420771E+04  0.46999998093E+01 0. -1.
       -5    1    3    3    0  502 -0.10574552377E+03  0.29197790474E+03 -0.17429346714E+03  0.35613693341E+03  0.46999998093E+01 0.  1.
</event>
<event>
 5   0  0.8058234E-04  0.1503196E+04  0.7818609E-02  0.8882330E-01
        1   -1    0    0  501    0  0.00000000000E+00  0.00000000000E+00  0.93581236968E+03  0.93581236970E+03  0.50400001928E-02 0.  1.
       -1   -1    0    0    0  501  0.00000000000E+00  0.00000000000E+00 -0.60364620441E+03  0.60364620444E+03  0.50400001928E-02 0. -1.
    10030    2    1    2    0    0  0.00000000000E+00  0.00000000000E+00  0.33216616527E+03  0.15394585741E+04  0.15031960418E+04 0.  0.
        5    1    3    3  502    0 -0.81145780922E+02 -0.62574980799E+03  0.58425927514E+03  0.85995840047E+03  0.46999998093E+01 0.  1.
       -5    1    3    3    0  502  0.81145780922E+02  0.62574980799E+03 -0.25209310987E+03  0.67950017366E+03  0.46999998093E+01 0. -1.
</event>
<event>
 5   0  0.8191876E-04  0.1498819E+04  0.7818609E-02  0.8885239E-01
       -1   -1    0    0    0  501  0.00000000000E+00  0.00000000000E+00  0.64116825182E+03  0.64116825184E+03  0.50400001928E-02 0.  1.
        1   -1    0    0  501    0  0.00000000000E+00  0.00000000000E+00 -0.87592404526E+03  0.87592404527E+03  0.50400001928E-02 0. -1.
    10030    2    1    2    0    0  0.00000000000E+00  0.00000000000E+00 -0.23475579344E+03  0.15170922971E+04  0.14988191203E+04 0.  0.
        2    1    3    3  502    0 -0.47364232494E+03  0.19253652393E+03  0.43721387277E+03  0.67272827766E+03  0.25500000920E-02 0.  1.
       -2    1    3    3    0  502  0.47364232494E+03 -0.19253652393E+03 -0.67196966621E+03  0.84436401945E+03  0.25500000920E-02 0. -1.
</event>
<event>
 5   0  0.1484056E-03  0.1528797E+04  0.7818609E-02  0.8865526E-01
       -2   -1    0    0    0  501  0.00000000000E+00  0.00000000000E+00  0.44288708449E+03  0.44288708449E+03  0.25500000920E-02 0.  1.
        2   -1    0    0  501    0  0.00000000000E+00  0.00000000000E+00 -0.13193100295E+04  0.13193100295E+04  0.25500000920E-02 0. -1.
    10030    2    1    2    0    0  0.00000000000E+00  0.00000000000E+00 -0.87642294501E+03  0.17621971140E+04  0.15287973999E+04 0.  0.
        5    1    3    3  502    0 -0.13711741060E+03 -0.59104917922E+03 -0.97410079458E+03  0.11476213507E+04  0.46999998093E+01 0. -1.
       -5    1    3    3    0  502  0.13711741060E+03  0.59104917922E+03  0.97677849573E+02  0.61457576330E+03  0.46999998093E+01 0.  1.
</event>
<event>
 5   0  0.7870317E-04  0.1323025E+04  0.7818609E-02  0.9011503E-01
       -1   -1    0    0    0  501  0.00000000000E+00  0.00000000000E+00  0.26628619982E+03  0.26628619987E+03  0.50400001928E-02 0. -1.
        1   -1    0    0  501    0  0.00000000000E+00  0.00000000000E+00 -0.16433408434E+04  0.16433408434E+04  0.50400001928E-02 0.  1.
    10030    2    1    2    0    0  0.00000000000E+00  0.00000000000E+00 -0.13770546436E+04  0.19096270433E+04  0.13230253032E+04 0.  0.
        1    1    3    3  502    0  0.42675553135E+03 -0.49189045538E+03 -0.85637241664E+03  0.10758486044E+04  0.50400001928E-02 0.  1.
       -1    1    3    3    0  502 -0.42675553135E+03  0.49189045538E+03 -0.52068222696E+03  0.83377843887E+03  0.50400001928E-02 0. -1.
</event>
<event>
 5   0  0.1552067E-03  0.1521951E+04  0.7818609E-02  0.8869986E-01
        2   -1    0    0  501    0  0.00000000000E+00  0.00000000000E+00  0.15581840682E+04  0.15581840682E+04  0.25500000920E-02 0. -1.
       -2   -1    0    0    0  501  0.00000000000E+00  0.00000000000E+00 -0.37164016929E+03  0.37164016930E+03  0.25500000920E-02 0.  1.
    10030    2    1    2    0    0  0.00000000000E+00  0.00000000000E+00  0.11865438989E+04  0.19298242375E+04  0.15219511042E+04 0.  0.
        3    1    3    3  502    0  0.54230546519E+03  0.10135458731E+03 -0.71325827274E+02  0.55628711452E+03  0.10100000352E+00 0.  1.
       -3    1    3    3    0  502 -0.54230546519E+03 -0.10135458731E+03  0.12578697262E+04  0.13735371229E+04  0.10100000352E+00 0. -1.
</event>
<event>
 5   0  0.1511546E-03  0.1466316E+04  0.7818609E-02  0.8907166E-01
       -2   -1    0    0    0  501  0.00000000000E+00  0.00000000000E+00  0.31530607435E+03  0.31530607436E+03  0.25500000920E-02 0. -1.
        2   -1    0    0  501    0  0.00000000000E+00  0.00000000000E+00 -0.17047592213E+04  0.17047592213E+04  0.25500000920E-02 0.  1.
    10030    2    1    2    0    0  0.00000000000E+00  0.00000000000E+00 -0.13894531469E+04  0.20200652956E+04  0.14663163885E+04 0.  0.
        1    1    3    3  502    0 -0.64014804852E+03  0.78771243026E+02 -0.11749830421E+04  0.13403654658E+04  0.50400001928E-02 0. -1.
       -1    1    3    3    0  502  0.64014804852E+03 -0.78771243026E+02 -0.21447010485E+03  0.67969982982E+03  0.50400001928E-02 0.  1.
</event>
<event>
 5   0  0.1552067E-03  0.1496708E+04  0.7818609E-02  0.8886645E-01
       -2   -1    0    0    0  501  0.00000000000E+00  0.00000000000E+00  0.14535126350E+04  0.14535126350E+04  0.25500000920E-02 0. -1.
        2   -1    0    0  501    0  0.00000000000E+00  0.00000000000E+00 -0.38529685050E+03  0.38529685051E+03  0.25500000920E-02 0.  1.
    10030    2    1    2    0    0  0.00000000000E+00  0.00000000000E+00  0.10682157845E+04  0.18388094855E+04  0.14967081752E+04 0.  0.
        3    1    3    3  502    0  0.28293534201E+03  0.63995108218E+03  0.20802972877E+03  0.72997683087E+03  0.10100000352E+00 0. -1.
       -3    1    3    3    0  502 -0.28293534201E+03 -0.63995108218E+03  0.86018605570E+03  0.11088326546E+04  0.10100000352E+00 0.  1.
</event>
<event>
 5   0  0.8191876E-04  0.1524698E+04  0.7818609E-02  0.8868193E-01
       -1   -1    0    0    0  501  0.00000000000E+00  0.00000000000E+00  0.36486631873E+03  0.36486631877E+03  0.50400001928E-02 0.  1.
        1   -1    0    0  501    0  0.00000000000E+00  0.00000000000E+00 -0.15928468859E+04  0.15928468859E+04  0.50400001928E-02 0. -1.
    10030    2    1    2    0    0  0.00000000000E+00  0.00000000000E+00 -0.12279805672E+04  0.19577132047E+04  0.15246982385E+04 0.  0.
        2    1    3    3  502    0  0.66828632535E+03 -0.14838624343E+03 -0.18322566606E+03  0.70865840473E+03  0.25500000920E-02 0.  1.
       -2    1    3    3    0  502 -0.66828632535E+03  0.14838624343E+03 -0.10447549011E+04  0.12490548000E+04  0.25500000920E-02 0. -1.
</event>
<event>
 5   0  0.1500956E-03  0.1501115E+04  0.7818609E-02  0.8883711E-01
       -2   -1    0    0    0  501  0.00000000000E+00  0.00000000000E+00  0.77469336818E+03  0.77469336819E+03  0.25500000920E-02 0. -1.
        2   -1    0    0  501    0  0.00000000000E+00  0.00000000000E+00 -0.72717405536E+03  0.72717405537E+03  0.25500000920E-02 0.  1.
    10030    2    1    2    0    0  0.00000000000E+00  0.00000000000E+00  0.47519312817E+02  0.15018674236E+04  0.15011154762E+04 0.  0.
        4    1    3    3  502    0  0.64729672742E+03 -0.88953263947E+02 -0.34578910250E+03  0.73924113306E+03  0.12699999809E+01 0. -1.
       -4    1    3    3    0  502 -0.64729672742E+03  0.88953263947E+02  0.39330841531E+03  0.76262629050E+03  0.12699999809E+01 0.  1.
</event>
<event>
 5   0  0.8058234E-04  0.1522688E+04  0.7818609E-02  0.8869505E-01
       -1   -1    0    0    0  501  0.00000000000E+00  0.00000000000E+00  0.19321781987E+04  0.19321781987E+04  0.50400001928E-02 0.  1.
        1   -1    0    0  501    0  0.00000000000E+00  0.00000000000E+00 -0.29999532306E+03  0.29999532310E+03  0.50400001928E-02 0. -1.
    10030    2    1    2    0    0  0.00000000000E+00  0.00000000000E+00  0.16321828756E+04  0.22321735218E+04  0.15226876541E+04 0.  0.
        5    1    3    3  502    0 -0.90042684098E+02  0.55425737937E+03  0.15697536153E+04  0.16671704863E+04  0.46999998093E+01 0.  1.
       -5    1    3    3    0  502  0.90042684098E+02 -0.55425737937E+03  0.62429260268E+02  0.56500303546E+03  0.46999998093E+01 0. -1.
</event>
<event>
 5   0  0.5603875E-04  0.1491854E+04  0.7818609E-02  0.8889888E-01
       -4   -1    0    0    0  501  0.00000000000E+00  0.00000000000E+00  0.99138853785E+03  0.99138935131E+03  0.12699999809E+01 0.  1.
        4   -1    0    0  501    0  0.00000000000E+00  0.00000000000E+00 -0.56123835447E+03  0.56123979138E+03  0.12699999809E+01 0. -1.
    10030    2    1    2    0    0  0.00000000000E+00  0.00000000000E+00  0.43015018338E+03  0.15526291427E+04  0.14918539052E+04 0.  0.
        5    1    3    3  502    0 -0.17839535875E+03  0.56185296679E+03 -0.26057894413E+03  0.64453637324E+03  0.46999998093E+01 0. -1.
       -5    1    3    3    0  502  0.17839535875E+03 -0.56185296679E+03  0.69072912752E+03  0.90809276944E+03  0.46999998093E+01 0.  1.
</event>
<event>
 5   0  0.5603875E-04  0.1458087E+04  0.7818609E-02  0.8912813E-01
       -3   -1    0    0    0  501  0.00000000000E+00  0.00000000000E+00  0.15398255893E+04  0.15398255926E+04  0.10100000352E+00 0.  1.
        3   -1    0    0  501    0  0.00000000000E+00  0.00000000000E+00 -0.34517174957E+03  0.34517176435E+03  0.10100000352E+00 0. -1.
    10030    2    1    2    0    0  0.00000000000E+00  0.00000000000E+00  0.11946538397E+04  0.18849973569E+04  0.14580868420E+04 0.  0.
        3    1    3    3  502    0 -0.42005575942E+03  0.59431948924E+03  0.54184532091E+03  0.90733613304E+03  0.10100000352E+00 0.  1.
       -3    1    3    3    0  502  0.42005575942E+03 -0.59431948924E+03  0.65280851880E+03  0.97766122391E+03  0.10100000352E+00 0. -1.
</event>
<event>
 5   0  0.8191876E-04  0.1499595E+04  0.7818609E-02  0.8884722E-01
       -1   -1    0    0    0  501  0.00000000000E+00  0.00000000000E+00  0.33671318373E+03  0.33671318376E+03  0.50400001928E-02 0. -1.
        1   -1    0    0  501    0  0.00000000000E+00  0.00000000000E+00 -0.16696590335E+04  0.16696590335E+04  0.50400001928E-02 0.  1.
    10030    2    1    2    0    0  0.00000000000E+00  0.00000000000E+00 -0.13329458497E+04  0.20063722172E+04  0.14995948905E+04 0.  0.
        2    1    3    3  502    0  0.44062625500E+03 -0.29544080585E+03 -0.13754051844E+04  0.14741696604E+04  0.25500000920E-02 0.  1.
       -2    1    3    3    0  502 -0.44062625500E+03  0.29544080585E+03  0.42459334705E+02  0.53220255680E+03  0.25500000920E-02 0. -1.
</event>
<event>
 5   0  0.8365016E-04  0.1317813E+04  0.7818609E-02  0.9015557E-01
       -1   -1    0    0    0  501  0.00000000000E+00  0.00000000000E+00  0.30323283844E+03  0.30323283848E+03  0.50400001928E-02 0.  1.
        1   -1    0    0  501    0  0.00000000000E+00  0.00000000000E+00 -0.14317646269E+04  0.14317646269E+04  0.50400001928E-02 0. -1.
    10030    2    1    2    0    0  0.00000000000E+00  0.00000000000E+00 -0.11285317884E+04  0.17349974654E+04  0.13178134190E+04 0.  0.
        3    1    3    3  502    0 -0.39874406375E+03 -0.12278439572E+03 -0.12356989886E+04  0.13042334288E+04  0.10100000352E+00 0. -1.
       -3    1    3    3    0  502  0.39874406375E+03  0.12278439572E+03  0.10716720016E+03  0.43076403656E+03  0.10100000352E+00 0.  1.
</event>
<event>
 5   0  0.8058234E-04  0.1466497E+04  0.7818609E-02  0.8907043E-01
       -1   -1    0    0    0  501  0.00000000000E+00  0.00000000000E+00  0.31278155691E+03  0.31278155695E+03  0.50400001928E-02 0.  1.
        1   -1    0    0  501    0  0.00000000000E+00  0.00000000000E+00 -0.17189411339E+04  0.17189411339E+04  0.50400001928E-02 0. -1.
    10030    2    1    2    0    0  0.00000000000E+00  0.00000000000E+00 -0.14061595770E+04  0.20317226908E+04  0.14664966200E+04 0.  0.
        5    1    3    3  502    0  0.21613270560E+02 -0.42896140832E+03  0.12023637426E+03  0.44604248562E+03  0.46999998093E+01 0.  1.
       -5    1    3    3    0  502 -0.21613270560E+02  0.42896140832E+03 -0.15263959512E+04  0.15856802052E+04  0.46999998093E+01 0. -1.
</event>
<event>
 5   0  0.1484056E-03  0.9428622E+03  0.7818609E-02  0.9373533E-01
        2   -1    0    0  501    0  0.00000000000E+00  0.00000000000E+00  0.86206674742E+02  0.86206674780E+02  0.25500000920E-02 0.  1.
       -2   -1    0    0    0  501  0.00000000000E+00  0.00000000000E+00 -0.25780750855E+04  0.25780750855E+04  0.25500000920E-02 0. -1.
    10030    2    1    2    0    0  0.00000000000E+00  0.00000000000E+00 -0.24918684107E+04  0.26642817602E+04  0.94286219651E+03 0.  0.
        5    1    3    3  502    0 -0.20347368456E+03  0.32592300993E+03 -0.20177169411E+04  0.20539793313E+04  0.46999998093E+01 0. -1.
       -5    1    3    3    0  502  0.20347368456E+03 -0.32592300993E+03 -0.47415146958E+03  0.61030242898E+03  0.46999998093E+01 0.  1.
</event>
<event>
 5   0  0.7870317E-04  0.1501253E+04  0.7818609E-02  0.8883620E-01
        1   -1    0    0  501    0  0.00000000000E+00  0.00000000000E+00  0.14160788655E+04  0.14160788655E+04  0.50400001928E-02 0. -1.
       -1   -1    0    0    0  501  0.00000000000E+00  0.00000000000E+00 -0.39788761687E+03  0.39788761690E+03  0.50400001928E-02 0.  1.
    10030    2    1    2    0    0  0.00000000000E+00  0.00000000000E+00  0.10181912487E+04  0.18139664824E+04  0.15012531367E+04 0.  0.
        1    1    3    3  502    0 -0.68479743841E+03 -0.18522124493E+03  0.80552576703E+03  0.10733714188E+04  0.50400001928E-02 0. -1.
       -1    1    3    3    0  502  0.68479743841E+03  0.18522124493E+03  0.21266548162E+03  0.74059506367E+03  0.50400001928E-02 0.  1.
</event>
<event>
 5   0  0.8058234E-04  0.1506063E+04  0.7818609E-02  0.8880431E-01
        1   -1    0    0  501    0  0.00000000000E+00  0.00000000000E+00  0.99952157306E+03  0.99952157307E+03  0.50400001928E-02 0. -1.
       -1   -1    0    0    0  501  0.00000000000E+00  0.00000000000E+00 -0.56732767721E+03  0.56732767723E+03  0.50400001928E-02 0.  1.
    10030    2    1    2    0    0  0.00000000000E+00  0.00000000000E+00  0.43219389585E+03  0.15668492503E+04  0.15060627509E+04 0.  0.
        5    1    3    3  502    0  0.72291342115E+03  0.19200366189E+03  0.12560979157E+03  0.75846498297E+03  0.46999998093E+01 0.  1.
       -5    1    3    3    0  502 -0.72291342115E+03 -0.19200366189E+03  0.30658410428E+03  0.80838426732E+03  0.46999998093E+01 0. -1.
</event>
<event>
 5   0  0.8306301E-04  0.1481119E+04  0.7818609E-02  0.8897106E-01
        1   -1    0    0  501    0  0.00000000000E+00  0.00000000000E+00  0.10378027720E+04  0.10378027720E+04  0.50400001928E-02 0.  1.
       -1   -1    0    0    0  501  0.00000000000E+00  0.00000000000E+00 -0.52845165474E+03  0.52845165477E+03  0.50400001928E-02 0. -1.
    10030    2    1    2    0    0  0.00000000000E+00  0.00000000000E+00  0.50935111721E+03  0.15662544267E+04  0.14811192959E+04 0.  0.
        4    1    3    3  502    0 -0.41807287682E+03  0.54413204458E+03  0.54918403476E+03  0.87890234339E+03  0.12699999809E+01 0.  1.
       -4    1    3    3    0  502  0.41807287682E+03 -0.54413204458E+03 -0.39832917549E+02  0.68735208335E+03  0.12699999809E+01 0. -1.
</event>
<event>
 5   0  0.8191876E-04  0.1497385E+04  0.7818609E-02  0.8886194E-01
       -1   -1    0    0    0  501  0.00000000000E+00  0.00000000000E+00  0.73650723008E+03  0.73650723010E+03  0.50400001928E-02 0. -1.
        1   -1    0    0  501    0  0.00000000000E+00  0.00000000000E+00 -0.76107891162E+03  0.76107891164E+03  0.50400001928E-02 0.  1.
    10030    2    1    2    0    0  0.00000000000E+00  0.00000000000E+00 -0.24571681543E+02  0.14975861417E+04  0.14973845479E+04 0.  0.
        2    1    3    3  502    0 -0.28394265661E+03 -0.74394375079E+02  0.67656095434E+03  0.73749080010E+03  0.25500000920E-02 0. -1.
       -2    1    3    3    0  502  0.28394265661E+03  0.74394375079E+02 -0.70113263588E+03  0.76009534164E+03  0.25500000920E-02 0.  1.
</event>
<event>
 5   0  0.1526126E-03  0.1484389E+04  0.7818609E-02  0.8894901E-01
       -2   -1    0    0    0  501  0.00000000000E+00  0.00000000000E+00  0.70679495863E+03  0.70679495864E+03  0.25500000920E-02 0. -1.
        2   -1    0    0  501    0  0.00000000000E+00  0.00000000000E+00 -0.77936742987E+03  0.77936742987E+03  0.25500000920E-02 0.  1.
    10030    2    1    2    0    0  0.00000000000E+00  0.00000000000E+00 -0.72572471235E+02  0.14861623885E+04  0.14843893968E+04 0.  0.
        2    1    3    3  502    0 -0.59495125163E+03 -0.33617262176E+03 -0.32624214406E+03  0.75724035814E+03  0.25500000920E-02 0.  1.
       -2    1    3    3    0  502  0.59495125163E+03  0.33617262176E+03  0.25366967282E+03  0.72892203036E+03  0.25500000920E-02 0. -1.
</event>
<event>
 5   0  0.1552067E-03  0.1466508E+04  0.7818609E-02  0.8907035E-01
        2   -1    0    0  501    0  0.00000000000E+00  0.00000000000E+00  0.12985235673E+04  0.12985235673E+04  0.25500000920E-02 0.  1.
       -2   -1    0    0    0  501  0.00000000000E+00  0.00000000000E+00 -0.41405607880E+03  0.41405607881E+03  0.25500000920E-02 0. -1.
    10030    2    1    2    0    0  0.00000000000E+00  0.00000000000E+00  0.88446748854E+03  0.17125796462E+04  0.14665082019E+04 0.  0.
        3    1    3    3  502    0 -0.30374882889E+02 -0.58987204890E+03  0.94963981474E+03  0.11183413860E+04  0.10100000352E+00 0.  1.
       -3    1    3    3    0  502  0.30374882889E+02  0.58987204890E+03 -0.65172326201E+02  0.59423826020E+03  0.10100000352E+00 0. -1.
</event>
<event>
 5   0  0.1500956E-03  0.1505940E+04  0.7818609E-02  0.8880513E-01
        2   -1    0    0  501    0  0.00000000000E+00  0.00000000000E+00  0.13182909806E+04  0.13182909806E+04  0.25500000920E-02 0. -1.
       -2   -1    0    0    0  501  0.00000000000E+00  0.00000000000E+00 -0.43007484034E+03  0.43007484034E+03  0.25500000920E-02 0.  1.
    10030    2    1    2    0    0  0.00000000000E+00  0.00000000000E+00  0.88821614026E+03  0.17483658209E+04  0.15059399497E+04 0.  0.
        4    1    3    3  502    0  0.38132930662E+02 -0.64384689270E+03 -0.69878208812E+01  0.64501425114E+03  0.12699999809E+01 0.  1.
       -4    1    3    3    0  502 -0.38132930662E+02  0.64384689270E+03  0.89520396114E+03  0.11033515698E+04  0.12699999809E+01 0. -1.
</event>
<event>
 5   0  0.8058234E-04  0.1497320E+04  0.7818609E-02  0.8886237E-01
       -1   -1    0    0    0  501  0.00000000000E+00  0.00000000000E+00  0.72617505810E+03  0.72617505812E+03  0.50400001928E-02 0. -1.
        1   -1    0    0  501    0  0.00000000000E+00  0.00000000000E+00 -0.77184137430E+03  0.77184137432E+03  0.50400001928E-02 0.  1.
    10030    2    1    2    0    0  0.00000000000E+00  0.00000000000E+00 -0.45666316201E+02  0.14980164324E+04  0.14973202127E+04 0.  0.
        5    1    3    3  502    0  0.13373219822E+03 -0.19595799228E+03 -0.73322390148E+03  0.77066413909E+03  0.46999998093E+01 0.  1.
       -5    1    3    3    0  502 -0.13373219822E+03  0.19595799228E+03  0.68755758527E+03  0.72735229335E+03  0.46999998093E+01 0. -1.
</event>
<event>
 5   0  0.1511546E-03  0.1506301E+04  0.7818609E-02  0.8880273E-01
        2   -1    0    0  501    0  0.00000000000E+00  0.00000000000E+00  0.15689219986E+04  0.15689219986E+04  0.25500000920E-02 0. -1.
       -2   -1    0    0    0  501  0.00000000000E+00  0.00000000000E+00 -0.36154498915E+03  0.36154498916E+03  0.25500000920E-02 0.  1.
    10030    2    1    2    0    0  0.00000000000E+00  0.00000000000E+00  0.12073770094E+04  0.19304669877E+04  0.15063012806E+04 0.  0.
        1    1    3    3  502    0  0.15611766734E+03 -0.44325559781E+03 -0.15058998855E+03  0.49348312608E+03  0.50400001928E-02 0.  1.
       -1    1    3    3    0  502 -0.15611766734E+03  0.44325559781E+03  0.13579669980E+04  0.14369838616E+04  0.50400001928E-02 0. -1.
</event>
<event>
 5   0  0.1484056E-03  0.1541836E+04  0.7818609E-02  0.8857100E-01
       -2   -1    0    0    0  501  0.00000000000E+00  0.00000000000E+00  0.29352373036E+03  0.29352373037E+03  0.25500000920E-02 0.  1.
        2   -1    0    0  501    0  0.00000000000E+00  0.00000000000E+00 -0.20247570786E+04  0.20247570786E+04  0.25500000920E-02 0. -1.
    10030    2    1    2    0    0  0.00000000000E+00  0.00000000000E+00 -0.17312333482E+04  0.23182808089E+04  0.15418355954E+04 0.  0.
        5    1    3    3  502    0 -0.47655169612E+03 -0.50989909020E+02  0.42268132439E+02  0.48115504249E+03  0.46999998093E+01 0.  1.
       -5    1    3    3    0  502  0.47655169612E+03  0.50989909020E+02 -0.17735014807E+04  0.18371257665E+04  0.46999998093E+01 0. -1.
</event>
<event>
 5   0  0.8306301E-04  0.1496016E+04  0.7818609E-02  0.8887106E-01
        1   -1    0    0  501    0  0.00000000000E+00  0.00000000000E+00  0.18322777347E+04  0.18322777347E+04  0.50400001928E-02 0.  1.
       -1   -1    0    0    0  501  0.00000000000E+00  0.00000000000E+00 -0.30536650725E+03  0.30536650729E+03  0.50400001928E-02 0. -1.
    10030    2    1    2    0    0  0.00000000000E+00  0.00000000000E+00  0.15269112275E+04  0.21376442420E+04  0.14960163799E+04 0.  0.
        4    1    3    3  502    0  0.23581054015E+03 -0.67345901845E+03  0.44279459910E+03  0.83977516650E+03  0.12699999809E+01 0. -1.
       -4    1    3    3    0  502 -0.23581054015E+03  0.67345901845E+03  0.10841166284E+04  0.12978690755E+04  0.12699999809E+01 0.  1.
</event>
<event>
 5   0  0.8191876E-04  0.1524787E+04  0.7818609E-02  0.8868135E-01
       -1   -1    0    0    0  501  0.00000000000E+00  0.00000000000E+00  0.53416850442E+03  0.53416850445E+03  0.50400001928E-02 0. -1.
        1   -1    0    0  501    0  0.00000000000E+00  0.00000000000E+00 -0.10881279056E+04  0.10881279056E+04  0.50400001928E-02 0.  1.
    10030    2    1    2    0    0  0.00000000000E+00  0.00000000000E+00 -0.55395940120E+03  0.16222964101E+04  0.15247867470E+04 0.  0.
        2    1    3    3  502    0 -0.23941091047E+03  0.22721879624E+03  0.45420822243E+03  0.56147223862E+03  0.25500000920E-02 0. -1.
       -2    1    3    3    0  502  0.23941091047E+03 -0.22721879624E+03 -0.10081676236E+04  0.10608241715E+04  0.25500000920E-02 0.  1.
</event>
<event>
 5   0  0.8191876E-04  0.1500200E+04  0.7818609E-02  0.8884320E-01
        1   -1    0    0  501    0  0.00000000000E+00  0.00000000000E+00  0.89734131808E+03  0.89734131810E+03  0.50400001928E-02 0.  1.
       -1   -1    0    0    0  501  0.00000000000E+00  0.00000000000E+00 -0.62701935785E+03  0.62701935787E+03  0.50400001928E-02 0. -1.
    10030    2    1    2    0    0  0.00000000000E+00  0.00000000000E+00  0.27032196023E+03  0.15243606760E+04  0.15002004894E+04 0.  0.
        2    1    3    3  502    0  0.17948892013E+03  0.24033766934E+03 -0.56342253078E+03  0.63829727866E+03  0.25500000920E-02 0. -1.
       -2    1    3    3    0  502 -0.17948892013E+03 -0.24033766934E+03  0.83374449101E+03  0.88606339731E+03  0.25500000920E-02 0.  1.
</event>
<event>
 5   0  0.8058234E-04  0.1501998E+04  0.7818609E-02  0.8883125E-01
        1   -1    0    0  501    0  0.00000000000E+00  0.00000000000E+00  0.15697608457E+04  0.15697608457E+04  0.50400001928E-02 0.  1.
       -1   -1    0    0    0  501  0.00000000000E+00  0.00000000000E+00 -0.35929019582E+03  0.35929019586E+03  0.50400001928E-02 0. -1.
    10030    2    1    2    0    0  0.00000000000E+00  0.00000000000E+00  0.12104706499E+04  0.19290510416E+04  0.15019982446E+04 0.  0.
        5    1    3    3  502    0  0.74978167609E+03 -0.40459054171E+02  0.62188675288E+03  0.97497421519E+03  0.46999998093E+01 0. -1.
       -5    1    3    3    0  502 -0.74978167609E+03  0.40459054171E+02  0.58858389702E+03  0.95407682641E+03  0.46999998093E+01 0.  1.
</event>
<event>
 5   0  0.8191876E-04  0.1554079E+04  0.7818609E-02  0.8849267E-01
        1   -1    0    0  501    0  0.00000000000E+00  0.00000000000E+00  0.90991803927E+03  0.90991803928E+03  0.50400001928E-02 0.  1.
       -1   -1    0    0    0  501  0.00000000000E+00  0.00000000000E+00 -0.66356541837E+03  0.66356541839E+03  0.50400001928E-02 0. -1.
    10030    2    1    2    0    0  0.00000000000E+00  0.00000000000E+00  0.24635262089E+03  0.15734834577E+04  0.15540786910E+04 0.  0.
        2    1    3    3  502    0 -0.45878370571E+02  0.76514590533E+03  0.25219211501E+03  0.80694110331E+03  0.25500000920E-02 0.  1.
       -2    1    3    3    0  502  0.45878370571E+02 -0.76514590533E+03 -0.58394941226E+01  0.76654235436E+03  0.25500000920E-02 0. -1.
</event>
<event>
 5   0  0.1526126E-03  0.1529714E+04  0.7818609E-02  0.8864931E-01
       -2   -1    0    0    0  501  0.00000000000E+00  0.00000000000E+00  0.52536009725E+03  0.52536009726E+03  0.25500000920E-02 0. -1.
        2   -1    0    0  501    0  0.00000000000E+00  0.00000000000E+00 -0.11135335081E+04  0.11135335081E+04  0.25500000920E-02 0.  1.
    10030    2    1    2    0    0  0.00000000000E+00  0.00000000000E+00 -0.58817341080E+03  0.16388936053E+04  0.15297137930E+04 0.  0.
        2    1    3    3  502    0 -0.69438553843E+03 -0.18661535291E+03 -0.14687357115E+02  0.71917472452E+03  0.25500000920E-02 0. -1.
       -2    1    3    3    0  502  0.69438553843E+03  0.18661535291E+03 -0.57348605369E+03  0.91971888080E+03  0.25500000920E-02 0.  1.
</event>
<event>
 5   0  0.1526126E-03  0.1498885E+04  0.7818609E-02  0.8885195E-01
        2   -1    0    0  501    0  0.00000000000E+00  0.00000000000E+00  0.82352398939E+03  0.82352398939E+03  0.25500000920E-02 0. -1.
       -2   -1    0    0    0  501  0.00000000000E+00  0.00000000000E+00 -0.68202542125E+03  0.68202542125E+03  0.25500000920E-02 0.  1.
    10030    2    1    2    0    0  0.00000000000E+00  0.00000000000E+00  0.14149856814E+03  0.15055494106E+04  0.14988853135E+04 0.  0.
        2    1    3    3  502    0 -0.49134530875E+03 -0.31181722044E+03  0.54509258796E+03  0.79735570534E+03  0.25500000920E-02 0. -1.
       -2    1    3    3    0  502  0.49134530875E+03  0.31181722044E+03 -0.40359401981E+03  0.70819370530E+03  0.25500000920E-02 0.  1.
</event>
<event>
 5   0  0.1552067E-03  0.1334471E+04  0.7818609E-02  0.9002667E-01
       -2   -1    0    0    0  501  0.00000000000E+00  0.00000000000E+00  0.75823553798E+03  0.75823553799E+03  0.25500000920E-02 0.  1.
        2   -1    0    0  501    0  0.00000000000E+00  0.00000000000E+00 -0.58715672138E+03  0.58715672138E+03  0.25500000920E-02 0. -1.
    10030    2    1    2    0    0  0.00000000000E+00  0.00000000000E+00  0.17107881660E+03  0.13453922594E+04  0.13344708202E+04 0.  0.
        3    1    3    3  502    0 -0.45857953201E+03 -0.45579478575E+02 -0.40093465530E+03  0.61083654448E+03  0.10100000352E+00 0. -1.
       -3    1    3    3    0  502  0.45857953201E+03  0.45579478575E+02  0.57201347190E+03  0.73455571490E+03  0.10100000352E+00 0.  1.
</event>
<event>
 5   0  0.7870317E-04  0.1464125E+04  0.7818609E-02  0.8908666E-01
        1   -1    0    0  501    0  0.00000000000E+00  0.00000000000E+00  0.13260664293E+04  0.13260664293E+04  0.50400001928E-02 0. -1.
       -1   -1    0    0    0  501  0.00000000000E+00  0.00000000000E+00 -0.40413907732E+03  0.40413907735E+03  0.50400001928E-02 0.  1.
    10030    2    1    2    0    0  0.00000000000E+00  0.00000000000E+00  0.92192735202E+03  0.17302055067E+04  0.14641246713E+04 0.  0.
        1    1    3    3  502    0  0.56842796069E+03  0.35934117001E+03  0.80280727910E+03  0.10472516175E+04  0.50400001928E-02 0. -1.
       -1    1    3    3    0  502 -0.56842796069E+03 -0.35934117001E+03  0.11912007291E+03  0.68295388919E+03  0.50400001928E-02 0.  1.
</event>
<event>
 5   0  0.8191876E-04  0.1472228E+04  0.7818609E-02  0.8903134E-01
       -1   -1    0    0    0  501  0.00000000000E+00  0.00000000000E+00  0.58489048050E+03  0.58489048052E+03  0.50400001928E-02 0.  1.
        1   -1    0    0  501    0  0.00000000000E+00  0.00000000000E+00 -0.92643661235E+03  0.92643661237E+03  0.50400001928E-02 0. -1.
    10030    2    1    2    0    0  0.00000000000E+00  0.00000000000E+00 -0.34154613185E+03  0.15113270929E+04  0.14722281826E+04 0.  0.
        2    1    3    3  502    0  0.39937134957E+03  0.23742365858E+02  0.46353887081E+03  0.61231483696E+03  0.25500000920E-02 0.  1.
       -2    1    3    3    0  502 -0.39937134957E+03 -0.23742365858E+02 -0.80508500267E+03  0.89901225593E+03  0.25500000920E-02 0. -1.
</event>
<event>
 5   0  0.8191876E-04  0.1169858E+04  0.7818609E-02  0.9139657E-01
        1   -1    0    0  501    0  0.00000000000E+00  0.00000000000E+00  0.44164014295E+03  0.44164014298E+03  0.50400001928E-02 0.  1.
       -1   -1    0    0    0  501  0.00000000000E+00  0.00000000000E+00 -0.77470753254E+03  0.77470753256E+03  0.50400001928E-02 0. -1.
    10030    2    1    2    0    0  0.00000000000E+00  0.00000000000E+00 -0.33306738959E+03  0.12163476755E+04  0.11698580178E+04 0.  0.
        2    1    3    3  502    0  0.19094177091E+03 -0.29171428059E+03 -0.65486381341E+03  0.74189122889E+03  0.25500000920E-02 0. -1.
       -2    1    3    3    0  502 -0.19094177091E+03  0.29171428059E+03  0.32179642382E+03  0.47445644665E+03  0.25500000920E-02 0.  1.
</event>
<event>
 5   0  0.1552067E-03  0.1490245E+04  0.7818609E-02  0.8890966E-01
       -2   -1    0    0    0  501  0.00000000000E+00  0.00000000000E+00  0.10594085007E+04  0.10594085007E+04  0.25500000920E-02 0. -1.
        2   -1    0    0  501    0  0.00000000000E+00  0.00000000000E+00 -0.52407346579E+03  0.52407346580E+03  0.25500000920E-02 0.  1.
    10030    2    1    2    0    0  0.00000000000E+00  0.00000000000E+00  0.53533503489E+03  0.15834819665E+04  0.14902454625E+04 0.  0.
        3    1    3    3  502    0 -0.19089559249E+03  0.69251777637E+02 -0.49410376296E+03  0.53420546114E+03  0.10100000352E+00 0.  1.
       -3    1    3    3    0  502  0.19089559249E+03 -0.69251777637E+02  0.10294387978E+04  0.10492765053E+04  0.10100000352E+00 0. -1.
</event>
<event>
 5   0  0.1526126E-03  0.1209148E+04  0.7818609E-02  0.9104887E-01
       -2   -1    0    0    0  501  0.00000000000E+00  0.00000000000E+00  0.36894015988E+03  0.36894015989E+03  0.25500000920E-02 0.  1.
        2   -1    0    0  501    0  0.00000000000E+00  0.00000000000E+00 -0.99070222937E+03  0.99070222937E+03  0.25500000920E-02 0. -1.
    10030    2    1    2    0    0  0.00000000000E+00  0.00000000000E+00 -0.62176206949E+03  0.13596423893E+04  0.12091481942E+04 0.  0.
        2    1    3    3  502    0  0.24158032960E+03  0.54202925247E+03 -0.18094315634E+03  0.62040083173E+03  0.25500000920E-02 0. -1.
       -2    1    3    3    0  502 -0.24158032960E+03 -0.54202925247E+03 -0.44081891315E+03  0.73924155753E+03  0.25500000920E-02 0.  1.
</event>
<event>
 5   0  0.1526126E-03  0.1506803E+04  0.7818609E-02  0.8879942E-01
        2   -1    0    0  501    0  0.00000000000E+00  0.00000000000E+00  0.60121207343E+03  0.60121207344E+03  0.25500000920E-02 0.  1.
       -2   -1    0    0    0  501  0.00000000000E+00  0.00000000000E+00 -0.94411576405E+03  0.94411576405E+03  0.25500000920E-02 0. -1.
    10030    2    1    2    0    0  0.00000000000E+00  0.00000000000E+00 -0.34290369062E+03  0.15453278375E+04  0.15068029680E+04 0.  0.
        2    1    3    3  502    0  0.55343468189E+03  0.34182752896E+03  0.21836868242E+03  0.68616389306E+03  0.25500000920E-02 0.  1.
       -2    1    3    3    0  502 -0.55343468189E+03 -0.34182752896E+03 -0.56127237304E+03  0.85916394443E+03  0.25500000920E-02 0. -1.
</event>
<event>
 5   0  0.8306301E-04  0.1624093E+04  0.7818609E-02  0.8805882E-01
       -1   -1    0    0    0  501  0.00000000000E+00  0.00000000000E+00  0.66357474312E+03  0.66357474314E+03  0.50400001928E-02 0.  1.
        1   -1    0    0  501    0  0.00000000000E+00  0.00000000000E+00 -0.99373817471E+03  0.99373817473E+03  0.50400001928E-02 0. -1.
    10030    2    1    2    0    0  0.00000000000E+00  0.00000000000E+00 -0.33016343159E+03  0.16573129179E+04  0.16240930442E+04 0.  0.
        4    1    3    3  502    0 -0.50351625283E+03 -0.53173739655E+03  0.19301588445E+03  0.75731764822E+03  0.12699999809E+01 0.  1.
       -4    1    3    3    0  502  0.50351625283E+03  0.53173739655E+03 -0.52317931605E+03  0.89999526965E+03  0.12699999809E+01 0. -1.
</event>
<event>
 5   0  0.5603875E-04  0.1493255E+04  0.7818609E-02  0.8888951E-01
       -3   -1    0    0    0  501  0.00000000000E+00  0.00000000000E+00  0.37981011941E+03  0.37981013284E+03  0.10100000352E+00 0. -1.
        3   -1    0    0  501    0  0.00000000000E+00  0.00000000000E+00 -0.14677144899E+04  0.14677144934E+04  0.10100000352E+00 0.  1.
    10030    2    1    2    0    0  0.00000000000E+00  0.00000000000E+00 -0.10879043705E+04  0.18475246262E+04  0.14932552780E+04 0.  0.
        4    1    3    3  502    0 -0.46852277423E+03  0.57875209883E+03 -0.47637048186E+03  0.88396721136E+03  0.12699999809E+01 0.  1.
       -4    1    3    3    0  502  0.46852277423E+03 -0.57875209883E+03 -0.61153388860E+03  0.96355741484E+03  0.12699999809E+01 0. -1.
</event>
<event>
 5   0  0.1511546E-03  0.1514246E+04  0.7818609E-02  0.8875034E-01
       -2   -1    0    0    0  501  0.00000000000E+00  0.00000000000E+00  0.99522030748E+03  0.99522030749E+03  0.25500000920E-02 0. -1.
        2   -1    0    0  501    0  0.00000000000E+00  0.00000000000E+00 -0.57598832870E+03  0.57598832870E+03  0.25500000920E-02 0.  1.
    10030    2    1    2    0    0  0.00000000000E+00  0.00000000000E+00  0.41923197879E+03  0.15712086362E+04  0.15142460587E+04 0.  0.
        1    1    3    3  502    0  0.56034841517E+03 -0.50746193705E+03  0.25274043341E+03  0.79711083962E+03  0.50400001928E-02 0.  1.
       -1    1    3    3    0  502 -0.56034841517E+03  0.50746193705E+03  0.16649154538E+03  0.77409779656E+03  0.50400001928E-02 0. -1.
</event>
<event>
 5   0  0.1552067E-03  0.1463560E+04  0.7818609E-02  0.8909053E-01
       -2   -1    0    0    0  501  0.00000000000E+00  0.00000000000E+00  0.54727718661E+03  0.54727718662E+03  0.25500000920E-02 0. -1.
        2   -1    0    0  501    0  0.00000000000E+00  0.00000000000E+00 -0.97848453106E+03  0.97848453106E+03  0.25500000920E-02 0.  1.
    10030    2    1    2    0    0  0.00000000000E+00  0.00000000000E+00 -0.43120734445E+03  0.15257617177E+04  0.14635604003E+04 0.  0.
        3    1    3    3  502    0  0.31606422203E+03 -0.38048735028E+03 -0.77781478369E+03  0.92177169847E+03  0.10100000352E+00 0.  1.
       -3    1    3    3    0  502 -0.31606422203E+03  0.38048735028E+03  0.34660743924E+03  0.60399001921E+03  0.10100000352E+00 0. -1.
</event>
<event>
 5   0  0.8191876E-04  0.1509767E+04  0.7818609E-02  0.8877984E-01
       -1   -1    0    0    0  501  0.00000000000E+00  0.00000000000E+00  0.14984526949E+04  0.14984526949E+04  0.50400001928E-02 0.  1.
        1   -1    0    0  501    0  0.00000000000E+00  0.00000000000E+00 -0.38029182235E+03  0.38029182239E+03  0.50400001928E-02 0. -1.
    10030    2    1    2    0    0  0.00000000000E+00  0.00000000000E+00  0.11181608726E+04  0.18787445173E+04  0.15097672749E+04 0.  0.
        2    1    3    3  502    0 -0.66341669345E+03  0.29413006156E+03  0.30039290332E+03  0.78541078337E+03  0.25500000920E-02 0.  1.
       -2    1    3    3    0  502  0.66341669345E+03 -0.29413006156E+03  0.81776796923E+03  0.10933337339E+04  0.25500000920E-02 0. -1.
</event>
<event>
 5   0  0.1552067E-03  0.1500518E+04  0.7818609E-02  0.8884108E-01
        2   -1    0    0  501    0  0.00000000000E+00  0.00000000000E+00  0.73235898425E+03  0.73235898425E+03  0.25500000920E-02 0. -1.
       -2   -1    0    0    0  501  0.00000000000E+00  0.00000000000E+00 -0.76859695246E+03  0.76859695246E+03  0.25500000920E-02 0.  1.
    10030    2    1    2    0    0  0.00000000000E+00  0.00000000000E+00 -0.36237968211E+02  0.15009559367E+04  0.15005184216E+04 0.  0.
        3    1    3    3  502    0  0.41374239085E+03 -0.61813323631E+03 -0.11621596986E+03  0.75284634931E+03  0.10100000352E+00 0. -1.
       -3    1    3    3    0  502 -0.41374239085E+03  0.61813323631E+03  0.79978001650E+02  0.74810958740E+03  0.10100000352E+00 0.  1.
</event>
<event>
 5   0  0.1526126E-03  0.1505339E+04  0.7818609E-02  0.8880910E-01
       -2   -1    0    0    0  501  0.00000000000E+00  0.00000000000E+00  0.36177655638E+03  0.36177655639E+03  0.25500000920E-02 0. -1.
        2   -1    0    0  501    0  0.00000000000E+00  0.00000000000E+00 -0.15659150795E+04  0.15659150795E+04  0.25500000920E-02 0.  1.
    10030    2    1    2    0    0  0.00000000000E+00  0.00000000000E+00 -0.12041385231E+04  0.19276916359E+04  0.15053389852E+04 0.  0.
        2    1    3    3  502    0  0.13887796171E+03  0.71221034301E+03 -0.85812143886E+03  0.11237895999E+04  0.25500000920E-02 0.  1.
       -2    1    3    3    0  502 -0.13887796171E+03 -0.71221034301E+03 -0.34601708429E+03  0.80390203605E+03  0.25500000920E-02 0. -1.
</event>
<event>
 5   0  0.1484056E-03  0.1596850E+04  0.7818609E-02  0.8822485E-01
        2   -1    0    0  501    0  0.00000000000E+00  0.00000000000E+00  0.13995063648E+04  0.13995063648E+04  0.25500000920E-02 0. -1.
       -2   -1    0    0    0  501  0.00000000000E+00  0.00000000000E+00 -0.45550534577E+03  0.45550534578E+03  0.25500000920E-02 0.  1.
    10030    2    1    2    0    0  0.00000000000E+00  0.00000000000E+00  0.94400101903E+03  0.18550117106E+04  0.15968501879E+04 0.  0.
        5    1    3    3  502    0  0.19973628323E+03 -0.37456705292E+03  0.12575375906E+04  0.13272595608E+04  0.46999998093E+01 0. -1.
       -5    1    3    3    0  502 -0.19973628323E+03  0.37456705292E+03 -0.31353657152E+03  0.52775214983E+03  0.46999998093E+01 0.  1.
</event>
<event>
 5   0  0.8058234E-04  0.1480755E+04  0.7818609E-02  0.8897352E-01
       -1   -1    0    0    0  501  0.00000000000E+00  0.00000000000E+00  0.76622393611E+03  0.76622393613E+03  0.50400001928E-02 0.  1.
        1   -1    0    0  501    0  0.00000000000E+00  0.00000000000E+00 -0.71540297327E+03  0.71540297329E+03  0.50400001928E-02 0. -1.
    10030    2    1    2    0    0  0.00000000000E+00  0.00000000000E+00  0.50820962835E+02  0.14816269094E+04  0.14807550535E+04 0.  0.
        5    1    3    3  502    0  0.47939537689E+03 -0.26533805997E+02  0.58931379530E+03  0.76015577981E+03  0.46999998093E+01 0. -1.
       -5    1    3    3    0  502 -0.47939537689E+03  0.26533805997E+02 -0.53849283247E+03  0.72147112961E+03  0.46999998093E+01 0.  1.
</event>
<event>
 5   0  0.8058234E-04  0.1476979E+04  0.7818609E-02  0.8899908E-01
        1   -1    0    0  501    0  0.00000000000E+00  0.00000000000E+00  0.12613169237E+04  0.12613169237E+04  0.50400001928E-02 0.  1.
       -1   -1    0    0    0  501  0.00000000000E+00  0.00000000000E+00 -0.43237879708E+03  0.43237879710E+03  0.50400001928E-02 0. -1.
    10030    2    1    2    0    0  0.00000000000E+00  0.00000000000E+00  0.82893812660E+03  0.16936957208E+04  0.14769789358E+04 0.  0.
        5    1    3    3  502    0 -0.29980581256E+03  0.64134926778E+03  0.17356792268E+03  0.72894466341E+03  0.46999998093E+01 0. -1.
       -5    1    3    3    0  502  0.29980581256E+03 -0.64134926778E+03  0.65537020392E+03  0.96475105738E+03  0.46999998093E+01 0.  1.
</event>
<event>
 5   0  0.1511546E-03  0.1504202E+04  0.7818609E-02  0.8881663E-01
        2   -1    0    0  501    0  0.00000000000E+00  0.00000000000E+00  0.96185291954E+03  0.96185291955E+03  0.25500000920E-02 0.  1.
       -2   -1    0    0    0  501  0.00000000000E+00  0.00000000000E+00 -0.58809011156E+03  0.58809011157E+03  0.25500000920E-02 0. -1.
    10030    2    1    2    0    0  0.00000000000E+00  0.00000000000E+00  0.37376280798E+03  0.15499430311E+04  0.15042023677E+04 0.  0.
        1    1    3    3  502    0 -0.42249805532E+03 -0.39013030579E+03  0.68633727944E+03  0.89541338131E+03  0.50400001928E-02 0.  1.
       -1    1    3    3    0  502  0.42249805532E+03  0.39013030579E+03 -0.31257447146E+03  0.65452964981E+03  0.50400001928E-02 0. -1.
</event>
<event>
 5   0  0.8306301E-04  0.1507443E+04  0.7818609E-02  0.8879519E-01
        1   -1    0    0  501    0  0.00000000000E+00  0.00000000000E+00  0.98001586224E+03  0.98001586225E+03  0.50400001928E-02 0.  1.
       -1   -1    0    0    0  501  0.00000000000E+00  0.00000000000E+00 -0.57968035096E+03  0.57968035098E+03  0.50400001928E-02 0. -1.
    10030    2    1    2    0    0  0.00000000000E+00  0.00000000000E+00  0.40033551128E+03  0.15596962132E+04  0.15074427870E+04 0.  0.
        4    1    3    3  502    0 -0.56373853436E+02  0.18684317829E+03  0.95341846402E+03  0.97318896678E+03  0.12699999809E+01 0.  1.
       -4    1    3    3    0  502  0.56373853436E+02 -0.18684317829E+03 -0.55308295274E+03  0.58650724645E+03  0.12699999809E+01 0. -1.
</event>
<event>
 5   0  0.1526126E-03  0.1526274E+04  0.7818609E-02  0.8867167E-01
       -2   -1    0    0    0  501  0.00000000000E+00  0.00000000000E+00  0.10708677976E+04  0.10708677976E+04  0.25500000920E-02 0.  1.
        2   -1    0    0  501    0  0.00000000000E+00  0.00000000000E+00 -0.54383747622E+03  0.54383747623E+03  0.25500000920E-02 0. -1.
    10030    2    1    2    0    0  0.00000000000E+00  0.00000000000E+00  0.52703032137E+03  0.16147052738E+04  0.15262739471E+04 0.  0.
        2    1    3    3  502    0  0.35481975576E+03  0.54707931832E+03  0.68295202677E+03  0.94425436747E+03  0.25500000920E-02 0.  1.
       -2    1    3    3    0  502 -0.35481975576E+03 -0.54707931832E+03 -0.15592170540E+03  0.67045090635E+03  0.25500000920E-02 0. -1.
</event>
<event>
 5   0  0.7870317E-04  0.1508364E+04  0.7818609E-02  0.8878910E-01
       -1   -1    0    0    0  501  0.00000000000E+00  0.00000000000E+00  0.57342709781E+03  0.57342709783E+03  0.50400001928E-02 0. -1.
        1   -1    0    0  501    0  0.00000000000E+00  0.00000000000E+00 -0.99191440244E+03  0.99191440245E+03  0.50400001928E-02 0.  1.
    10030    2    1    2    0    0  0.00000000000E+00  0.00000000000E+00 -0.41848730463E+03  0.15653415003E+04  0.15083641432E+04 0.  0.
        1    1    3    3  502    0 -0.29617580809E+02 -0.31117244334E+03 -0.92152666451E+03  0.97309654404E+03  0.50400001928E-02 0.  1.
       -1    1    3    3    0  502  0.29617580809E+02  0.31117244334E+03  0.50303935988E+03  0.59224495625E+03  0.50400001928E-02 0. -1.
</event>
<event>
 5   0  0.1500956E-03  0.1501385E+04  0.7818609E-02  0.8883532E-01
        2   -1    0    0  501    0  0.00000000000E+00  0.00000000000E+00  0.30207497834E+03  0.30207497835E+03  0.25500000920E-02 0. -1.
       -2   -1    0    0    0  501  0.00000000000E+00  0.00000000000E+00 -0.18655610760E+04  0.18655610760E+04  0.25500000920E-02 0.  1.
    10030    2    1    2    0    0  0.00000000000E+00  0.00000000000E+00 -0.15634860977E+04  0.21676360544E+04  0.15013851227E+04 0.  0.
        4    1    3    3  502    0  0.70970675999E+03  0.16420193949E+03 -0.51990200353E+03  0.89495567951E+03  0.12699999809E+01 0.  1.
       -4    1    3    3    0  502 -0.70970675999E+03 -0.16420193949E+03 -0.10435840942E+04  0.12726803749E+04  0.12699999809E+01 0. -1.
</event>
<event>
 5   0  0.8306301E-04  0.1495160E+04  0.7818609E-02  0.8887678E-01
       -1   -1    0    0    0  501  0.00000000000E+00  0.00000000000E+00  0.11011606004E+04  0.11011606004E+04  0.50400001928E-02 0.  1.
        1   -1    0    0  501    0  0.00000000000E+00  0.00000000000E+00 -0.50753372259E+03  0.50753372262E+03  0.50400001928E-02 0. -1.
    10030    2    1    2    0    0  0.00000000000E+00  0.00000000000E+00  0.59362687782E+03  0.16086943230E+04  0.14951603777E+04 0.  0.
        4    1    3    3  502    0  0.68622710430E+03  0.20541817877E+03  0.52699865895E+03  0.88928817955E+03  0.12699999809E+01 0. -1.
       -4    1    3    3    0  502 -0.68622710430E+03 -0.20541817877E+03  0.66628218877E+02  0.71940614350E+03  0.12699999809E+01 0.  1.
</event>
<event>
 5   0  0.5603875E-04  0.1499932E+04  0.7818609E-02  0.8884498E-01
        4   -1    0    0  501    0  0.00000000000E+00  0.00000000000E+00  0.11258391977E+04  0.11258399140E+04  0.12699999809E+01 0. -1.
       -4   -1    0    0    0  501  0.00000000000E+00  0.00000000000E+00 -0.49958036885E+03  0.49958198310E+03  0.12699999809E+01 0.  1.
    10030    2    1    2    0    0  0.00000000000E+00  0.00000000000E+00  0.62625882881E+03  0.16254218971E+04  0.14999320727E+04 0.  0.
        2    1    3    3  502    0 -0.30924580174E+01 -0.54613541926E+03  0.87011103259E+03  0.10273104051E+04  0.25500000920E-02 0. -1.
       -2    1    3    3    0  502  0.30924580174E+01  0.54613541926E+03 -0.24385220378E+03  0.59811149192E+03  0.25500000920E-02 0.  1.
</event>
<event>
 5   0  0.8306301E-04  0.1497326E+04  0.7818609E-02  0.8886233E-01
        1   -1    0    0  501    0  0.00000000000E+00  0.00000000000E+00  0.13480764719E+04  0.13480764719E+04  0.50400001928E-02 0. -1.
       -1   -1    0    0    0  501  0.00000000000E+00  0.00000000000E+00 -0.41577470063E+03  0.41577470066E+03  0.50400001928E-02 0.  1.
    10030    2    1    2    0    0  0.00000000000E+00  0.00000000000E+00  0.93230177125E+03  0.17638511725E+04  0.14973257382E+04 0.  0.
        4    1    3    3  502    0 -0.22833472871E+03 -0.48632549578E+03 -0.14804445378E+03  0.55728629032E+03  0.12699999809E+01 0.  1.
       -4    1    3    3    0  502  0.22833472871E+03  0.48632549578E+03  0.10803462250E+04  0.12065648822E+04  0.12699999809E+01 0. -1.
</event>
<event>
 5   0  0.8058234E-04  0.1517693E+04  0.7818609E-02  0.8872772E-01
        1   -1    0    0  501    0  0.00000000000E+00  0.00000000000E+00  0.18369447771E+04  0.18369447771E+04  0.50400001928E-02 0. -1.
       -1   -1    0    0    0  501  0.00000000000E+00  0.00000000000E+00 -0.31348137709E+03  0.31348137713E+03  0.50400001928E-02 0.  1.
    10030    2    1    2    0    0  0.00000000000E+00  0.00000000000E+00  0.15234634000E+04  0.21504261543E+04  0.15176929576E+04 0.  0.
        5    1    3    3  502    0  0.24721676932E+03  0.21293104521E+03 -0.20899804503E+03  0.38750230176E+03  0.46999998093E+01 0.  1.
       -5    1    3    3    0  502 -0.24721676932E+03 -0.21293104521E+03  0.17324614451E+04  0.17629238525E+04  0.46999998093E+01 0. -1.
</event>
<event>
 5   0  0.1511546E-03  0.1559837E+04  0.7818609E-02  0.8845609E-01
        2   -1    0    0  501    0  0.00000000000E+00  0.00000000000E+00  0.10809003606E+04  0.10809003606E+04  0.25500000920E-02 0. -1.
       -2   -1    0    0    0  501  0.00000000000E+00  0.00000000000E+00 -0.56274654232E+03  0.56274654232E+03  0.25500000920E-02 0.  1.
    10030    2    1    2    0    0  0.00000000000E+00  0.00000000000E+00  0.51815381823E+03  0.16436469029E+04  0.15598370947E+04 0.  0.
        1    1    3    3  502    0  0.22175841304E+03 -0.66370312184E+03  0.62195538851E+03  0.93621959657E+03  0.50400001928E-02 0. -1.
       -1    1    3    3    0  502 -0.22175841304E+03  0.66370312184E+03 -0.10380157027E+03  0.70742730631E+03  0.50400001928E-02 0.  1.
</event>
<event>
 5   0  0.8058234E-04  0.1499956E+04  0.7818609E-02  0.8884482E-01
       -1   -1    0    0    0  501  0.00000000000E+00  0.00000000000E+00  0.95930548992E+03  0.95930548993E+03  0.50400001928E-02 0.  1.
        1   -1    0    0  501    0  0.00000000000E+00  0.00000000000E+00 -0.58632710900E+03  0.58632710902E+03  0.50400001928E-02 0. -1.
    10030    2    1    2    0    0  0.00000000000E+00  0.00000000000E+00  0.37297838092E+03  0.15456325990E+04  0.14999557521E+04 0.  0.
        5    1    3    3  502    0 -0.33203950355E+03 -0.66405259185E+03  0.77297006272E+02  0.74646700787E+03  0.46999998093E+01 0. -1.
       -5    1    3    3    0  502  0.33203950355E+03  0.66405259185E+03  0.29568137465E+03  0.79916559108E+03  0.46999998093E+01 0.  1.
</event>
<event>
 5   0  0.1511546E-03  0.1511185E+04  0.7818609E-02  0.8877049E-01
        2   -1    0    0  501    0  0.00000000000E+00  0.00000000000E+00  0.15920906059E+04  0.15920906059E+04  0.25500000920E-02 0.  1.
       -2   -1    0    0    0  501  0.00000000000E+00  0.00000000000E+00 -0.35859774570E+03  0.35859774571E+03  0.25500000920E-02 0. -1.
    10030    2    1    2    0    0  0.00000000000E+00  0.00000000000E+00  0.12334928602E+04  0.19506883516E+04  0.15111851008E+04 0.  0.
        1    1    3    3  502    0  0.75188777467E+03  0.51276354459E+02  0.68692329104E+03  0.10197196174E+04  0.50400001928E-02 0.  1.
       -1    1    3    3    0  502 -0.75188777467E+03 -0.51276354459E+02  0.54656956919E+03  0.93096873428E+03  0.50400001928E-02 0. -1.
</event>
<event>
 5   0  0.8365016E-04  0.1500450E+04  0.7818609E-02  0.8884154E-01
       -1   -1    0    0    0  501  0.00000000000E+00  0.00000000000E+00  0.11450428116E+04  0.11450428116E+04  0.50400001928E-02 0.  1.
        1   -1    0    0  501    0  0.00000000000E+00  0.00000000000E+00 -0.49154280663E+03  0.49154280665E+03  0.50400001928E-02 0. -1.
    10030    2    1    2    0    0  0.00000000000E+00  0.00000000000E+00  0.65350000495E+03  0.16365856182E+04  0.15004500089E+04 0.  0.
        3    1    3    3  502    0 -0.39725630699E+02 -0.53777976784E+03  0.89565982873E+03  0.10454624543E+04  0.10100000352E+00 0. -1.
       -3    1    3    3    0  502  0.39725630699E+02  0.53777976784E+03 -0.24215982379E+03  0.59112316389E+03  0.10100000352E+00 0.  1.
</event>
<event>
 5   0  0.8058234E-04  0.1541311E+04  0.7818609E-02  0.8857437E-01
        1   -1    0    0  501    0  0.00000000000E+00  0.00000000000E+00  0.11444320608E+04  0.11444320608E+04  0.50400001928E-02 0.  1.
       -1   -1    0    0    0  501  0.00000000000E+00  0.00000000000E+00 -0.51895612338E+03  0.51895612340E+03  0.50400001928E-02 0. -1.
    10030    2    1    2    0    0  0.00000000000E+00  0.00000000000E+00  0.62547593741E+03  0.16633881842E+04  0.15413111636E+04 0.  0.
        5    1    3    3  502    0  0.55161669364E+03  0.53784930466E+03  0.33219611431E+03  0.83901084593E+03  0.46999998093E+01 0. -1.
       -5    1    3    3    0  502 -0.55161669364E+03 -0.53784930466E+03  0.29327982310E+03  0.82437733827E+03  0.46999998093E+01 0.  1.
</event>
<event>
 5   0  0.1500956E-03  0.1560522E+04  0.7818609E-02  0.8845175E-01
        2   -1    0    0  501    0  0.00000000000E+00  0.00000000000E+00  0.17546246295E+04  0.17546246296E+04  0.25500000920E-02 0. -1.
       -2   -1    0    0    0  501  0.00000000000E+00  0.00000000000E+00 -0.34697285124E+03  0.34697285125E+03  0.25500000920E-02 0.  1.
    10030    2    1    2    0    0  0.00000000000E+00  0.00000000000E+00  0.14076517783E+04  0.21015974808E+04  0.15605218494E+04 0.  0.
        4    1    3    3  502    0  0.10628077038E+03  0.31110457859E+03 -0.24914321019E+03  0.41249922794E+03  0.12699999809E+01 0.  1.
       -4    1    3    3    0  502 -0.10628077038E+03 -0.31110457859E+03  0.16567949885E+04  0.16890982529E+04  0.12699999809E+01 0. -1.
</event>
<event>
 5   0  0.1526126E-03  0.1517923E+04  0.7818609E-02  0.8872621E-01
        2   -1    0    0  501    0  0.00000000000E+00  0.00000000000E+00  0.15327654472E+04  0.15327654472E+04  0.25500000920E-02 0.  1.
       -2   -1    0    0    0  501  0.00000000000E+00  0.00000000000E+00 -0.37580585843E+03  0.37580585844E+03  0.25500000920E-02 0. -1.
    10030    2    1    2    0    0  0.00000000000E+00  0.00000000000E+00  0.11569595888E+04  0.19085713057E+04  0.15179225734E+04 0.  0.
        2    1    3    3  502    0  0.51244312523E+02 -0.75722931375E+03  0.57829544047E+03  0.95417389906E+03  0.25500000920E-02 0.  1.
       -2    1    3    3    0  502 -0.51244312523E+02  0.75722931375E+03  0.57866414831E+03  0.95439740659E+03  0.25500000920E-02 0. -1.
</event>
<event>
 5   0  0.8306301E-04  0.1469676E+04  0.7818609E-02  0.8904872E-01
        1   -1    0    0  501    0  0.00000000000E+00  0.00000000000E+00  0.20230879753E+04  0.20230879753E+04  0.50400001928E-02 0.  1.
       -1   -1    0    0    0  501  0.00000000000E+00  0.00000000000E+00 -0.26691232365E+03  0.26691232370E+03  0.50400001928E-02 0. -1.
    10030    2    1    2    0    0  0.00000000000E+00  0.00000000000E+00  0.17561756516E+04  0.22900002990E+04  0.14696763079E+04 0.  0.
        4    1    3    3  502    0 -0.13534650649E+03 -0.72224926003E+03  0.87064292788E+03  0.11392907404E+04  0.12699999809E+01 0. -1.
       -4    1    3    3    0  502  0.13534650649E+03  0.72224926003E+03  0.88553272372E+03  0.11507095585E+04  0.12699999809E+01 0.  1.
</event>
<event>
 5   0  0.1484056E-03  0.1490712E+04  0.7818609E-02  0.8890653E-01
       -2   -1    0    0    0  501  0.00000000000E+00  0.00000000000E+00  0.61448217663E+03  0.61448217664E+03  0.25500000920E-02 0. -1.
        2   -1    0    0  501    0  0.00000000000E+00  0.00000000000E+00 -0.90410381675E+03  0.90410381675E+03  0.25500000920E-02 0.  1.
    10030    2    1    2    0    0  0.00000000000E+00  0.00000000000E+00 -0.28962164011E+03  0.15185859934E+04  0.14907121536E+04 0.  0.
        5    1    3    3  502    0  0.70289754419E+03 -0.18073644787E+03  0.28076934495E+02  0.72632019486E+03  0.46999998093E+01 0.  1.
       -5    1    3    3    0  502 -0.70289754419E+03  0.18073644787E+03 -0.31769857461E+03  0.79226579853E+03  0.46999998093E+01 0. -1.
</event>
<event>
 5   0  0.7870317E-04  0.1502503E+04  0.7818609E-02  0.8882790E-01
        1   -1    0    0  501    0  0.00000000000E+00  0.00000000000E+00  0.57239027603E+03  0.57239027605E+03  0.50400001928E-02 0. -1.
       -1   -1    0    0    0  501  0.00000000000E+00  0.00000000000E+00 -0.98600405837E+03  0.98600405838E+03  0.50400001928E-02 0.  1.
    10030    2    1    2    0    0  0.00000000000E+00  0.00000000000E+00 -0.41361378234E+03  0.15583943344E+04  0.15025034245E+04 0.  0.
        1    1    3    3  502    0 -0.76065523667E+02 -0.52114618385E+03 -0.76245866753E+03  0.92667282713E+03  0.50400001928E-02 0.  1.
       -1    1    3    3    0  502  0.76065523667E+02  0.52114618385E+03  0.34884488519E+03  0.63172150729E+03  0.50400001928E-02 0. -1.
</event>
<event>
 5   0  0.1500956E-03  0.1511861E+04  0.7818609E-02  0.8876604E-01
       -2   -1    0    0    0  501  0.00000000000E+00  0.00000000000E+00  0.12322611624E+04  0.12322611624E+04  0.25500000920E-02 0.  1.
        2   -1    0    0  501    0  0.00000000000E+00  0.00000000000E+00 -0.46372533236E+03  0.46372533236E+03  0.25500000920E-02 0. -1.
    10030    2    1    2    0    0  0.00000000000E+00  0.00000000000E+00  0.76853583008E+03  0.16959864948E+04  0.15118607305E+04 0.  0.
        4    1    3    3  502    0 -0.36668243448E+03  0.45432578837E+03 -0.15437839716E+03  0.60390581396E+03  0.12699999809E+01 0. -1.
       -4    1    3    3    0  502  0.36668243448E+03 -0.45432578837E+03  0.92291422724E+03  0.10920806808E+04  0.12699999809E+01 0.  1.
</event>
<event>
 5   0  0.8191876E-04  0.1523864E+04  0.7818609E-02  0.8868737E-01
       -1   -1    0    0    0  501  0.00000000000E+00  0.00000000000E+00  0.33145880285E+03  0.33145880289E+03  0.50400001928E-02 0. -1.
        1   -1    0    0  501    0  0.00000000000E+00  0.00000000000E+00 -0.17514702543E+04  0.17514702543E+04  0.50400001928E-02 0.  1.
    10030    2    1    2    0    0  0.00000000000E+00  0.00000000000E+00 -0.14200114515E+04  0.20829290572E+04  0.15238638178E+04 0.  0.
        2    1    3    3  502    0 -0.62391620135E+02  0.45498812270E+03 -0.15410303300E+04  0.16080054054E+04  0.25500000920E-02 0.  1.
       -2    1    3    3    0  502  0.62391620135E+02 -0.45498812270E+03  0.12101887849E+03  0.47492365178E+03  0.25500000920E-02 0. -1.
</event>
<event>
 5   0  0.8191876E-04  0.1498513E+04  0.7818609E-02  0.8885442E-01
       -1   -1    0    0    0  501  0.00000000000E+00  0.00000000000E+00  0.63967416297E+03  0.63967416299E+03  0.50400001928E-02 0.  1.
        1   -1    0    0  501    0  0.00000000000E+00  0.00000000000E+00 -0.87761138814E+03  0.87761138815E+03  0.50400001928E-02 0. -1.
    10030    2    1    2    0    0  0.00000000000E+00  0.00000000000E+00 -0.23793722516E+03  0.15172855511E+04  0.14985130365E+04 0.  0.
        2    1    3    3  502    0  0.42884868055E+03  0.55934966592E+03  0.13838488965E+03  0.71828519215E+03  0.25500000920E-02 0.  1.
       -2    1    3    3    0  502 -0.42884868055E+03 -0.55934966592E+03 -0.37632211481E+03  0.79900035899E+03  0.25500000920E-02 0. -1.
</event>
<event>
 5   0  0.1526126E-03  0.1469965E+04  0.7818609E-02  0.8904675E-01
       -2   -1    0    0    0  501  0.00000000000E+00  0.00000000000E+00  0.84210318717E+03  0.84210318717E+03  0.25500000920E-02 0. -1.
        2   -1    0    0  501    0  0.00000000000E+00  0.00000000000E+00 -0.64148843234E+03  0.64148843235E+03  0.25500000920E-02 0.  1.
    10030    2    1    2    0    0  0.00000000000E+00  0.00000000000E+00  0.20061475483E+03  0.14835916195E+04  0.14699652423E+04 0.  0.
        2    1    3    3  502    0 -0.54674175376E+03 -0.66441704562E+02  0.59149985655E+03  0.80821601427E+03  0.25500000920E-02 0.  1.
       -2    1    3    3    0  502  0.54674175376E+03  0.66441704562E+02 -0.39088510173E+03  0.67537560525E+03  0.25500000920E-02 0. -1.
</event>
<event>
 5   0  0.8058234E-04  0.1509866E+04  0.7818609E-02  0.8877919E-01
       -1   -1    0    0    0  501  0.00000000000E+00  0.00000000000E+00  0.65799478486E+03  0.65799478488E+03  0.50400001928E-02 0.  1.
        1   -1    0    0  501    0  0.00000000000E+00  0.00000000000E+00 -0.86615208931E+03  0.86615208933E+03  0.50400001928E-02 0. -1.
    10030    2    1    2    0    0  0.00000000000E+00  0.00000000000E+00 -0.20815730445E+03  0.15241468742E+04  0.15098656334E+04 0.  0.
        5    1    3    3  502    0  0.11189698833E+03  0.59270097808E+03 -0.56233960248E+03  0.82465950788E+03  0.46999998093E+01 0. -1.
       -5    1    3    3    0  502 -0.11189698833E+03 -0.59270097808E+03  0.35418229803E+03  0.69948736633E+03  0.46999998093E+01 0.  1.
</event>
<event>
 5   0  0.7870317E-04  0.1482348E+04  0.7818609E-02  0.8896277E-01
        1   -1    0    0  501    0  0.00000000000E+00  0.00000000000E+00  0.14507557602E+04  0.14507557602E+04  0.50400001928E-02 0.  1.
       -1   -1    0    0    0  501  0.00000000000E+00  0.00000000000E+00 -0.37865699136E+03  0.37865699139E+03  0.50400001928E-02 0. -1.
    10030    2    1    2    0    0  0.00000000000E+00  0.00000000000E+00  0.10720987688E+04  0.18294127516E+04  0.14823478828E+04 0.  0.
        1    1    3    3  502    0  0.17199796253E+03 -0.71853325405E+03  0.60870061149E+03  0.95728249265E+03  0.50400001928E-02 0.  1.
       -1    1    3    3    0  502 -0.17199796253E+03  0.71853325405E+03  0.46339815733E+03  0.87213025892E+03  0.50400001928E-02 0. -1.
</event>
<event>
 5   0  0.8058234E-04  0.1482101E+04  0.7818609E-02  0.8896443E-01
       -1   -1    0    0    0  501  0.00000000000E+00  0.00000000000E+00  0.49945407776E+03  0.49945407779E+03  0.50400001928E-02 0.  1.
        1   -1    0    0  501    0  0.00000000000E+00  0.00000000000E+00 -0.10995123009E+04  0.10995123009E+04  0.50400001928E-02 0. -1.
    10030    2    1    2    0    0  0.00000000000E+00  0.00000000000E+00 -0.60005822314E+03  0.15989663787E+04  0.14821010792E+04 0.  0.
        5    1    3    3  502    0  0.41633030233E+03 -0.34128207494E+03 -0.84942754536E+03  0.10056607878E+04  0.46999998093E+01 0. -1.
       -5    1    3    3    0  502 -0.41633030233E+03  0.34128207494E+03  0.24936932222E+03  0.59330559089E+03  0.46999998093E+01 0.  1.
</event>
<event>
 5   0  0.1526126E-03  0.1514089E+04  0.7818609E-02  0.8875138E-01
        2   -1    0    0  501    0  0.00000000000E+00  0.00000000000E+00  0.63810669746E+03  0.63810669746E+03  0.25500000920E-02 0. -1.
       -2   -1    0    0    0  501  0.00000000000E+00  0.00000000000E+00 -0.89815127586E+03  0.89815127586E+03  0.25500000920E-02 0.  1.
    10030    2    1    2    0    0  0.00000000000E+00  0.00000000000E+00 -0.26004457840E+03  0.15362579733E+04  0.15140889597E+04 0.  0.
        2    1    3    3  502    0 -0.12795385150E+03  0.15523949875E+03  0.61048890002E+03  0.64278160143E+03  0.25500000920E-02 0. -1.
       -2    1    3    3    0  502  0.12795385150E+03 -0.15523949875E+03 -0.87053347841E+03  0.89347637189E+03  0.25500000920E-02 0.  1.
</event>
<event>
 5   0  0.1526126E-03  0.1499653E+04  0.7818609E-02  0.8884684E-01
       -2   -1    0    0    0  501  0.00000000000E+00  0.00000000000E+00  0.67342989584E+03  0.67342989584E+03  0.25500000920E-02 0.  1.
        2   -1    0    0  501    0  0.00000000000E+00  0.00000000000E+00 -0.83488993439E+03  0.83488993439E+03  0.25500000920E-02 0. -1.
    10030    2    1    2    0    0  0.00000000000E+00  0.00000000000E+00 -0.16146003855E+03  0.15083198302E+04  0.14996530820E+04 0.  0.
        2    1    3    3  502    0  0.11443363461E+03 -0.61030625117E+03 -0.50348170645E+03  0.79941391386E+03  0.25500000920E-02 0. -1.
       -2    1    3    3    0  502 -0.11443363461E+03  0.61030625117E+03  0.34202166790E+03  0.70890591637E+03  0.25500000920E-02 0.  1.
</event>
<event>
 5   0  0.7870317E-04  0.1487476E+04  0.7818609E-02  0.8892824E-01
       -1   -1    0    0    0  501  0.00000000000E+00  0.00000000000E+00  0.19758018392E+03  0.19758018398E+03  0.50400001928E-02 0. -1.
        1   -1    0    0  501    0  0.00000000000E+00  0.00000000000E+00 -0.27996049328E+04  0.27996049328E+04  0.50400001928E-02 0.  1.
    10030    2    1    2    0    0  0.00000000000E+00  0.00000000000E+00 -0.26020247488E+04  0.29971851167E+04  0.14874763294E+04 0.  0.
        1    1    3    3  502    0 -0.27299462347E+02  0.12467083506E+03 -0.27773761209E+04  0.27803068526E+04  0.50400001928E-02 0.  1.
       -1    1    3    3    0  502  0.27299462347E+02 -0.12467083506E+03  0.17535137204E+03  0.21687826415E+03  0.50400001928E-02 0. -1.
</event>
<event>
 5   0  0.1552067E-03  0.1475843E+04  0.7818609E-02  0.8900678E-01
        2   -1    0    0  501    0  0.00000000000E+00  0.00000000000E+00  0.19629512525E+04  0.19629512525E+04  0.25500000920E-02 0.  1.
       -2   -1    0    0    0  501  0.00000000000E+00  0.00000000000E+00 -0.27740263477E+03  0.27740263478E+03  0.25500000920E-02 0. -1.
    10030    2    1    2    0    0  0.00000000000E+00  0.00000000000E+00  0.16855486178E+04  0.22403538873E+04  0.14758426060E+04 0.  0.
        3    1    3    3  502    0 -0.45516433811E+03 -0.39674491390E+03  0.19882961309E+03  0.63569987151E+03  0.10100000352E+00 0. -1.
       -3    1    3    3    0  502  0.45516433811E+03  0.39674491390E+03  0.14867190047E+04  0.16046540158E+04  0.10100000352E+00 0.  1.
</event>
<event>
 5   0  0.1552067E-03  0.1156063E+04  0.7818609E-02  0.9152209E-01
       -2   -1    0    0    0  501  0.00000000000E+00  0.00000000000E+00  0.22789194612E+03  0.22789194613E+03  0.25500000920E-02 0. -1.
        2   -1    0    0  501    0  0.00000000000E+00  0.00000000000E+00 -0.14661347311E+04  0.14661347311E+04  0.25500000920E-02 0.  1.
    10030    2    1    2    0    0  0.00000000000E+00  0.00000000000E+00 -0.12382427849E+04  0.16940266772E+04  0.11560627961E+04 0.  0.
        3    1    3    3  502    0 -0.90470193554E+01  0.40002812093E+03 -0.12303917515E+04  0.12938192372E+04  0.10100000352E+00 0.  1.
       -3    1    3    3    0  502  0.90470193554E+01 -0.40002812093E+03 -0.78510333959E+01  0.40020743999E+03  0.10100000352E+00 0. -1.
</event>
<event>
 5   0  0.1500956E-03  0.1544623E+04  0.7818609E-02  0.8855309E-01
       -2   -1    0    0    0  501  0.00000000000E+00  0.00000000000E+00  0.37112975511E+03  0.37112975512E+03  0.25500000920E-02 0.  1.
        2   -1    0    0  501    0  0.00000000000E+00  0.00000000000E+00 -0.16071607579E+04  0.16071607579E+04  0.25500000920E-02 0. -1.
    10030    2    1    2    0    0  0.00000000000E+00  0.00000000000E+00 -0.12360310028E+04  0.19782905130E+04  0.15446231625E+04 0.  0.
        4    1    3    3  502    0  0.12710021232E+03 -0.31459774039E+03 -0.15065868644E+04  0.15443224389E+04  0.12699999809E+01 0. -1.
       -4    1    3    3    0  502 -0.12710021232E+03  0.31459774039E+03  0.27055586164E+03  0.43396807416E+03  0.12699999809E+01 0.  1.
</event>
<event>
 5   0  0.8306301E-04  0.1503943E+04  0.7818609E-02  0.8881835E-01
        1   -1    0    0  501    0  0.00000000000E+00  0.00000000000E+00  0.19282181625E+04  0.19282181626E+04  0.50400001928E-02 0. -1.
       -1   -1    0    0    0  501  0.00000000000E+00  0.00000000000E+00 -0.29325597666E+03  0.29325597671E+03  0.50400001928E-02 0.  1.
    10030    2    1    2    0    0  0.00000000000E+00  0.00000000000E+00  0.16349621859E+04  0.22214741393E+04  0.15039434837E+04 0.  0.
        4    1    3    3  502    0 -0.23735702412E+03  0.16538520699E+03 -0.20776775571E+03  0.35617366102E+03  0.12699999809E+01 0.  1.
       -4    1    3    3    0  502  0.23735702412E+03 -0.16538520699E+03  0.18427299416E+04  0.18653004782E+04  0.12699999809E+01 0. -1.
</event>
<event>
 5   0  0.8306301E-04  0.1512722E+04  0.7818609E-02  0.8876037E-01
        1   -1    0    0  501    0  0.00000000000E+00  0.00000000000E+00  0.94446184404E+03  0.94446184406E+03  0.50400001928E-02 0. -1.
       -1   -1    0    0    0  501  0.00000000000E+00  0.00000000000E+00 -0.60572295444E+03  0.60572295446E+03  0.50400001928E-02 0.  1.
    10030    2    1    2    0    0  0.00000000000E+00  0.00000000000E+00  0.33873888961E+03  0.15501847985E+04  0.15127223388E+04 0.  0.
        4    1    3    3  502    0  0.42797928703E+03  0.58880892727E+03  0.37992904613E+03  0.82110286563E+03  0.12699999809E+01 0. -1.
       -4    1    3    3    0  502 -0.42797928703E+03 -0.58880892727E+03 -0.41190156525E+02  0.72908193288E+03  0.12699999809E+01 0.  1.
</event>
<event>
 5   0  0.1484056E-03  0.1489624E+04  0.7818609E-02  0.8891383E-01
        2   -1    0    0  501    0  0.00000000000E+00  0.00000000000E+00  0.14793460913E+04  0.14793460913E+04  0.25500000920E-02 0.  1.
       -2   -1    0    0    0  501  0.00000000000E+00  0.00000000000E+00 -0.37499317126E+03  0.37499317127E+03  0.25500000920E-02 0. -1.
    10030    2    1    2    0    0  0.00000000000E+00  0.00000000000E+00  0.11043529200E+04  0.18543392625E+04  0.14896236869E+04 0.  0.
        5    1    3    3  502    0  0.55273082729E+03  0.27063915151E+02 -0.68345660523E+02  0.55761729013E+03  0.46999998093E+01 0. -1.
       -5    1    3    3    0  502 -0.55273082729E+03 -0.27063915151E+02  0.11726985805E+04  0.12967219724E+04  0.46999998093E+01 0.  1.
</event>
<event>
 5   0  0.8306301E-04  0.1527583E+04  0.7818609E-02  0.8866315E-01
        1   -1    0    0  501    0  0.00000000000E+00  0.00000000000E+00  0.75597351160E+03  0.75597351162E+03  0.50400001928E-02 0. -1.
       -1   -1    0    0    0  501  0.00000000000E+00  0.00000000000E+00 -0.77168994088E+03  0.77168994089E+03  0.50400001928E-02 0.  1.
    10030    2    1    2    0    0  0.00000000000E+00  0.00000000000E+00 -0.15716429276E+02  0.15276634525E+04  0.15275826059E+04 0.  0.
        4    1    3    3  502    0 -0.44558784267E+03 -0.30024047712E+03 -0.55073376636E+03  0.76941676869E+03  0.12699999809E+01 0.  1.
       -4    1    3    3    0  502  0.44558784267E+03  0.30024047712E+03  0.53501733709E+03  0.75824668382E+03  0.12699999809E+01 0. -1.
</event>
<event>
 5   0  0.1552067E-03  0.1489700E+04  0.7818609E-02  0.8891331E-01
       -2   -1    0    0    0  501  0.00000000000E+00  0.00000000000E+00  0.71811675850E+03  0.71811675850E+03  0.25500000920E-02 0.  1.
        2   -1    0    0  501    0  0.00000000000E+00  0.00000000000E+00 -0.77257848681E+03  0.77257848681E+03  0.25500000920E-02 0. -1.
    10030    2    1    2    0    0  0.00000000000E+00  0.00000000000E+00 -0.54461728309E+02  0.14906952453E+04  0.14897000485E+04 0.  0.
        3    1    3    3  502    0  0.17697633118E+03 -0.57452459787E+01  0.69674947608E+03  0.71889740038E+03  0.10100000352E+00 0.  1.
       -3    1    3    3    0  502 -0.17697633118E+03  0.57452459787E+01 -0.75121120439E+03  0.77179784494E+03  0.10100000352E+00 0. -1.
</event>
<event>
 5   0  0.1484056E-03  0.1452696E+04  0.7818609E-02  0.8916533E-01
        2   -1    0    0  501    0  0.00000000000E+00  0.00000000000E+00  0.17046711982E+04  0.17046711982E+04  0.25500000920E-02 0.  1.
       -2   -1    0    0    0  501  0.00000000000E+00  0.00000000000E+00 -0.30949175899E+03  0.30949175900E+03  0.25500000920E-02 0. -1.
    10030    2    1    2    0    0  0.00000000000E+00  0.00000000000E+00  0.13951794392E+04  0.20141629572E+04  0.14526963725E+04 0.  0.
        5    1    3    3  502    0  0.32377535198E+03  0.64352226580E+03  0.56894965702E+03  0.91797450257E+03  0.46999998093E+01 0. -1.
       -5    1    3    3    0  502 -0.32377535198E+03 -0.64352226580E+03  0.82622978220E+03  0.10961884547E+04  0.46999998093E+01 0.  1.
</event>
<event>
 5   0  0.8306301E-04  0.1564488E+04  0.7818609E-02  0.8842667E-01
        1   -1    0    0  501    0  0.00000000000E+00  0.00000000000E+00  0.12478891914E+04  0.12478891914E+04  0.50400001928E-02 0.  1.
       -1   -1    0    0    0  501  0.00000000000E+00  0.00000000000E+00 -0.49035233004E+03  0.49035233007E+03  0.50400001928E-02 0. -1.
    10030    2    1    2    0    0  0.00000000000E+00  0.00000000000E+00  0.75753686134E+03  0.17382415215E+04  0.15644876128E+04 0.  0.
        4    1    3    3  502    0  0.37509202903E+02 -0.22691398324E+03 -0.45193606538E+03  0.50709438587E+03  0.12699999809E+01 0. -1.
       -4    1    3    3    0  502 -0.37509202903E+02  0.22691398324E+03  0.12094729267E+04  0.12311471356E+04  0.12699999809E+01 0.  1.
</event>
<event>
 5   0  0.8365016E-04  0.1530878E+04  0.7818609E-02  0.8864175E-01
       -1   -1    0    0    0  501  0.00000000000E+00  0.00000000000E+00  0.73605398362E+03  0.73605398364E+03  0.50400001928E-02 0.  1.
        1   -1    0    0  501    0  0.00000000000E+00  0.00000000000E+00 -0.79599701301E+03  0.79599701303E+03  0.50400001928E-02 0. -1.
    10030    2    1    2    0    0  0.00000000000E+00  0.00000000000E+00 -0.59943029394E+02  0.15320509967E+04  0.15308778820E+04 0.  0.
        3    1    3    3  502    0  0.89111612626E+02 -0.54487564765E+01 -0.79076863945E+03  0.79579244768E+03  0.10100000352E+00 0. -1.
       -3    1    3    3    0  502 -0.89111612626E+02  0.54487564765E+01  0.73082561005E+03  0.73625854899E+03  0.10100000352E+00 0.  1.
</event>
<event>
 5   0  0.8306301E-04  0.1553064E+04  0.7818609E-02  0.8849913E-01
       -1   -1    0    0    0  501  0.00000000000E+00  0.00000000000E+00  0.78943856801E+03  0.78943856803E+03  0.50400001928E-02 0. -1.
        1   -1    0    0  501    0  0.00000000000E+00  0.00000000000E+00 -0.76383611880E+03  0.76383611882E+03  0.50400001928E-02 0.  1.
    10030    2    1    2    0    0  0.00000000000E+00  0.00000000000E+00  0.25602449209E+02  0.15532746868E+04  0.15530636714E+04 0.  0.
        4    1    3    3  502    0 -0.47698491946E+02  0.47817475594E+03  0.62286265605E+03  0.78669291630E+03  0.12699999809E+01 0. -1.
       -4    1    3    3    0  502  0.47698491946E+02 -0.47817475594E+03 -0.59726020685E+03  0.76658177055E+03  0.12699999809E+01 0.  1.
</event>
<event>
 5   0  0.1484056E-03  0.1486891E+04  0.7818609E-02  0.8893217E-01
        2   -1    0    0  501    0  0.00000000000E+00  0.00000000000E+00  0.30741181038E+03  0.30741181039E+03  0.25500000920E-02 0.  1.
       -2   -1    0    0    0  501  0.00000000000E+00  0.00000000000E+00 -0.17979507690E+04  0.17979507690E+04  0.25500000920E-02 0. -1.
    10030    2    1    2    0    0  0.00000000000E+00  0.00000000000E+00 -0.14905389586E+04  0.21053625794E+04  0.14868911203E+04 0.  0.
        5    1    3    3  502    0 -0.49290362454E+03 -0.37064991067E+03 -0.13331082864E+04  0.14688550414E+04  0.46999998093E+01 0. -1.
       -5    1    3    3    0  502  0.49290362454E+03  0.37064991067E+03 -0.15743067220E+03  0.63650753798E+03  0.46999998093E+01 0.  1.
</event>
<event>
 5   0  0.8306301E-04  0.1474576E+04  0.7818609E-02  0.8901538E-01
       -1   -1    0    0    0  501  0.00000000000E+00  0.00000000000E+00  0.28919796259E+03  0.28919796263E+03  0.50400001928E-02 0.  1.
        1   -1    0    0  501    0  0.00000000000E+00  0.00000000000E+00 -0.18796588741E+04  0.18796588741E+04  0.50400001928E-02 0. -1.
    10030    2    1    2    0    0  0.00000000000E+00  0.00000000000E+00 -0.15904609115E+04  0.21688568368E+04  0.14745758940E+04 0.  0.
        4    1    3    3  502    0 -0.18314109369E+03  0.69533143607E+03 -0.55550053381E+03  0.90863024501E+03  0.12699999809E+01 0.  1.
       -4    1    3    3    0  502  0.18314109369E+03 -0.69533143607E+03 -0.10349603777E+04  0.12602265918E+04  0.12699999809E+01 0. -1.
</event>
<event>
 5   0  0.5603875E-04  0.1547898E+04  0.7818609E-02  0.8853211E-01
       -3   -1    0    0    0  501  0.00000000000E+00  0.00000000000E+00  0.23636524657E+04  0.23636524679E+04  0.10100000352E+00 0. -1.
        3   -1    0    0  501    0  0.00000000000E+00  0.00000000000E+00 -0.25342016291E+03  0.25342018304E+03  0.10100000352E+00 0.  1.
    10030    2    1    2    0    0  0.00000000000E+00  0.00000000000E+00  0.21102323028E+04  0.26170726509E+04  0.15478982164E+04 0.  0.
        5    1    3    3  502    0  0.15032787906E+03  0.46777650632E+03  0.20661109872E+04  0.21237349252E+04  0.46999998093E+01 0. -1.
       -5    1    3    3    0  502 -0.15032787906E+03 -0.46777650632E+03  0.44121315572E+02  0.49333772568E+03  0.46999998093E+01 0.  1.
</event>
<event>
 5   0  0.8191876E-04  0.1555467E+04  0.7818609E-02  0.8848383E-01
       -1   -1    0    0    0  501  0.00000000000E+00  0.00000000000E+00  0.41725876593E+03  0.41725876596E+03  0.50400001928E-02 0.  1.
        1   -1    0    0  501    0  0.00000000000E+00  0.00000000000E+00 -0.14496268014E+04  0.14496268014E+04  0.50400001928E-02 0. -1.
    10030    2    1    2    0    0  0.00000000000E+00  0.00000000000E+00 -0.10323680355E+04  0.18668855674E+04  0.15554671199E+04 0.  0.
        2    1    3    3  502    0  0.48421874186E+03  0.13434244041E+02 -0.12464608409E+04  0.13372781673E+04  0.25500000920E-02 0. -1.
       -2    1    3    3    0  502 -0.48421874186E+03 -0.13434244041E+02  0.21409280542E+03  0.52960740008E+03  0.25500000920E-02 0.  1.
</event>
<event>
 5   0  0.8058234E-04  0.1487361E+04  0.7818609E-02  0.8892902E-01
        1   -1    0    0  501    0  0.00000000000E+00  0.00000000000E+00  0.10100252724E+04  0.10100252724E+04  0.50400001928E-02 0. -1.
       -1   -1    0    0    0  501  0.00000000000E+00  0.00000000000E+00 -0.54757081775E+03  0.54757081777E+03  0.50400001928E-02 0.  1.
    10030    2    1    2    0    0  0.00000000000E+00  0.00000000000E+00  0.46245445468E+03  0.15575960902E+04  0.14873605674E+04 0.  0.
        5    1    3    3  502    0 -0.49001417382E+03 -0.11348148045E+03 -0.34240395309E+03  0.60848540988E+03  0.46999998093E+01 0.  1.
       -5    1    3    3    0  502  0.49001417382E+03  0.11348148045E+03  0.80485840778E+03  0.94911068033E+03  0.46999998093E+01 0. -1.
</event>
<event>
 5   0  0.1526126E-03  0.1512079E+04  0.7818609E-02  0.8876460E-01
        2   -1    0    0  501    0  0.00000000000E+00  0.00000000000E+00  0.82900682707E+03  0.82900682708E+03  0.25500000920E-02 0. -1.
       -2   -1    0    0    0  501  0.00000000000E+00  0.00000000000E+00 -0.68949484668E+03  0.68949484668E+03  0.25500000920E-02 0.  1.
    10030    2    1    2    0    0  0.00000000000E+00  0.00000000000E+00  0.13951198039E+03  0.15185016738E+04  0.15120792772E+04 0.  0.
        2    1    3    3  502    0  0.44847959068E+03 -0.27687480168E+03  0.61409359222E+03  0.80926172470E+03  0.25500000920E-02 0. -1.
       -2    1    3    3    0  502 -0.44847959068E+03  0.27687480168E+03 -0.47458161182E+03  0.70923994906E+03  0.25500000920E-02 0.  1.
</event>
<event>
 5   0  0.1500956E-03  0.1500024E+04  0.7818609E-02  0.8884437E-01
       -2   -1    0    0    0  501  0.00000000000E+00  0.00000000000E+00  0.45979787147E+03  0.45979787147E+03  0.25500000920E-02 0.  1.
        2   -1    0    0  501    0  0.00000000000E+00  0.00000000000E+00 -0.12234021318E+04  0.12234021318E+04  0.25500000920E-02 0. -1.
    10030    2    1    2    0    0  0.00000000000E+00  0.00000000000E+00 -0.76360426031E+03  0.16832000033E+04  0.15000235947E+04 0.  0.
        4    1    3    3  502    0 -0.16875477982E+03 -0.38709208434E+03 -0.10773306958E+04  0.11571350390E+04  0.12699999809E+01 0. -1.
       -4    1    3    3    0  502  0.16875477982E+03  0.38709208434E+03  0.31372643544E+03  0.52606496430E+03  0.12699999809E+01 0.  1.
</event>
<event>
 5   0  0.1552067E-03  0.1544826E+04  0.7818609E-02  0.8855179E-01
       -2   -1    0    0    0  501  0.00000000000E+00  0.00000000000E+00  0.48866247997E+03  0.48866247997E+03  0.25500000920E-02 0. -1.
        2   -1    0    0  501    0  0.00000000000E+00  0.00000000000E+00 -0.12209284308E+04  0.12209284308E+04  0.25500000920E-02 0.  1.
    10030    2    1    2    0    0  0.00000000000E+00  0.00000000000E+00 -0.73226595085E+03  0.17095909108E+04  0.15448260936E+04 0.  0.
        3    1    3    3  502    0  0.26013324080E+03 -0.48874445962E+03  0.22990315452E+03  0.59949638901E+03  0.10100000352E+00 0. -1.
       -3    1    3    3    0  502 -0.26013324080E+03  0.48874445962E+03 -0.96216910536E+03  0.11100945218E+04  0.10100000352E+00 0.  1.
</event>
<event>
 5   0  0.7870317E-04  0.1446563E+04  0.7818609E-02  0.8920787E-01
        1   -1    0    0  501    0  0.00000000000E+00  0.00000000000E+00  0.12056208928E+04  0.12056208928E+04  0.50400001928E-02 0. -1.
       -1   -1    0    0    0  501  0.00000000000E+00  0.00000000000E+00 -0.43391433786E+03  0.43391433789E+03  0.50400001928E-02 0.  1.
    10030    2    1    2    0    0  0.00000000000E+00  0.00000000000E+00  0.77170655494E+03  0.16395352307E+04  0.14465630874E+04 0.  0.
        1    1    3    3  502    0  0.27393338631E+03  0.66929600019E+03  0.39924254194E+03  0.82606975694E+03  0.50400001928E-02 0.  1.
       -1    1    3    3    0  502 -0.27393338631E+03 -0.66929600019E+03  0.37246401300E+03  0.81346547377E+03  0.50400001928E-02 0. -1.
</event>
<event>
 5   0  0.8365016E-04  0.1514529E+04  0.7818609E-02  0.8874848E-01
        1   -1    0    0  501    0  0.00000000000E+00  0.00000000000E+00  0.16933616767E+04  0.16933616767E+04  0.50400001928E-02 0.  1.
       -1   -1    0    0    0  501  0.00000000000E+00  0.00000000000E+00 -0.33864565271E+03  0.33864565275E+03  0.50400001928E-02 0. -1.
    10030    2    1    2    0    0  0.00000000000E+00  0.00000000000E+00  0.13547160240E+04  0.20320073295E+04  0.15145290626E+04 0.  0.
        3    1    3    3  502    0  0.23974373975E+03  0.58021716448E+03  0.12455075781E+04  0.13947824763E+04  0.10100000352E+00 0.  1.
       -3    1    3    3    0  502 -0.23974373975E+03 -0.58021716448E+03  0.10920844589E+03  0.63722485322E+03  0.10100000352E+00 0. -1.
</event>
<event>
 5   0  0.8058234E-04  0.1508877E+04  0.7818609E-02  0.8878571E-01
       -1   -1    0    0    0  501  0.00000000000E+00  0.00000000000E+00  0.28371667277E+03  0.28371667282E+03  0.50400001928E-02 0.  1.
        1   -1    0    0  501    0  0.00000000000E+00  0.00000000000E+00 -0.20061480494E+04  0.20061480494E+04  0.50400001928E-02 0. -1.
    10030    2    1    2    0    0  0.00000000000E+00  0.00000000000E+00 -0.17224313766E+04  0.22898647222E+04  0.15088772644E+04 0.  0.
        5    1    3    3  502    0 -0.19955627842E+03  0.18908081605E+03  0.20497591734E+03  0.34294530168E+03  0.46999998093E+01 0.  1.
       -5    1    3    3    0  502  0.19955627842E+03 -0.18908081605E+03 -0.19274072939E+04  0.19469194205E+04  0.46999998093E+01 0. -1.
</event>
<event>
 5   0  0.8058234E-04  0.1524851E+04  0.7818609E-02  0.8868094E-01
        1   -1    0    0  501    0  0.00000000000E+00  0.00000000000E+00  0.90765583061E+03  0.90765583063E+03  0.50400001928E-02 0.  1.
       -1   -1    0    0    0  501  0.00000000000E+00  0.00000000000E+00 -0.64043256801E+03  0.64043256803E+03  0.50400001928E-02 0. -1.
    10030    2    1    2    0    0  0.00000000000E+00  0.00000000000E+00  0.26722326261E+03  0.15480883987E+04  0.15248506215E+04 0.  0.
        5    1    3    3  502    0  0.31428709667E+03 -0.54055814622E+03  0.57648271351E+03  0.85049038651E+03  0.46999998093E+01 0.  1.
       -5    1    3    3    0  502 -0.31428709667E+03  0.54055814622E+03 -0.30925945090E+03  0.69759801214E+03  0.46999998093E+01 0. -1.
</event>
<event>
 5   0  0.1526126E-03  0.1494770E+04  0.7818609E-02  0.8887938E-01
       -2   -1    0    0    0  501  0.00000000000E+00  0.00000000000E+00  0.27867465514E+03  0.27867465515E+03  0.25500000920E-02 0. -1.
        2   -1    0    0  501    0  0.00000000000E+00  0.00000000000E+00 -0.20044310733E+04  0.20044310733E+04  0.25500000920E-02 0.  1.
    10030    2    1    2    0    0  0.00000000000E+00  0.00000000000E+00 -0.17257564181E+04  0.22831057284E+04  0.14947697323E+04 0.  0.
        2    1    3    3  502    0 -0.60367044293E+03  0.33574875468E+03 -0.12987589694E+04  0.14710268830E+04  0.25500000920E-02 0.  1.
       -2    1    3    3    0  502  0.60367044293E+03 -0.33574875468E+03 -0.42699744870E+03  0.81207884539E+03  0.25500000920E-02 0. -1.
</event>
<event>
 5   0  0.1526126E-03  0.1494713E+04  0.7818609E-02  0.8887976E-01
       -2   -1    0    0    0  501  0.00000000000E+00  0.00000000000E+00  0.44225804761E+03  0.44225804762E+03  0.25500000920E-02 0.  1.
        2   -1    0    0  501    0  0.00000000000E+00  0.00000000000E+00 -0.12629321416E+04  0.12629321416E+04  0.25500000920E-02 0. -1.
    10030    2    1    2    0    0  0.00000000000E+00  0.00000000000E+00 -0.82067409396E+03  0.17051901892E+04  0.14947132209E+04 0.  0.
        2    1    3    3  502    0 -0.11914805265E+03 -0.48836470568E+03  0.22057095935E+03  0.54895163022E+03  0.25500000920E-02 0.  1.
       -2    1    3    3    0  502  0.11914805265E+03  0.48836470568E+03 -0.10412450533E+04  0.11562385590E+04  0.25500000920E-02 0. -1.
</event>
<event>
 5   0  0.8365016E-04  0.1510685E+04  0.7818609E-02  0.8877378E-01
        1   -1    0    0  501    0  0.00000000000E+00  0.00000000000E+00  0.55421006739E+03  0.55421006741E+03  0.50400001928E-02 0.  1.
       -1   -1    0    0    0  501  0.00000000000E+00  0.00000000000E+00 -0.10294699211E+04  0.10294699211E+04  0.50400001928E-02 0. -1.
    10030    2    1    2    0    0  0.00000000000E+00  0.00000000000E+00 -0.47525985368E+03  0.15836799885E+04  0.15106853999E+04 0.  0.
        3    1    3    3  502    0  0.85373494553E+02 -0.62769834849E+03 -0.66890674158E+03  0.92126548258E+03  0.10100000352E+00 0. -1.
       -3    1    3    3    0  502 -0.85373494553E+02  0.62769834849E+03  0.19364688789E+03  0.66241450592E+03  0.10100000352E+00 0.  1.
</event>
<event>
 5   0  0.7870317E-04  0.1514797E+04  0.7818609E-02  0.8874673E-01
        1   -1    0    0  501    0  0.00000000000E+00  0.00000000000E+00  0.93933240610E+03  0.93933240611E+03  0.50400001928E-02 0.  1.
       -1   -1    0    0    0  501  0.00000000000E+00  0.00000000000E+00 -0.61070194355E+03  0.61070194357E+03  0.50400001928E-02 0. -1.
    10030    2    1    2    0    0  0.00000000000E+00  0.00000000000E+00  0.32863046255E+03  0.15500343497E+04  0.15147965224E+04 0.  0.
        1    1    3    3  502    0  0.10274624215E+03  0.24533931798E+03  0.88996915606E+03  0.92886665889E+03  0.50400001928E-02 0.  1.
       -1    1    3    3    0  502 -0.10274624215E+03 -0.24533931798E+03 -0.56133869352E+03  0.62116769080E+03  0.50400001928E-02 0. -1.
</event>
<event>
 5   0  0.1511546E-03  0.1594913E+04  0.7818609E-02  0.8823679E-01
       -2   -1    0    0    0  501  0.00000000000E+00  0.00000000000E+00  0.28089788571E+03  0.28089788572E+03  0.25500000920E-02 0. -1.
        2   -1    0    0  501    0  0.00000000000E+00  0.00000000000E+00 -0.22639434566E+04  0.22639434566E+04  0.25500000920E-02 0.  1.
    10030    2    1    2    0    0  0.00000000000E+00  0.00000000000E+00 -0.19830455709E+04  0.25448413423E+04  0.15949130764E+04 0.  0.
        1    1    3    3  502    0  0.21075630385E+03 -0.13058129770E+03  0.21783923229E+03  0.33003579514E+03  0.50400001928E-02 0. -1.
       -1    1    3    3    0  502 -0.21075630385E+03  0.13058129770E+03 -0.22008848032E+04  0.22148055472E+04  0.50400001928E-02 0.  1.
</event>
<event>
 5   0  0.1484056E-03  0.1507157E+04  0.7818609E-02  0.8879708E-01
       -2   -1    0    0    0  501  0.00000000000E+00  0.00000000000E+00  0.29155070674E+03  0.29155070675E+03  0.25500000920E-02 0. -1.
        2   -1    0    0  501    0  0.00000000000E+00  0.00000000000E+00 -0.19477924269E+04  0.19477924269E+04  0.25500000920E-02 0.  1.
    10030    2    1    2    0    0  0.00000000000E+00  0.00000000000E+00 -0.16562417202E+04  0.22393431337E+04  0.15071566059E+04 0.  0.
        5    1    3    3  502    0 -0.16723501736E+03 -0.46086009714E+03  0.22168961390E+02  0.49078827718E+03  0.46999998093E+01 0. -1.
       -5    1    3    3    0  502  0.16723501736E+03  0.46086009714E+03 -0.16784106816E+04  0.17485548565E+04  0.46999998093E+01 0.  1.
</event>
<event>
 5   0  0.8191876E-04  0.1518075E+04  0.7818609E-02  0.8872521E-01
       -1   -1    0    0    0  501  0.00000000000E+00  0.00000000000E+00  0.72378169304E+03  0.72378169305E+03  0.50400001928E-02 0.  1.
        1   -1    0    0  501    0  0.00000000000E+00  0.00000000000E+00 -0.79601092409E+03  0.79601092411E+03  0.50400001928E-02 0. -1.
    10030    2    1    2    0    0  0.00000000000E+00  0.00000000000E+00 -0.72229231056E+02  0.15197926172E+04  0.15180752739E+04 0.  0.
        2    1    3    3  502    0  0.62053102454E+03  0.28691125937E+03 -0.36627749316E+03  0.77558753547E+03  0.25500000920E-02 0. -1.
       -2    1    3    3    0  502 -0.62053102454E+03 -0.28691125937E+03  0.29404826210E+03  0.74420508170E+03  0.25500000920E-02 0.  1.
</event>
<event>
 5   0  0.8191876E-04  0.1485935E+04  0.7818609E-02  0.8893860E-01
       -1   -1    0    0    0  501  0.00000000000E+00  0.00000000000E+00  0.89889447850E+03  0.89889447852E+03  0.50400001928E-02 0. -1.
        1   -1    0    0  501    0  0.00000000000E+00  0.00000000000E+00 -0.61408842752E+03  0.61408842754E+03  0.50400001928E-02 0.  1.
    10030    2    1    2    0    0  0.00000000000E+00  0.00000000000E+00  0.28480605098E+03  0.15129829061E+04  0.14859349876E+04 0.  0.
        2    1    3    3  502    0  0.55466822535E+03  0.45870199799E+03  0.32997444851E+03  0.79180016409E+03  0.25500000920E-02 0.  1.
       -2    1    3    3    0  502 -0.55466822535E+03 -0.45870199799E+03 -0.45168397534E+02  0.72118274197E+03  0.25500000920E-02 0. -1.
</event>
<event>
 5   0  0.8365016E-04  0.1477638E+04  0.7818609E-02  0.8899461E-01
        1   -1    0    0  501    0  0.00000000000E+00  0.00000000000E+00  0.94180540876E+03  0.94180540878E+03  0.50400001928E-02 0.  1.
       -1   -1    0    0    0  501  0.00000000000E+00  0.00000000000E+00 -0.57958237759E+03  0.57958237761E+03  0.50400001928E-02 0. -1.
    10030    2    1    2    0    0  0.00000000000E+00  0.00000000000E+00  0.36222303117E+03  0.15213877864E+04  0.14776384105E+04 0.  0.
        3    1    3    3  502    0  0.37210857514E+03 -0.27838252230E+03  0.77247944551E+03  0.90149105617E+03  0.10100000352E+00 0.  1.
       -3    1    3    3    0  502 -0.37210857514E+03  0.27838252230E+03 -0.41025641434E+03  0.61989673021E+03  0.10100000352E+00 0. -1.
</event>
<event>
 5   0  0.1552067E-03  0.1525219E+04  0.7818609E-02  0.8867854E-01
        2   -1    0    0  501    0  0.00000000000E+00  0.00000000000E+00  0.24035168554E+04  0.24035168554E+04  0.25500000920E-02 0. -1.
       -2   -1    0    0    0  501  0.00000000000E+00  0.00000000000E+00 -0.24196747721E+03  0.24196747723E+03  0.25500000920E-02 0.  1.
    10030    2    1    2    0    0  0.00000000000E+00  0.00000000000E+00  0.21615493782E+04  0.26454843327E+04  0.15252185548E+04 0.  0.
        3    1    3    3  502    0 -0.40634343574E+03 -0.51080163806E+03  0.17648337514E+04  0.18816672080E+04  0.10100000352E+00 0. -1.
       -3    1    3    3    0  502  0.40634343574E+03  0.51080163806E+03  0.39671562679E+03  0.76381712468E+03  0.10100000352E+00 0.  1.
</event>
<event>
 5   0  0.8058234E-04  0.1602997E+04  0.7818609E-02  0.8818709E-01
        1   -1    0    0  501    0  0.00000000000E+00  0.00000000000E+00  0.76153911656E+03  0.76153911658E+03  0.50400001928E-02 0.  1.
       -1   -1    0    0    0  501  0.00000000000E+00  0.00000000000E+00 -0.84355496224E+03  0.84355496226E+03  0.50400001928E-02 0. -1.
    10030    2    1    2    0    0  0.00000000000E+00  0.00000000000E+00 -0.82015845681E+02  0.16050940788E+04  0.16029973185E+04 0.  0.
        5    1    3    3  502    0  0.20546450905E+03  0.59662082496E+03 -0.53582628364E+03  0.82783088219E+03  0.46999998093E+01 0. -1.
       -5    1    3    3    0  502 -0.20546450905E+03 -0.59662082496E+03  0.45381043796E+03  0.77726319665E+03  0.46999998093E+01 0.  1.
</event>
<event>
 5   0  0.8191876E-04  0.1487052E+04  0.7818609E-02  0.8893109E-01
       -1   -1    0    0    0  501  0.00000000000E+00  0.00000000000E+00  0.76856780240E+03  0.76856780241E+03  0.50400001928E-02 0.  1.
        1   -1    0    0  501    0  0.00000000000E+00  0.00000000000E+00 -0.71929966936E+03  0.71929966938E+03  0.50400001928E-02 0. -1.
    10030    2    1    2    0    0  0.00000000000E+00  0.00000000000E+00  0.49268133033E+02  0.14878674718E+04  0.14870515340E+04 0.  0.
        2    1    3    3  502    0 -0.26904600708E+03  0.59988756545E+03 -0.32280237423E+03  0.73242898490E+03  0.25500000920E-02 0. -1.
       -2    1    3    3    0  502  0.26904600708E+03 -0.59988756545E+03  0.37207050726E+03  0.75543848690E+03  0.25500000920E-02 0.  1.
</event>
<event>
 5   0  0.1552067E-03  0.1542988E+04  0.7818609E-02  0.8856359E-01
       -2   -1    0    0    0  501  0.00000000000E+00  0.00000000000E+00  0.65850082677E+03  0.65850082677E+03  0.25500000920E-02 0.  1.
        2   -1    0    0  501    0  0.00000000000E+00  0.00000000000E+00 -0.90387595256E+03  0.90387595256E+03  0.25500000920E-02 0. -1.
    10030    2    1    2    0    0  0.00000000000E+00  0.00000000000E+00 -0.24537512579E+03  0.15623767793E+04  0.15429880908E+04 0.  0.
        3    1    3    3  502    0 -0.65333049165E+03  0.18186908371E+03  0.24974664217E+03  0.72269667939E+03  0.10100000352E+00 0.  1.
       -3    1    3    3    0  502  0.65333049165E+03 -0.18186908371E+03 -0.49512176797E+03  0.83968009994E+03  0.10100000352E+00 0. -1.
</event>
<event>
 5   0  0.1484056E-03  0.1547484E+04  0.7818609E-02  0.8853477E-01
        2   -1    0    0  501    0  0.00000000000E+00  0.00000000000E+00  0.16360062134E+04  0.16360062134E+04  0.25500000920E-02 0. -1.
       -2   -1    0    0    0  501  0.00000000000E+00  0.00000000000E+00 -0.36593770100E+03  0.36593770101E+03  0.25500000920E-02 0.  1.
    10030    2    1    2    0    0  0.00000000000E+00  0.00000000000E+00  0.12700685124E+04  0.20019439144E+04  0.15474835735E+04 0.  0.
        5    1    3    3  502    0  0.29944767419E+03  0.62350863617E+03  0.10835920794E+04  0.12855449480E+04  0.46999998093E+01 0. -1.
       -5    1    3    3    0  502 -0.29944767419E+03 -0.62350863617E+03  0.18647643305E+03  0.71639896639E+03  0.46999998093E+01 0.  1.
</event>
<event>
 5   0  0.1484056E-03  0.1506804E+04  0.7818609E-02  0.8879941E-01
       -2   -1    0    0    0  501  0.00000000000E+00  0.00000000000E+00  0.80130209411E+03  0.80130209412E+03  0.25500000920E-02 0.  1.
        2   -1    0    0  501    0  0.00000000000E+00  0.00000000000E+00 -0.70836484873E+03  0.70836484873E+03  0.25500000920E-02 0. -1.
    10030    2    1    2    0    0  0.00000000000E+00  0.00000000000E+00  0.92937245388E+02  0.15096669428E+04  0.15068035528E+04 0.  0.
        5    1    3    3  502    0  0.60433699791E+02  0.40583242853E+03  0.67952371795E+03  0.79380524398E+03  0.46999998093E+01 0.  1.
       -5    1    3    3    0  502 -0.60433699791E+02 -0.40583242853E+03 -0.58658647256E+03  0.71586169887E+03  0.46999998093E+01 0. -1.
</event>
<event>
 5   0  0.1484056E-03  0.1514609E+04  0.7818609E-02  0.8874796E-01
        2   -1    0    0  501    0  0.00000000000E+00  0.00000000000E+00  0.74826889024E+03  0.74826889025E+03  0.25500000920E-02 0. -1.
       -2   -1    0    0    0  501  0.00000000000E+00  0.00000000000E+00 -0.76644943950E+03  0.76644943951E+03  0.25500000920E-02 0.  1.
    10030    2    1    2    0    0  0.00000000000E+00  0.00000000000E+00 -0.18180549261E+02  0.15147183298E+04  0.15146092189E+04 0.  0.
        5    1    3    3  502    0 -0.55271523050E+03 -0.51098287063E+03 -0.92105660166E+02  0.75835556485E+03  0.46999998093E+01 0.  1.
       -5    1    3    3    0  502  0.55271523050E+03  0.51098287063E+03  0.73925110906E+02  0.75636276490E+03  0.46999998093E+01 0. -1.
</event>
<event>
 5   0  0.1526126E-03  0.1451529E+04  0.7818609E-02  0.8917341E-01
       -2   -1    0    0    0  501  0.00000000000E+00  0.00000000000E+00  0.52488196734E+03  0.52488196735E+03  0.25500000920E-02 0. -1.
        2   -1    0    0  501    0  0.00000000000E+00  0.00000000000E+00 -0.10035281117E+04  0.10035281117E+04  0.25500000920E-02 0.  1.
    10030    2    1    2    0    0  0.00000000000E+00  0.00000000000E+00 -0.47864614435E+03  0.15284100790E+04  0.14515285868E+04 0.  0.
        2    1    3    3  502    0 -0.37229521915E+03  0.12982854020E+03  0.40227335418E+03  0.56327882220E+03  0.25500000920E-02 0. -1.
       -2    1    3    3    0  502  0.37229521915E+03 -0.12982854020E+03 -0.88091949852E+03  0.96513125685E+03  0.25500000920E-02 0.  1.
</event>
<event>
 5   0  0.1500956E-03  0.1470926E+04  0.7818609E-02  0.8904020E-01
        2   -1    0    0  501    0  0.00000000000E+00  0.00000000000E+00  0.29231559948E+04  0.29231559948E+04  0.25500000920E-02 0.  1.
       -2   -1    0    0    0  501  0.00000000000E+00  0.00000000000E+00 -0.18504182071E+03  0.18504182072E+03  0.25500000920E-02 0. -1.
    10030    2    1    2    0    0  0.00000000000E+00  0.00000000000E+00  0.27381141741E+04  0.31081978155E+04  0.14709263850E+04 0.  0.
        4    1    3    3  502    0 -0.59803664809E+02 -0.61785421131E+03  0.22025471837E+04  0.22883478787E+04  0.12699999809E+01 0.  1.
       -4    1    3    3    0  502  0.59803664809E+02  0.61785421131E+03  0.53556699039E+03  0.81984993680E+03  0.12699999809E+01 0. -1.
</event>
<event>
 5   0  0.1484056E-03  0.1509219E+04  0.7818609E-02  0.8878346E-01
       -2   -1    0    0    0  501  0.00000000000E+00  0.00000000000E+00  0.51882160480E+03  0.51882160480E+03  0.25500000920E-02 0.  1.
        2   -1    0    0  501    0  0.00000000000E+00  0.00000000000E+00 -0.10975549219E+04  0.10975549219E+04  0.25500000920E-02 0. -1.
    10030    2    1    2    0    0  0.00000000000E+00  0.00000000000E+00 -0.57873331706E+03  0.16163765267E+04  0.15092186136E+04 0.  0.
        5    1    3    3  502    0 -0.44084177097E+03 -0.51287181232E+03  0.69113893493E+02  0.67983658564E+03  0.46999998093E+01 0.  1.
       -5    1    3    3    0  502  0.44084177097E+03  0.51287181232E+03 -0.64784721056E+03  0.93653994102E+03  0.46999998093E+01 0. -1.
</event>
<event>
 5   0  0.1484056E-03  0.1479757E+04  0.7818609E-02  0.8898027E-01
        2   -1    0    0  501    0  0.00000000000E+00  0.00000000000E+00  0.74062573541E+03  0.74062573541E+03  0.25500000920E-02 0. -1.
       -2   -1    0    0    0  501  0.00000000000E+00  0.00000000000E+00 -0.73913250770E+03  0.73913250770E+03  0.25500000920E-02 0.  1.
    10030    2    1    2    0    0  0.00000000000E+00  0.00000000000E+00  0.14932277085E+01  0.14797582431E+04  0.14797574897E+04 0.  0.
        5    1    3    3  502    0 -0.30015429293E+03 -0.13975597669E+03  0.66239197225E+03  0.74054678953E+03  0.46999998093E+01 0. -1.
       -5    1    3    3    0  502  0.30015429293E+03  0.13975597669E+03 -0.66089874454E+03  0.73921145359E+03  0.46999998093E+01 0.  1.
</event>
<event>
 5   0  0.1511546E-03  0.1484864E+04  0.7818609E-02  0.8894581E-01
        2   -1    0    0  501    0  0.00000000000E+00  0.00000000000E+00  0.24049137654E+04  0.24049137654E+04  0.25500000920E-02 0.  1.
       -2   -1    0    0    0  501  0.00000000000E+00  0.00000000000E+00 -0.22919971061E+03  0.22919971063E+03  0.25500000920E-02 0. -1.
    10030    2    1    2    0    0  0.00000000000E+00  0.00000000000E+00  0.21757140548E+04  0.26341134760E+04  0.14848643562E+04 0.  0.
        1    1    3    3  502    0 -0.17847753149E+03  0.55725755574E+03  0.27721543340E+03  0.64748637763E+03  0.50400001928E-02 0. -1.
       -1    1    3    3    0  502  0.17847753149E+03 -0.55725755574E+03  0.18984986214E+04  0.19866270984E+04  0.50400001928E-02 0.  1.
</event>
<event>
 5   0  0.5603875E-04  0.1477320E+04  0.7818609E-02  0.8899677E-01
       -3   -1    0    0    0  501  0.00000000000E+00  0.00000000000E+00  0.66474494400E+03  0.66474495167E+03  0.10100000352E+00 0.  1.
        3   -1    0    0  501    0  0.00000000000E+00  0.00000000000E+00 -0.82079387270E+03  0.82079387892E+03  0.10100000352E+00 0. -1.
    10030    2    1    2    0    0  0.00000000000E+00  0.00000000000E+00 -0.15604892871E+03  0.14855388306E+04  0.14773199887E+04 0.  0.
        3    1    3    3  502    0 -0.51278805194E+03  0.53118607585E+03 -0.55352552669E+02  0.74038783666E+03  0.10100000352E+00 0. -1.
       -3    1    3    3    0  502  0.51278805194E+03 -0.53118607585E+03 -0.10069637604E+03  0.74515099392E+03  0.10100000352E+00 0.  1.
</event>
<event>
 5   0  0.1511546E-03  0.1590073E+04  0.7818609E-02  0.8826670E-01
       -2   -1    0    0    0  501  0.00000000000E+00  0.00000000000E+00  0.24078181413E+03  0.24078181414E+03  0.25500000920E-02 0.  1.
        2   -1    0    0  501    0  0.00000000000E+00  0.00000000000E+00 -0.26251294252E+04  0.26251294252E+04  0.25500000920E-02 0. -1.
    10030    2    1    2    0    0  0.00000000000E+00  0.00000000000E+00 -0.23843476111E+04  0.28659112393E+04  0.15900734893E+04 0.  0.
        1    1    3    3  502    0 -0.11209361380E+03  0.36297845312E+03  0.66609271627E+02  0.38568786703E+03  0.50400001928E-02 0.  1.
       -1    1    3    3    0  502  0.11209361380E+03 -0.36297845312E+03 -0.24509568827E+04  0.24802233723E+04  0.50400001928E-02 0. -1.
</event>
<event>
 5   0  0.8191876E-04  0.1507307E+04  0.7818609E-02  0.8879608E-01
       -1   -1    0    0    0  501  0.00000000000E+00  0.00000000000E+00  0.30367224214E+03  0.30367224218E+03  0.50400001928E-02 0.  1.
        1   -1    0    0  501    0  0.00000000000E+00  0.00000000000E+00 -0.18704169534E+04  0.18704169535E+04  0.50400001928E-02 0. -1.
    10030    2    1    2    0    0  0.00000000000E+00  0.00000000000E+00 -0.15667447113E+04  0.21740891956E+04  0.15073071486E+04 0.  0.
        2    1    3    3  502    0 -0.40882559474E+03  0.85555428329E+02  0.12145895042E+03  0.43498318918E+03  0.25500000920E-02 0.  1.
       -2    1    3    3    0  502  0.40882559474E+03 -0.85555428329E+02 -0.16882036617E+04  0.17391060065E+04  0.25500000920E-02 0. -1.
</event>
<event>
 5   0  0.1552067E-03  0.1139396E+04  0.7818609E-02  0.9167622E-01
       -2   -1    0    0    0  501  0.00000000000E+00  0.00000000000E+00  0.41164086461E+03  0.41164086462E+03  0.25500000920E-02 0. -1.
        2   -1    0    0  501    0  0.00000000000E+00  0.00000000000E+00 -0.78844430215E+03  0.78844430216E+03  0.25500000920E-02 0.  1.
    10030    2    1    2    0    0  0.00000000000E+00  0.00000000000E+00 -0.37680343754E+03  0.12000851668E+04  0.11393961458E+04 0.  0.
        3    1    3    3  502    0 -0.11965322735E+03  0.38735911713E+03  0.23315654089E+03  0.46768147623E+03  0.10100000352E+00 0. -1.
       -3    1    3    3    0  502  0.11965322735E+03 -0.38735911713E+03 -0.60995997843E+03  0.73240369055E+03  0.10100000352E+00 0.  1.
</event>
<event>
 5   0  0.8306301E-04  0.1471696E+04  0.7818609E-02  0.8903496E-01
       -1   -1    0    0    0  501  0.00000000000E+00  0.00000000000E+00  0.77823650047E+03  0.77823650049E+03  0.50400001928E-02 0. -1.
        1   -1    0    0  501    0  0.00000000000E+00  0.00000000000E+00 -0.69576860629E+03  0.69576860631E+03  0.50400001928E-02 0.  1.
    10030    2    1    2    0    0  0.00000000000E+00  0.00000000000E+00  0.82467894179E+02  0.14740051068E+04  0.14716963346E+04 0.  0.
        4    1    3    3  502    0 -0.13395873460E+02  0.14981676497E+03  0.76267389032E+03  0.77736580087E+03  0.12699999809E+01 0. -1.
       -4    1    3    3    0  502  0.13395873460E+02 -0.14981676497E+03 -0.68020599614E+03  0.69663930593E+03  0.12699999809E+01 0.  1.
</event>
<event>
 5   0  0.7870317E-04  0.1523136E+04  0.7818609E-02  0.8869212E-01
       -1   -1    0    0    0  501  0.00000000000E+00  0.00000000000E+00  0.10135245455E+04  0.10135245455E+04  0.50400001928E-02 0. -1.
        1   -1    0    0  501    0  0.00000000000E+00  0.00000000000E+00 -0.57224644908E+03  0.57224644910E+03  0.50400001928E-02 0.  1.
    10030    2    1    2    0    0  0.00000000000E+00  0.00000000000E+00  0.44127809642E+03  0.15857709946E+04  0.15231360047E+04 0.  0.
        1    1    3    3  502    0 -0.17841908425E+02  0.64326430392E+02 -0.56919457457E+03  0.57309570500E+03  0.50400001928E-02 0.  1.
       -1    1    3    3    0  502  0.17841908425E+02 -0.64326430392E+02  0.10104726710E+04  0.10126752896E+04  0.50400001928E-02 0. -1.
</event>
<event>
 5   0  0.8058234E-04  0.1478680E+04  0.7818609E-02  0.8898756E-01
        1   -1    0    0  501    0  0.00000000000E+00  0.00000000000E+00  0.74676619106E+03  0.74676619108E+03  0.50400001928E-02 0.  1.
       -1   -1    0    0    0  501  0.00000000000E+00  0.00000000000E+00 -0.73198758580E+03  0.73198758582E+03  0.50400001928E-02 0. -1.
    10030    2    1    2    0    0  0.00000000000E+00  0.00000000000E+00  0.14778605254E+02  0.14787537769E+04  0.14786799267E+04 0.  0.
        5    1    3    3  502    0 -0.42697074220E+03 -0.41239543676E+03  0.44812378239E+03  0.74378157096E+03  0.46999998093E+01 0.  1.
       -5    1    3    3    0  502  0.42697074220E+03  0.41239543676E+03 -0.43334517714E+03  0.73497220594E+03  0.46999998093E+01 0. -1.
</event>
<event>
 5   0  0.1500956E-03  0.1508536E+04  0.7818609E-02  0.8878796E-01
       -2   -1    0    0    0  501  0.00000000000E+00  0.00000000000E+00  0.49171611569E+03  0.49171611570E+03  0.25500000920E-02 0.  1.
        2   -1    0    0  501    0  0.00000000000E+00  0.00000000000E+00 -0.11570095665E+04  0.11570095665E+04  0.25500000920E-02 0. -1.
    10030    2    1    2    0    0  0.00000000000E+00  0.00000000000E+00 -0.66529345080E+03  0.16487256822E+04  0.15085360451E+04 0.  0.
        4    1    3    3  502    0 -0.57410722914E+03 -0.36829630600E+03  0.19265756332E+02  0.68235918828E+03  0.12699999809E+01 0.  1.
       -4    1    3    3    0  502  0.57410722914E+03  0.36829630600E+03 -0.68455920714E+03  0.96636649391E+03  0.12699999809E+01 0. -1.
</event>
<event>
 5   0  0.8191876E-04  0.1556891E+04  0.7818609E-02  0.8847478E-01
       -1   -1    0    0    0  501  0.00000000000E+00  0.00000000000E+00  0.52198262680E+03  0.52198262683E+03  0.50400001928E-02 0.  1.
        1   -1    0    0  501    0  0.00000000000E+00  0.00000000000E+00 -0.11609150872E+04  0.11609150873E+04  0.50400001928E-02 0. -1.
    10030    2    1    2    0    0  0.00000000000E+00  0.00000000000E+00 -0.63893246045E+03  0.16828977141E+04  0.15568911417E+04 0.  0.
        2    1    3    3  502    0 -0.67613409652E+03  0.38575758857E+03 -0.31583693701E+03  0.84007095200E+03  0.25500000920E-02 0. -1.
       -2    1    3    3    0  502  0.67613409652E+03 -0.38575758857E+03 -0.32309552343E+03  0.84282676208E+03  0.25500000920E-02 0.  1.
</event>
<event>
 5   0  0.1526126E-03  0.1500603E+04  0.7818609E-02  0.8884052E-01
        2   -1    0    0  501    0  0.00000000000E+00  0.00000000000E+00  0.76911910997E+03  0.76911910997E+03  0.25500000920E-02 0.  1.
       -2   -1    0    0    0  501  0.00000000000E+00  0.00000000000E+00 -0.73194475791E+03  0.73194475792E+03  0.25500000920E-02 0. -1.
    10030    2    1    2    0    0  0.00000000000E+00  0.00000000000E+00  0.37174352054E+02  0.15010638679E+04  0.15006034796E+04 0.  0.
        2    1    3    3  502    0 -0.29983292818E+03 -0.67884255934E+03 -0.92016614370E+02  0.74779279384E+03  0.25500000920E-02 0. -1.
       -2    1    3    3    0  502  0.29983292818E+03  0.67884255934E+03  0.12919096642E+03  0.75327107405E+03  0.25500000920E-02 0.  1.
</event>
<event>
 5   0  0.1511546E-03  0.1537059E+04  0.7818609E-02  0.8860177E-01
       -2   -1    0    0    0  501  0.00000000000E+00  0.00000000000E+00  0.48214712313E+03  0.48214712314E+03  0.25500000920E-02 0. -1.
        2   -1    0    0  501    0  0.00000000000E+00  0.00000000000E+00 -0.12250147152E+04  0.12250147152E+04  0.25500000920E-02 0.  1.
    10030    2    1    2    0    0  0.00000000000E+00  0.00000000000E+00 -0.74286759211E+03  0.17071618384E+04  0.15370586466E+04 0.  0.
        1    1    3    3  502    0  0.71186559012E+03 -0.28146320138E+03 -0.44727842221E+03  0.88658453580E+03  0.50400001928E-02 0.  1.
       -1    1    3    3    0  502 -0.71186559012E+03  0.28146320138E+03 -0.29558916991E+03  0.82057730258E+03  0.50400001928E-02 0. -1.
</event>
<event>
 5   0  0.1484056E-03  0.1385890E+04  0.7818609E-02  0.8964096E-01
       -2   -1    0    0    0  501  0.00000000000E+00  0.00000000000E+00  0.37954291192E+03  0.37954291193E+03  0.25500000920E-02 0. -1.
        2   -1    0    0  501    0  0.00000000000E+00  0.00000000000E+00 -0.12651347609E+04  0.12651347609E+04  0.25500000920E-02 0.  1.
    10030    2    1    2    0    0  0.00000000000E+00  0.00000000000E+00 -0.88559184901E+03  0.16446776729E+04  0.13858902282E+04 0.  0.
        5    1    3    3  502    0  0.16687601899E+03  0.47242218342E+03 -0.10108425098E+04  0.11282087550E+04  0.46999998093E+01 0. -1.
       -5    1    3    3    0  502 -0.16687601899E+03 -0.47242218342E+03  0.12525066083E+03  0.51646891789E+03  0.46999998093E+01 0.  1.
</event>
<event>
 5   0  0.8191876E-04  0.1366168E+04  0.7818609E-02  0.8978678E-01
        1   -1    0    0  501    0  0.00000000000E+00  0.00000000000E+00  0.12691510908E+04  0.12691510908E+04  0.50400001928E-02 0. -1.
       -1   -1    0    0    0  501  0.00000000000E+00  0.00000000000E+00 -0.36765037418E+03  0.36765037422E+03  0.50400001928E-02 0.  1.
    10030    2    1    2    0    0  0.00000000000E+00  0.00000000000E+00  0.90150071663E+03  0.16368014650E+04  0.13661681792E+04 0.  0.
        2    1    3    3  502    0  0.32424868979E+03 -0.23697597049E+03  0.11127559817E+04  0.11830133973E+04  0.25500000920E-02 0. -1.
       -2    1    3    3    0  502 -0.32424868979E+03  0.23697597049E+03 -0.21125526504E+03  0.45378806775E+03  0.25500000920E-02 0.  1.
</event>
<event>
 5   0  0.8306301E-04  0.1507309E+04  0.7818609E-02  0.8879607E-01
        1   -1    0    0  501    0  0.00000000000E+00  0.00000000000E+00  0.13068148412E+04  0.13068148412E+04  0.50400001928E-02 0.  1.
       -1   -1    0    0    0  501  0.00000000000E+00  0.00000000000E+00 -0.43464091190E+03  0.43464091193E+03  0.50400001928E-02 0. -1.
    10030    2    1    2    0    0  0.00000000000E+00  0.00000000000E+00  0.87217392932E+03  0.17414557532E+04  0.15073091180E+04 0.  0.
        4    1    3    3  502    0  0.10378235145E+03  0.33215717642E+03 -0.33626024477E+03  0.48391293786E+03  0.12699999809E+01 0. -1.
       -4    1    3    3    0  502 -0.10378235145E+03 -0.33215717642E+03  0.12084341741E+04  0.12575428153E+04  0.12699999809E+01 0.  1.
</event>
<event>
 5   0  0.1500956E-03  0.1461435E+04  0.7818609E-02  0.8910511E-01
        2   -1    0    0  501    0  0.00000000000E+00  0.00000000000E+00  0.16446771364E+04  0.16446771364E+04  0.25500000920E-02 0. -1.
       -2   -1    0    0    0  501  0.00000000000E+00  0.00000000000E+00 -0.32465236581E+03  0.32465236582E+03  0.25500000920E-02 0.  1.
    10030    2    1    2    0    0  0.00000000000E+00  0.00000000000E+00  0.13200247706E+04  0.19693295023E+04  0.14614353538E+04 0.  0.
        4    1    3    3  502    0 -0.87930743028E+02 -0.59697165016E+03  0.10467304399E+03  0.61242552666E+03  0.12699999809E+01 0.  1.
       -4    1    3    3    0  502  0.87930743028E+02  0.59697165016E+03  0.12153517266E+04  0.13569039756E+04  0.12699999809E+01 0. -1.
</event>
<event>
 5   0  0.1552067E-03  0.1328827E+04  0.7818609E-02  0.9007013E-01
        2   -1    0    0  501    0  0.00000000000E+00  0.00000000000E+00  0.14421501596E+04  0.14421501596E+04  0.25500000920E-02 0. -1.
       -2   -1    0    0    0  501  0.00000000000E+00  0.00000000000E+00 -0.30610199426E+03  0.30610199427E+03  0.25500000920E-02 0.  1.
    10030    2    1    2    0    0  0.00000000000E+00  0.00000000000E+00  0.11360481653E+04  0.17482521539E+04  0.13288266100E+04 0.  0.
        3    1    3    3  502    0  0.65624508914E+03 -0.73585393218E+02  0.47159054182E+03  0.81146169130E+03  0.10100000352E+00 0.  1.
       -3    1    3    3    0  502 -0.65624508914E+03  0.73585393218E+02  0.66445762351E+03  0.93679046257E+03  0.10100000352E+00 0. -1.
</event>
<event>
 5   0  0.7870317E-04  0.1429800E+04  0.7818609E-02  0.8932526E-01
       -1   -1    0    0    0  501  0.00000000000E+00  0.00000000000E+00  0.61703819506E+03  0.61703819508E+03  0.50400001928E-02 0.  1.
        1   -1    0    0  501    0  0.00000000000E+00  0.00000000000E+00 -0.82828244260E+03  0.82828244261E+03  0.50400001928E-02 0. -1.
    10030    2    1    2    0    0  0.00000000000E+00  0.00000000000E+00 -0.21124424754E+03  0.14453206377E+04  0.14297998509E+04 0.  0.
        1    1    3    3  502    0  0.54383694262E+03 -0.43460607196E+03  0.58749416673E+02  0.69863620857E+03  0.50400001928E-02 0.  1.
       -1    1    3    3    0  502 -0.54383694262E+03  0.43460607196E+03 -0.26999366421E+03  0.74668442912E+03  0.50400001928E-02 0. -1.
</event>
<event>
 5   0  0.8365016E-04  0.1771832E+04  0.7818609E-02  0.8721424E-01
       -1   -1    0    0    0  501  0.00000000000E+00  0.00000000000E+00  0.10206735457E+04  0.10206735457E+04  0.50400001928E-02 0.  1.
        1   -1    0    0  501    0  0.00000000000E+00  0.00000000000E+00 -0.76895005869E+03  0.76895005871E+03  0.50400001928E-02 0. -1.
    10030    2    1    2    0    0  0.00000000000E+00  0.00000000000E+00  0.25172348697E+03  0.17896236044E+04  0.17718318011E+04 0.  0.
        3    1    3    3  502    0  0.30972714060E+03 -0.31638909853E+03 -0.64918567540E+03  0.78579578431E+03  0.10100000352E+00 0. -1.
       -3    1    3    3    0  502 -0.30972714060E+03  0.31638909853E+03  0.90090916237E+03  0.10038278201E+04  0.10100000352E+00 0.  1.
</event>
<event>
 5   0  0.8191876E-04  0.1537744E+04  0.7818609E-02  0.8859734E-01
       -1   -1    0    0    0  501  0.00000000000E+00  0.00000000000E+00  0.80799799515E+03  0.80799799517E+03  0.50400001928E-02 0. -1.
        1   -1    0    0  501    0  0.00000000000E+00  0.00000000000E+00 -0.73164070995E+03  0.73164070996E+03  0.50400001928E-02 0.  1.
    10030    2    1    2    0    0  0.00000000000E+00  0.00000000000E+00  0.76357285205E+02  0.15396387051E+04  0.15377440968E+04 0.  0.
        2    1    3    3  502    0 -0.71991075997E+03  0.33373376077E+02 -0.23006737246E+03  0.75651588247E+03  0.25500000920E-02 0.  1.
       -2    1    3    3    0  502  0.71991075997E+03 -0.33373376077E+02  0.30642465766E+03  0.78312282266E+03  0.25500000920E-02 0. -1.
</event>
<event>
 5   0  0.8191876E-04  0.1499509E+04  0.7818609E-02  0.8884780E-01
        1   -1    0    0  501    0  0.00000000000E+00  0.00000000000E+00  0.14088363023E+04  0.14088363024E+04  0.50400001928E-02 0. -1.
       -1   -1    0    0    0  501  0.00000000000E+00  0.00000000000E+00 -0.39900411438E+03  0.39900411441E+03  0.50400001928E-02 0.  1.
    10030    2    1    2    0    0  0.00000000000E+00  0.00000000000E+00  0.10098321880E+04  0.18078404168E+04  0.14995085610E+04 0.  0.
        2    1    3    3  502    0  0.44305413298E+02  0.34230223893E+03 -0.29752261774E+03  0.45569013649E+03  0.25500000920E-02 0.  1.
       -2    1    3    3    0  502 -0.44305413298E+02 -0.34230223893E+03  0.13073548057E+04  0.13521502803E+04  0.25500000920E-02 0. -1.
</event>
<event>
 5   0  0.1484056E-03  0.1514369E+04  0.7818609E-02  0.8874954E-01
        2   -1    0    0  501    0  0.00000000000E+00  0.00000000000E+00  0.11616582006E+04  0.11616582006E+04  0.25500000920E-02 0.  1.
       -2   -1    0    0    0  501  0.00000000000E+00  0.00000000000E+00 -0.49354276303E+03  0.49354276303E+03  0.25500000920E-02 0. -1.
    10030    2    1    2    0    0  0.00000000000E+00  0.00000000000E+00  0.66811543758E+03  0.16552009636E+04  0.15143685127E+04 0.  0.
        5    1    3    3  502    0  0.28222857726E+03  0.38240923022E+03 -0.31017702329E+03  0.56755763140E+03  0.46999998093E+01 0. -1.
       -5    1    3    3    0  502 -0.28222857726E+03 -0.38240923022E+03  0.97829246088E+03  0.10876433322E+04  0.46999998093E+01 0.  1.
</event>
<event>
 5   0  0.8058234E-04  0.1474566E+04  0.7818609E-02  0.8901544E-01
       -1   -1    0    0    0  501  0.00000000000E+00  0.00000000000E+00  0.28313603255E+03  0.28313603260E+03  0.50400001928E-02 0.  1.
        1   -1    0    0  501    0  0.00000000000E+00  0.00000000000E+00 -0.19198771675E+04  0.19198771675E+04  0.50400001928E-02 0. -1.
    10030    2    1    2    0    0  0.00000000000E+00  0.00000000000E+00 -0.16367411349E+04  0.22030132001E+04  0.14745662471E+04 0.  0.
        5    1    3    3  502    0 -0.53318099928E+03 -0.46490956559E+03 -0.50805748205E+03  0.87095773561E+03  0.46999998093E+01 0. -1.
       -5    1    3    3    0  502  0.53318099928E+03  0.46490956559E+03 -0.11286836529E+04  0.13320554645E+04  0.46999998093E+01 0.  1.
</event>
<event>
 5   0  0.8365016E-04  0.1490862E+04  0.7818609E-02  0.8890553E-01
       -1   -1    0    0    0  501  0.00000000000E+00  0.00000000000E+00  0.68478792174E+03  0.68478792176E+03  0.50400001928E-02 0.  1.
        1   -1    0    0  501    0  0.00000000000E+00  0.00000000000E+00 -0.81144421649E+03  0.81144421650E+03  0.50400001928E-02 0. -1.
    10030    2    1    2    0    0  0.00000000000E+00  0.00000000000E+00 -0.12665629475E+03  0.14962321383E+04  0.14908617624E+04 0.  0.
        3    1    3    3  502    0  0.48386199859E+03 -0.25307439359E+03 -0.57259876745E+03  0.79122591025E+03  0.10100000352E+00 0. -1.
       -3    1    3    3    0  502 -0.48386199859E+03  0.25307439359E+03  0.44594247270E+03  0.70500622801E+03  0.10100000352E+00 0.  1.
</event>
<event>
 5   0  0.8058234E-04  0.1372620E+04  0.7818609E-02  0.8973879E-01
       -1   -1    0    0    0  501  0.00000000000E+00  0.00000000000E+00  0.53716302594E+03  0.53716302596E+03  0.50400001928E-02 0. -1.
        1   -1    0    0  501    0  0.00000000000E+00  0.00000000000E+00 -0.87686924500E+03  0.87686924502E+03  0.50400001928E-02 0.  1.
    10030    2    1    2    0    0  0.00000000000E+00  0.00000000000E+00 -0.33970621907E+03  0.14140322710E+04  0.13726204676E+04 0.  0.
        5    1    3    3  502    0 -0.19988463767E+03  0.49671154358E+03  0.27242873461E+03  0.60076262479E+03  0.46999998093E+01 0. -1.
       -5    1    3    3    0  502  0.19988463767E+03 -0.49671154358E+03 -0.61213495367E+03  0.81326964619E+03  0.46999998093E+01 0.  1.
</event>
<event>
 5   0  0.7870317E-04  0.1522679E+04  0.7818609E-02  0.8869510E-01
        1   -1    0    0  501    0  0.00000000000E+00  0.00000000000E+00  0.15946352325E+04  0.15946352325E+04  0.50400001928E-02 0. -1.
       -1   -1    0    0    0  501  0.00000000000E+00  0.00000000000E+00 -0.36349236690E+03  0.36349236693E+03  0.50400001928E-02 0.  1.
    10030    2    1    2    0    0  0.00000000000E+00  0.00000000000E+00  0.12311428656E+04  0.19581275994E+04  0.15226788697E+04 0.  0.
        1    1    3    3  502    0 -0.19422527579E+03  0.79603350784E+02  0.15566889639E+04  0.15707770948E+04  0.50400001928E-02 0. -1.
       -1    1    3    3    0  502  0.19422527579E+03 -0.79603350784E+02 -0.32554609836E+03  0.38735050457E+03  0.50400001928E-02 0.  1.
</event>
<event>
 5   0  0.1526126E-03  0.1454440E+04  0.7818609E-02  0.8915328E-01
       -2   -1    0    0    0  501  0.00000000000E+00  0.00000000000E+00  0.37825507952E+03  0.37825507952E+03  0.25500000920E-02 0.  1.
        2   -1    0    0  501    0  0.00000000000E+00  0.00000000000E+00 -0.13981275060E+04  0.13981275060E+04  0.25500000920E-02 0. -1.
    10030    2    1    2    0    0  0.00000000000E+00  0.00000000000E+00 -0.10198724265E+04  0.17763825855E+04  0.14544398660E+04 0.  0.
        2    1    3    3  502    0 -0.52973653263E+03  0.26917725986E+03 -0.10219894776E+04  0.11821758260E+04  0.25500000920E-02 0. -1.
       -2    1    3    3    0  502  0.52973653263E+03 -0.26917725986E+03  0.21170510590E+01  0.59420675959E+03  0.25500000920E-02 0.  1.
</event>
<event>
 5   0  0.1511546E-03  0.1514673E+04  0.7818609E-02  0.8874754E-01
        2   -1    0    0  501    0  0.00000000000E+00  0.00000000000E+00  0.17442498891E+04  0.17442498891E+04  0.25500000920E-02 0.  1.
       -2   -1    0    0    0  501  0.00000000000E+00  0.00000000000E+00 -0.32882828643E+03  0.32882828644E+03  0.25500000920E-02 0. -1.
    10030    2    1    2    0    0  0.00000000000E+00  0.00000000000E+00  0.14154216026E+04  0.20730781755E+04  0.15146731689E+04 0.  0.
        1    1    3    3  502    0  0.51313709050E+03  0.54709094732E+03  0.85086886170E+03  0.11342821510E+04  0.50400001928E-02 0. -1.
       -1    1    3    3    0  502 -0.51313709050E+03 -0.54709094732E+03  0.56455274094E+03  0.93879602450E+03  0.50400001928E-02 0.  1.
</event>
<event>
 5   0  0.8058234E-04  0.1497101E+04  0.7818609E-02  0.8886383E-01
        1   -1    0    0  501    0  0.00000000000E+00  0.00000000000E+00  0.15019621151E+04  0.15019621151E+04  0.50400001928E-02 0.  1.
       -1   -1    0    0    0  501  0.00000000000E+00  0.00000000000E+00 -0.37306378271E+03  0.37306378275E+03  0.50400001928E-02 0. -1.
    10030    2    1    2    0    0  0.00000000000E+00  0.00000000000E+00  0.11288983324E+04  0.18750258979E+04  0.14971007557E+04 0.  0.
        5    1    3    3  502    0 -0.70120996686E+03 -0.25722382681E+03  0.62639186219E+03  0.97480683713E+03  0.46999998093E+01 0. -1.
       -5    1    3    3    0  502  0.70120996686E+03  0.25722382681E+03  0.50250647021E+03  0.90021906073E+03  0.46999998093E+01 0.  1.
</event>
<event>
 5   0  0.8191876E-04  0.1471898E+04  0.7818609E-02  0.8903359E-01
        1   -1    0    0  501    0  0.00000000000E+00  0.00000000000E+00  0.61376161080E+03  0.61376161082E+03  0.50400001928E-02 0. -1.
       -1   -1    0    0    0  501  0.00000000000E+00  0.00000000000E+00 -0.88246115838E+03  0.88246115840E+03  0.50400001928E-02 0.  1.
    10030    2    1    2    0    0  0.00000000000E+00  0.00000000000E+00 -0.26869954758E+03  0.14962227692E+04  0.14718977982E+04 0.  0.
        2    1    3    3  502    0  0.22752838771E+03  0.69340828111E+03 -0.37717894653E+02  0.73075772395E+03  0.25500000920E-02 0.  1.
       -2    1    3    3    0  502 -0.22752838771E+03 -0.69340828111E+03 -0.23098165293E+03  0.76546504527E+03  0.25500000920E-02 0. -1.
</event>
<event>
 5   0  0.8365016E-04  0.1048875E+04  0.7818609E-02  0.9256506E-01
       -1   -1    0    0    0  501  0.00000000000E+00  0.00000000000E+00  0.12259965104E+04  0.12259965104E+04  0.50400001928E-02 0.  1.
        1   -1    0    0  501    0  0.00000000000E+00  0.00000000000E+00 -0.22433571110E+03  0.22433571116E+03  0.50400001928E-02 0. -1.
    10030    2    1    2    0    0  0.00000000000E+00  0.00000000000E+00  0.10016607993E+04  0.14503322215E+04  0.10488752052E+04 0.  0.
        3    1    3    3  502    0 -0.27728353861E+03  0.19111714231E+03  0.10567283572E+04  0.11090927616E+04  0.10100000352E+00 0.  1.
       -3    1    3    3    0  502  0.27728353861E+03 -0.19111714231E+03 -0.55067557889E+02  0.34123945991E+03  0.10100000352E+00 0. -1.
</event>
<event>
 5   0  0.1526126E-03  0.1518885E+04  0.7818609E-02  0.8871991E-01
        2   -1    0    0  501    0  0.00000000000E+00  0.00000000000E+00  0.61738160351E+03  0.61738160351E+03  0.25500000920E-02 0.  1.
       -2   -1    0    0    0  501  0.00000000000E+00  0.00000000000E+00 -0.93419221750E+03  0.93419221750E+03  0.25500000920E-02 0. -1.
    10030    2    1    2    0    0  0.00000000000E+00  0.00000000000E+00 -0.31681061399E+03  0.15515738210E+04  0.15188852349E+04 0.  0.
        2    1    3    3  502    0  0.62527705596E+03 -0.36652516405E+03 -0.39009257583E+03  0.82309435080E+03  0.25500000920E-02 0. -1.
       -2    1    3    3    0  502 -0.62527705596E+03  0.36652516405E+03  0.73281961842E+02  0.72847947022E+03  0.25500000920E-02 0.  1.
</event>
<event>
 5   0  0.1511546E-03  0.1488896E+04  0.7818609E-02  0.8891871E-01
       -2   -1    0    0    0  501  0.00000000000E+00  0.00000000000E+00  0.44706056226E+03  0.44706056226E+03  0.25500000920E-02 0. -1.
        2   -1    0    0  501    0  0.00000000000E+00  0.00000000000E+00 -0.12396596594E+04  0.12396596594E+04  0.25500000920E-02 0.  1.
    10030    2    1    2    0    0  0.00000000000E+00  0.00000000000E+00 -0.79259909718E+03  0.16867202217E+04  0.14888961607E+04 0.  0.
        1    1    3    3  502    0 -0.12433917899E+03  0.52480052911E+03  0.18503540217E+03  0.57018762427E+03  0.50400001928E-02 0. -1.
       -1    1    3    3    0  502  0.12433917899E+03 -0.52480052911E+03 -0.97763449935E+03  0.11165325974E+04  0.50400001928E-02 0.  1.
</event>
<event>
 5   0  0.7870317E-04  0.1503186E+04  0.7818609E-02  0.8882337E-01
       -1   -1    0    0    0  501  0.00000000000E+00  0.00000000000E+00  0.46511457085E+03  0.46511457088E+03  0.50400001928E-02 0.  1.
        1   -1    0    0  501    0  0.00000000000E+00  0.00000000000E+00 -0.12145217879E+04  0.12145217879E+04  0.50400001928E-02 0. -1.
    10030    2    1    2    0    0  0.00000000000E+00  0.00000000000E+00 -0.74940721704E+03  0.16796363588E+04  0.15031856575E+04 0.  0.
        1    1    3    3  502    0  0.58809987675E+03 -0.36157277238E+02 -0.89608408578E+03  0.10724437060E+04  0.50400001928E-02 0. -1.
       -1    1    3    3    0  502 -0.58809987675E+03  0.36157277238E+02  0.14667686874E+03  0.60719265277E+03  0.50400001928E-02 0.  1.
</event>
<event>
 5   0  0.1526126E-03  0.1508314E+04  0.7818609E-02  0.8878943E-01
       -2   -1    0    0    0  501  0.00000000000E+00  0.00000000000E+00  0.28524221590E+03  0.28524221592E+03  0.25500000920E-02 0.  1.
        2   -1    0    0  501    0  0.00000000000E+00  0.00000000000E+00 -0.19939299657E+04  0.19939299657E+04  0.25500000920E-02 0. -1.
    10030    2    1    2    0    0  0.00000000000E+00  0.00000000000E+00 -0.17086877498E+04  0.22791721816E+04  0.15083142932E+04 0.  0.
        2    1    3    3  502    0  0.66632869565E+03  0.89413407034E+02 -0.33799842468E+03  0.75248363643E+03  0.25500000920E-02 0.  1.
       -2    1    3    3    0  502 -0.66632869565E+03 -0.89413407034E+02 -0.13706893251E+04  0.15266885452E+04  0.25500000920E-02 0. -1.
</event>
<event>
 5   0  0.8306301E-04  0.1579172E+04  0.7818609E-02  0.8833446E-01
       -1   -1    0    0    0  501  0.00000000000E+00  0.00000000000E+00  0.42066308875E+03  0.42066308878E+03  0.50400001928E-02 0.  1.
        1   -1    0    0  501    0  0.00000000000E+00  0.00000000000E+00 -0.14820560304E+04  0.14820560304E+04  0.50400001928E-02 0. -1.
    10030    2    1    2    0    0  0.00000000000E+00  0.00000000000E+00 -0.10613929417E+04  0.19027191192E+04  0.15791722737E+04 0.  0.
        4    1    3    3  502    0 -0.25722933818E+03  0.17396935547E+03  0.34399639191E+03  0.46343003744E+03  0.12699999809E+01 0.  1.
       -4    1    3    3    0  502  0.25722933818E+03 -0.17396935547E+03 -0.14053893336E+04  0.14392890818E+04  0.12699999809E+01 0. -1.
</event>
<event>
 5   0  0.8365016E-04  0.1498208E+04  0.7818609E-02  0.8885645E-01
       -1   -1    0    0    0  501  0.00000000000E+00  0.00000000000E+00  0.91203170715E+03  0.91203170716E+03  0.50400001928E-02 0.  1.
        1   -1    0    0  501    0  0.00000000000E+00  0.00000000000E+00 -0.61528245783E+03  0.61528245785E+03  0.50400001928E-02 0. -1.
    10030    2    1    2    0    0  0.00000000000E+00  0.00000000000E+00  0.29674924932E+03  0.15273141650E+04  0.14982084106E+04 0.  0.
        3    1    3    3  502    0 -0.65232582542E+03 -0.21240801149E+02 -0.22643217758E+03  0.69083405778E+03  0.10100000352E+00 0. -1.
       -3    1    3    3    0  502  0.65232582542E+03  0.21240801149E+02  0.52318142690E+03  0.83648010723E+03  0.10100000352E+00 0.  1.
</event>
<event>
 5   0  0.1484056E-03  0.1467073E+04  0.7818609E-02  0.8906649E-01
       -2   -1    0    0    0  501  0.00000000000E+00  0.00000000000E+00  0.35362774833E+03  0.35362774834E+03  0.25500000920E-02 0.  1.
        2   -1    0    0  501    0  0.00000000000E+00  0.00000000000E+00 -0.15215873761E+04  0.15215873761E+04  0.25500000920E-02 0. -1.
    10030    2    1    2    0    0  0.00000000000E+00  0.00000000000E+00 -0.11679596278E+04  0.18752151244E+04  0.14670726195E+04 0.  0.
        5    1    3    3  502    0 -0.35445345851E+03  0.25032850753E+03  0.17194651455E+03  0.46678614996E+03  0.46999998093E+01 0.  1.
       -5    1    3    3    0  502  0.35445345851E+03 -0.25032850753E+03 -0.13399061423E+04  0.14084289745E+04  0.46999998093E+01 0. -1.
</event>
<event>
 5   0  0.1526126E-03  0.1491126E+04  0.7818609E-02  0.8890376E-01
       -2   -1    0    0    0  501  0.00000000000E+00  0.00000000000E+00  0.75772639568E+03  0.75772639568E+03  0.25500000920E-02 0.  1.
        2   -1    0    0  501    0  0.00000000000E+00  0.00000000000E+00 -0.73359476007E+03  0.73359476007E+03  0.25500000920E-02 0. -1.
    10030    2    1    2    0    0  0.00000000000E+00  0.00000000000E+00  0.24131635608E+02  0.14913211558E+04  0.14911259014E+04 0.  0.
        2    1    3    3  502    0 -0.90354662065E+02 -0.65530571814E+03 -0.33188990759E+03  0.74009489928E+03  0.25500000920E-02 0.  1.
       -2    1    3    3    0  502  0.90354662065E+02  0.65530571814E+03  0.35602154320E+03  0.75122625647E+03  0.25500000920E-02 0. -1.
</event>
<event>
 5   0  0.5603875E-04  0.1522710E+04  0.7818609E-02  0.8869490E-01
       -3   -1    0    0    0  501  0.00000000000E+00  0.00000000000E+00  0.11884421575E+04  0.11884421618E+04  0.10100000352E+00 0.  1.
        3   -1    0    0  501    0  0.00000000000E+00  0.00000000000E+00 -0.48774913265E+03  0.48774914311E+03  0.10100000352E+00 0. -1.
    10030    2    1    2    0    0  0.00000000000E+00  0.00000000000E+00  0.70069302485E+03  0.16761913049E+04  0.15227102730E+04 0.  0.
        1    1    3    3  502    0  0.57800163669E+03  0.32018357799E+02 -0.19401906026E+03  0.61053620943E+03  0.50400001928E-02 0. -1.
       -1    1    3    3    0  502 -0.57800163669E+03 -0.32018357799E+02  0.89471208511E+03  0.10656550955E+04  0.50400001928E-02 0.  1.
</event>
<event>
 5   0  0.8058234E-04  0.1435120E+04  0.7818609E-02  0.8928782E-01
       -1   -1    0    0    0  501  0.00000000000E+00  0.00000000000E+00  0.62932872075E+03  0.62932872077E+03  0.50400001928E-02 0.  1.
        1   -1    0    0  501    0  0.00000000000E+00  0.00000000000E+00 -0.81816126715E+03  0.81816126716E+03  0.50400001928E-02 0. -1.
    10030    2    1    2    0    0  0.00000000000E+00  0.00000000000E+00 -0.18883254639E+03  0.14474899879E+04  0.14351200419E+04 0.  0.
        5    1    3    3  502    0  0.39462898404E+03  0.14687617376E+03  0.49159566213E+03  0.64729670978E+03  0.46999998093E+01 0.  1.
       -5    1    3    3    0  502 -0.39462898404E+03 -0.14687617376E+03 -0.68042820852E+03  0.80019327816E+03  0.46999998093E+01 0. -1.
</event>
<event>
 5   0  0.8191876E-04  0.1495061E+04  0.7818609E-02  0.8887744E-01
        1   -1    0    0  501    0  0.00000000000E+00  0.00000000000E+00  0.15070902122E+04  0.15070902122E+04  0.50400001928E-02 0.  1.
       -1   -1    0    0    0  501  0.00000000000E+00  0.00000000000E+00 -0.37078209575E+03  0.37078209579E+03  0.50400001928E-02 0. -1.
    10030    2    1    2    0    0  0.00000000000E+00  0.00000000000E+00  0.11363081165E+04  0.18778723080E+04  0.14950612929E+04 0.  0.
        2    1    3    3  502    0  0.15676265724E+03  0.49282051408E+03  0.12461368229E+04  0.13491862626E+04  0.25500000920E-02 0.  1.
       -2    1    3    3    0  502 -0.15676265724E+03 -0.49282051408E+03 -0.10982870648E+03  0.52868604537E+03  0.25500000920E-02 0. -1.
</event>
<event>
 5   0  0.7870317E-04  0.1451143E+04  0.7818609E-02  0.8917609E-01
        1   -1    0    0  501    0  0.00000000000E+00  0.00000000000E+00  0.45909173460E+03  0.45909173463E+03  0.50400001928E-02 0.  1.
       -1   -1    0    0    0  501  0.00000000000E+00  0.00000000000E+00 -0.11467287768E+04  0.11467287768E+04  0.50400001928E-02 0. -1.
    10030    2    1    2    0    0  0.00000000000E+00  0.00000000000E+00 -0.68763704218E+03  0.16058205114E+04  0.14511425888E+04 0.  0.
        1    1    3    3  502    0 -0.39549157061E+03 -0.26580441082E+03  0.26166761843E+03  0.54363177776E+03  0.50400001928E-02 0.  1.
       -1    1    3    3    0  502  0.39549157061E+03  0.26580441082E+03 -0.94930466061E+03  0.10621887337E+04  0.50400001928E-02 0. -1.
</event>
<event>
 5   0  0.1526126E-03  0.1241032E+04  0.7818609E-02  0.9077680E-01
        2   -1    0    0  501    0  0.00000000000E+00  0.00000000000E+00  0.65690786986E+03  0.65690786987E+03  0.25500000920E-02 0. -1.
       -2   -1    0    0    0  501  0.00000000000E+00  0.00000000000E+00 -0.58614053111E+03  0.58614053112E+03  0.25500000920E-02 0.  1.
    10030    2    1    2    0    0  0.00000000000E+00  0.00000000000E+00  0.70767338748E+02  0.12430484010E+04  0.12410323569E+04 0.  0.
        2    1    3    3  502    0  0.14278908245E+03 -0.57393930518E+03  0.22342590883E+03  0.63222953493E+03  0.25500000920E-02 0. -1.
       -2    1    3    3    0  502 -0.14278908245E+03  0.57393930518E+03 -0.15265857009E+03  0.61081886605E+03  0.25500000920E-02 0.  1.
</event>
<event>
 5   0  0.7870317E-04  0.1467676E+04  0.7818609E-02  0.8906237E-01
        1   -1    0    0  501    0  0.00000000000E+00  0.00000000000E+00  0.16762890805E+04  0.16762890805E+04  0.50400001928E-02 0. -1.
       -1   -1    0    0    0  501  0.00000000000E+00  0.00000000000E+00 -0.32125606892E+03  0.32125606896E+03  0.50400001928E-02 0.  1.
    10030    2    1    2    0    0  0.00000000000E+00  0.00000000000E+00  0.13550330116E+04  0.19975451495E+04  0.14676757686E+04 0.  0.
        1    1    3    3  502    0  0.70156386092E+03  0.20870792552E+03  0.60592094912E+03  0.95020579125E+03  0.50400001928E-02 0. -1.
       -1    1    3    3    0  502 -0.70156386092E+03 -0.20870792552E+03  0.74911206245E+03  0.10473393582E+04  0.50400001928E-02 0.  1.
</event>
<event>
 5   0  0.5603875E-04  0.1511683E+04  0.7818609E-02  0.8876721E-01
        4   -1    0    0  501    0  0.00000000000E+00  0.00000000000E+00  0.86552168746E+03  0.86552261921E+03  0.12699999809E+01 0. -1.
       -4   -1    0    0    0  501  0.00000000000E+00  0.00000000000E+00 -0.66005782822E+03  0.66005905001E+03  0.12699999809E+01 0.  1.
    10030    2    1    2    0    0  0.00000000000E+00  0.00000000000E+00  0.20546385924E+03  0.15255816692E+04  0.15116825169E+04 0.  0.
        2    1    3    3  502    0 -0.18705321738E+03 -0.71620145427E+03 -0.51521653390E+02  0.74201611169E+03  0.25500000920E-02 0.  1.
       -2    1    3    3    0  502  0.18705321738E+03  0.71620145427E+03  0.25698551263E+03  0.78356555753E+03  0.25500000920E-02 0. -1.
</event>
<event>
 5   0  0.8365016E-04  0.1477613E+04  0.7818609E-02  0.8899478E-01
       -1   -1    0    0    0  501  0.00000000000E+00  0.00000000000E+00  0.31981124929E+03  0.31981124933E+03  0.50400001928E-02 0. -1.
        1   -1    0    0  501    0  0.00000000000E+00  0.00000000000E+00 -0.17067407360E+04  0.17067407360E+04  0.50400001928E-02 0.  1.
    10030    2    1    2    0    0  0.00000000000E+00  0.00000000000E+00 -0.13869294867E+04  0.20265519853E+04  0.14776127869E+04 0.  0.
        3    1    3    3  502    0  0.39456312153E+03 -0.13030297657E+03 -0.15312909372E+04  0.15866665898E+04  0.10100000352E+00 0.  1.
       -3    1    3    3    0  502 -0.39456312153E+03  0.13030297657E+03  0.14436145054E+03  0.43988539550E+03  0.10100000352E+00 0. -1.
</event>
<event>
 5   0  0.5603875E-04  0.1494043E+04  0.7818609E-02  0.8888424E-01
        3   -1    0    0  501    0  0.00000000000E+00  0.00000000000E+00  0.97171783904E+03  0.97171784429E+03  0.10100000352E+00 0. -1.
       -3   -1    0    0    0  501  0.00000000000E+00  0.00000000000E+00 -0.57428298206E+03  0.57428299094E+03  0.10100000352E+00 0.  1.
    10030    2    1    2    0    0  0.00000000000E+00  0.00000000000E+00  0.39743485698E+03  0.15460008352E+04  0.14940428766E+04 0.  0.
        4    1    3    3  502    0  0.28619940724E+03 -0.56231851411E+03  0.61253395951E+03  0.87938141695E+03  0.12699999809E+01 0.  1.
       -4    1    3    3    0  502 -0.28619940724E+03  0.56231851411E+03 -0.21509910253E+03  0.66661941828E+03  0.12699999809E+01 0. -1.
</event>
<event>
 5   0  0.8058234E-04  0.1491834E+04  0.7818609E-02  0.8889902E-01
        1   -1    0    0  501    0  0.00000000000E+00  0.00000000000E+00  0.20498808247E+04  0.20498808247E+04  0.50400001928E-02 0.  1.
       -1   -1    0    0    0  501  0.00000000000E+00  0.00000000000E+00 -0.27142650293E+03  0.27142650298E+03  0.50400001928E-02 0. -1.
    10030    2    1    2    0    0  0.00000000000E+00  0.00000000000E+00  0.17784543218E+04  0.23213073277E+04  0.14918337491E+04 0.  0.
        5    1    3    3  502    0  0.77889807807E+02  0.63611088832E+03  0.14830970773E+04  0.16156431893E+04  0.46999998093E+01 0.  1.
       -5    1    3    3    0  502 -0.77889807807E+02 -0.63611088832E+03  0.29535724451E+03  0.70566413844E+03  0.46999998093E+01 0. -1.
</event>
<event>
 5   0  0.1526126E-03  0.1503378E+04  0.7818609E-02  0.8882210E-01
        2   -1    0    0  501    0  0.00000000000E+00  0.00000000000E+00  0.15056481278E+04  0.15056481278E+04  0.25500000920E-02 0. -1.
       -2   -1    0    0    0  501  0.00000000000E+00  0.00000000000E+00 -0.37527758336E+03  0.37527758337E+03  0.25500000920E-02 0.  1.
    10030    2    1    2    0    0  0.00000000000E+00  0.00000000000E+00  0.11303705444E+04  0.18809257112E+04  0.15033775185E+04 0.  0.
        2    1    3    3  502    0 -0.62140238360E+03 -0.11524072153E+03  0.56026817293E+02  0.63447643811E+03  0.25500000920E-02 0.  1.
       -2    1    3    3    0  502  0.62140238360E+03  0.11524072153E+03  0.10743437271E+04  0.12464492731E+04  0.25500000920E-02 0. -1.
</event>
<event>
 5   0  0.5603875E-04  0.1510096E+04  0.7818609E-02  0.8877767E-01
        3   -1    0    0  501    0  0.00000000000E+00  0.00000000000E+00  0.43374196688E+03  0.43374197864E+03  0.10100000352E+00 0.  1.
       -3   -1    0    0    0  501  0.00000000000E+00  0.00000000000E+00 -0.13143699121E+04  0.13143699160E+04  0.10100000352E+00 0. -1.
    10030    2    1    2    0    0  0.00000000000E+00  0.00000000000E+00 -0.88062794520E+03  0.17481118946E+04  0.15100958970E+04 0.  0.
        1    1    3    3  502    0 -0.48010819026E+03 -0.11402861795E+03 -0.11018702725E+04  0.12073212073E+04  0.50400001928E-02 0. -1.
       -1    1    3    3    0  502  0.48010819026E+03  0.11402861795E+03  0.22124232732E+03  0.54079068732E+03  0.50400001928E-02 0.  1.
</event>
<event>
 5   0  0.7870317E-04  0.1307740E+04  0.7818609E-02  0.9023449E-01
        1   -1    0    0  501    0  0.00000000000E+00  0.00000000000E+00  0.20671790410E+04  0.20671790410E+04  0.50400001928E-02 0.  1.
       -1   -1    0    0    0  501  0.00000000000E+00  0.00000000000E+00 -0.20682593241E+03  0.20682593247E+03  0.50400001928E-02 0. -1.
    10030    2    1    2    0    0  0.00000000000E+00  0.00000000000E+00  0.18603531086E+04  0.22740049734E+04  0.13077403912E+04 0.  0.
        1    1    3    3  502    0 -0.35163282140E+03  0.38602304352E+03  0.24582843487E+03  0.57714040807E+03  0.50400001928E-02 0. -1.
       -1    1    3    3    0  502  0.35163282140E+03 -0.38602304352E+03  0.16145246737E+04  0.16968645654E+04  0.50400001928E-02 0.  1.
</event>
<event>
 5   0  0.1526126E-03  0.1506936E+04  0.7818609E-02  0.8879854E-01
        2   -1    0    0  501    0  0.00000000000E+00  0.00000000000E+00  0.47102546858E+03  0.47102546858E+03  0.25500000920E-02 0.  1.
       -2   -1    0    0    0  501  0.00000000000E+00  0.00000000000E+00 -0.12052725191E+04  0.12052725191E+04  0.25500000920E-02 0. -1.
    10030    2    1    2    0    0  0.00000000000E+00  0.00000000000E+00 -0.73424705048E+03  0.16762979876E+04  0.15069360346E+04 0.  0.
        2    1    3    3  502    0  0.54642610797E+03 -0.46452325520E+03 -0.11018661637E+03  0.72560625447E+03  0.25500000920E-02 0.  1.
       -2    1    3    3    0  502 -0.54642610797E+03  0.46452325520E+03 -0.62406043411E+03  0.95069173317E+03  0.25500000920E-02 0. -1.
</event>
<event>
 5   0  0.8191876E-04  0.1488733E+04  0.7818609E-02  0.8891980E-01
       -1   -1    0    0    0  501  0.00000000000E+00  0.00000000000E+00  0.31843486415E+03  0.31843486419E+03  0.50400001928E-02 0.  1.
        1   -1    0    0  501    0  0.00000000000E+00  0.00000000000E+00 -0.17400160182E+04  0.17400160182E+04  0.50400001928E-02 0. -1.
    10030    2    1    2    0    0  0.00000000000E+00  0.00000000000E+00 -0.14215811540E+04  0.20584508824E+04  0.14887333736E+04 0.  0.
        2    1    3    3  502    0 -0.15168019021E+03  0.66863589396E+03 -0.31004787682E+03  0.75246961714E+03  0.25500000920E-02 0. -1.
       -2    1    3    3    0  502  0.15168019021E+03 -0.66863589396E+03 -0.11115332772E+04  0.13059812652E+04  0.25500000920E-02 0.  1.
</event>
<event>
 5   0  0.8191876E-04  0.1485123E+04  0.7818609E-02  0.8894407E-01
       -1   -1    0    0    0  501  0.00000000000E+00  0.00000000000E+00  0.84420801994E+03  0.84420801995E+03  0.50400001928E-02 0.  1.
        1   -1    0    0  501    0  0.00000000000E+00  0.00000000000E+00 -0.65315336400E+03  0.65315336402E+03  0.50400001928E-02 0. -1.
    10030    2    1    2    0    0  0.00000000000E+00  0.00000000000E+00  0.19105465594E+03  0.14973613840E+04  0.14851226322E+04 0.  0.
        2    1    3    3  502    0  0.65978874329E+03 -0.11611314230E+03 -0.22741502000E+03  0.70747511540E+03  0.25500000920E-02 0.  1.
       -2    1    3    3    0  502 -0.65978874329E+03  0.11611314230E+03  0.41846967594E+03  0.78988626857E+03  0.25500000920E-02 0. -1.
</event>
<event>
 5   0  0.8306301E-04  0.1529419E+04  0.7818609E-02  0.8865122E-01
       -1   -1    0    0    0  501  0.00000000000E+00  0.00000000000E+00  0.39120656568E+03  0.39120656572E+03  0.50400001928E-02 0. -1.
        1   -1    0    0  501    0  0.00000000000E+00  0.00000000000E+00 -0.14948130744E+04  0.14948130744E+04  0.50400001928E-02 0.  1.
    10030    2    1    2    0    0  0.00000000000E+00  0.00000000000E+00 -0.11036065087E+04  0.18860196402E+04  0.15294190913E+04 0.  0.
        4    1    3    3  502    0 -0.29460576161E+03 -0.29500598632E+03 -0.13423333677E+04  0.14055894029E+04  0.12699999809E+01 0.  1.
       -4    1    3    3    0  502  0.29460576161E+03  0.29500598632E+03  0.23872685895E+03  0.48043023721E+03  0.12699999809E+01 0. -1.
</event>
<event>
 5   0  0.8306301E-04  0.1461515E+04  0.7818609E-02  0.8910456E-01
       -1   -1    0    0    0  501  0.00000000000E+00  0.00000000000E+00  0.38276340443E+03  0.38276340446E+03  0.50400001928E-02 0. -1.
        1   -1    0    0  501    0  0.00000000000E+00  0.00000000000E+00 -0.13951341023E+04  0.13951341023E+04  0.50400001928E-02 0.  1.
    10030    2    1    2    0    0  0.00000000000E+00  0.00000000000E+00 -0.10123706978E+04  0.17778975067E+04  0.14615146645E+04 0.  0.
        4    1    3    3  502    0  0.45734738088E+03 -0.21722129622E+03 -0.11471804164E+04  0.12539442727E+04  0.12699999809E+01 0.  1.
       -4    1    3    3    0  502 -0.45734738088E+03  0.21722129622E+03  0.13480971859E+03  0.52395323403E+03  0.12699999809E+01 0. -1.
</event>
<event>
 5   0  0.8058234E-04  0.1502152E+04  0.7818609E-02  0.8883023E-01
       -1   -1    0    0    0  501  0.00000000000E+00  0.00000000000E+00  0.45336957722E+03  0.45336957725E+03  0.50400001928E-02 0. -1.
        1   -1    0    0  501    0  0.00000000000E+00  0.00000000000E+00 -0.12442713951E+04  0.12442713951E+04  0.50400001928E-02 0.  1.
    10030    2    1    2    0    0  0.00000000000E+00  0.00000000000E+00 -0.79090181790E+03  0.16976409724E+04  0.15021515188E+04 0.  0.
        5    1    3    3  502    0 -0.60402027265E+03  0.26074685638E+03 -0.80490362426E+03  0.10395774850E+04  0.46999998093E+01 0.  1.
       -5    1    3    3    0  502  0.60402027265E+03 -0.26074685638E+03  0.14001806360E+02  0.65806348741E+03  0.46999998093E+01 0. -1.
</event>
<event>
 5   0  0.8365016E-04  0.1453103E+04  0.7818609E-02  0.8916252E-01
        1   -1    0    0  501    0  0.00000000000E+00  0.00000000000E+00  0.15439560080E+04  0.15439560080E+04  0.50400001928E-02 0. -1.
       -1   -1    0    0    0  501  0.00000000000E+00  0.00000000000E+00 -0.34189916189E+03  0.34189916193E+03  0.50400001928E-02 0.  1.
    10030    2    1    2    0    0  0.00000000000E+00  0.00000000000E+00  0.12020568461E+04  0.18858551700E+04  0.14531032519E+04 0.  0.
        3    1    3    3  502    0  0.54131380647E+03  0.42744082786E+03  0.30465244413E+03  0.75401553055E+03  0.10100000352E+00 0.  1.
       -3    1    3    3    0  502 -0.54131380647E+03 -0.42744082786E+03  0.89740440200E+03  0.11318396394E+04  0.10100000352E+00 0. -1.
</event>
<event>
 5   0  0.1484056E-03  0.1495173E+04  0.7818609E-02  0.8887669E-01
       -2   -1    0    0    0  501  0.00000000000E+00  0.00000000000E+00  0.40389067513E+03  0.40389067514E+03  0.25500000920E-02 0.  1.
        2   -1    0    0  501    0  0.00000000000E+00  0.00000000000E+00 -0.13837543447E+04  0.13837543447E+04  0.25500000920E-02 0. -1.
    10030    2    1    2    0    0  0.00000000000E+00  0.00000000000E+00 -0.97986366959E+03  0.17876450199E+04  0.14951728683E+04 0.  0.
        5    1    3    3  502    0  0.48156305598E+03 -0.39273446344E+03 -0.98682297632E+03  0.11661839530E+04  0.46999998093E+01 0. -1.
       -5    1    3    3    0  502 -0.48156305598E+03  0.39273446344E+03  0.69593067315E+01  0.62146106685E+03  0.46999998093E+01 0.  1.
</event>
<event>
 5   0  0.8058234E-04  0.1501261E+04  0.7818609E-02  0.8883615E-01
       -1   -1    0    0    0  501  0.00000000000E+00  0.00000000000E+00  0.70734647546E+03  0.70734647547E+03  0.50400001928E-02 0. -1.
        1   -1    0    0  501    0  0.00000000000E+00  0.00000000000E+00 -0.79656334213E+03  0.79656334215E+03  0.50400001928E-02 0.  1.
    10030    2    1    2    0    0  0.00000000000E+00  0.00000000000E+00 -0.89216866672E+02  0.15039098176E+04  0.15012611666E+04 0.  0.
        5    1    3    3  502    0  0.65720708658E+03 -0.36073135416E+03 -0.74496209288E+01  0.74975052609E+03  0.46999998093E+01 0. -1.
       -5    1    3    3    0  502 -0.65720708658E+03  0.36073135416E+03 -0.81767245744E+02  0.75415929153E+03  0.46999998093E+01 0.  1.
</event>
<event>
 5   0  0.1511546E-03  0.1496746E+04  0.7818609E-02  0.8886620E-01
        2   -1    0    0  501    0  0.00000000000E+00  0.00000000000E+00  0.18870481862E+04  0.18870481862E+04  0.25500000920E-02 0. -1.
       -2   -1    0    0    0  501  0.00000000000E+00  0.00000000000E+00 -0.29679272416E+03  0.29679272417E+03  0.25500000920E-02 0.  1.
    10030    2    1    2    0    0  0.00000000000E+00  0.00000000000E+00  0.15902554621E+04  0.21838409104E+04  0.14967460330E+04 0.  0.
        1    1    3    3  502    0  0.38084679364E+03 -0.14205652350E+03 -0.12168843611E+03  0.42430226443E+03  0.50400001928E-02 0.  1.
       -1    1    3    3    0  502 -0.38084679364E+03  0.14205652350E+03  0.17119438982E+04  0.17595386459E+04  0.50400001928E-02 0. -1.
</event>
<event>
 5   0  0.8365016E-04  0.1457087E+04  0.7818609E-02  0.8913502E-01
       -1   -1    0    0    0  501  0.00000000000E+00  0.00000000000E+00  0.35224910342E+03  0.35224910345E+03  0.50400001928E-02 0.  1.
        1   -1    0    0  501    0  0.00000000000E+00  0.00000000000E+00 -0.15068193546E+04  0.15068193546E+04  0.50400001928E-02 0. -1.
    10030    2    1    2    0    0  0.00000000000E+00  0.00000000000E+00 -0.11545702512E+04  0.18590684581E+04  0.14570871858E+04 0.  0.
        3    1    3    3  502    0 -0.21410632076E+03  0.67285719313E+03 -0.34834574757E+03  0.78735194734E+03  0.10100000352E+00 0.  1.
       -3    1    3    3    0  502  0.21410632076E+03 -0.67285719313E+03 -0.80622450364E+03  0.10717165107E+04  0.10100000352E+00 0. -1.
</event>
<event>
 5   0  0.8306301E-04  0.1492770E+04  0.7818609E-02  0.8889275E-01
        1   -1    0    0  501    0  0.00000000000E+00  0.00000000000E+00  0.52179037888E+03  0.52179037890E+03  0.50400001928E-02 0. -1.
       -1   -1    0    0    0  501  0.00000000000E+00  0.00000000000E+00 -0.10676516120E+04  0.10676516120E+04  0.50400001928E-02 0.  1.
    10030    2    1    2    0    0  0.00000000000E+00  0.00000000000E+00 -0.54586123312E+03  0.15894419909E+04  0.14927696931E+04 0.  0.
        4    1    3    3  502    0 -0.52512914233E+03 -0.53035304801E+03 -0.28073717594E+03  0.79740199807E+03  0.12699999809E+01 0.  1.
       -4    1    3    3    0  502  0.52512914233E+03  0.53035304801E+03 -0.26512405718E+03  0.79203999284E+03  0.12699999809E+01 0. -1.
</event>
<event>
 5   0  0.1511546E-03  0.1420717E+04  0.7818609E-02  0.8938957E-01
       -2   -1    0    0    0  501  0.00000000000E+00  0.00000000000E+00  0.84306143750E+03  0.84306143750E+03  0.25500000920E-02 0.  1.
        2   -1    0    0  501    0  0.00000000000E+00  0.00000000000E+00 -0.59854419309E+03  0.59854419310E+03  0.25500000920E-02 0. -1.
    10030    2    1    2    0    0  0.00000000000E+00  0.00000000000E+00  0.24451724441E+03  0.14416056306E+04  0.14207174636E+04 0.  0.
        1    1    3    3  502    0 -0.77758910343E+02  0.40051337904E+03  0.71231675917E+03  0.82088524189E+03  0.50400001928E-02 0.  1.
       -1    1    3    3    0  502  0.77758910343E+02 -0.40051337904E+03 -0.46779951477E+03  0.62072038871E+03  0.50400001928E-02 0. -1.
</event>
<event>
 5   0  0.1552067E-03  0.1431677E+04  0.7818609E-02  0.8931203E-01
       -2   -1    0    0    0  501  0.00000000000E+00  0.00000000000E+00  0.12571862597E+04  0.12571862597E+04  0.25500000920E-02 0.  1.
        2   -1    0    0  501    0  0.00000000000E+00  0.00000000000E+00 -0.40759643176E+03  0.40759643176E+03  0.25500000920E-02 0. -1.
    10030    2    1    2    0    0  0.00000000000E+00  0.00000000000E+00  0.84958982797E+03  0.16647826915E+04  0.14316768260E+04 0.  0.
        3    1    3    3  502    0 -0.25589606440E+03 -0.13206714920E+03  0.11868637274E+04  0.12212985079E+04  0.10100000352E+00 0.  1.
       -3    1    3    3    0  502  0.25589606440E+03  0.13206714920E+03 -0.33727389945E+03  0.44348418362E+03  0.10100000352E+00 0. -1.
</event>
<event>
 5   0  0.1511546E-03  0.1547939E+04  0.7818609E-02  0.8853185E-01
       -2   -1    0    0    0  501  0.00000000000E+00  0.00000000000E+00  0.41621515451E+03  0.41621515452E+03  0.25500000920E-02 0.  1.
        2   -1    0    0  501    0  0.00000000000E+00  0.00000000000E+00 -0.14392284003E+04  0.14392284003E+04  0.25500000920E-02 0. -1.
    10030    2    1    2    0    0  0.00000000000E+00  0.00000000000E+00 -0.10230132457E+04  0.18554435548E+04  0.15479388502E+04 0.  0.
        1    1    3    3  502    0 -0.25139232903E+03  0.63653438677E+03 -0.78239033076E+02  0.68883631942E+03  0.50400001928E-02 0.  1.
       -1    1    3    3    0  502  0.25139232903E+03 -0.63653438677E+03 -0.94477421267E+03  0.11666072354E+04  0.50400001928E-02 0. -1.
</event>
<event>
 5   0  0.1552067E-03  0.1520318E+04  0.7818609E-02  0.8871053E-01
       -2   -1    0    0    0  501  0.00000000000E+00  0.00000000000E+00  0.52310595135E+03  0.52310595135E+03  0.25500000920E-02 0.  1.
        2   -1    0    0  501    0  0.00000000000E+00  0.00000000000E+00 -0.11046354713E+04  0.11046354713E+04  0.25500000920E-02 0. -1.
    10030    2    1    2    0    0  0.00000000000E+00  0.00000000000E+00 -0.58152951991E+03  0.16277414226E+04  0.15203175841E+04 0.  0.
        3    1    3    3  502    0  0.50988437306E+03  0.56334690957E+03 -0.26683453020E+03  0.80532135892E+03  0.10100000352E+00 0.  1.
       -3    1    3    3    0  502 -0.50988437306E+03 -0.56334690957E+03 -0.31469498971E+03  0.82242006370E+03  0.10100000352E+00 0. -1.
</event>
<event>
 5   0  0.1526126E-03  0.1503787E+04  0.7818609E-02  0.8881939E-01
        2   -1    0    0  501    0  0.00000000000E+00  0.00000000000E+00  0.11318507940E+04  0.11318507940E+04  0.25500000920E-02 0.  1.
       -2   -1    0    0    0  501  0.00000000000E+00  0.00000000000E+00 -0.49948595803E+03  0.49948595804E+03  0.25500000920E-02 0. -1.
    10030    2    1    2    0    0  0.00000000000E+00  0.00000000000E+00  0.63236483597E+03  0.16313367521E+04  0.15037866580E+04 0.  0.
        2    1    3    3  502    0  0.48331098569E+03 -0.25122370872E+03 -0.24608551076E+03  0.59771309114E+03  0.25500000920E-02 0. -1.
       -2    1    3    3    0  502 -0.48331098569E+03  0.25122370872E+03  0.87845034673E+03  0.10336236609E+04  0.25500000920E-02 0.  1.
</event>
<event>
 5   0  0.1511546E-03  0.1495353E+04  0.7818609E-02  0.8887549E-01
        2   -1    0    0  501    0  0.00000000000E+00  0.00000000000E+00  0.40901806292E+03  0.40901806293E+03  0.25500000920E-02 0. -1.
       -2   -1    0    0    0  501  0.00000000000E+00  0.00000000000E+00 -0.13667369420E+04  0.13667369420E+04  0.25500000920E-02 0.  1.
    10030    2    1    2    0    0  0.00000000000E+00  0.00000000000E+00 -0.95771887906E+03  0.17757550049E+04  0.14953529303E+04 0.  0.
        1    1    3    3  502    0  0.31608691594E+03 -0.33174384433E+02  0.32480761706E+03  0.45443532690E+03  0.50400001928E-02 0. -1.
       -1    1    3    3    0  502 -0.31608691594E+03  0.33174384433E+02 -0.12825264961E+04  0.13213196780E+04  0.50400001928E-02 0.  1.
</event>
<event>
 5   0  0.8058234E-04  0.1526342E+04  0.7818609E-02  0.8867122E-01
       -1   -1    0    0    0  501  0.00000000000E+00  0.00000000000E+00  0.32230418776E+03  0.32230418779E+03  0.50400001928E-02 0.  1.
        1   -1    0    0  501    0  0.00000000000E+00  0.00000000000E+00 -0.18070817739E+04  0.18070817739E+04  0.50400001928E-02 0. -1.
    10030    2    1    2    0    0  0.00000000000E+00  0.00000000000E+00 -0.14847775862E+04  0.21293859617E+04  0.15263420631E+04 0.  0.
        5    1    3    3  502    0 -0.28259266288E+03  0.20226652929E+01  0.24659708682E+03  0.37509321177E+03  0.46999998093E+01 0.  1.
       -5    1    3    3    0  502  0.28259266288E+03 -0.20226652929E+01 -0.17313746730E+04  0.17542927500E+04  0.46999998093E+01 0. -1.
</event>
<event>
 5   0  0.8058234E-04  0.1538124E+04  0.7818609E-02  0.8859489E-01
        1   -1    0    0  501    0  0.00000000000E+00  0.00000000000E+00  0.17615021859E+04  0.17615021859E+04  0.50400001928E-02 0. -1.
       -1   -1    0    0    0  501  0.00000000000E+00  0.00000000000E+00 -0.33576809086E+03  0.33576809090E+03  0.50400001928E-02 0.  1.
    10030    2    1    2    0    0  0.00000000000E+00  0.00000000000E+00  0.14257340951E+04  0.20972702768E+04  0.15381238260E+04 0.  0.
        5    1    3    3  502    0  0.44562161050E+03 -0.88313823567E+02 -0.13323969153E+03  0.47344783934E+03  0.46999998093E+01 0.  1.
       -5    1    3    3    0  502 -0.44562161050E+03  0.88313823567E+02  0.15589737866E+04  0.16238224375E+04  0.46999998093E+01 0. -1.
</event>
<event>
 5   0  0.1526126E-03  0.1537151E+04  0.7818609E-02  0.8860117E-01
       -2   -1    0    0    0  501  0.00000000000E+00  0.00000000000E+00  0.71640406408E+03  0.71640406409E+03  0.25500000920E-02 0.  1.
        2   -1    0    0  501    0  0.00000000000E+00  0.00000000000E+00 -0.82454661381E+03  0.82454661381E+03  0.25500000920E-02 0. -1.
    10030    2    1    2    0    0  0.00000000000E+00  0.00000000000E+00 -0.10814254972E+03  0.15409506779E+04  0.15371513200E+04 0.  0.
        2    1    3    3  502    0 -0.23779351373E+02  0.73168429117E+01 -0.82414282380E+03  0.82451827619E+03  0.25500000920E-02 0. -1.
       -2    1    3    3    0  502  0.23779351373E+02 -0.73168429117E+01  0.71600027407E+03  0.71643240171E+03  0.25500000920E-02 0.  1.
</event>
<event>
 5   0  0.8365016E-04  0.1510951E+04  0.7818609E-02  0.8877203E-01
        1   -1    0    0  501    0  0.00000000000E+00  0.00000000000E+00  0.10698874800E+04  0.10698874800E+04  0.50400001928E-02 0. -1.
       -1   -1    0    0    0  501  0.00000000000E+00  0.00000000000E+00 -0.53346066986E+03  0.53346066989E+03  0.50400001928E-02 0.  1.
    10030    2    1    2    0    0  0.00000000000E+00  0.00000000000E+00  0.53642681017E+03  0.16033481499E+04  0.15109505509E+04 0.  0.
        3    1    3    3  502    0  0.68828961091E+02  0.29696138307E+03 -0.46530238920E+03  0.55626415713E+03  0.10100000352E+00 0.  1.
       -3    1    3    3    0  502 -0.68828961091E+02 -0.29696138307E+03  0.10017291994E+04  0.10470839928E+04  0.10100000352E+00 0. -1.
</event>
<event>
 5   0  0.8058234E-04  0.1473744E+04  0.7818609E-02  0.8902103E-01
       -1   -1    0    0    0  501  0.00000000000E+00  0.00000000000E+00  0.36012213934E+03  0.36012213937E+03  0.50400001928E-02 0. -1.
        1   -1    0    0  501    0  0.00000000000E+00  0.00000000000E+00 -0.15077679442E+04  0.15077679442E+04  0.50400001928E-02 0.  1.
    10030    2    1    2    0    0  0.00000000000E+00  0.00000000000E+00 -0.11476458048E+04  0.18678900836E+04  0.14737443709E+04 0.  0.
        5    1    3    3  502    0  0.12305330097E+03  0.66775360984E+03 -0.93659024443E+03  0.11568320424E+04  0.46999998093E+01 0. -1.
       -5    1    3    3    0  502 -0.12305330097E+03 -0.66775360984E+03 -0.21105556041E+03  0.71105804117E+03  0.46999998093E+01 0.  1.
</event>
<event>
 5   0  0.5603875E-04  0.1357889E+04  0.7818609E-02  0.8984878E-01
       -4   -1    0    0    0  501  0.00000000000E+00  0.00000000000E+00  0.91621542140E+03  0.91621630159E+03  0.12699999809E+01 0. -1.
        4   -1    0    0  501    0  0.00000000000E+00  0.00000000000E+00 -0.50311717909E+03  0.50311878199E+03  0.12699999809E+01 0.  1.
    10030    2    1    2    0    0  0.00000000000E+00  0.00000000000E+00  0.41309824231E+03  0.14193350836E+04  0.13578887737E+04 0.  0.
        4    1    3    3  502    0 -0.40026458279E+03 -0.34132653234E+03  0.65521445986E+03  0.84025183084E+03  0.12699999809E+01 0. -1.
       -4    1    3    3    0  502  0.40026458279E+03  0.34132653234E+03 -0.24211621755E+03  0.57908325275E+03  0.12699999809E+01 0.  1.
</event>
<event>
 5   0  0.1552067E-03  0.1523201E+04  0.7818609E-02  0.8869169E-01
       -2   -1    0    0    0  501  0.00000000000E+00  0.00000000000E+00  0.44422166993E+03  0.44422166994E+03  0.25500000920E-02 0.  1.
        2   -1    0    0  501    0  0.00000000000E+00  0.00000000000E+00 -0.13057339010E+04  0.13057339010E+04  0.25500000920E-02 0. -1.
    10030    2    1    2    0    0  0.00000000000E+00  0.00000000000E+00 -0.86151223107E+03  0.17499555709E+04  0.15232009637E+04 0.  0.
        3    1    3    3  502    0 -0.54361309683E+03  0.19175427553E+03 -0.10025993453E+04  0.11564991823E+04  0.10100000352E+00 0. -1.
       -3    1    3    3    0  502  0.54361309683E+03 -0.19175427553E+03  0.14108711423E+03  0.59345638865E+03  0.10100000352E+00 0.  1.
</event>
<event>
 5   0  0.8058234E-04  0.1508528E+04  0.7818609E-02  0.8878802E-01
       -1   -1    0    0    0  501  0.00000000000E+00  0.00000000000E+00  0.61115413611E+03  0.61115413614E+03  0.50400001928E-02 0.  1.
        1   -1    0    0  501    0  0.00000000000E+00  0.00000000000E+00 -0.93088479138E+03  0.93088479140E+03  0.50400001928E-02 0. -1.
    10030    2    1    2    0    0  0.00000000000E+00  0.00000000000E+00 -0.31973065527E+03  0.15420389275E+04  0.15085278791E+04 0.  0.
        5    1    3    3  502    0 -0.65835633586E+03 -0.12583356325E+03  0.19368618482E+03  0.69771310637E+03  0.46999998093E+01 0.  1.
       -5    1    3    3    0  502  0.65835633586E+03  0.12583356325E+03 -0.51341684009E+03  0.84432582117E+03  0.46999998093E+01 0. -1.
</event>
<event>
 5   0  0.1526126E-03  0.1685885E+04  0.7818609E-02  0.8769456E-01
       -2   -1    0    0    0  501  0.00000000000E+00  0.00000000000E+00  0.24264856209E+03  0.24264856210E+03  0.25500000920E-02 0. -1.
        2   -1    0    0  501    0  0.00000000000E+00  0.00000000000E+00 -0.29283176246E+04  0.29283176246E+04  0.25500000920E-02 0.  1.
    10030    2    1    2    0    0  0.00000000000E+00  0.00000000000E+00 -0.26856690625E+04  0.31709661867E+04  0.16858850032E+04 0.  0.
        2    1    3    3  502    0  0.51017891683E+03  0.51530981259E+03 -0.53443344183E+03  0.90080288292E+03  0.25500000920E-02 0. -1.
       -2    1    3    3    0  502 -0.51017891683E+03 -0.51530981259E+03 -0.21512356207E+04  0.22701633038E+04  0.25500000920E-02 0.  1.
</event>
<event>
 5   0  0.7870317E-04  0.1469552E+04  0.7818609E-02  0.8904957E-01
       -1   -1    0    0    0  501  0.00000000000E+00  0.00000000000E+00  0.11010405992E+04  0.11010405992E+04  0.50400001928E-02 0. -1.
        1   -1    0    0  501    0  0.00000000000E+00  0.00000000000E+00 -0.49035060412E+03  0.49035060415E+03  0.50400001928E-02 0.  1.
    10030    2    1    2    0    0  0.00000000000E+00  0.00000000000E+00  0.61068999509E+03  0.15913912034E+04  0.14695522080E+04 0.  0.
        1    1    3    3  502    0 -0.52151917981E+02 -0.46283809327E+03 -0.31006462767E+03  0.55953462492E+03  0.50400001928E-02 0.  1.
       -1    1    3    3    0  502  0.52151917981E+02  0.46283809327E+03  0.92075462277E+03  0.10318565785E+04  0.50400001928E-02 0. -1.
</event>
<event>
 5   0  0.5603875E-04  0.1528532E+04  0.7818609E-02  0.8865698E-01
        3   -1    0    0  501    0  0.00000000000E+00  0.00000000000E+00  0.77820231313E+03  0.77820231968E+03  0.10100000352E+00 0.  1.
       -3   -1    0    0    0  501  0.00000000000E+00  0.00000000000E+00 -0.75057917205E+03  0.75057917884E+03  0.10100000352E+00 0. -1.
    10030    2    1    2    0    0  0.00000000000E+00  0.00000000000E+00  0.27623141078E+02  0.15287814985E+04  0.15285319206E+04 0.  0.
        5    1    3    3  502    0  0.70268608973E+03 -0.27006790341E+03 -0.11802783807E+03  0.76200857850E+03  0.46999998093E+01 0. -1.
       -5    1    3    3    0  502 -0.70268608973E+03  0.27006790341E+03  0.14565097914E+03  0.76677292002E+03  0.46999998093E+01 0.  1.
</event>
<event>
 5   0  0.1552067E-03  0.1512082E+04  0.7818609E-02  0.8876458E-01
       -2   -1    0    0    0  501  0.00000000000E+00  0.00000000000E+00  0.56156091139E+03  0.56156091140E+03  0.25500000920E-02 0. -1.
        2   -1    0    0  501    0  0.00000000000E+00  0.00000000000E+00 -0.10178740833E+04  0.10178740833E+04  0.25500000920E-02 0.  1.
    10030    2    1    2    0    0  0.00000000000E+00  0.00000000000E+00 -0.45631317193E+03  0.15794349947E+04  0.15120824024E+04 0.  0.
        3    1    3    3  502    0  0.65416059608E+03  0.12782992699E+03 -0.60088678934E+03  0.89740265183E+03  0.10100000352E+00 0.  1.
       -3    1    3    3    0  502 -0.65416059608E+03 -0.12782992699E+03  0.14457361741E+03  0.68203234290E+03  0.10100000352E+00 0. -1.
</event>
<event>
 5   0  0.8191876E-04  0.1495796E+04  0.7818609E-02  0.8887253E-01
       -1   -1    0    0    0  501  0.00000000000E+00  0.00000000000E+00  0.25009759156E+03  0.25009759161E+03  0.50400001928E-02 0.  1.
        1   -1    0    0  501    0  0.00000000000E+00  0.00000000000E+00 -0.22365335878E+04  0.22365335878E+04  0.50400001928E-02 0. -1.
    10030    2    1    2    0    0  0.00000000000E+00  0.00000000000E+00 -0.19864359963E+04  0.24866311794E+04  0.14957963281E+04 0.  0.
        2    1    3    3  502    0  0.17099625790E+03 -0.41780709072E+03 -0.19553269464E+01  0.45144912070E+03  0.25500000920E-02 0.  1.
       -2    1    3    3    0  502 -0.17099625790E+03  0.41780709072E+03 -0.19844806693E+04  0.20351820587E+04  0.25500000920E-02 0. -1.
</event>
<event>
 5   0  0.8365016E-04  0.1505108E+04  0.7818609E-02  0.8881063E-01
        1   -1    0    0  501    0  0.00000000000E+00  0.00000000000E+00  0.92460767738E+03  0.92460767739E+03  0.50400001928E-02 0.  1.
       -1   -1    0    0    0  501  0.00000000000E+00  0.00000000000E+00 -0.61251632750E+03  0.61251632752E+03  0.50400001928E-02 0. -1.
    10030    2    1    2    0    0  0.00000000000E+00  0.00000000000E+00  0.31209134988E+03  0.15371240049E+04  0.15051077024E+04 0.  0.
        3    1    3    3  502    0 -0.35191758896E+02 -0.60520668488E+03  0.61142719202E+03  0.86102079688E+03  0.10100000352E+00 0.  1.
       -3    1    3    3    0  502  0.35191758896E+02  0.60520668488E+03 -0.29933584214E+03  0.67610320803E+03  0.10100000352E+00 0. -1.
</event>
<event>
 5   0  0.8058234E-04  0.1629611E+04  0.7818609E-02  0.8802561E-01
       -1   -1    0    0    0  501  0.00000000000E+00  0.00000000000E+00  0.59860936921E+03  0.59860936923E+03  0.50400001928E-02 0. -1.
        1   -1    0    0  501    0  0.00000000000E+00  0.00000000000E+00 -0.11090835503E+04  0.11090835503E+04  0.50400001928E-02 0.  1.
    10030    2    1    2    0    0  0.00000000000E+00  0.00000000000E+00 -0.51047418107E+03  0.17076929195E+04  0.16296107565E+04 0.  0.
        5    1    3    3  502    0  0.45650500999E+03 -0.32730524611E+03  0.36326352991E+03  0.66896041022E+03  0.46999998093E+01 0. -1.
       -5    1    3    3    0  502 -0.45650500999E+03  0.32730524611E+03 -0.87373771098E+03  0.10387325093E+04  0.46999998093E+01 0.  1.
</event>
<event>
 5   0  0.8191876E-04  0.1150441E+04  0.7818609E-02  0.9157377E-01
        1   -1    0    0  501    0  0.00000000000E+00  0.00000000000E+00  0.60696983912E+03  0.60696983915E+03  0.50400001928E-02 0. -1.
       -1   -1    0    0    0  501  0.00000000000E+00  0.00000000000E+00 -0.54513157310E+03  0.54513157312E+03  0.50400001928E-02 0.  1.
    10030    2    1    2    0    0  0.00000000000E+00  0.00000000000E+00  0.61838266028E+02  0.11521014123E+04  0.11504406517E+04 0.  0.
        2    1    3    3  502    0  0.19884143923E+01  0.32945986131E+02  0.60602075595E+03  0.60691889775E+03  0.25500000920E-02 0. -1.
       -2    1    3    3    0  502 -0.19884143923E+01 -0.32945986131E+02 -0.54418248992E+03  0.54518251452E+03  0.25500000920E-02 0.  1.
</event>
<event>
 5   0  0.1500956E-03  0.1520361E+04  0.7818609E-02  0.8871025E-01
        2   -1    0    0  501    0  0.00000000000E+00  0.00000000000E+00  0.91720078370E+03  0.91720078370E+03  0.25500000920E-02 0.  1.
       -2   -1    0    0    0  501  0.00000000000E+00  0.00000000000E+00 -0.63004171884E+03  0.63004171885E+03  0.25500000920E-02 0. -1.
    10030    2    1    2    0    0  0.00000000000E+00  0.00000000000E+00  0.28715906486E+03  0.15472425025E+04  0.15203614811E+04 0.  0.
        4    1    3    3  502    0  0.66051398779E+03  0.34707413291E+03 -0.43660514872E+01  0.74616342520E+03  0.12699999809E+01 0.  1.
       -4    1    3    3    0  502 -0.66051398779E+03 -0.34707413291E+03  0.29152511634E+03  0.80107907735E+03  0.12699999809E+01 0. -1.
</event>
<event>
 5   0  0.8306301E-04  0.1544887E+04  0.7818609E-02  0.8855140E-01
       -1   -1    0    0    0  501  0.00000000000E+00  0.00000000000E+00  0.83045417738E+03  0.83045417739E+03  0.50400001928E-02 0.  1.
        1   -1    0    0  501    0  0.00000000000E+00  0.00000000000E+00 -0.71848530207E+03  0.71848530209E+03  0.50400001928E-02 0. -1.
    10030    2    1    2    0    0  0.00000000000E+00  0.00000000000E+00  0.11196887531E+03  0.15489394795E+04  0.15448872069E+04 0.  0.
        4    1    3    3  502    0 -0.75442244851E+03 -0.13824784629E+03  0.14788625406E+03  0.78111308711E+03  0.12699999809E+01 0.  1.
       -4    1    3    3    0  502  0.75442244851E+03  0.13824784629E+03 -0.35917378749E+02  0.76782639237E+03  0.12699999809E+01 0. -1.
</event>
<event>
 5   0  0.8058234E-04  0.1550155E+04  0.7818609E-02  0.8851769E-01
       -1   -1    0    0    0  501  0.00000000000E+00  0.00000000000E+00  0.56861956637E+03  0.56861956639E+03  0.50400001928E-02 0. -1.
        1   -1    0    0  501    0  0.00000000000E+00  0.00000000000E+00 -0.10564978434E+04  0.10564978434E+04  0.50400001928E-02 0.  1.
    10030    2    1    2    0    0  0.00000000000E+00  0.00000000000E+00 -0.48787827701E+03  0.16251174098E+04  0.15501552769E+04 0.  0.
        5    1    3    3  502    0 -0.77305364168E+03  0.13060826896E+01 -0.18547857740E+03  0.79500819583E+03  0.46999998093E+01 0. -1.
       -5    1    3    3    0  502  0.77305364168E+03 -0.13060826896E+01 -0.30239969962E+03  0.83010921396E+03  0.46999998093E+01 0.  1.
</event>
<event>
 5   0  0.5603875E-04  0.1525038E+04  0.7818609E-02  0.8867972E-01
        4   -1    0    0  501    0  0.00000000000E+00  0.00000000000E+00  0.63310672034E+03  0.63310799414E+03  0.12699999809E+01 0. -1.
       -4   -1    0    0    0  501  0.00000000000E+00  0.00000000000E+00 -0.91838118418E+03  0.91838206230E+03  0.12699999809E+01 0.  1.
    10030    2    1    2    0    0  0.00000000000E+00  0.00000000000E+00 -0.28527446384E+03  0.15514900564E+04  0.15250376636E+04 0.  0.
        5    1    3    3  502    0  0.52879854252E+03 -0.14957526258E+03 -0.68040048937E+03  0.87462424714E+03  0.46999998093E+01 0.  1.
       -5    1    3    3    0  502 -0.52879854252E+03  0.14957526258E+03  0.39512602553E+03  0.67686580930E+03  0.46999998093E+01 0. -1.
</event>
<event>
 5   0  0.1511546E-03  0.1504734E+04  0.7818609E-02  0.8881311E-01
        2   -1    0    0  501    0  0.00000000000E+00  0.00000000000E+00  0.15648093580E+04  0.15648093580E+04  0.25500000920E-02 0.  1.
       -2   -1    0    0    0  501  0.00000000000E+00  0.00000000000E+00 -0.36174133266E+03  0.36174133267E+03  0.25500000920E-02 0. -1.
    10030    2    1    2    0    0  0.00000000000E+00  0.00000000000E+00  0.12030680254E+04  0.19265506907E+04  0.15047341593E+04 0.  0.
        1    1    3    3  502    0  0.32242114887E+03  0.54508504665E+03  0.81489626169E+02  0.63852459978E+03  0.50400001928E-02 0. -1.
       -1    1    3    3    0  502 -0.32242114887E+03 -0.54508504665E+03  0.11215783992E+04  0.12880260909E+04  0.50400001928E-02 0.  1.
</event>
<event>
 5   0  0.1552067E-03  0.1483633E+04  0.7818609E-02  0.8895410E-01
        2   -1    0    0  501    0  0.00000000000E+00  0.00000000000E+00  0.70519159431E+03  0.70519159432E+03  0.25500000920E-02 0.  1.
       -2   -1    0    0    0  501  0.00000000000E+00  0.00000000000E+00 -0.78034368630E+03  0.78034368630E+03  0.25500000920E-02 0. -1.
    10030    2    1    2    0    0  0.00000000000E+00  0.00000000000E+00 -0.75152091982E+02  0.14855352806E+04  0.14836331194E+04 0.  0.
        3    1    3    3  502    0  0.21844326372E+03  0.61878057986E+03 -0.38397469588E+03  0.76029168268E+03  0.10100000352E+00 0. -1.
       -3    1    3    3    0  502 -0.21844326372E+03 -0.61878057986E+03  0.30882260389E+03  0.72524359794E+03  0.10100000352E+00 0.  1.
</event>
<event>
 5   0  0.1552067E-03  0.1482056E+04  0.7818609E-02  0.8896474E-01
        2   -1    0    0  501    0  0.00000000000E+00  0.00000000000E+00  0.95491714398E+03  0.95491714398E+03  0.25500000920E-02 0. -1.
       -2   -1    0    0    0  501  0.00000000000E+00  0.00000000000E+00 -0.57504736536E+03  0.57504736536E+03  0.25500000920E-02 0.  1.
    10030    2    1    2    0    0  0.00000000000E+00  0.00000000000E+00  0.37986977862E+03  0.15299645093E+04  0.14820561228E+04 0.  0.
        3    1    3    3  502    0  0.50227715758E+03  0.28220784494E+02 -0.37175254443E+03  0.62552275754E+03  0.10100000352E+00 0.  1.
       -3    1    3    3    0  502 -0.50227715758E+03 -0.28220784494E+02  0.75162232305E+03  0.90444175181E+03  0.10100000352E+00 0. -1.
</event>
<event>
 5   0  0.8306301E-04  0.1460125E+04  0.7818609E-02  0.8911411E-01
       -1   -1    0    0    0  501  0.00000000000E+00  0.00000000000E+00  0.48935515199E+03  0.48935515202E+03  0.50400001928E-02 0.  1.
        1   -1    0    0  501    0  0.00000000000E+00  0.00000000000E+00 -0.10891702924E+04  0.10891702924E+04  0.50400001928E-02 0. -1.
    10030    2    1    2    0    0  0.00000000000E+00  0.00000000000E+00 -0.59981514040E+03  0.15785254444E+04  0.14601247810E+04 0.  0.
        4    1    3    3  502    0  0.63414848066E+02 -0.57727484334E+03  0.17837131491E+03  0.60752417778E+03  0.12699999809E+01 0.  1.
       -4    1    3    3    0  502 -0.63414848066E+02  0.57727484334E+03 -0.77818645531E+03  0.97100126664E+03  0.12699999809E+01 0. -1.
</event>
<event>
 5   0  0.1511546E-03  0.1504271E+04  0.7818609E-02  0.8881618E-01
       -2   -1    0    0    0  501  0.00000000000E+00  0.00000000000E+00  0.11793077423E+04  0.11793077423E+04  0.25500000920E-02 0. -1.
        2   -1    0    0  501    0  0.00000000000E+00  0.00000000000E+00 -0.47969473804E+03  0.47969473805E+03  0.25500000920E-02 0.  1.
    10030    2    1    2    0    0  0.00000000000E+00  0.00000000000E+00  0.69961300430E+03  0.16590024804E+04  0.15042708779E+04 0.  0.
        1    1    3    3  502    0  0.55627836677E+03 -0.50622057597E+03  0.34795262987E+03  0.82871944923E+03  0.50400001928E-02 0.  1.
       -1    1    3    3    0  502 -0.55627836677E+03  0.50622057597E+03  0.35166037443E+03  0.83028303116E+03  0.50400001928E-02 0. -1.
</event>
<event>
 5   0  0.8191876E-04  0.1502862E+04  0.7818609E-02  0.8882552E-01
       -1   -1    0    0    0  501  0.00000000000E+00  0.00000000000E+00  0.32014922001E+03  0.32014922005E+03  0.50400001928E-02 0. -1.
        1   -1    0    0  501    0  0.00000000000E+00  0.00000000000E+00 -0.17637039215E+04  0.17637039215E+04  0.50400001928E-02 0.  1.
    10030    2    1    2    0    0  0.00000000000E+00  0.00000000000E+00 -0.14435547015E+04  0.20838531416E+04  0.15028618498E+04 0.  0.
        2    1    3    3  502    0  0.62543857029E+03  0.24127500745E+03 -0.25102771244E+03  0.71582256659E+03  0.25500000920E-02 0.  1.
       -2    1    3    3    0  502 -0.62543857029E+03 -0.24127500745E+03 -0.11925269891E+04  0.13680305750E+04  0.25500000920E-02 0. -1.
</event>
<event>
 5   0  0.7870317E-04  0.1521863E+04  0.7818609E-02  0.8870043E-01
        1   -1    0    0  501    0  0.00000000000E+00  0.00000000000E+00  0.11899284205E+04  0.11899284205E+04  0.50400001928E-02 0.  1.
       -1   -1    0    0    0  501  0.00000000000E+00  0.00000000000E+00 -0.48659824297E+03  0.48659824300E+03  0.50400001928E-02 0. -1.
    10030    2    1    2    0    0  0.00000000000E+00  0.00000000000E+00  0.70333017755E+03  0.16765266635E+04  0.15218634350E+04 0.  0.
        1    1    3    3  502    0 -0.15516469599E+03 -0.63141360261E+03 -0.83802378967E+02  0.65557765306E+03  0.50400001928E-02 0. -1.
       -1    1    3    3    0  502  0.15516469599E+03  0.63141360261E+03  0.78713255652E+03  0.10209490105E+04  0.50400001928E-02 0.  1.
</event>
<event>
 5   0  0.8058234E-04  0.1504000E+04  0.7818609E-02  0.8881797E-01
        1   -1    0    0  501    0  0.00000000000E+00  0.00000000000E+00  0.79605552909E+03  0.79605552911E+03  0.50400001928E-02 0. -1.
       -1   -1    0    0    0  501  0.00000000000E+00  0.00000000000E+00 -0.71038285945E+03  0.71038285947E+03  0.50400001928E-02 0.  1.
    10030    2    1    2    0    0  0.00000000000E+00  0.00000000000E+00  0.85672669641E+02  0.15064383886E+04  0.15040002700E+04 0.  0.
        5    1    3    3  502    0  0.61214197107E+02  0.69408222223E+03  0.32611065260E+03  0.76932929028E+03  0.46999998093E+01 0. -1.
       -5    1    3    3    0  502 -0.61214197107E+02 -0.69408222223E+03 -0.24043798296E+03  0.73710909830E+03  0.46999998093E+01 0.  1.
</event>
<event>
 5   0  0.1526126E-03  0.1505161E+04  0.7818609E-02  0.8881028E-01
        2   -1    0    0  501    0  0.00000000000E+00  0.00000000000E+00  0.79241022890E+03  0.79241022890E+03  0.25500000920E-02 0. -1.
       -2   -1    0    0    0  501  0.00000000000E+00  0.00000000000E+00 -0.71475293049E+03  0.71475293049E+03  0.25500000920E-02 0.  1.
    10030    2    1    2    0    0  0.00000000000E+00  0.00000000000E+00  0.77657298410E+02  0.15071631594E+04  0.15051611651E+04 0.  0.
        2    1    3    3  502    0 -0.35052305345E+03  0.68861109645E+02 -0.62444900613E+03  0.71940588313E+03  0.25500000920E-02 0.  1.
       -2    1    3    3    0  502  0.35052305345E+03 -0.68861109645E+02  0.70210630454E+03  0.78775727626E+03  0.25500000920E-02 0. -1.
</event>
<event>
 5   0  0.1511546E-03  0.1523010E+04  0.7818609E-02  0.8869294E-01
        2   -1    0    0  501    0  0.00000000000E+00  0.00000000000E+00  0.13795328288E+04  0.13795328288E+04  0.25500000920E-02 0.  1.
       -2   -1    0    0    0  501  0.00000000000E+00  0.00000000000E+00 -0.42035262124E+03  0.42035262125E+03  0.25500000920E-02 0. -1.
    10030    2    1    2    0    0  0.00000000000E+00  0.00000000000E+00  0.95918020758E+03  0.17998854501E+04  0.15230104933E+04 0.  0.
        1    1    3    3  502    0 -0.63456680105E+03 -0.68316824807E+02 -0.11314347001E+02  0.63833394710E+03  0.50400001928E-02 0. -1.
       -1    1    3    3    0  502  0.63456680105E+03  0.68316824807E+02  0.97049455458E+03  0.11615515030E+04  0.50400001928E-02 0.  1.
</event>
<event>
 5   0  0.1484056E-03  0.1474066E+04  0.7818609E-02  0.8901884E-01
       -2   -1    0    0    0  501  0.00000000000E+00  0.00000000000E+00  0.36893902208E+03  0.36893902208E+03  0.25500000920E-02 0.  1.
        2   -1    0    0  501    0  0.00000000000E+00  0.00000000000E+00 -0.14723785107E+04  0.14723785107E+04  0.25500000920E-02 0. -1.
    10030    2    1    2    0    0  0.00000000000E+00  0.00000000000E+00 -0.11034394886E+04  0.18413175328E+04  0.14740663321E+04 0.  0.
        5    1    3    3  502    0  0.39079323922E+03 -0.59702460640E+03 -0.32126053356E+03  0.78255233492E+03  0.46999998093E+01 0. -1.
       -5    1    3    3    0  502 -0.39079323922E+03  0.59702460640E+03 -0.78217895506E+03  0.10587651979E+04  0.46999998093E+01 0.  1.
</event>
<event>
 5   0  0.5603875E-04  0.1515590E+04  0.7818609E-02  0.8874151E-01
        3   -1    0    0  501    0  0.00000000000E+00  0.00000000000E+00  0.53268738960E+03  0.53268739917E+03  0.10100000352E+00 0.  1.
       -3   -1    0    0    0  501  0.00000000000E+00  0.00000000000E+00 -0.10780304744E+04  0.10780304792E+04  0.10100000352E+00 0. -1.
    10030    2    1    2    0    0  0.00000000000E+00  0.00000000000E+00 -0.54534308482E+03  0.16107178783E+04  0.15155899853E+04 0.  0.
        3    1    3    3  502    0 -0.18387722428E+03 -0.72143212615E+03 -0.42288705455E+03  0.85621762266E+03  0.10100000352E+00 0.  1.
       -3    1    3    3    0  502  0.18387722428E+03  0.72143212615E+03 -0.12245603028E+03  0.75450025567E+03  0.10100000352E+00 0. -1.
</event>
<event>
 5   0  0.5603875E-04  0.1551561E+04  0.7818609E-02  0.8850871E-01
        4   -1    0    0  501    0  0.00000000000E+00  0.00000000000E+00  0.95319960742E+03  0.95320045346E+03  0.12699999809E+01 0. -1.
       -4   -1    0    0    0  501  0.00000000000E+00  0.00000000000E+00 -0.63138271746E+03  0.63138399474E+03  0.12699999809E+01 0.  1.
    10030    2    1    2    0    0  0.00000000000E+00  0.00000000000E+00  0.32181688996E+03  0.15845844482E+04  0.15515610729E+04 0.  0.
        5    1    3    3  502    0 -0.62237546786E+03  0.24350769648E+03  0.56320376256E+03  0.87399530284E+03  0.46999998093E+01 0.  1.
       -5    1    3    3    0  502  0.62237546786E+03 -0.24350769648E+03 -0.24138687260E+03  0.71058914536E+03  0.46999998093E+01 0. -1.
</event>
<event>
 5   0  0.1500956E-03  0.1476921E+04  0.7818609E-02  0.8899947E-01
       -2   -1    0    0    0  501  0.00000000000E+00  0.00000000000E+00  0.15710529955E+04  0.15710529955E+04  0.25500000920E-02 0.  1.
        2   -1    0    0  501    0  0.00000000000E+00  0.00000000000E+00 -0.34710735209E+03  0.34710735210E+03  0.25500000920E-02 0. -1.
    10030    2    1    2    0    0  0.00000000000E+00  0.00000000000E+00  0.12239456434E+04  0.19181603476E+04  0.14769211831E+04 0.  0.
        4    1    3    3  502    0 -0.21920900041E+03 -0.16631214098E+03 -0.27804010060E+03  0.39117799598E+03  0.12699999809E+01 0. -1.
       -4    1    3    3    0  502  0.21920900041E+03  0.16631214098E+03  0.15019857440E+04  0.15269823516E+04  0.12699999809E+01 0.  1.
</event>
<event>
 5   0  0.1511546E-03  0.1505956E+04  0.7818609E-02  0.8880502E-01
        2   -1    0    0  501    0  0.00000000000E+00  0.00000000000E+00  0.19060574370E+04  0.19060574370E+04  0.25500000920E-02 0.  1.
       -2   -1    0    0    0  501  0.00000000000E+00  0.00000000000E+00 -0.29745990686E+03  0.29745990687E+03  0.25500000920E-02 0. -1.
    10030    2    1    2    0    0  0.00000000000E+00  0.00000000000E+00  0.16085975302E+04  0.22035173439E+04  0.15059557334E+04 0.  0.
        1    1    3    3  502    0  0.31351948741E+03  0.10861788587E+03 -0.18472547167E+03  0.37975757270E+03  0.50400001928E-02 0. -1.
       -1    1    3    3    0  502 -0.31351948741E+03 -0.10861788587E+03  0.17933230018E+04  0.18237597712E+04  0.50400001928E-02 0.  1.
</event>
<event>
 5   0  0.7870317E-04  0.1509766E+04  0.7818609E-02  0.8877985E-01
       -1   -1    0    0    0  501  0.00000000000E+00  0.00000000000E+00  0.58283730147E+03  0.58283730149E+03  0.50400001928E-02 0. -1.
        1   -1    0    0  501    0  0.00000000000E+00  0.00000000000E+00 -0.97771405576E+03  0.97771405577E+03  0.50400001928E-02 0.  1.
    10030    2    1    2    0    0  0.00000000000E+00  0.00000000000E+00 -0.39487675429E+03  0.15605513573E+04  0.15097658387E+04 0.  0.
        1    1    3    3  502    0  0.40879029634E+03 -0.32609870987E+03  0.36529977467E+03  0.63788227782E+03  0.50400001928E-02 0. -1.
       -1    1    3    3    0  502 -0.40879029634E+03  0.32609870987E+03 -0.76017652896E+03  0.92266907945E+03  0.50400001928E-02 0.  1.
</event>
<event>
 5   0  0.8058234E-04  0.1647087E+04  0.7818609E-02  0.8792132E-01
        1   -1    0    0  501    0  0.00000000000E+00  0.00000000000E+00  0.91164214459E+03  0.91164214460E+03  0.50400001928E-02 0. -1.
       -1   -1    0    0    0  501  0.00000000000E+00  0.00000000000E+00 -0.74395836956E+03  0.74395836958E+03  0.50400001928E-02 0.  1.
    10030    2    1    2    0    0  0.00000000000E+00  0.00000000000E+00  0.16768377503E+03  0.16556005142E+04  0.16470868872E+04 0.  0.
        5    1    3    3  502    0 -0.14293236889E+03  0.81039676415E+03  0.11608785793E+03  0.83106621769E+03  0.46999998093E+01 0. -1.
       -5    1    3    3    0  502  0.14293236889E+03 -0.81039676415E+03  0.51595917098E+02  0.82453429649E+03  0.46999998093E+01 0.  1.
</event>
<event>
 5   0  0.1484056E-03  0.1485079E+04  0.7818609E-02  0.8894436E-01
       -2   -1    0    0    0  501  0.00000000000E+00  0.00000000000E+00  0.87871208613E+03  0.87871208614E+03  0.25500000920E-02 0. -1.
        2   -1    0    0  501    0  0.00000000000E+00  0.00000000000E+00 -0.62746907965E+03  0.62746907966E+03  0.25500000920E-02 0.  1.
    10030    2    1    2    0    0  0.00000000000E+00  0.00000000000E+00  0.25124300648E+03  0.15061811658E+04  0.14850786699E+04 0.  0.
        5    1    3    3  502    0 -0.36139903440E+03  0.59107566212E+03 -0.14531275132E+03  0.70789659281E+03  0.46999998093E+01 0.  1.
       -5    1    3    3    0  502  0.36139903440E+03 -0.59107566212E+03  0.39655575780E+03  0.79828457298E+03  0.46999998093E+01 0. -1.
</event>
<event>
 5   0  0.1484056E-03  0.1199960E+04  0.7818609E-02  0.9112892E-01
        2   -1    0    0  501    0  0.00000000000E+00  0.00000000000E+00  0.76717089125E+03  0.76717089125E+03  0.25500000920E-02 0. -1.
       -2   -1    0    0    0  501  0.00000000000E+00  0.00000000000E+00 -0.46922532812E+03  0.46922532813E+03  0.25500000920E-02 0.  1.
    10030    2    1    2    0    0  0.00000000000E+00  0.00000000000E+00  0.29794556312E+03  0.12363962194E+04  0.11999600213E+04 0.  0.
        5    1    3    3  502    0 -0.77499894925E+02 -0.18943382334E+03 -0.43212221557E+03  0.47816640025E+03  0.46999998093E+01 0.  1.
       -5    1    3    3    0  502  0.77499894925E+02  0.18943382334E+03  0.73006777869E+03  0.75822981913E+03  0.46999998093E+01 0. -1.
</event>
<event>
 5   0  0.1484056E-03  0.1482258E+04  0.7818609E-02  0.8896337E-01
        2   -1    0    0  501    0  0.00000000000E+00  0.00000000000E+00  0.16090418588E+04  0.16090418588E+04  0.25500000920E-02 0. -1.
       -2   -1    0    0    0  501  0.00000000000E+00  0.00000000000E+00 -0.34136609655E+03  0.34136609655E+03  0.25500000920E-02 0.  1.
    10030    2    1    2    0    0  0.00000000000E+00  0.00000000000E+00  0.12676757623E+04  0.19504079554E+04  0.14822581942E+04 0.  0.
        5    1    3    3  502    0  0.49513019090E+03  0.25795367368E+03 -0.74969475516E+01  0.55836573849E+03  0.46999998093E+01 0.  1.
       -5    1    3    3    0  502 -0.49513019090E+03 -0.25795367368E+03  0.12751727098E+04  0.13920422169E+04  0.46999998093E+01 0. -1.
</event>
<event>
 5   0  0.1500956E-03  0.1487843E+04  0.7818609E-02  0.8892578E-01
        2   -1    0    0  501    0  0.00000000000E+00  0.00000000000E+00  0.63688318453E+03  0.63688318453E+03  0.25500000920E-02 0. -1.
       -2   -1    0    0    0  501  0.00000000000E+00  0.00000000000E+00 -0.86894956214E+03  0.86894956214E+03  0.25500000920E-02 0.  1.
    10030    2    1    2    0    0  0.00000000000E+00  0.00000000000E+00 -0.23206637761E+03  0.15058327467E+04  0.14878432234E+04 0.  0.
        4    1    3    3  502    0 -0.48589014999E+01 -0.51662759610E+03 -0.65775254345E+03  0.83640163994E+03  0.12699999809E+01 0.  1.
       -4    1    3    3    0  502  0.48589014999E+01  0.51662759610E+03  0.42568616584E+03  0.66943110674E+03  0.12699999809E+01 0. -1.
</event>
<event>
 5   0  0.1500956E-03  0.1512881E+04  0.7818609E-02  0.8875932E-01
        2   -1    0    0  501    0  0.00000000000E+00  0.00000000000E+00  0.15819034217E+04  0.15819034217E+04  0.25500000920E-02 0.  1.
       -2   -1    0    0    0  501  0.00000000000E+00  0.00000000000E+00 -0.36171771049E+03  0.36171771050E+03  0.25500000920E-02 0. -1.
    10030    2    1    2    0    0  0.00000000000E+00  0.00000000000E+00  0.12201857112E+04  0.19436211322E+04  0.15128813356E+04 0.  0.
        4    1    3    3  502    0  0.52319312115E+02 -0.47713605359E+03 -0.14100373778E+03  0.50027971279E+03  0.12699999809E+01 0. -1.
       -4    1    3    3    0  502 -0.52319312115E+02  0.47713605359E+03  0.13611894490E+04  0.14433414194E+04  0.12699999809E+01 0.  1.
</event>
<event>
 5   0  0.8058234E-04  0.1480009E+04  0.7818609E-02  0.8897856E-01
       -1   -1    0    0    0  501  0.00000000000E+00  0.00000000000E+00  0.60166541625E+03  0.60166541627E+03  0.50400001928E-02 0. -1.
        1   -1    0    0  501    0  0.00000000000E+00  0.00000000000E+00 -0.91015207234E+03  0.91015207236E+03  0.50400001928E-02 0.  1.
    10030    2    1    2    0    0  0.00000000000E+00  0.00000000000E+00 -0.30848665609E+03  0.15118174886E+04  0.14800094939E+04 0.  0.
        5    1    3    3  502    0  0.40930240549E+03 -0.54024607216E+03 -0.45759483364E+03  0.81780767873E+03  0.46999998093E+01 0.  1.
       -5    1    3    3    0  502 -0.40930240549E+03  0.54024607216E+03  0.14910817755E+03  0.69400980990E+03  0.46999998093E+01 0. -1.
</event>
<event>
 5   0  0.1552067E-03  0.1559522E+04  0.7818609E-02  0.8845808E-01
       -2   -1    0    0    0  501  0.00000000000E+00  0.00000000000E+00  0.72753392609E+03  0.72753392609E+03  0.25500000920E-02 0.  1.
        2   -1    0    0  501    0  0.00000000000E+00  0.00000000000E+00 -0.83573751004E+03  0.83573751004E+03  0.25500000920E-02 0. -1.
    10030    2    1    2    0    0  0.00000000000E+00  0.00000000000E+00 -0.10820358395E+03  0.15632714361E+04  0.15595222241E+04 0.  0.
        3    1    3    3  502    0  0.52003928192E+03 -0.69709716026E+02  0.52410994149E+03  0.74161414511E+03  0.10100000352E+00 0.  1.
       -3    1    3    3    0  502 -0.52003928192E+03  0.69709716026E+02 -0.63231352544E+03  0.82165729103E+03  0.10100000352E+00 0. -1.
</event>
<event>
 5   0  0.1526126E-03  0.1445685E+04  0.7818609E-02  0.8921397E-01
        2   -1    0    0  501    0  0.00000000000E+00  0.00000000000E+00  0.22989701869E+04  0.22989701869E+04  0.25500000920E-02 0. -1.
       -2   -1    0    0    0  501  0.00000000000E+00  0.00000000000E+00 -0.22727634939E+03  0.22727634940E+03  0.25500000920E-02 0.  1.
    10030    2    1    2    0    0  0.00000000000E+00  0.00000000000E+00  0.20716938375E+04  0.25262465363E+04  0.14456853758E+04 0.  0.
        2    1    3    3  502    0  0.33372816676E+03  0.14068388179E+03 -0.57294497370E+02  0.36667301962E+03  0.25500000920E-02 0.  1.
       -2    1    3    3    0  502 -0.33372816676E+03 -0.14068388179E+03  0.21289883349E+04  0.21595735167E+04  0.25500000920E-02 0. -1.
</event>
<event>
 5   0  0.8365016E-04  0.1462678E+04  0.7818609E-02  0.8909658E-01
        1   -1    0    0  501    0  0.00000000000E+00  0.00000000000E+00  0.97798405205E+03  0.97798405206E+03  0.50400001928E-02 0.  1.
       -1   -1    0    0    0  501  0.00000000000E+00  0.00000000000E+00 -0.54689689239E+03  0.54689689241E+03  0.50400001928E-02 0. -1.
    10030    2    1    2    0    0  0.00000000000E+00  0.00000000000E+00  0.43108715966E+03  0.15248809445E+04  0.14626775980E+04 0.  0.
        3    1    3    3  502    0 -0.69894287078E+03 -0.21084330492E+03  0.17033596186E+03  0.74966018031E+03  0.10100000352E+00 0.  1.
       -3    1    3    3    0  502  0.69894287078E+03  0.21084330492E+03  0.26075119780E+03  0.77522076417E+03  0.10100000352E+00 0. -1.
</event>
<event>
 5   0  0.1484056E-03  0.1458484E+04  0.7818609E-02  0.8912540E-01
       -2   -1    0    0    0  501  0.00000000000E+00  0.00000000000E+00  0.75191849781E+03  0.75191849782E+03  0.25500000920E-02 0. -1.
        2   -1    0    0  501    0  0.00000000000E+00  0.00000000000E+00 -0.70724944999E+03  0.70724944999E+03  0.25500000920E-02 0.  1.
    10030    2    1    2    0    0  0.00000000000E+00  0.00000000000E+00  0.44669047827E+02  0.14591679478E+04  0.14584840678E+04 0.  0.
        5    1    3    3  502    0  0.63008005293E+03  0.35134206577E+03  0.12882565597E+03  0.73284395332E+03  0.46999998093E+01 0. -1.
       -5    1    3    3    0  502 -0.63008005293E+03 -0.35134206577E+03 -0.84156608139E+02  0.72632399449E+03  0.46999998093E+01 0.  1.
</event>
<event>
 5   0  0.1526126E-03  0.1518871E+04  0.7818609E-02  0.8872000E-01
        2   -1    0    0  501    0  0.00000000000E+00  0.00000000000E+00  0.11954529947E+04  0.11954529947E+04  0.25500000920E-02 0. -1.
       -2   -1    0    0    0  501  0.00000000000E+00  0.00000000000E+00 -0.48244635088E+03  0.48244635088E+03  0.25500000920E-02 0.  1.
    10030    2    1    2    0    0  0.00000000000E+00  0.00000000000E+00  0.71300664382E+03  0.16778993456E+04  0.15188705474E+04 0.  0.
        2    1    3    3  502    0  0.28719602584E+03 -0.43151973405E+03  0.96963890876E+03  0.10994955441E+04  0.25500000920E-02 0. -1.
       -2    1    3    3    0  502 -0.28719602584E+03  0.43151973405E+03 -0.25663226494E+03  0.57840380147E+03  0.25500000920E-02 0.  1.
</event>
<event>
 5   0  0.7870317E-04  0.1495467E+04  0.7818609E-02  0.8887473E-01
       -1   -1    0    0    0  501  0.00000000000E+00  0.00000000000E+00  0.60587990949E+03  0.60587990951E+03  0.50400001928E-02 0. -1.
        1   -1    0    0  501    0  0.00000000000E+00  0.00000000000E+00 -0.92279938133E+03  0.92279938134E+03  0.50400001928E-02 0.  1.
    10030    2    1    2    0    0  0.00000000000E+00  0.00000000000E+00 -0.31691947184E+03  0.15286792909E+04  0.14954672924E+04 0.  0.
        1    1    3    3  502    0  0.51605313001E+03 -0.35894729688E+03  0.25544205644E+03  0.67853123668E+03  0.50400001928E-02 0. -1.
       -1    1    3    3    0  502 -0.51605313001E+03  0.35894729688E+03 -0.57236152828E+03  0.85014805417E+03  0.50400001928E-02 0.  1.
</event>
<event>
 5   0  0.1484056E-03  0.1485712E+04  0.7818609E-02  0.8894011E-01
       -2   -1    0    0    0  501  0.00000000000E+00  0.00000000000E+00  0.41210813627E+03  0.41210813628E+03  0.25500000920E-02 0. -1.
        2   -1    0    0  501    0  0.00000000000E+00  0.00000000000E+00 -0.13390531428E+04  0.13390531428E+04  0.25500000920E-02 0.  1.
    10030    2    1    2    0    0  0.00000000000E+00  0.00000000000E+00 -0.92694500652E+03  0.17511612791E+04  0.14857115400E+04 0.  0.
        5    1    3    3  502    0  0.52309743314E+03 -0.11888191152E+03  0.14219423616E+03  0.55498209362E+03  0.46999998093E+01 0. -1.
       -5    1    3    3    0  502 -0.52309743314E+03  0.11888191152E+03 -0.10691392427E+04  0.11961791854E+04  0.46999998093E+01 0.  1.
</event>
<event>
 5   0  0.5603875E-04  0.1500626E+04  0.7818609E-02  0.8884037E-01
       -4   -1    0    0    0  501  0.00000000000E+00  0.00000000000E+00  0.64630887345E+03  0.64631012123E+03  0.12699999809E+01 0.  1.
        4   -1    0    0  501    0  0.00000000000E+00  0.00000000000E+00 -0.87105065865E+03  0.87105158448E+03  0.12699999809E+01 0. -1.
    10030    2    1    2    0    0  0.00000000000E+00  0.00000000000E+00 -0.22474178519E+03  0.15173617057E+04  0.15006257615E+04 0.  0.
        4    1    3    3  502    0  0.18459419004E+03  0.51290562634E+03  0.40895710180E+03  0.68146512790E+03  0.12699999809E+01 0.  1.
       -4    1    3    3    0  502 -0.18459419004E+03 -0.51290562634E+03 -0.63369888700E+03  0.83589657782E+03  0.12699999809E+01 0. -1.
</event>
<event>
 5   0  0.1552067E-03  0.1528560E+04  0.7818609E-02  0.8865680E-01
       -2   -1    0    0    0  501  0.00000000000E+00  0.00000000000E+00  0.42528776511E+03  0.42528776512E+03  0.25500000920E-02 0. -1.
        2   -1    0    0  501    0  0.00000000000E+00  0.00000000000E+00 -0.13734797527E+04  0.13734797527E+04  0.25500000920E-02 0.  1.
    10030    2    1    2    0    0  0.00000000000E+00  0.00000000000E+00 -0.94819198760E+03  0.17987675178E+04  0.15285602827E+04 0.  0.
        3    1    3    3  502    0  0.11669102229E+02  0.76410844372E+03 -0.46087404860E+03  0.89241401860E+03  0.10100000352E+00 0. -1.
       -3    1    3    3    0  502 -0.11669102229E+02 -0.76410844372E+03 -0.48731793900E+03  0.90635349924E+03  0.10100000352E+00 0.  1.
</event>
<event>
 5   0  0.8191876E-04  0.1439023E+04  0.7818609E-02  0.8926046E-01
       -1   -1    0    0    0  501  0.00000000000E+00  0.00000000000E+00  0.51644942811E+03  0.51644942813E+03  0.50400001928E-02 0.  1.
        1   -1    0    0  501    0  0.00000000000E+00  0.00000000000E+00 -0.10024149763E+04  0.10024149763E+04  0.50400001928E-02 0. -1.
    10030    2    1    2    0    0  0.00000000000E+00  0.00000000000E+00 -0.48596554816E+03  0.15188644044E+04  0.14390227813E+04 0.  0.
        2    1    3    3  502    0  0.58333005644E+03 -0.24923573647E+03 -0.60138769400E+03  0.87410500833E+03  0.25500000920E-02 0. -1.
       -2    1    3    3    0  502 -0.58333005644E+03  0.24923573647E+03  0.11542214584E+03  0.64475939608E+03  0.25500000920E-02 0.  1.
</event>
<event>
 5   0  0.8058234E-04  0.1417812E+04  0.7818609E-02  0.8941026E-01
       -1   -1    0    0    0  501  0.00000000000E+00  0.00000000000E+00  0.17595200333E+03  0.17595200340E+03  0.50400001928E-02 0.  1.
        1   -1    0    0  501    0  0.00000000000E+00  0.00000000000E+00 -0.28561620495E+04  0.28561620495E+04  0.50400001928E-02 0. -1.
    10030    2    1    2    0    0  0.00000000000E+00  0.00000000000E+00 -0.26802100462E+04  0.30321140529E+04  0.14178116018E+04 0.  0.
        5    1    3    3  502    0 -0.83937316677E+02  0.34183107814E+03 -0.26560426734E+04  0.26792683203E+04  0.46999998093E+01 0. -1.
       -5    1    3    3    0  502  0.83937316677E+02 -0.34183107814E+03 -0.24167372741E+02  0.35284573261E+03  0.46999998093E+01 0.  1.
</event>
<event>
 5   0  0.1526126E-03  0.1491758E+04  0.7818609E-02  0.8889952E-01
        2   -1    0    0  501    0  0.00000000000E+00  0.00000000000E+00  0.41025128265E+03  0.41025128265E+03  0.25500000920E-02 0.  1.
       -2   -1    0    0    0  501  0.00000000000E+00  0.00000000000E+00 -0.13560854234E+04  0.13560854234E+04  0.25500000920E-02 0. -1.
    10030    2    1    2    0    0  0.00000000000E+00  0.00000000000E+00 -0.94583414072E+03  0.17663367060E+04  0.14917584045E+04 0.  0.
        2    1    3    3  502    0 -0.25818149521E+03  0.31530626829E+03 -0.12126109965E+04  0.12792580491E+04  0.25500000920E-02 0. -1.
       -2    1    3    3    0  502  0.25818149521E+03 -0.31530626829E+03  0.26677685576E+03  0.48707865696E+03  0.25500000920E-02 0.  1.
</event>
<event>
 5   0  0.1511546E-03  0.1515203E+04  0.7818609E-02  0.8874405E-01
       -2   -1    0    0    0  501  0.00000000000E+00  0.00000000000E+00  0.17422483421E+03  0.17422483423E+03  0.25500000920E-02 0. -1.
        2   -1    0    0  501    0  0.00000000000E+00  0.00000000000E+00 -0.32943657801E+04  0.32943657801E+04  0.25500000920E-02 0.  1.
    10030    2    1    2    0    0  0.00000000000E+00  0.00000000000E+00 -0.31201409459E+04  0.34685906144E+04  0.15152033948E+04 0.  0.
        1    1    3    3  502    0  0.10186796126E+03  0.24773164032E+03 -0.31823503301E+04  0.31936032425E+04  0.50400001928E-02 0.  1.
       -1    1    3    3    0  502 -0.10186796126E+03 -0.24773164032E+03  0.62209384202E+02  0.27498737181E+03  0.50400001928E-02 0. -1.
</event>
<event>
 5   0  0.8191876E-04  0.1498798E+04  0.7818609E-02  0.8885253E-01
       -1   -1    0    0    0  501  0.00000000000E+00  0.00000000000E+00  0.30404293338E+03  0.30404293342E+03  0.50400001928E-02 0.  1.
        1   -1    0    0  501    0  0.00000000000E+00  0.00000000000E+00 -0.18471042196E+04  0.18471042196E+04  0.50400001928E-02 0. -1.
    10030    2    1    2    0    0  0.00000000000E+00  0.00000000000E+00 -0.15430612862E+04  0.21511471530E+04  0.14987981655E+04 0.  0.
        2    1    3    3  502    0 -0.66743985042E+03  0.23140080418E+03 -0.11305627540E+04  0.13331145588E+04  0.25500000920E-02 0. -1.
       -2    1    3    3    0  502  0.66743985042E+03 -0.23140080418E+03 -0.41249853216E+03  0.81803259419E+03  0.25500000920E-02 0.  1.
</event>
<event>
 5   0  0.8365016E-04  0.1552207E+04  0.7818609E-02  0.8850459E-01
       -1   -1    0    0    0  501  0.00000000000E+00  0.00000000000E+00  0.11612578628E+04  0.11612578628E+04  0.50400001928E-02 0.  1.
        1   -1    0    0  501    0  0.00000000000E+00  0.00000000000E+00 -0.51869347885E+03  0.51869347887E+03  0.50400001928E-02 0. -1.
    10030    2    1    2    0    0  0.00000000000E+00  0.00000000000E+00  0.64256438391E+03  0.16799513416E+04  0.15522073066E+04 0.  0.
        3    1    3    3  502    0  0.15387433683E+02  0.38441817635E+03 -0.40822441236E+03  0.56094677865E+03  0.10100000352E+00 0. -1.
       -3    1    3    3    0  502 -0.15387433683E+02 -0.38441817635E+03  0.10507887963E+04  0.11190045630E+04  0.10100000352E+00 0.  1.
</event>
<event>
 5   0  0.1526126E-03  0.1539378E+04  0.7818609E-02  0.8858681E-01
       -2   -1    0    0    0  501  0.00000000000E+00  0.00000000000E+00  0.59476842547E+03  0.59476842548E+03  0.25500000920E-02 0.  1.
        2   -1    0    0  501    0  0.00000000000E+00  0.00000000000E+00 -0.99605315078E+03  0.99605315078E+03  0.25500000920E-02 0. -1.
    10030    2    1    2    0    0  0.00000000000E+00  0.00000000000E+00 -0.40128472530E+03  0.15908215763E+04  0.15393777498E+04 0.  0.
        2    1    3    3  502    0  0.31880773327E+03 -0.55220670837E+03 -0.64615287179E+03  0.90779080921E+03  0.25500000920E-02 0. -1.
       -2    1    3    3    0  502 -0.31880773327E+03  0.55220670837E+03  0.24486814649E+03  0.68303076705E+03  0.25500000920E-02 0.  1.
</event>
<event>
 5   0  0.7870317E-04  0.1650719E+04  0.7818609E-02  0.8789981E-01
       -1   -1    0    0    0  501  0.00000000000E+00  0.00000000000E+00  0.45209962479E+03  0.45209962482E+03  0.50400001928E-02 0. -1.
        1   -1    0    0  501    0  0.00000000000E+00  0.00000000000E+00 -0.15067880992E+04  0.15067880992E+04  0.50400001928E-02 0.  1.
    10030    2    1    2    0    0  0.00000000000E+00  0.00000000000E+00 -0.10546884744E+04  0.19588877240E+04  0.16507190364E+04 0.  0.
        1    1    3    3  502    0  0.49978019817E+03 -0.16802671805E+01  0.25211643040E+03  0.55977295780E+03  0.50400001928E-02 0. -1.
       -1    1    3    3    0  502 -0.49978019817E+03  0.16802671805E+01 -0.13068049048E+04  0.13991147662E+04  0.50400001928E-02 0.  1.
</event>
<event>
 5   0  0.7870317E-04  0.1490788E+04  0.7818609E-02  0.8890602E-01
        1   -1    0    0  501    0  0.00000000000E+00  0.00000000000E+00  0.13682679934E+04  0.13682679934E+04  0.50400001928E-02 0. -1.
       -1   -1    0    0    0  501  0.00000000000E+00  0.00000000000E+00 -0.40606985680E+03  0.40606985683E+03  0.50400001928E-02 0.  1.
    10030    2    1    2    0    0  0.00000000000E+00  0.00000000000E+00  0.96219813660E+03  0.17743378502E+04  0.14907882320E+04 0.  0.
        1    1    3    3  502    0  0.11057070362E+03 -0.16795438985E+03 -0.37317838469E+03  0.42390643354E+03  0.50400001928E-02 0.  1.
       -1    1    3    3    0  502 -0.11057070362E+03  0.16795438985E+03  0.13353765213E+04  0.13504314167E+04  0.50400001928E-02 0. -1.
</event>
<event>
 5   0  0.8191876E-04  0.1487511E+04  0.7818609E-02  0.8892800E-01
        1   -1    0    0  501    0  0.00000000000E+00  0.00000000000E+00  0.14260075585E+04  0.14260075585E+04  0.50400001928E-02 0.  1.
       -1   -1    0    0    0  501  0.00000000000E+00  0.00000000000E+00 -0.38791694683E+03  0.38791694686E+03  0.50400001928E-02 0. -1.
    10030    2    1    2    0    0  0.00000000000E+00  0.00000000000E+00  0.10380906117E+04  0.18139245054E+04  0.14875113422E+04 0.  0.
        2    1    3    3  502    0  0.53616948873E+03  0.51333465699E+03  0.46207915168E+03  0.87436109997E+03  0.25500000920E-02 0.  1.
       -2    1    3    3    0  502 -0.53616948873E+03 -0.51333465699E+03  0.57601145998E+03  0.93956340539E+03  0.25500000920E-02 0. -1.
</event>
<event>
 5   0  0.1500956E-03  0.1505682E+04  0.7818609E-02  0.8880683E-01
       -2   -1    0    0    0  501  0.00000000000E+00  0.00000000000E+00  0.54998525464E+03  0.54998525465E+03  0.25500000920E-02 0. -1.
        2   -1    0    0  501    0  0.00000000000E+00  0.00000000000E+00 -0.10305175167E+04  0.10305175167E+04  0.25500000920E-02 0.  1.
    10030    2    1    2    0    0  0.00000000000E+00  0.00000000000E+00 -0.48053226208E+03  0.15805027714E+04  0.15056818241E+04 0.  0.
        4    1    3    3  502    0 -0.26514857268E+03 -0.38736699069E+03 -0.85808022653E+03  0.97809009766E+03  0.12699999809E+01 0.  1.
       -4    1    3    3    0  502  0.26514857268E+03  0.38736699069E+03  0.37754796446E+03  0.60241267371E+03  0.12699999809E+01 0. -1.
</event>
<event>
 5   0  0.5603875E-04  0.1517137E+04  0.7818609E-02  0.8873136E-01
        4   -1    0    0  501    0  0.00000000000E+00  0.00000000000E+00  0.94948477303E+03  0.94948562239E+03  0.12699999809E+01 0.  1.
       -4   -1    0    0    0  501  0.00000000000E+00  0.00000000000E+00 -0.60603876862E+03  0.60604009931E+03  0.12699999809E+01 0. -1.
    10030    2    1    2    0    0  0.00000000000E+00  0.00000000000E+00  0.34344600442E+03  0.15555257217E+04  0.15171371437E+04 0.  0.
        1    1    3    3  502    0  0.35878589091E+02 -0.88669249935E+02  0.94327771514E+03  0.94811516017E+03  0.50400001928E-02 0.  1.
       -1    1    3    3    0  502 -0.35878589091E+02  0.88669249935E+02 -0.59983171072E+03  0.60741056153E+03  0.50400001928E-02 0. -1.
</event>
<event>
 5   0  0.1500956E-03  0.1497045E+04  0.7818609E-02  0.8886420E-01
        2   -1    0    0  501    0  0.00000000000E+00  0.00000000000E+00  0.18885785972E+04  0.18885785972E+04  0.25500000920E-02 0. -1.
       -2   -1    0    0    0  501  0.00000000000E+00  0.00000000000E+00 -0.29667085246E+03  0.29667085247E+03  0.25500000920E-02 0.  1.
    10030    2    1    2    0    0  0.00000000000E+00  0.00000000000E+00  0.15919077447E+04  0.21852494497E+04  0.14970453866E+04 0.  0.
        4    1    3    3  502    0  0.16275157957E+03  0.12475121228E+03  0.18467751653E+04  0.18581256862E+04  0.12699999809E+01 0. -1.
       -4    1    3    3    0  502 -0.16275157957E+03 -0.12475121228E+03 -0.25486742061E+03  0.32712376344E+03  0.12699999809E+01 0.  1.
</event>
<event>
 5   0  0.1511546E-03  0.1468272E+04  0.7818609E-02  0.8905830E-01
        2   -1    0    0  501    0  0.00000000000E+00  0.00000000000E+00  0.57042704252E+03  0.57042704252E+03  0.25500000920E-02 0. -1.
       -2   -1    0    0    0  501  0.00000000000E+00  0.00000000000E+00 -0.94482793541E+03  0.94482793541E+03  0.25500000920E-02 0.  1.
    10030    2    1    2    0    0  0.00000000000E+00  0.00000000000E+00 -0.37440089289E+03  0.15152549779E+04  0.14682716437E+04 0.  0.
        1    1    3    3  502    0  0.56879433236E+02 -0.21138146598E+02  0.56783458823E+03  0.57106760614E+03  0.50400001928E-02 0. -1.
       -1    1    3    3    0  502 -0.56879433236E+02  0.21138146598E+02 -0.94223548112E+03  0.94418737180E+03  0.50400001928E-02 0.  1.
</event>
<event>
 5   0  0.5603875E-04  0.1474951E+04  0.7818609E-02  0.8901283E-01
       -4   -1    0    0    0  501  0.00000000000E+00  0.00000000000E+00  0.11419813915E+04  0.11419820977E+04  0.12699999809E+01 0.  1.
        4   -1    0    0  501    0  0.00000000000E+00  0.00000000000E+00 -0.47624983243E+03  0.47625152577E+03  0.12699999809E+01 0. -1.
    10030    2    1    2    0    0  0.00000000000E+00  0.00000000000E+00  0.66573155904E+03  0.16182336234E+04  0.14749513725E+04 0.  0.
        2    1    3    3  502    0  0.30561032119E+03  0.20525944959E+03 -0.36822646018E+03  0.52069169002E+03  0.25500000920E-02 0. -1.
       -2    1    3    3    0  502 -0.30561032119E+03 -0.20525944959E+03  0.10339580192E+04  0.10975419334E+04  0.25500000920E-02 0.  1.
</event>
<event>
 5   0  0.1552067E-03  0.1531303E+04  0.7818609E-02  0.8863899E-01
       -2   -1    0    0    0  501  0.00000000000E+00  0.00000000000E+00  0.26045914049E+03  0.26045914050E+03  0.25500000920E-02 0. -1.
        2   -1    0    0  501    0  0.00000000000E+00  0.00000000000E+00 -0.22507273504E+04  0.22507273504E+04  0.25500000920E-02 0.  1.
    10030    2    1    2    0    0  0.00000000000E+00  0.00000000000E+00 -0.19902682099E+04  0.25111864909E+04  0.15313033810E+04 0.  0.
        3    1    3    3  502    0 -0.56574284195E+03 -0.51572930912E+03 -0.97308261619E+03  0.12381160978E+04  0.10100000352E+00 0.  1.
       -3    1    3    3    0  502  0.56574284195E+03  0.51572930912E+03 -0.10171855937E+04  0.12730703931E+04  0.10100000352E+00 0. -1.
</event>
<event>
 5   0  0.1500956E-03  0.1441595E+04  0.7818609E-02  0.8924249E-01
        2   -1    0    0  501    0  0.00000000000E+00  0.00000000000E+00  0.31255871712E+04  0.31255871712E+04  0.25500000920E-02 0.  1.
       -2   -1    0    0    0  501  0.00000000000E+00  0.00000000000E+00 -0.16622436023E+03  0.16622436025E+03  0.25500000920E-02 0. -1.
    10030    2    1    2    0    0  0.00000000000E+00  0.00000000000E+00  0.29593628109E+04  0.32918115314E+04  0.14415945726E+04 0.  0.
        4    1    3    3  502    0 -0.55755650629E+03  0.31789031082E+03  0.22287914089E+04  0.23193611760E+04  0.12699999809E+01 0. -1.
       -4    1    3    3    0  502  0.55755650629E+03 -0.31789031082E+03  0.73057140207E+03  0.97245035546E+03  0.12699999809E+01 0.  1.
</event>
<event>
 5   0  0.8365016E-04  0.1508650E+04  0.7818609E-02  0.8878721E-01
        1   -1    0    0  501    0  0.00000000000E+00  0.00000000000E+00  0.56917813050E+03  0.56917813053E+03  0.50400001928E-02 0. -1.
       -1   -1    0    0    0  501  0.00000000000E+00  0.00000000000E+00 -0.99969790366E+03  0.99969790367E+03  0.50400001928E-02 0.  1.
    10030    2    1    2    0    0  0.00000000000E+00  0.00000000000E+00 -0.43051977315E+03  0.15688760342E+04  0.15086499712E+04 0.  0.
        3    1    3    3  502    0  0.37016323502E+02  0.50776675188E+03  0.36356484461E+03  0.62560106215E+03  0.10100000352E+00 0. -1.
       -3    1    3    3    0  502 -0.37016323502E+02 -0.50776675188E+03 -0.79408461776E+03  0.94327497205E+03  0.10100000352E+00 0.  1.
</event>
<event>
 5   0  0.8191876E-04  0.1571977E+04  0.7818609E-02  0.8837951E-01
       -1   -1    0    0    0  501  0.00000000000E+00  0.00000000000E+00  0.66022025779E+03  0.66022025781E+03  0.50400001928E-02 0. -1.
        1   -1    0    0  501    0  0.00000000000E+00  0.00000000000E+00 -0.93571530594E+03  0.93571530596E+03  0.50400001928E-02 0.  1.
    10030    2    1    2    0    0  0.00000000000E+00  0.00000000000E+00 -0.27549504815E+03  0.15959355638E+04  0.15719773542E+04 0.  0.
        2    1    3    3  502    0 -0.43150081141E+03  0.44562361205E+03 -0.62781010699E+03  0.88256381317E+03  0.25500000920E-02 0.  1.
       -2    1    3    3    0  502  0.43150081141E+03 -0.44562361205E+03  0.35231505884E+03  0.71337175060E+03  0.25500000920E-02 0. -1.
</event>
<event>
 5   0  0.8058234E-04  0.1504055E+04  0.7818609E-02  0.8881761E-01
       -1   -1    0    0    0  501  0.00000000000E+00  0.00000000000E+00  0.39955715991E+03  0.39955715995E+03  0.50400001928E-02 0.  1.
        1   -1    0    0  501    0  0.00000000000E+00  0.00000000000E+00 -0.14154311366E+04  0.14154311366E+04  0.50400001928E-02 0. -1.
    10030    2    1    2    0    0  0.00000000000E+00  0.00000000000E+00 -0.10158739766E+04  0.18149882965E+04  0.15040553780E+04 0.  0.
        5    1    3    3  502    0 -0.62633667401E+03  0.35406657250E+03 -0.24393390530E+03  0.75972798232E+03  0.46999998093E+01 0.  1.
       -5    1    3    3    0  502  0.62633667401E+03 -0.35406657250E+03 -0.77194007134E+03  0.10552603142E+04  0.46999998093E+01 0. -1.
</event>
<event>
 5   0  0.1500956E-03  0.1488754E+04  0.7818609E-02  0.8891966E-01
       -2   -1    0    0    0  501  0.00000000000E+00  0.00000000000E+00  0.71947507066E+03  0.71947507066E+03  0.25500000920E-02 0.  1.
        2   -1    0    0  501    0  0.00000000000E+00  0.00000000000E+00 -0.77014106075E+03  0.77014106076E+03  0.25500000920E-02 0. -1.
    10030    2    1    2    0    0  0.00000000000E+00  0.00000000000E+00 -0.50665990092E+02  0.14896161314E+04  0.14887542364E+04 0.  0.
        4    1    3    3  502    0 -0.24220596617E+02  0.14337448627E+03 -0.75579180393E+03  0.76965300260E+03  0.12699999809E+01 0. -1.
       -4    1    3    3    0  502  0.24220596617E+02 -0.14337448627E+03  0.70512581384E+03  0.71996312882E+03  0.12699999809E+01 0.  1.
</event>
<event>
 5   0  0.7870317E-04  0.1488084E+04  0.7818609E-02  0.8892416E-01
        1   -1    0    0  501    0  0.00000000000E+00  0.00000000000E+00  0.85086304788E+03  0.85086304790E+03  0.50400001928E-02 0.  1.
       -1   -1    0    0    0  501  0.00000000000E+00  0.00000000000E+00 -0.65063161834E+03  0.65063161836E+03  0.50400001928E-02 0. -1.
    10030    2    1    2    0    0  0.00000000000E+00  0.00000000000E+00  0.20023142954E+03  0.15014946663E+04  0.14880838711E+04 0.  0.
        1    1    3    3  502    0 -0.44061916702E+03 -0.57268665909E+03 -0.78918245415E+02  0.72687230607E+03  0.50400001928E-02 0. -1.
       -1    1    3    3    0  502  0.44061916702E+03  0.57268665909E+03  0.27914967496E+03  0.77462236019E+03  0.50400001928E-02 0.  1.
</event>
<event>
 5   0  0.8058234E-04  0.1508870E+04  0.7818609E-02  0.8878576E-01
       -1   -1    0    0    0  501  0.00000000000E+00  0.00000000000E+00  0.41260474893E+03  0.41260474897E+03  0.50400001928E-02 0. -1.
        1   -1    0    0  501    0  0.00000000000E+00  0.00000000000E+00 -0.13794603359E+04  0.13794603359E+04  0.50400001928E-02 0.  1.
    10030    2    1    2    0    0  0.00000000000E+00  0.00000000000E+00 -0.96685558695E+03  0.17920650849E+04  0.15088696240E+04 0.  0.
        5    1    3    3  502    0  0.66043282266E+03 -0.28469737024E+03 -0.75406855065E+03  0.10420487392E+04  0.46999998093E+01 0.  1.
       -5    1    3    3    0  502 -0.66043282266E+03  0.28469737024E+03 -0.21278703630E+03  0.75001634561E+03  0.46999998093E+01 0. -1.
</event>
<event>
 5   0  0.7870317E-04  0.9747152E+03  0.7818609E-02  0.9336720E-01
        1   -1    0    0  501    0  0.00000000000E+00  0.00000000000E+00  0.64406718575E+03  0.64406718577E+03  0.50400001928E-02 0.  1.
       -1   -1    0    0    0  501  0.00000000000E+00  0.00000000000E+00 -0.36877738413E+03  0.36877738417E+03  0.50400001928E-02 0. -1.
    10030    2    1    2    0    0  0.00000000000E+00  0.00000000000E+00  0.27528980161E+03  0.10128445699E+04  0.97471516248E+03 0.  0.
        1    1    3    3  502    0  0.42148294666E+03 -0.23712251211E+03  0.20035853874E+03  0.52346776801E+03  0.50400001928E-02 0. -1.
       -1    1    3    3    0  502 -0.42148294666E+03  0.23712251211E+03  0.74931262873E+02  0.48937680192E+03  0.50400001928E-02 0.  1.
</event>
<event>
 5   0  0.8191876E-04  0.1410446E+04  0.7818609E-02  0.8946292E-01
       -1   -1    0    0    0  501  0.00000000000E+00  0.00000000000E+00  0.98657972642E+03  0.98657972643E+03  0.50400001928E-02 0. -1.
        1   -1    0    0  501    0  0.00000000000E+00  0.00000000000E+00 -0.50410442110E+03  0.50410442112E+03  0.50400001928E-02 0.  1.
    10030    2    1    2    0    0  0.00000000000E+00  0.00000000000E+00  0.48247530532E+03  0.14906841476E+04  0.14104456060E+04 0.  0.
        2    1    3    3  502    0  0.47100432533E+03 -0.43327338955E+01 -0.31347831379E+03  0.56580252764E+03  0.25500000920E-02 0.  1.
       -2    1    3    3    0  502 -0.47100432533E+03  0.43327338955E+01  0.79595361911E+03  0.92488161991E+03  0.25500000920E-02 0. -1.
</event>
<event>
 5   0  0.1484056E-03  0.1431865E+04  0.7818609E-02  0.8931070E-01
        2   -1    0    0  501    0  0.00000000000E+00  0.00000000000E+00  0.12974556608E+04  0.12974556608E+04  0.25500000920E-02 0.  1.
       -2   -1    0    0    0  501  0.00000000000E+00  0.00000000000E+00 -0.39504977049E+03  0.39504977050E+03  0.25500000920E-02 0. -1.
    10030    2    1    2    0    0  0.00000000000E+00  0.00000000000E+00  0.90240589027E+03  0.16925054313E+04  0.14318653023E+04 0.  0.
        5    1    3    3  502    0 -0.55171619959E+03  0.24027149058E+03 -0.72295361173E+01  0.60182681086E+03  0.46999998093E+01 0. -1.
       -5    1    3    3    0  502  0.55171619959E+03 -0.24027149058E+03  0.90963542639E+03  0.10906786204E+04  0.46999998093E+01 0.  1.
</event>
<event>
 5   0  0.1500956E-03  0.1530879E+04  0.7818609E-02  0.8864175E-01
        2   -1    0    0  501    0  0.00000000000E+00  0.00000000000E+00  0.17685404372E+04  0.17685404372E+04  0.25500000920E-02 0. -1.
       -2   -1    0    0    0  501  0.00000000000E+00  0.00000000000E+00 -0.33128864017E+03  0.33128864018E+03  0.25500000920E-02 0.  1.
    10030    2    1    2    0    0  0.00000000000E+00  0.00000000000E+00  0.14372517971E+04  0.20998290774E+04  0.15308786451E+04 0.  0.
        4    1    3    3  502    0  0.10800509536E+03  0.44782217548E+02  0.17562180277E+04  0.17601062244E+04  0.12699999809E+01 0. -1.
       -4    1    3    3    0  502 -0.10800509536E+03 -0.44782217548E+02 -0.31896623064E+03  0.33972285295E+03  0.12699999809E+01 0.  1.
</event>
<event>
 5   0  0.8365016E-04  0.1495389E+04  0.7818609E-02  0.8887525E-01
       -1   -1    0    0    0  501  0.00000000000E+00  0.00000000000E+00  0.59988211260E+03  0.59988211262E+03  0.50400001928E-02 0.  1.
        1   -1    0    0  501    0  0.00000000000E+00  0.00000000000E+00 -0.93192878877E+03  0.93192878879E+03  0.50400001928E-02 0. -1.
    10030    2    1    2    0    0  0.00000000000E+00  0.00000000000E+00 -0.33204667618E+03  0.15318109014E+04  0.14953894618E+04 0.  0.
        3    1    3    3  502    0  0.57964900687E+03 -0.11913949355E+03 -0.63416651245E+03  0.86738363243E+03  0.10100000352E+00 0. -1.
       -3    1    3    3    0  502 -0.57964900687E+03  0.11913949355E+03  0.30211983627E+03  0.66442726898E+03  0.10100000352E+00 0.  1.
</event>
<event>
 5   0  0.8191876E-04  0.1471391E+04  0.7818609E-02  0.8903704E-01
        1   -1    0    0  501    0  0.00000000000E+00  0.00000000000E+00  0.69040319850E+03  0.69040319852E+03  0.50400001928E-02 0. -1.
       -1   -1    0    0    0  501  0.00000000000E+00  0.00000000000E+00 -0.78395906246E+03  0.78395906248E+03  0.50400001928E-02 0.  1.
    10030    2    1    2    0    0  0.00000000000E+00  0.00000000000E+00 -0.93555863959E+02  0.14743622610E+04  0.14713909667E+04 0.  0.
        2    1    3    3  502    0  0.15920561136E+03 -0.30001643285E+02  0.67230716975E+03  0.69155148456E+03  0.25500000920E-02 0. -1.
       -2    1    3    3    0  502 -0.15920561136E+03  0.30001643285E+02 -0.76586303371E+03  0.78281077643E+03  0.25500000920E-02 0.  1.
</event>
<event>
 5   0  0.1500956E-03  0.1508413E+04  0.7818609E-02  0.8878878E-01
       -2   -1    0    0    0  501  0.00000000000E+00  0.00000000000E+00  0.46401289144E+03  0.46401289145E+03  0.25500000920E-02 0.  1.
        2   -1    0    0  501    0  0.00000000000E+00  0.00000000000E+00 -0.12258864444E+04  0.12258864444E+04  0.25500000920E-02 0. -1.
    10030    2    1    2    0    0  0.00000000000E+00  0.00000000000E+00 -0.76187355292E+03  0.16898993358E+04  0.15084125611E+04 0.  0.
        4    1    3    3  502    0  0.96141492312E+02 -0.74225888664E+03 -0.27683738012E+03  0.79801753694E+03  0.12699999809E+01 0. -1.
       -4    1    3    3    0  502 -0.96141492312E+02  0.74225888664E+03 -0.48503617280E+03  0.89188179887E+03  0.12699999809E+01 0.  1.
</event>
<event>
 5   0  0.7870317E-04  0.1493023E+04  0.7818609E-02  0.8889106E-01
       -1   -1    0    0    0  501  0.00000000000E+00  0.00000000000E+00  0.66159493378E+03  0.66159493380E+03  0.50400001928E-02 0.  1.
        1   -1    0    0  501    0  0.00000000000E+00  0.00000000000E+00 -0.84232741426E+03  0.84232741427E+03  0.50400001928E-02 0. -1.
    10030    2    1    2    0    0  0.00000000000E+00  0.00000000000E+00 -0.18073248048E+03  0.15039223481E+04  0.14930231745E+04 0.  0.
        1    1    3    3  502    0  0.21983897679E+03 -0.32774182687E+03 -0.72866048605E+03  0.82866759606E+03  0.50400001928E-02 0. -1.
       -1    1    3    3    0  502 -0.21983897679E+03  0.32774182687E+03  0.54792800557E+03  0.67525475201E+03  0.50400001928E-02 0.  1.
</event>
<event>
 5   0  0.1511546E-03  0.1492340E+04  0.7818609E-02  0.8889563E-01
        2   -1    0    0  501    0  0.00000000000E+00  0.00000000000E+00  0.61110388694E+03  0.61110388695E+03  0.25500000920E-02 0. -1.
       -2   -1    0    0    0  501  0.00000000000E+00  0.00000000000E+00 -0.91108857159E+03  0.91108857159E+03  0.25500000920E-02 0.  1.
    10030    2    1    2    0    0  0.00000000000E+00  0.00000000000E+00 -0.29998468464E+03  0.15221924585E+04  0.14923401321E+04 0.  0.
        1    1    3    3  502    0 -0.16465673725E+03 -0.29946781891E+03  0.52658384913E+03  0.62776059599E+03  0.50400001928E-02 0. -1.
       -1    1    3    3    0  502  0.16465673725E+03  0.29946781891E+03 -0.82656853378E+03  0.89443186255E+03  0.50400001928E-02 0.  1.
</event>
<event>
 5   0  0.7870317E-04  0.1504332E+04  0.7818609E-02  0.8881577E-01
        1   -1    0    0  501    0  0.00000000000E+00  0.00000000000E+00  0.69597702786E+03  0.69597702787E+03  0.50400001928E-02 0.  1.
       -1   -1    0    0    0  501  0.00000000000E+00  0.00000000000E+00 -0.81289105537E+03  0.81289105539E+03  0.50400001928E-02 0. -1.
    10030    2    1    2    0    0  0.00000000000E+00  0.00000000000E+00 -0.11691402752E+03  0.15088680833E+04  0.15043317463E+04 0.  0.
        1    1    3    3  502    0 -0.39176323184E+03 -0.37514595123E+03  0.46420992178E+03  0.71393540748E+03  0.50400001928E-02 0.  1.
       -1    1    3    3    0  502  0.39176323184E+03  0.37514595123E+03 -0.58112394930E+03  0.79493267578E+03  0.50400001928E-02 0. -1.
</event>
<event>
 5   0  0.7870317E-04  0.1532522E+04  0.7818609E-02  0.8863110E-01
        1   -1    0    0  501    0  0.00000000000E+00  0.00000000000E+00  0.44291253692E+03  0.44291253695E+03  0.50400001928E-02 0. -1.
       -1   -1    0    0    0  501  0.00000000000E+00  0.00000000000E+00 -0.13256697439E+04  0.13256697439E+04  0.50400001928E-02 0.  1.
    10030    2    1    2    0    0  0.00000000000E+00  0.00000000000E+00 -0.88275720695E+03  0.17685822808E+04  0.15325217772E+04 0.  0.
        1    1    3    3  502    0 -0.69000188441E+02  0.68493514833E+03 -0.82975617716E+03  0.10781430782E+04  0.50400001928E-02 0. -1.
       -1    1    3    3    0  502  0.69000188441E+02 -0.68493514833E+03 -0.53001029793E+02  0.69043920268E+03  0.50400001928E-02 0.  1.
</event>
<event>
 5   0  0.1484056E-03  0.1422725E+04  0.7818609E-02  0.8937531E-01
       -2   -1    0    0    0  501  0.00000000000E+00  0.00000000000E+00  0.29990458489E+03  0.29990458490E+03  0.25500000920E-02 0. -1.
        2   -1    0    0  501    0  0.00000000000E+00  0.00000000000E+00 -0.16873252651E+04  0.16873252651E+04  0.25500000920E-02 0.  1.
    10030    2    1    2    0    0  0.00000000000E+00  0.00000000000E+00 -0.13874206802E+04  0.19872298500E+04  0.14227249674E+04 0.  0.
        5    1    3    3  502    0  0.48933230532E+02  0.70809907947E+03 -0.62796194482E+03  0.94771148645E+03  0.46999998093E+01 0. -1.
       -5    1    3    3    0  502 -0.48933230532E+02 -0.70809907947E+03 -0.75945873537E+03  0.10395183635E+04  0.46999998093E+01 0.  1.
</event>
<event>
 5   0  0.8058234E-04  0.1504484E+04  0.7818609E-02  0.8881476E-01
       -1   -1    0    0    0  501  0.00000000000E+00  0.00000000000E+00  0.72516272428E+03  0.72516272430E+03  0.50400001928E-02 0. -1.
        1   -1    0    0  501    0  0.00000000000E+00  0.00000000000E+00 -0.78033286740E+03  0.78033286742E+03  0.50400001928E-02 0.  1.
    10030    2    1    2    0    0  0.00000000000E+00  0.00000000000E+00 -0.55170143119E+02  0.15054955917E+04  0.15044843741E+04 0.  0.
        5    1    3    3  502    0  0.83518960848E+02 -0.14879790512E+03 -0.76069607121E+03  0.77961326063E+03  0.46999998093E+01 0.  1.
       -5    1    3    3    0  502 -0.83518960848E+02  0.14879790512E+03  0.70552592809E+03  0.72588233110E+03  0.46999998093E+01 0. -1.
</event>
<event>
 5   0  0.1552067E-03  0.1474569E+04  0.7818609E-02  0.8901542E-01
       -2   -1    0    0    0  501  0.00000000000E+00  0.00000000000E+00  0.39268836270E+03  0.39268836271E+03  0.25500000920E-02 0.  1.
        2   -1    0    0  501    0  0.00000000000E+00  0.00000000000E+00 -0.13842751053E+04  0.13842751053E+04  0.25500000920E-02 0. -1.
    10030    2    1    2    0    0  0.00000000000E+00  0.00000000000E+00 -0.99158674264E+03  0.17769634680E+04  0.14745693943E+04 0.  0.
        3    1    3    3  502    0 -0.41819735141E+03  0.58417670721E+03 -0.69540401203E+03  0.99986909149E+03  0.10100000352E+00 0. -1.
       -3    1    3    3    0  502  0.41819735141E+03 -0.58417670721E+03 -0.29618273060E+03  0.77709437656E+03  0.10100000352E+00 0.  1.
</event>
<event>
 5   0  0.1500956E-03  0.1513136E+04  0.7818609E-02  0.8875765E-01
        2   -1    0    0  501    0  0.00000000000E+00  0.00000000000E+00  0.11010925751E+04  0.11010925751E+04  0.25500000920E-02 0.  1.
       -2   -1    0    0    0  501  0.00000000000E+00  0.00000000000E+00 -0.51984264358E+03  0.51984264359E+03  0.25500000920E-02 0. -1.
    10030    2    1    2    0    0  0.00000000000E+00  0.00000000000E+00  0.58124993147E+03  0.16209352187E+04  0.15131356516E+04 0.  0.
        4    1    3    3  502    0 -0.24816799402E+03 -0.31906964687E+03  0.97571823003E+03  0.10561346837E+04  0.12699999809E+01 0.  1.
       -4    1    3    3    0  502  0.24816799402E+03  0.31906964687E+03 -0.39446829856E+03  0.56480053495E+03  0.12699999809E+01 0. -1.
</event>
<event>
 5   0  0.1552067E-03  0.1605487E+04  0.7818609E-02  0.8817184E-01
       -2   -1    0    0    0  501  0.00000000000E+00  0.00000000000E+00  0.10760965146E+04  0.10760965146E+04  0.25500000920E-02 0.  1.
        2   -1    0    0  501    0  0.00000000000E+00  0.00000000000E+00 -0.59882854701E+03  0.59882854701E+03  0.25500000920E-02 0. -1.
    10030    2    1    2    0    0  0.00000000000E+00  0.00000000000E+00  0.47726796763E+03  0.16749250617E+04  0.16054872311E+04 0.  0.
        3    1    3    3  502    0  0.39239326237E+03  0.41545415841E+03  0.82677431575E+03  0.10050524412E+04  0.10100000352E+00 0.  1.
       -3    1    3    3    0  502 -0.39239326237E+03 -0.41545415841E+03 -0.34950634812E+03  0.66987262049E+03  0.10100000352E+00 0. -1.
</event>
<event>
 5   0  0.1511546E-03  0.1533171E+04  0.7818609E-02  0.8862689E-01
       -2   -1    0    0    0  501  0.00000000000E+00  0.00000000000E+00  0.59250244616E+03  0.59250244617E+03  0.25500000920E-02 0. -1.
        2   -1    0    0  501    0  0.00000000000E+00  0.00000000000E+00 -0.99181588174E+03  0.99181588174E+03  0.25500000920E-02 0.  1.
    10030    2    1    2    0    0  0.00000000000E+00  0.00000000000E+00 -0.39931343557E+03  0.15843183279E+04  0.15331710095E+04 0.  0.
        1    1    3    3  502    0 -0.23268799539E+03 -0.64489023279E+03  0.15475161063E+03  0.70283367632E+03  0.50400001928E-02 0. -1.
       -1    1    3    3    0  502  0.23268799539E+03  0.64489023279E+03 -0.55406504620E+03  0.88148465159E+03  0.50400001928E-02 0.  1.
</event>
<event>
 5   0  0.8191876E-04  0.1508027E+04  0.7818609E-02  0.8879133E-01
        1   -1    0    0  501    0  0.00000000000E+00  0.00000000000E+00  0.35854674278E+03  0.35854674281E+03  0.50400001928E-02 0.  1.
       -1   -1    0    0    0  501  0.00000000000E+00  0.00000000000E+00 -0.15856679717E+04  0.15856679717E+04  0.50400001928E-02 0. -1.
    10030    2    1    2    0    0  0.00000000000E+00  0.00000000000E+00 -0.12271212289E+04  0.19442147146E+04  0.15080266396E+04 0.  0.
        2    1    3    3  502    0 -0.17182111836E+02 -0.17848732269E+03  0.33065846150E+03  0.37614886348E+03  0.25500000920E-02 0.  1.
       -2    1    3    3    0  502  0.17182111836E+02  0.17848732269E+03 -0.15577796904E+04  0.15680658511E+04  0.25500000920E-02 0. -1.
</event>
<event>
 5   0  0.8306301E-04  0.1535212E+04  0.7818609E-02  0.8861369E-01
       -1   -1    0    0    0  501  0.00000000000E+00  0.00000000000E+00  0.55197091457E+03  0.55197091459E+03  0.50400001928E-02 0.  1.
        1   -1    0    0  501    0  0.00000000000E+00  0.00000000000E+00 -0.10674824266E+04  0.10674824266E+04  0.50400001928E-02 0. -1.
    10030    2    1    2    0    0  0.00000000000E+00  0.00000000000E+00 -0.51551151199E+03  0.16194533412E+04  0.15352123648E+04 0.  0.
        4    1    3    3  502    0  0.35698940602E+03  0.16770060748E+01 -0.97458288236E+03  0.10379102350E+04  0.12699999809E+01 0. -1.
       -4    1    3    3    0  502 -0.35698940602E+03 -0.16770060748E+01  0.45907137037E+03  0.58154310619E+03  0.12699999809E+01 0.  1.
</event>
<event>
 5   0  0.1484056E-03  0.1464061E+04  0.7818609E-02  0.8908710E-01
       -2   -1    0    0    0  501  0.00000000000E+00  0.00000000000E+00  0.47844658141E+03  0.47844658142E+03  0.25500000920E-02 0.  1.
        2   -1    0    0  501    0  0.00000000000E+00  0.00000000000E+00 -0.11200181781E+04  0.11200181781E+04  0.25500000920E-02 0. -1.
    10030    2    1    2    0    0  0.00000000000E+00  0.00000000000E+00 -0.64157159670E+03  0.15984647595E+04  0.14640612944E+04 0.  0.
        5    1    3    3  502    0 -0.18727664586E+03  0.29690008270E+03 -0.10221140807E+04  0.10807226680E+04  0.46999998093E+01 0. -1.
       -5    1    3    3    0  502  0.18727664586E+03 -0.29690008270E+03  0.38054248401E+03  0.51774209151E+03  0.46999998093E+01 0.  1.
</event>
<event>
 5   0  0.7870317E-04  0.1491062E+04  0.7818609E-02  0.8890418E-01
       -1   -1    0    0    0  501  0.00000000000E+00  0.00000000000E+00  0.46169482690E+03  0.46169482693E+03  0.50400001928E-02 0. -1.
        1   -1    0    0  501    0  0.00000000000E+00  0.00000000000E+00 -0.12038613570E+04  0.12038613570E+04  0.50400001928E-02 0.  1.
    10030    2    1    2    0    0  0.00000000000E+00  0.00000000000E+00 -0.74216653006E+03  0.16655561839E+04  0.14910621192E+04 0.  0.
        1    1    3    3  502    0  0.18029189285E+03  0.94175237661E+02 -0.11722666532E+04  0.11897828576E+04  0.50400001928E-02 0.  1.
       -1    1    3    3    0  502 -0.18029189285E+03 -0.94175237661E+02  0.43010012317E+03  0.47577332627E+03  0.50400001928E-02 0. -1.
</event>
<event>
 5   0  0.8306301E-04  0.1542062E+04  0.7818609E-02  0.8856954E-01
       -1   -1    0    0    0  501  0.00000000000E+00  0.00000000000E+00  0.94706382941E+03  0.94706382942E+03  0.50400001928E-02 0.  1.
        1   -1    0    0  501    0  0.00000000000E+00  0.00000000000E+00 -0.62771775504E+03  0.62771775506E+03  0.50400001928E-02 0. -1.
    10030    2    1    2    0    0  0.00000000000E+00  0.00000000000E+00  0.31934607436E+03  0.15747815845E+04  0.15420619714E+04 0.  0.
        4    1    3    3  502    0 -0.71642109141E+02  0.18642576237E+03 -0.60084310645E+03  0.63316759878E+03  0.12699999809E+01 0. -1.
       -4    1    3    3    0  502  0.71642109141E+02 -0.18642576237E+03  0.92018918081E+03  0.94161398570E+03  0.12699999809E+01 0.  1.
</event>
<event>
 5   0  0.8058234E-04  0.1472162E+04  0.7818609E-02  0.8903179E-01
       -1   -1    0    0    0  501  0.00000000000E+00  0.00000000000E+00  0.43713544329E+03  0.43713544332E+03  0.50400001928E-02 0. -1.
        1   -1    0    0  501    0  0.00000000000E+00  0.00000000000E+00 -0.12394682513E+04  0.12394682514E+04  0.50400001928E-02 0.  1.
    10030    2    1    2    0    0  0.00000000000E+00  0.00000000000E+00 -0.80233280806E+03  0.16766036947E+04  0.14721623600E+04 0.  0.
        5    1    3    3  502    0  0.47242573006E+02  0.42022737826E+03  0.28496986424E+03  0.50995374660E+03  0.46999998093E+01 0. -1.
       -5    1    3    3    0  502 -0.47242573006E+02 -0.42022737826E+03 -0.10873026723E+04  0.11666499481E+04  0.46999998093E+01 0.  1.
</event>
<event>
 5   0  0.1500956E-03  0.1655361E+04  0.7818609E-02  0.8787241E-01
       -2   -1    0    0    0  501  0.00000000000E+00  0.00000000000E+00  0.56478411352E+03  0.56478411353E+03  0.25500000920E-02 0.  1.
        2   -1    0    0  501    0  0.00000000000E+00  0.00000000000E+00 -0.12129503041E+04  0.12129503041E+04  0.25500000920E-02 0. -1.
    10030    2    1    2    0    0  0.00000000000E+00  0.00000000000E+00 -0.64816619058E+03  0.17777344176E+04  0.16553610630E+04 0.  0.
        4    1    3    3  502    0 -0.12339538649E+03 -0.23915807200E+03  0.51648602722E+03  0.58239371050E+03  0.12699999809E+01 0.  1.
       -4    1    3    3    0  502  0.12339538649E+03  0.23915807200E+03 -0.11646522178E+04  0.11953407071E+04  0.12699999809E+01 0. -1.
</event>
<event>
 5   0  0.7870317E-04  0.1510817E+04  0.7818609E-02  0.8877292E-01
       -1   -1    0    0    0  501  0.00000000000E+00  0.00000000000E+00  0.52909842751E+03  0.52909842753E+03  0.50400001928E-02 0.  1.
        1   -1    0    0  501    0  0.00000000000E+00  0.00000000000E+00 -0.10785171062E+04  0.10785171062E+04  0.50400001928E-02 0. -1.
    10030    2    1    2    0    0  0.00000000000E+00  0.00000000000E+00 -0.54941867873E+03  0.16076155338E+04  0.15108166070E+04 0.  0.
        1    1    3    3  502    0 -0.23942068024E+03  0.67440864587E+03 -0.53205701101E+03  0.89175890618E+03  0.50400001928E-02 0. -1.
       -1    1    3    3    0  502  0.23942068024E+03 -0.67440864587E+03 -0.17361667722E+02  0.71585662761E+03  0.50400001928E-02 0.  1.
</event>
<event>
 5   0  0.1526126E-03  0.1486311E+04  0.7818609E-02  0.8893607E-01
        2   -1    0    0  501    0  0.00000000000E+00  0.00000000000E+00  0.16421613656E+04  0.16421613656E+04  0.25500000920E-02 0. -1.
       -2   -1    0    0    0  501  0.00000000000E+00  0.00000000000E+00 -0.33631311117E+03  0.33631311118E+03  0.25500000920E-02 0.  1.
    10030    2    1    2    0    0  0.00000000000E+00  0.00000000000E+00  0.13058482544E+04  0.19784744768E+04  0.14863114047E+04 0.  0.
        2    1    3    3  502    0  0.45494172091E+03  0.32666740713E+03  0.13031331320E+04  0.14183932896E+04  0.25500000920E-02 0. -1.
       -2    1    3    3    0  502 -0.45494172091E+03 -0.32666740713E+03  0.27151224056E+01  0.56008118715E+03  0.25500000920E-02 0.  1.
</event>
<event>
 5   0  0.1484056E-03  0.1458564E+04  0.7818609E-02  0.8912485E-01
       -2   -1    0    0    0  501  0.00000000000E+00  0.00000000000E+00  0.13602236436E+04  0.13602236436E+04  0.25500000920E-02 0.  1.
        2   -1    0    0  501    0  0.00000000000E+00  0.00000000000E+00 -0.39100331043E+03  0.39100331044E+03  0.25500000920E-02 0. -1.
    10030    2    1    2    0    0  0.00000000000E+00  0.00000000000E+00  0.96922033317E+03  0.17512269540E+04  0.14585636052E+04 0.  0.
        5    1    3    3  502    0  0.66805585752E+03 -0.12748975293E+02  0.13380468150E+03  0.68145942501E+03  0.46999998093E+01 0.  1.
       -5    1    3    3    0  502 -0.66805585752E+03  0.12748975293E+02  0.83541565166E+03  0.10697675290E+04  0.46999998093E+01 0. -1.
</event>
<event>
 5   0  0.8365016E-04  0.1496817E+04  0.7818609E-02  0.8886572E-01
       -1   -1    0    0    0  501  0.00000000000E+00  0.00000000000E+00  0.22956339273E+03  0.22956339278E+03  0.50400001928E-02 0. -1.
        1   -1    0    0  501    0  0.00000000000E+00  0.00000000000E+00 -0.24399147954E+04  0.24399147954E+04  0.50400001928E-02 0.  1.
    10030    2    1    2    0    0  0.00000000000E+00  0.00000000000E+00 -0.22103514027E+04  0.26694781882E+04  0.14968167803E+04 0.  0.
        3    1    3    3  502    0 -0.24155921994E+02  0.70982509102E+03 -0.68434529428E+03  0.98628781824E+03  0.10100000352E+00 0.  1.
       -3    1    3    3    0  502  0.24155921994E+02 -0.70982509102E+03 -0.15260061084E+04  0.16831903699E+04  0.10100000352E+00 0. -1.
</event>
<event>
 5   0  0.8058234E-04  0.1495629E+04  0.7818609E-02  0.8887365E-01
       -1   -1    0    0    0  501  0.00000000000E+00  0.00000000000E+00  0.75179158435E+03  0.75179158437E+03  0.50400001928E-02 0. -1.
        1   -1    0    0  501    0  0.00000000000E+00  0.00000000000E+00 -0.74385859323E+03  0.74385859325E+03  0.50400001928E-02 0.  1.
    10030    2    1    2    0    0  0.00000000000E+00  0.00000000000E+00  0.79329911213E+01  0.14956501776E+04  0.14956291390E+04 0.  0.
        5    1    3    3  502    0 -0.35866979528E+03  0.35476635835E+03 -0.54803886824E+03  0.74489722926E+03  0.46999998093E+01 0.  1.
       -5    1    3    3    0  502  0.35866979528E+03 -0.35476635835E+03  0.55597185936E+03  0.75075294835E+03  0.46999998093E+01 0. -1.
</event>
<event>
 5   0  0.1526126E-03  0.1488712E+04  0.7818609E-02  0.8891994E-01
       -2   -1    0    0    0  501  0.00000000000E+00  0.00000000000E+00  0.44185838177E+03  0.44185838178E+03  0.25500000920E-02 0. -1.
        2   -1    0    0  501    0  0.00000000000E+00  0.00000000000E+00 -0.12539442853E+04  0.12539442853E+04  0.25500000920E-02 0.  1.
    10030    2    1    2    0    0  0.00000000000E+00  0.00000000000E+00 -0.81208590349E+03  0.16958026670E+04  0.14887119167E+04 0.  0.
        2    1    3    3  502    0 -0.38442790789E+03  0.14660305124E+03 -0.11126463202E+04  0.11862795222E+04  0.25500000920E-02 0.  1.
       -2    1    3    3    0  502  0.38442790789E+03 -0.14660305124E+03  0.30056041671E+03  0.50952314481E+03  0.25500000920E-02 0. -1.
</event>
<event>
 5   0  0.8306301E-04  0.1522553E+04  0.7818609E-02  0.8869592E-01
        1   -1    0    0  501    0  0.00000000000E+00  0.00000000000E+00  0.25410282862E+03  0.25410282867E+03  0.50400001928E-02 0. -1.
       -1   -1    0    0    0  501  0.00000000000E+00  0.00000000000E+00 -0.22807385420E+04  0.22807385420E+04  0.50400001928E-02 0.  1.
    10030    2    1    2    0    0  0.00000000000E+00  0.00000000000E+00 -0.20266357134E+04  0.25348413707E+04  0.15225532699E+04 0.  0.
        4    1    3    3  502    0  0.38217440392E+03  0.39015783359E+03 -0.18962602053E+04  0.19733435558E+04  0.12699999809E+01 0.  1.
       -4    1    3    3    0  502 -0.38217440392E+03 -0.39015783359E+03 -0.13037550810E+03  0.56149781489E+03  0.12699999809E+01 0. -1.
</event>
<event>
 5   0  0.1552067E-03  0.1527577E+04  0.7818609E-02  0.8866319E-01
       -2   -1    0    0    0  501  0.00000000000E+00  0.00000000000E+00  0.55598958965E+03  0.55598958965E+03  0.25500000920E-02 0.  1.
        2   -1    0    0  501    0  0.00000000000E+00  0.00000000000E+00 -0.10492519451E+04  0.10492519451E+04  0.25500000920E-02 0. -1.
    10030    2    1    2    0    0  0.00000000000E+00  0.00000000000E+00 -0.49326235549E+03  0.16052415348E+04  0.15275773740E+04 0.  0.
        3    1    3    3  502    0 -0.26818335693E+02 -0.31629779722E+03 -0.97665185672E+03  0.10269432210E+04  0.10100000352E+00 0. -1.
       -3    1    3    3    0  502  0.26818335693E+02  0.31629779722E+03  0.48338950124E+03  0.57829831382E+03  0.10100000352E+00 0.  1.
</event>
<event>
 5   0  0.1484056E-03  0.1485683E+04  0.7818609E-02  0.8894030E-01
       -2   -1    0    0    0  501  0.00000000000E+00  0.00000000000E+00  0.40175744609E+03  0.40175744610E+03  0.25500000920E-02 0.  1.
        2   -1    0    0  501    0  0.00000000000E+00  0.00000000000E+00 -0.13734983228E+04  0.13734983228E+04  0.25500000920E-02 0. -1.
    10030    2    1    2    0    0  0.00000000000E+00  0.00000000000E+00 -0.97174087671E+03  0.17752557689E+04  0.14856825750E+04 0.  0.
        5    1    3    3  502    0 -0.15136096074E+03  0.29317532011E+03 -0.12811174557E+04  0.13229308123E+04  0.46999998093E+01 0. -1.
       -5    1    3    3    0  502  0.15136096074E+03 -0.29317532011E+03  0.30937657900E+03  0.45232495663E+03  0.46999998093E+01 0.  1.
</event>
<event>
 5   0  0.1511546E-03  0.1524273E+04  0.7818609E-02  0.8868470E-01
       -2   -1    0    0    0  501  0.00000000000E+00  0.00000000000E+00  0.84968114570E+03  0.84968114570E+03  0.25500000920E-02 0.  1.
        2   -1    0    0  501    0  0.00000000000E+00  0.00000000000E+00 -0.68361205591E+03  0.68361205591E+03  0.25500000920E-02 0. -1.
    10030    2    1    2    0    0  0.00000000000E+00  0.00000000000E+00  0.16606908979E+03  0.15332932016E+04  0.15242733021E+04 0.  0.
        1    1    3    3  502    0  0.70711061947E+03 -0.28347952937E+03  0.10521504014E+03  0.76904894281E+03  0.50400001928E-02 0.  1.
       -1    1    3    3    0  502 -0.70711061947E+03  0.28347952937E+03  0.60854049647E+02  0.76424425881E+03  0.50400001928E-02 0. -1.
</event>
<event>
 5   0  0.8306301E-04  0.1543069E+04  0.7818609E-02  0.8856307E-01
        1   -1    0    0  501    0  0.00000000000E+00  0.00000000000E+00  0.56531456977E+03  0.56531456979E+03  0.50400001928E-02 0. -1.
       -1   -1    0    0    0  501  0.00000000000E+00  0.00000000000E+00 -0.10529812195E+04  0.10529812195E+04  0.50400001928E-02 0.  1.
    10030    2    1    2    0    0  0.00000000000E+00  0.00000000000E+00 -0.48766664968E+03  0.16182957893E+04  0.15430691820E+04 0.  0.
        4    1    3    3  502    0 -0.68529677526E+03  0.54486363097E+02  0.12347461911E+03  0.69846118605E+03  0.12699999809E+01 0. -1.
       -4    1    3    3    0  502  0.68529677526E+03 -0.54486363097E+02 -0.61114126879E+03  0.91983460321E+03  0.12699999809E+01 0.  1.
</event>
<event>
 5   0  0.1511546E-03  0.1484155E+04  0.7818609E-02  0.8895059E-01
        2   -1    0    0  501    0  0.00000000000E+00  0.00000000000E+00  0.59500168618E+03  0.59500168619E+03  0.25500000920E-02 0. -1.
       -2   -1    0    0    0  501  0.00000000000E+00  0.00000000000E+00 -0.92550807369E+03  0.92550807369E+03  0.25500000920E-02 0.  1.
    10030    2    1    2    0    0  0.00000000000E+00  0.00000000000E+00 -0.33050638750E+03  0.15205097599E+04  0.14841547957E+04 0.  0.
        1    1    3    3  502    0 -0.53091278816E+03 -0.46808262336E+03 -0.39367002831E+03  0.80990482289E+03  0.50400001928E-02 0.  1.
       -1    1    3    3    0  502  0.53091278816E+03  0.46808262336E+03  0.63163640811E+02  0.71060493699E+03  0.50400001928E-02 0. -1.
</event>
<event>
 5   0  0.7870317E-04  0.1449952E+04  0.7818609E-02  0.8918434E-01
        1   -1    0    0  501    0  0.00000000000E+00  0.00000000000E+00  0.26183063960E+03  0.26183063965E+03  0.50400001928E-02 0.  1.
       -1   -1    0    0    0  501  0.00000000000E+00  0.00000000000E+00 -0.20073656972E+04  0.20073656972E+04  0.50400001928E-02 0. -1.
    10030    2    1    2    0    0  0.00000000000E+00  0.00000000000E+00 -0.17455350576E+04  0.22691963369E+04  0.14499515088E+04 0.  0.
        1    1    3    3  502    0  0.22428207306E+03 -0.49623283263E+03 -0.12377994943E+03  0.55845407007E+03  0.50400001928E-02 0.  1.
       -1    1    3    3    0  502 -0.22428207306E+03  0.49623283263E+03 -0.16217551082E+04  0.17107422668E+04  0.50400001928E-02 0. -1.
</event>
<event>
 5   0  0.1500956E-03  0.1484540E+04  0.7818609E-02  0.8894799E-01
       -2   -1    0    0    0  501  0.00000000000E+00  0.00000000000E+00  0.54610180555E+03  0.54610180556E+03  0.25500000920E-02 0.  1.
        2   -1    0    0  501    0  0.00000000000E+00  0.00000000000E+00 -0.10089048732E+04  0.10089048732E+04  0.25500000920E-02 0. -1.
    10030    2    1    2    0    0  0.00000000000E+00  0.00000000000E+00 -0.46280306761E+03  0.15550066787E+04  0.14845400269E+04 0.  0.
        4    1    3    3  502    0  0.22851475969E+03  0.37099247941E+03  0.39804572958E+03  0.59016644340E+03  0.12699999809E+01 0.  1.
       -4    1    3    3    0  502 -0.22851475969E+03 -0.37099247941E+03 -0.86084879720E+03  0.96484023533E+03  0.12699999809E+01 0. -1.
</event>
<event>
 5   0  0.7870317E-04  0.1531028E+04  0.7818609E-02  0.8864078E-01
       -1   -1    0    0    0  501  0.00000000000E+00  0.00000000000E+00  0.80990140414E+03  0.80990140416E+03  0.50400001928E-02 0.  1.
        1   -1    0    0  501    0  0.00000000000E+00  0.00000000000E+00 -0.72355914388E+03  0.72355914390E+03  0.50400001928E-02 0. -1.
    10030    2    1    2    0    0  0.00000000000E+00  0.00000000000E+00  0.86342260263E+02  0.15334605481E+04  0.15310278464E+04 0.  0.
        1    1    3    3  502    0 -0.30494325019E+03 -0.68230890012E+03  0.20919260234E+03  0.77607819575E+03  0.50400001928E-02 0.  1.
       -1    1    3    3    0  502  0.30494325019E+03  0.68230890012E+03 -0.12285034207E+03  0.75738235231E+03  0.50400001928E-02 0. -1.
</event>
<event>
 5   0  0.1484056E-03  0.1496544E+04  0.7818609E-02  0.8886754E-01
        2   -1    0    0  501    0  0.00000000000E+00  0.00000000000E+00  0.26637328667E+04  0.26637328667E+04  0.25500000920E-02 0.  1.
       -2   -1    0    0    0  501  0.00000000000E+00  0.00000000000E+00 -0.21019793718E+03  0.21019793719E+03  0.25500000920E-02 0. -1.
    10030    2    1    2    0    0  0.00000000000E+00  0.00000000000E+00  0.24535349295E+04  0.28739308039E+04  0.14965442243E+04 0.  0.
        5    1    3    3  502    0 -0.38386363138E+03 -0.38349765864E+03  0.22162138965E+04  0.22816765473E+04  0.46999998093E+01 0.  1.
       -5    1    3    3    0  502  0.38386363138E+03  0.38349765864E+03  0.23732103303E+03  0.59225425655E+03  0.46999998093E+01 0. -1.
</event>
<event>
 5   0  0.1484056E-03  0.1424410E+04  0.7818609E-02  0.8936337E-01
       -2   -1    0    0    0  501  0.00000000000E+00  0.00000000000E+00  0.41761959142E+03  0.41761959143E+03  0.25500000920E-02 0. -1.
        2   -1    0    0  501    0  0.00000000000E+00  0.00000000000E+00 -0.12145883750E+04  0.12145883750E+04  0.25500000920E-02 0.  1.
    10030    2    1    2    0    0  0.00000000000E+00  0.00000000000E+00 -0.79696878362E+03  0.16322079665E+04  0.14244099142E+04 0.  0.
        5    1    3    3  502    0  0.10338785290E+03  0.36929011793E+03 -0.10861573659E+04  0.11518785322E+04  0.46999998093E+01 0.  1.
       -5    1    3    3    0  502 -0.10338785290E+03 -0.36929011793E+03  0.28918858230E+03  0.48032943430E+03  0.46999998093E+01 0. -1.
</event>
<event>
 5   0  0.1526126E-03  0.1503271E+04  0.7818609E-02  0.8882281E-01
       -2   -1    0    0    0  501  0.00000000000E+00  0.00000000000E+00  0.80685555219E+03  0.80685555220E+03  0.25500000920E-02 0. -1.
        2   -1    0    0  501    0  0.00000000000E+00  0.00000000000E+00 -0.70019459711E+03  0.70019459712E+03  0.25500000920E-02 0.  1.
    10030    2    1    2    0    0  0.00000000000E+00  0.00000000000E+00  0.10666095508E+03  0.15070501493E+04  0.15032709647E+04 0.  0.
        2    1    3    3  502    0  0.33828671901E+03 -0.38417343332E+03  0.60510379331E+03  0.79257664098E+03  0.25500000920E-02 0. -1.
       -2    1    3    3    0  502 -0.33828671901E+03  0.38417343332E+03 -0.49844283823E+03  0.71447350834E+03  0.25500000920E-02 0.  1.
</event>
<event>
 5   0  0.1526126E-03  0.1526333E+04  0.7818609E-02  0.8867128E-01
        2   -1    0    0  501    0  0.00000000000E+00  0.00000000000E+00  0.11129134178E+04  0.11129134178E+04  0.25500000920E-02 0.  1.
       -2   -1    0    0    0  501  0.00000000000E+00  0.00000000000E+00 -0.52333214488E+03  0.52333214488E+03  0.25500000920E-02 0. -1.
    10030    2    1    2    0    0  0.00000000000E+00  0.00000000000E+00  0.58958127297E+03  0.16362455627E+04  0.15263333398E+04 0.  0.
        2    1    3    3  502    0 -0.10126652940E+02  0.81035540555E+02 -0.51863451154E+03  0.52502482274E+03  0.25500000920E-02 0. -1.
       -2    1    3    3    0  502  0.10126652940E+02 -0.81035540555E+02  0.11082157845E+04  0.11112207400E+04  0.25500000920E-02 0.  1.
</event>
<event>
 5   0  0.1511546E-03  0.1520361E+04  0.7818609E-02  0.8871025E-01
       -2   -1    0    0    0  501  0.00000000000E+00  0.00000000000E+00  0.31681477964E+03  0.31681477965E+03  0.25500000920E-02 0.  1.
        2   -1    0    0  501    0  0.00000000000E+00  0.00000000000E+00 -0.18240139908E+04  0.18240139908E+04  0.25500000920E-02 0. -1.
    10030    2    1    2    0    0  0.00000000000E+00  0.00000000000E+00 -0.15071992111E+04  0.21408287704E+04  0.15203612604E+04 0.  0.
        1    1    3    3  502    0  0.63398703822E+03 -0.22315886302E+03 -0.12536953946E+04  0.14224948454E+04  0.50400001928E-02 0. -1.
       -1    1    3    3    0  502 -0.63398703822E+03  0.22315886302E+03 -0.25350381653E+03  0.71833392499E+03  0.50400001928E-02 0.  1.
</event>
<event>
 5   0  0.8058234E-04  0.1515090E+04  0.7818609E-02  0.8874480E-01
       -1   -1    0    0    0  501  0.00000000000E+00  0.00000000000E+00  0.98994330596E+03  0.98994330597E+03  0.50400001928E-02 0.  1.
        1   -1    0    0  501    0  0.00000000000E+00  0.00000000000E+00 -0.57970437331E+03  0.57970437333E+03  0.50400001928E-02 0. -1.
    10030    2    1    2    0    0  0.00000000000E+00  0.00000000000E+00  0.41023893265E+03  0.15696476793E+04  0.15150900486E+04 0.  0.
        5    1    3    3  502    0  0.35557770103E+03  0.55728783710E+03  0.58836896700E+03  0.88498890737E+03  0.46999998093E+01 0.  1.
       -5    1    3    3    0  502 -0.35557770103E+03 -0.55728783710E+03 -0.17813003435E+03  0.68465877193E+03  0.46999998093E+01 0. -1.
</event>
<event>
 5   0  0.8365016E-04  0.1486500E+04  0.7818609E-02  0.8893480E-01
       -1   -1    0    0    0  501  0.00000000000E+00  0.00000000000E+00  0.80473220703E+03  0.80473220704E+03  0.50400001928E-02 0. -1.
        1   -1    0    0  501    0  0.00000000000E+00  0.00000000000E+00 -0.68646477166E+03  0.68646477168E+03  0.50400001928E-02 0.  1.
    10030    2    1    2    0    0  0.00000000000E+00  0.00000000000E+00  0.11826743536E+03  0.14911969787E+04  0.14864996613E+04 0.  0.
        3    1    3    3  502    0 -0.10962179199E+03 -0.63940005881E+03 -0.30473956568E+03  0.71673955212E+03  0.10100000352E+00 0.  1.
       -3    1    3    3    0  502  0.10962179199E+03  0.63940005881E+03  0.42300700104E+03  0.77445742660E+03  0.10100000352E+00 0. -1.
</event>
<event>
 5   0  0.5603875E-04  0.1552893E+04  0.7818609E-02  0.8850022E-01
        3   -1    0    0  501    0  0.00000000000E+00  0.00000000000E+00  0.43610798154E+03  0.43610799323E+03  0.10100000352E+00 0. -1.
       -3   -1    0    0    0  501  0.00000000000E+00  0.00000000000E+00 -0.13823851864E+04  0.13823851901E+04  0.10100000352E+00 0.  1.
    10030    2    1    2    0    0  0.00000000000E+00  0.00000000000E+00 -0.94627720483E+03  0.18184931833E+04  0.15528930772E+04 0.  0.
        5    1    3    3  502    0  0.33313389587E+03  0.51695605370E+02 -0.12921912117E+04  0.13354515512E+04  0.46999998093E+01 0.  1.
       -5    1    3    3    0  502 -0.33313389587E+03 -0.51695605370E+02  0.34591400683E+03  0.48304163207E+03  0.46999998093E+01 0. -1.
</event>
<event>
 5   0  0.1552067E-03  0.1498820E+04  0.7818609E-02  0.8885238E-01
       -2   -1    0    0    0  501  0.00000000000E+00  0.00000000000E+00  0.58405722221E+03  0.58405722222E+03  0.25500000920E-02 0.  1.
        2   -1    0    0  501    0  0.00000000000E+00  0.00000000000E+00 -0.96157653917E+03  0.96157653917E+03  0.25500000920E-02 0. -1.
    10030    2    1    2    0    0  0.00000000000E+00  0.00000000000E+00 -0.37751931695E+03  0.15456337614E+04  0.14988204995E+04 0.  0.
        3    1    3    3  502    0 -0.14583919614E+03 -0.59080446199E+03  0.26227585955E+03  0.66265196004E+03  0.10100000352E+00 0.  1.
       -3    1    3    3    0  502  0.14583919614E+03  0.59080446199E+03 -0.63979517650E+03  0.88298180135E+03  0.10100000352E+00 0. -1.
</event>
<event>
 5   0  0.7870317E-04  0.1499742E+04  0.7818609E-02  0.8884624E-01
       -1   -1    0    0    0  501  0.00000000000E+00  0.00000000000E+00  0.46290364021E+03  0.46290364024E+03  0.50400001928E-02 0. -1.
        1   -1    0    0  501    0  0.00000000000E+00  0.00000000000E+00 -0.12147384141E+04  0.12147384141E+04  0.50400001928E-02 0.  1.
    10030    2    1    2    0    0  0.00000000000E+00  0.00000000000E+00 -0.75183477384E+03  0.16776420543E+04  0.14997424230E+04 0.  0.
        1    1    3    3  502    0 -0.28100656537E+03 -0.34401170698E+03 -0.10517325371E+04  0.11416873801E+04  0.50400001928E-02 0.  1.
       -1    1    3    3    0  502  0.28100656537E+03  0.34401170698E+03  0.29989776328E+03  0.53595467417E+03  0.50400001928E-02 0. -1.
</event>
<event>
 5   0  0.1526126E-03  0.1479672E+04  0.7818609E-02  0.8898084E-01
        2   -1    0    0  501    0  0.00000000000E+00  0.00000000000E+00  0.12064716484E+04  0.12064716484E+04  0.25500000920E-02 0.  1.
       -2   -1    0    0    0  501  0.00000000000E+00  0.00000000000E+00 -0.45368453585E+03  0.45368453586E+03  0.25500000920E-02 0. -1.
    10030    2    1    2    0    0  0.00000000000E+00  0.00000000000E+00  0.75278711257E+03  0.16601561843E+04  0.14796723013E+04 0.  0.
        2    1    3    3  502    0  0.29729582728E+03 -0.46023454951E+03 -0.18139520023E+03  0.57715237863E+03  0.25500000920E-02 0. -1.
       -2    1    3    3    0  502 -0.29729582728E+03  0.46023454951E+03  0.93418231280E+03  0.10830038056E+04  0.25500000920E-02 0.  1.
</event>
<event>
 5   0  0.8306301E-04  0.1511351E+04  0.7818609E-02  0.8876939E-01
        1   -1    0    0  501    0  0.00000000000E+00  0.00000000000E+00  0.13636666124E+04  0.13636666125E+04  0.50400001928E-02 0. -1.
       -1   -1    0    0    0  501  0.00000000000E+00  0.00000000000E+00 -0.41875765669E+03  0.41875765672E+03  0.50400001928E-02 0.  1.
    10030    2    1    2    0    0  0.00000000000E+00  0.00000000000E+00  0.94490895576E+03  0.17824242692E+04  0.15113514947E+04 0.  0.
        4    1    3    3  502    0  0.16576006053E+03 -0.15322141281E+03  0.13229759572E+04  0.13420954494E+04  0.12699999809E+01 0. -1.
       -4    1    3    3    0  502 -0.16576006053E+03  0.15322141281E+03 -0.37806700147E+03  0.44032881976E+03  0.12699999809E+01 0.  1.
</event>
<event>
 5   0  0.7870317E-04  0.1495377E+04  0.7818609E-02  0.8887533E-01
       -1   -1    0    0    0  501  0.00000000000E+00  0.00000000000E+00  0.67401188121E+03  0.67401188123E+03  0.50400001928E-02 0.  1.
        1   -1    0    0  501    0  0.00000000000E+00  0.00000000000E+00 -0.82941916661E+03  0.82941916663E+03  0.50400001928E-02 0. -1.
    10030    2    1    2    0    0  0.00000000000E+00  0.00000000000E+00 -0.15540728540E+03  0.15034310479E+04  0.14953773742E+04 0.  0.
        1    1    3    3  502    0  0.14380804689E+03  0.72641137111E+03  0.26217152558E+02  0.74097339598E+03  0.50400001928E-02 0.  1.
       -1    1    3    3    0  502 -0.14380804689E+03 -0.72641137111E+03 -0.18162443795E+03  0.76245765188E+03  0.50400001928E-02 0. -1.
</event>
<event>
 5   0  0.8191876E-04  0.1551974E+04  0.7818609E-02  0.8850608E-01
       -1   -1    0    0    0  501  0.00000000000E+00  0.00000000000E+00  0.12148726437E+04  0.12148726437E+04  0.50400001928E-02 0.  1.
        1   -1    0    0  501    0  0.00000000000E+00  0.00000000000E+00 -0.49565343775E+03  0.49565343778E+03  0.50400001928E-02 0. -1.
    10030    2    1    2    0    0  0.00000000000E+00  0.00000000000E+00  0.71921920596E+03  0.17105260815E+04  0.15519739718E+04 0.  0.
        2    1    3    3  502    0  0.26862697911E+03  0.36476414777E+03 -0.33478933543E+03  0.56329143125E+03  0.25500000920E-02 0. -1.
       -2    1    3    3    0  502 -0.26862697911E+03 -0.36476414777E+03  0.10540085414E+04  0.11472346502E+04  0.25500000920E-02 0.  1.
</event>
<event>
 5   0  0.8365016E-04  0.1462505E+04  0.7818609E-02  0.8909777E-01
       -1   -1    0    0    0  501  0.00000000000E+00  0.00000000000E+00  0.88353273983E+03  0.88353273985E+03  0.50400001928E-02 0.  1.
        1   -1    0    0  501    0  0.00000000000E+00  0.00000000000E+00 -0.60521835669E+03  0.60521835671E+03  0.50400001928E-02 0. -1.
    10030    2    1    2    0    0  0.00000000000E+00  0.00000000000E+00  0.27831438315E+03  0.14887510966E+04  0.14625050194E+04 0.  0.
        3    1    3    3  502    0 -0.26499736209E+03  0.48791624298E+03  0.62355869663E+03  0.83493192563E+03  0.10100000352E+00 0.  1.
       -3    1    3    3    0  502  0.26499736209E+03 -0.48791624298E+03 -0.34524431348E+03  0.65381917093E+03  0.10100000352E+00 0. -1.
</event>
<event>
 5   0  0.1500956E-03  0.1501792E+04  0.7818609E-02  0.8883262E-01
        2   -1    0    0  501    0  0.00000000000E+00  0.00000000000E+00  0.14261416397E+04  0.14261416397E+04  0.25500000920E-02 0. -1.
       -2   -1    0    0    0  501  0.00000000000E+00  0.00000000000E+00 -0.39536363669E+03  0.39536363670E+03  0.25500000920E-02 0.  1.
    10030    2    1    2    0    0  0.00000000000E+00  0.00000000000E+00  0.10307780030E+04  0.18215052764E+04  0.15017916568E+04 0.  0.
        4    1    3    3  502    0 -0.39022393346E+03  0.57697215273E+03  0.17519312538E+03  0.71823800189E+03  0.12699999809E+01 0.  1.
       -4    1    3    3    0  502  0.39022393346E+03 -0.57697215273E+03  0.85558487762E+03  0.11032672745E+04  0.12699999809E+01 0. -1.
</event>
<event>
 5   0  0.1500956E-03  0.1490009E+04  0.7818609E-02  0.8891124E-01
       -2   -1    0    0    0  501  0.00000000000E+00  0.00000000000E+00  0.50453601332E+03  0.50453601332E+03  0.25500000920E-02 0. -1.
        2   -1    0    0  501    0  0.00000000000E+00  0.00000000000E+00 -0.11000834163E+04  0.11000834163E+04  0.25500000920E-02 0.  1.
    10030    2    1    2    0    0  0.00000000000E+00  0.00000000000E+00 -0.59554740299E+03  0.16046194296E+04  0.14900089949E+04 0.  0.
        4    1    3    3  502    0  0.26382937503E+03 -0.11643961817E+03 -0.10375364921E+04  0.10768694021E+04  0.12699999809E+01 0.  1.
       -4    1    3    3    0  502 -0.26382937503E+03  0.11643961817E+03  0.44198908910E+03  0.52775002756E+03  0.12699999809E+01 0. -1.
</event>
<event>
 5   0  0.8191876E-04  0.1505364E+04  0.7818609E-02  0.8880894E-01
        1   -1    0    0  501    0  0.00000000000E+00  0.00000000000E+00  0.10135175732E+04  0.10135175732E+04  0.50400001928E-02 0. -1.
       -1   -1    0    0    0  501  0.00000000000E+00  0.00000000000E+00 -0.55897426301E+03  0.55897426304E+03  0.50400001928E-02 0.  1.
    10030    2    1    2    0    0  0.00000000000E+00  0.00000000000E+00  0.45454331019E+03  0.15724918363E+04  0.15053640604E+04 0.  0.
        2    1    3    3  502    0  0.37659848826E+03  0.64790263359E+03  0.15395648923E+03  0.76505349130E+03  0.25500000920E-02 0.  1.
       -2    1    3    3    0  502 -0.37659848826E+03 -0.64790263359E+03  0.30058682096E+03  0.80743834496E+03  0.25500000920E-02 0. -1.
</event>
<event>
 5   0  0.1500956E-03  0.9761478E+03  0.7818609E-02  0.9335099E-01
        2   -1    0    0  501    0  0.00000000000E+00  0.00000000000E+00  0.37332381352E+03  0.37332381353E+03  0.25500000920E-02 0. -1.
       -2   -1    0    0    0  501  0.00000000000E+00  0.00000000000E+00 -0.63809518629E+03  0.63809518629E+03  0.25500000920E-02 0.  1.
    10030    2    1    2    0    0  0.00000000000E+00  0.00000000000E+00 -0.26477137276E+03  0.10114189998E+04  0.97614779279E+03 0.  0.
        4    1    3    3  502    0 -0.44067306888E+03  0.18065484726E+03 -0.21826900017E+02  0.47676719050E+03  0.12699999809E+01 0. -1.
       -4    1    3    3    0  502  0.44067306888E+03 -0.18065484726E+03 -0.24294447274E+03  0.53465180932E+03  0.12699999809E+01 0.  1.
</event>
<event>
 5   0  0.1511546E-03  0.1490522E+04  0.7818609E-02  0.8890780E-01
        2   -1    0    0  501    0  0.00000000000E+00  0.00000000000E+00  0.19136440197E+04  0.19136440197E+04  0.25500000920E-02 0.  1.
       -2   -1    0    0    0  501  0.00000000000E+00  0.00000000000E+00 -0.29023878788E+03  0.29023878789E+03  0.25500000920E-02 0. -1.
    10030    2    1    2    0    0  0.00000000000E+00  0.00000000000E+00  0.16234052318E+04  0.22038828076E+04  0.14905216814E+04 0.  0.
        1    1    3    3  502    0 -0.27379796488E+03  0.69131158222E+03  0.88617307268E+03  0.11567971923E+04  0.50400001928E-02 0. -1.
       -1    1    3    3    0  502  0.27379796488E+03 -0.69131158222E+03  0.73723215913E+03  0.10470856153E+04  0.50400001928E-02 0.  1.
</event>
<event>
 5   0  0.1500956E-03  0.1492899E+04  0.7818609E-02  0.8889189E-01
        2   -1    0    0  501    0  0.00000000000E+00  0.00000000000E+00  0.59732566193E+03  0.59732566194E+03  0.25500000920E-02 0.  1.
       -2   -1    0    0    0  501  0.00000000000E+00  0.00000000000E+00 -0.93280185819E+03  0.93280185820E+03  0.25500000920E-02 0. -1.
    10030    2    1    2    0    0  0.00000000000E+00  0.00000000000E+00 -0.33547619626E+03  0.15301275201E+04  0.14928985061E+04 0.  0.
        4    1    3    3  502    0  0.58699036648E+03  0.60571144291E+02  0.30078086923E+03  0.66234228164E+03  0.12699999809E+01 0.  1.
       -4    1    3    3    0  502 -0.58699036648E+03 -0.60571144291E+02 -0.63625706549E+03  0.86778523849E+03  0.12699999809E+01 0. -1.
</event>
<event>
 5   0  0.8058234E-04  0.1326063E+04  0.7818609E-02  0.9009149E-01
       -1   -1    0    0    0  501  0.00000000000E+00  0.00000000000E+00  0.51921685683E+03  0.51921685685E+03  0.50400001928E-02 0.  1.
        1   -1    0    0  501    0  0.00000000000E+00  0.00000000000E+00 -0.84667983067E+03  0.84667983068E+03  0.50400001928E-02 0. -1.
    10030    2    1    2    0    0  0.00000000000E+00  0.00000000000E+00 -0.32746297384E+03  0.13658966875E+04  0.13260625030E+04 0.  0.
        5    1    3    3  502    0  0.14350033470E+03  0.67662953061E+02  0.49935934067E+03  0.52397753996E+03  0.46999998093E+01 0.  1.
       -5    1    3    3    0  502 -0.14350033470E+03 -0.67662953061E+02 -0.82682231451E+03  0.84191914757E+03  0.46999998093E+01 0. -1.
</event>
<event>
 5   0  0.1484056E-03  0.1151743E+04  0.7818609E-02  0.9156177E-01
       -2   -1    0    0    0  501  0.00000000000E+00  0.00000000000E+00  0.55872528516E+03  0.55872528517E+03  0.25500000920E-02 0.  1.
        2   -1    0    0  501    0  0.00000000000E+00  0.00000000000E+00 -0.59354431859E+03  0.59354431859E+03  0.25500000920E-02 0. -1.
    10030    2    1    2    0    0  0.00000000000E+00  0.00000000000E+00 -0.34819033430E+02  0.11522696038E+04  0.11517434066E+04 0.  0.
        5    1    3    3  502    0  0.16105496526E+03 -0.55250534407E+03  0.27310394370E+01  0.57552619891E+03  0.46999998093E+01 0. -1.
       -5    1    3    3    0  502 -0.16105496526E+03  0.55250534407E+03 -0.37550072867E+02  0.57674340485E+03  0.46999998093E+01 0.  1.
</event>
<event>
 5   0  0.8058234E-04  0.1482146E+04  0.7818609E-02  0.8896413E-01
       -1   -1    0    0    0  501  0.00000000000E+00  0.00000000000E+00  0.77556635497E+03  0.77556635499E+03  0.50400001928E-02 0. -1.
        1   -1    0    0  501    0  0.00000000000E+00  0.00000000000E+00 -0.70811391376E+03  0.70811391378E+03  0.50400001928E-02 0.  1.
    10030    2    1    2    0    0  0.00000000000E+00  0.00000000000E+00  0.67452441214E+02  0.14836802688E+04  0.14821461831E+04 0.  0.
        5    1    3    3  502    0 -0.39831407650E+03  0.25824847716E+03 -0.53591537000E+03  0.71594256284E+03  0.46999998093E+01 0.  1.
       -5    1    3    3    0  502  0.39831407650E+03 -0.25824847716E+03  0.60336781121E+03  0.76773770592E+03  0.46999998093E+01 0. -1.
</event>
<event>
 5   0  0.8365016E-04  0.1587721E+04  0.7818609E-02  0.8828127E-01
        1   -1    0    0  501    0  0.00000000000E+00  0.00000000000E+00  0.71691715789E+03  0.71691715791E+03  0.50400001928E-02 0.  1.
       -1   -1    0    0    0  501  0.00000000000E+00  0.00000000000E+00 -0.87906233837E+03  0.87906233839E+03  0.50400001928E-02 0. -1.
    10030    2    1    2    0    0  0.00000000000E+00  0.00000000000E+00 -0.16214518048E+03  0.15959794963E+04  0.15877214784E+04 0.  0.
        3    1    3    3  502    0  0.16887737593E+03  0.67035702605E+03 -0.47338028246E+03  0.83784665214E+03  0.10100000352E+00 0.  1.
       -3    1    3    3    0  502 -0.16887737593E+03 -0.67035702605E+03  0.31123510197E+03  0.75813284415E+03  0.10100000352E+00 0. -1.
</event>
<event>
 5   0  0.1484056E-03  0.1385765E+04  0.7818609E-02  0.8964187E-01
        2   -1    0    0  501    0  0.00000000000E+00  0.00000000000E+00  0.13301735426E+04  0.13301735426E+04  0.25500000920E-02 0.  1.
       -2   -1    0    0    0  501  0.00000000000E+00  0.00000000000E+00 -0.36091997139E+03  0.36091997140E+03  0.25500000920E-02 0. -1.
    10030    2    1    2    0    0  0.00000000000E+00  0.00000000000E+00  0.96925357124E+03  0.16910935140E+04  0.13857650551E+04 0.  0.
        5    1    3    3  502    0 -0.47571716281E+03 -0.33587915245E+02 -0.12873927305E+03  0.49399479498E+03  0.46999998093E+01 0. -1.
       -5    1    3    3    0  502  0.47571716281E+03  0.33587915245E+02  0.10979928443E+04  0.11970987190E+04  0.46999998093E+01 0.  1.
</event>
<event>
 5   0  0.7870317E-04  0.1512387E+04  0.7818609E-02  0.8876257E-01
        1   -1    0    0  501    0  0.00000000000E+00  0.00000000000E+00  0.13068101729E+04  0.13068101729E+04  0.50400001928E-02 0. -1.
       -1   -1    0    0    0  501  0.00000000000E+00  0.00000000000E+00 -0.43757580597E+03  0.43757580600E+03  0.50400001928E-02 0.  1.
    10030    2    1    2    0    0  0.00000000000E+00  0.00000000000E+00  0.86923436696E+03  0.17443859789E+04  0.15123868747E+04 0.  0.
        1    1    3    3  502    0  0.32956528513E+03  0.28820905388E+03 -0.27652694690E+03  0.51782708339E+03  0.50400001928E-02 0.  1.
       -1    1    3    3    0  502 -0.32956528513E+03 -0.28820905388E+03  0.11457613139E+04  0.12265588956E+04  0.50400001928E-02 0. -1.
</event>
<event>
 5   0  0.8306301E-04  0.1488090E+04  0.7818609E-02  0.8892412E-01
        1   -1    0    0  501    0  0.00000000000E+00  0.00000000000E+00  0.10574916594E+04  0.10574916594E+04  0.50400001928E-02 0. -1.
       -1   -1    0    0    0  501  0.00000000000E+00  0.00000000000E+00 -0.52350569742E+03  0.52350569744E+03  0.50400001928E-02 0.  1.
    10030    2    1    2    0    0  0.00000000000E+00  0.00000000000E+00  0.53398596199E+03  0.15809973569E+04  0.14880899283E+04 0.  0.
        4    1    3    3  502    0  0.16949420358E+03 -0.26157801331E+03  0.98478487615E+03  0.10329347546E+04  0.12699999809E+01 0. -1.
       -4    1    3    3    0  502 -0.16949420358E+03  0.26157801331E+03 -0.45079891415E+03  0.54806260226E+03  0.12699999809E+01 0.  1.
</event>
<event>
 5   0  0.8058234E-04  0.1520068E+04  0.7818609E-02  0.8871217E-01
       -1   -1    0    0    0  501  0.00000000000E+00  0.00000000000E+00  0.82422760986E+03  0.82422760988E+03  0.50400001928E-02 0.  1.
        1   -1    0    0  501    0  0.00000000000E+00  0.00000000000E+00 -0.70083997166E+03  0.70083997168E+03  0.50400001928E-02 0. -1.
    10030    2    1    2    0    0  0.00000000000E+00  0.00000000000E+00  0.12338763820E+03  0.15250675816E+04  0.15200679653E+04 0.  0.
        5    1    3    3  502    0 -0.35356628538E+02 -0.63291507172E+03  0.48235557466E+03  0.79656799433E+03  0.46999998093E+01 0.  1.
       -5    1    3    3    0  502  0.35356628538E+02  0.63291507172E+03 -0.35896793645E+03  0.72849958723E+03  0.46999998093E+01 0. -1.
</event>
<event>
 5   0  0.7870317E-04  0.1513688E+04  0.7818609E-02  0.8875401E-01
       -1   -1    0    0    0  501  0.00000000000E+00  0.00000000000E+00  0.39635623265E+03  0.39635623268E+03  0.50400001928E-02 0.  1.
        1   -1    0    0  501    0  0.00000000000E+00  0.00000000000E+00 -0.14451978899E+04  0.14451978899E+04  0.50400001928E-02 0. -1.
    10030    2    1    2    0    0  0.00000000000E+00  0.00000000000E+00 -0.10488416572E+04  0.18415541226E+04  0.15136884635E+04 0.  0.
        1    1    3    3  502    0  0.35222230147E+03 -0.49697656567E+03  0.22057550395E+02  0.60953489812E+03  0.50400001928E-02 0.  1.
       -1    1    3    3    0  502 -0.35222230147E+03  0.49697656567E+03 -0.10708992076E+04  0.12320192245E+04  0.50400001928E-02 0. -1.
</event>
<event>
 5   0  0.7870317E-04  0.1469712E+04  0.7818609E-02  0.8904848E-01
       -1   -1    0    0    0  501  0.00000000000E+00  0.00000000000E+00  0.52619819429E+03  0.52619819432E+03  0.50400001928E-02 0. -1.
        1   -1    0    0  501    0  0.00000000000E+00  0.00000000000E+00 -0.10262543798E+04  0.10262543798E+04  0.50400001928E-02 0.  1.
    10030    2    1    2    0    0  0.00000000000E+00  0.00000000000E+00 -0.50005618547E+03  0.15524525741E+04  0.14697118106E+04 0.  0.
        1    1    3    3  502    0  0.26604056187E+03 -0.57913180907E+03 -0.63646830824E+03  0.90070147122E+03  0.50400001928E-02 0.  1.
       -1    1    3    3    0  502 -0.26604056187E+03  0.57913180907E+03  0.13641212277E+03  0.65175110288E+03  0.50400001928E-02 0. -1.
</event>
<event>
 5   0  0.1500956E-03  0.1506408E+04  0.7818609E-02  0.8880203E-01
       -2   -1    0    0    0  501  0.00000000000E+00  0.00000000000E+00  0.31806862664E+03  0.31806862665E+03  0.25500000920E-02 0. -1.
        2   -1    0    0  501    0  0.00000000000E+00  0.00000000000E+00 -0.17836273911E+04  0.17836273911E+04  0.25500000920E-02 0.  1.
    10030    2    1    2    0    0  0.00000000000E+00  0.00000000000E+00 -0.14655587645E+04  0.21016960178E+04  0.15064075342E+04 0.  0.
        4    1    3    3  502    0  0.39803116716E+03  0.25916749055E+02  0.15861782852E+03  0.42925716806E+03  0.12699999809E+01 0. -1.
       -4    1    3    3    0  502 -0.39803116716E+03 -0.25916749055E+02 -0.16241765930E+04  0.16724388497E+04  0.12699999809E+01 0.  1.
</event>
<event>
 5   0  0.8306301E-04  0.1512096E+04  0.7818609E-02  0.8876449E-01
        1   -1    0    0  501    0  0.00000000000E+00  0.00000000000E+00  0.17530741828E+04  0.17530741828E+04  0.50400001928E-02 0. -1.
       -1   -1    0    0    0  501  0.00000000000E+00  0.00000000000E+00 -0.32606048972E+03  0.32606048976E+03  0.50400001928E-02 0.  1.
    10030    2    1    2    0    0  0.00000000000E+00  0.00000000000E+00  0.14270136931E+04  0.20791346726E+04  0.15120955348E+04 0.  0.
        4    1    3    3  502    0 -0.61352955477E+03 -0.19754154910E+02  0.10663709023E+03  0.62304239272E+03  0.12699999809E+01 0. -1.
       -4    1    3    3    0  502  0.61352955477E+03  0.19754154910E+02  0.13203766029E+04  0.14560922799E+04  0.12699999809E+01 0.  1.
</event>
<event>
 5   0  0.7870317E-04  0.1516220E+04  0.7818609E-02  0.8873738E-01
        1   -1    0    0  501    0  0.00000000000E+00  0.00000000000E+00  0.80343253250E+03  0.80343253251E+03  0.50400001928E-02 0.  1.
       -1   -1    0    0    0  501  0.00000000000E+00  0.00000000000E+00 -0.71534420063E+03  0.71534420065E+03  0.50400001928E-02 0. -1.
    10030    2    1    2    0    0  0.00000000000E+00  0.00000000000E+00  0.88088331865E+02  0.15187767332E+04  0.15162200404E+04 0.  0.
        1    1    3    3  502    0  0.71434606802E+03 -0.15751607051E+03 -0.15536231772E+03  0.74782288489E+03  0.50400001928E-02 0. -1.
       -1    1    3    3    0  502 -0.71434606802E+03  0.15751607051E+03  0.24345064959E+03  0.77095384828E+03  0.50400001928E-02 0.  1.
</event>
<event>
 5   0  0.8365016E-04  0.1494926E+04  0.7818609E-02  0.8887834E-01
        1   -1    0    0  501    0  0.00000000000E+00  0.00000000000E+00  0.21242955439E+04  0.21242955439E+04  0.50400001928E-02 0.  1.
       -1   -1    0    0    0  501  0.00000000000E+00  0.00000000000E+00 -0.26300540124E+03  0.26300540129E+03  0.50400001928E-02 0. -1.
    10030    2    1    2    0    0  0.00000000000E+00  0.00000000000E+00  0.18612901427E+04  0.23873009452E+04  0.14949263553E+04 0.  0.
        3    1    3    3  502    0  0.70207981126E+03  0.22188295579E+03  0.11361048589E+04  0.13538398606E+04  0.10100000352E+00 0.  1.
       -3    1    3    3    0  502 -0.70207981126E+03 -0.22188295579E+03  0.72518528378E+03  0.10334610846E+04  0.10100000352E+00 0. -1.
</event>
<event>
 5   0  0.8365016E-04  0.1495783E+04  0.7818609E-02  0.8887262E-01
       -1   -1    0    0    0  501  0.00000000000E+00  0.00000000000E+00  0.59587732684E+03  0.59587732686E+03  0.50400001928E-02 0. -1.
        1   -1    0    0  501    0  0.00000000000E+00  0.00000000000E+00 -0.93868570099E+03  0.93868570100E+03  0.50400001928E-02 0.  1.
    10030    2    1    2    0    0  0.00000000000E+00  0.00000000000E+00 -0.34280837415E+03  0.15345630279E+04  0.14957827734E+04 0.  0.
        3    1    3    3  502    0  0.37099240626E+02 -0.66507524012E+03  0.17747126234E+03  0.68934569545E+03  0.10100000352E+00 0. -1.
       -3    1    3    3    0  502 -0.37099240626E+02  0.66507524012E+03 -0.52027963648E+03  0.84521733241E+03  0.10100000352E+00 0.  1.
</event>
<event>
 5   0  0.1500956E-03  0.1348817E+04  0.7818609E-02  0.8991724E-01
       -2   -1    0    0    0  501  0.00000000000E+00  0.00000000000E+00  0.69813471537E+03  0.69813471538E+03  0.25500000920E-02 0.  1.
        2   -1    0    0  501    0  0.00000000000E+00  0.00000000000E+00 -0.65148899018E+03  0.65148899018E+03  0.25500000920E-02 0. -1.
    10030    2    1    2    0    0  0.00000000000E+00  0.00000000000E+00  0.46645725194E+02  0.13496237056E+04  0.13488173794E+04 0.  0.
        4    1    3    3  502    0 -0.40115631247E+03 -0.36102571613E+03 -0.38134382007E+03  0.66082575369E+03  0.12699999809E+01 0. -1.
       -4    1    3    3    0  502  0.40115631247E+03  0.36102571613E+03  0.42798954526E+03  0.68879795187E+03  0.12699999809E+01 0.  1.
</event>
<event>
 5   0  0.8191876E-04  0.1507561E+04  0.7818609E-02  0.8879440E-01
       -1   -1    0    0    0  501  0.00000000000E+00  0.00000000000E+00  0.42371008482E+03  0.42371008485E+03  0.50400001928E-02 0.  1.
        1   -1    0    0  501    0  0.00000000000E+00  0.00000000000E+00 -0.13409767236E+04  0.13409767236E+04  0.50400001928E-02 0. -1.
    10030    2    1    2    0    0  0.00000000000E+00  0.00000000000E+00 -0.91726663874E+03  0.17646868084E+04  0.15075614234E+04 0.  0.
        2    1    3    3  502    0  0.48842655974E+03 -0.12262597981E+03  0.19791018739E+03  0.54107862411E+03  0.25500000920E-02 0.  1.
       -2    1    3    3    0  502 -0.48842655974E+03  0.12262597981E+03 -0.11151768261E+04  0.12236081843E+04  0.25500000920E-02 0. -1.
</event>
<event>
 5   0  0.8306301E-04  0.1310659E+04  0.7818609E-02  0.9021155E-01
       -1   -1    0    0    0  501  0.00000000000E+00  0.00000000000E+00  0.40480102271E+03  0.40480102274E+03  0.50400001928E-02 0. -1.
        1   -1    0    0  501    0  0.00000000000E+00  0.00000000000E+00 -0.10609084781E+04  0.10609084781E+04  0.50400001928E-02 0.  1.
    10030    2    1    2    0    0  0.00000000000E+00  0.00000000000E+00 -0.65610745535E+03  0.14657095008E+04  0.13106591272E+04 0.  0.
        4    1    3    3  502    0 -0.56848317936E+03 -0.32191738330E+03 -0.38563580787E+03  0.75863068491E+03  0.12699999809E+01 0.  1.
       -4    1    3    3    0  502  0.56848317936E+03  0.32191738330E+03 -0.27047164748E+03  0.70707881589E+03  0.12699999809E+01 0. -1.
</event>
<event>
 5   0  0.1500956E-03  0.1491440E+04  0.7818609E-02  0.8890165E-01
        2   -1    0    0  501    0  0.00000000000E+00  0.00000000000E+00  0.23285511989E+04  0.23285511989E+04  0.25500000920E-02 0. -1.
       -2   -1    0    0    0  501  0.00000000000E+00  0.00000000000E+00 -0.23881721696E+03  0.23881721697E+03  0.25500000920E-02 0.  1.
    10030    2    1    2    0    0  0.00000000000E+00  0.00000000000E+00  0.20897339819E+04  0.25673684159E+04  0.14914397298E+04 0.  0.
        4    1    3    3  502    0  0.32750035752E+03  0.21153449717E+03  0.21391338457E+04  0.21743731397E+04  0.12699999809E+01 0. -1.
       -4    1    3    3    0  502 -0.32750035752E+03 -0.21153449717E+03 -0.49399863792E+02  0.39299527620E+03  0.12699999809E+01 0.  1.
</event>
<event>
 5   0  0.1484056E-03  0.1517015E+04  0.7818609E-02  0.8873216E-01
       -2   -1    0    0    0  501  0.00000000000E+00  0.00000000000E+00  0.71473357336E+03  0.71473357337E+03  0.25500000920E-02 0. -1.
        2   -1    0    0  501    0  0.00000000000E+00  0.00000000000E+00 -0.80496229107E+03  0.80496229107E+03  0.25500000920E-02 0.  1.
    10030    2    1    2    0    0  0.00000000000E+00  0.00000000000E+00 -0.90228717705E+02  0.15196958644E+04  0.15170149303E+04 0.  0.
        5    1    3    3  502    0  0.70775365029E+03  0.26878823300E+03 -0.91555115147E+02  0.76260525359E+03  0.46999998093E+01 0. -1.
       -5    1    3    3    0  502 -0.70775365029E+03 -0.26878823300E+03  0.13263974423E+01  0.75709061084E+03  0.46999998093E+01 0.  1.
</event>
<event>
 5   0  0.8306301E-04  0.1486279E+04  0.7818609E-02  0.8893629E-01
        1   -1    0    0  501    0  0.00000000000E+00  0.00000000000E+00  0.95222694433E+03  0.95222694435E+03  0.50400001928E-02 0.  1.
       -1   -1    0    0    0  501  0.00000000000E+00  0.00000000000E+00 -0.57996264782E+03  0.57996264785E+03  0.50400001928E-02 0. -1.
    10030    2    1    2    0    0  0.00000000000E+00  0.00000000000E+00  0.37226429651E+03  0.15321895922E+04  0.14862786549E+04 0.  0.
        4    1    3    3  502    0  0.70106246298E+03 -0.24641582028E+03  0.17920800490E+03  0.76441249035E+03  0.12699999809E+01 0. -1.
       -4    1    3    3    0  502 -0.70106246298E+03  0.24641582028E+03  0.19305629161E+03  0.76777710184E+03  0.12699999809E+01 0.  1.
</event>
<event>
 5   0  0.1500956E-03  0.1487259E+04  0.7818609E-02  0.8892970E-01
       -2   -1    0    0    0  501  0.00000000000E+00  0.00000000000E+00  0.49762861664E+03  0.49762861665E+03  0.25500000920E-02 0. -1.
        2   -1    0    0  501    0  0.00000000000E+00  0.00000000000E+00 -0.11112402171E+04  0.11112402171E+04  0.25500000920E-02 0.  1.
    10030    2    1    2    0    0  0.00000000000E+00  0.00000000000E+00 -0.61361160043E+03  0.16088688337E+04  0.14872591327E+04 0.  0.
        4    1    3    3  502    0 -0.43494125470E+03 -0.36636016639E+03 -0.82514034028E+03  0.10021236753E+04  0.12699999809E+01 0.  1.
       -4    1    3    3    0  502  0.43494125470E+03  0.36636016639E+03  0.21152873986E+03  0.60674515840E+03  0.12699999809E+01 0. -1.
</event>
<event>
 5   0  0.1552067E-03  0.1538387E+04  0.7818609E-02  0.8859320E-01
        2   -1    0    0  501    0  0.00000000000E+00  0.00000000000E+00  0.12533736011E+04  0.12533736011E+04  0.25500000920E-02 0.  1.
       -2   -1    0    0    0  501  0.00000000000E+00  0.00000000000E+00 -0.47205267137E+03  0.47205267137E+03  0.25500000920E-02 0. -1.
    10030    2    1    2    0    0  0.00000000000E+00  0.00000000000E+00  0.78132092971E+03  0.17254262724E+04  0.15383866310E+04 0.  0.
        3    1    3    3  502    0 -0.69950042903E+03  0.21462693681E+03  0.65676803869E+03  0.98321403523E+03  0.10100000352E+00 0.  1.
       -3    1    3    3    0  502  0.69950042903E+03 -0.21462693681E+03  0.12455289102E+03  0.74221223722E+03  0.10100000352E+00 0. -1.
</event>
<event>
 5   0  0.8058234E-04  0.1595041E+04  0.7818609E-02  0.8823601E-01
       -1   -1    0    0    0  501  0.00000000000E+00  0.00000000000E+00  0.18191147453E+04  0.18191147453E+04  0.50400001928E-02 0.  1.
        1   -1    0    0  501    0  0.00000000000E+00  0.00000000000E+00 -0.34964181996E+03  0.34964182000E+03  0.50400001928E-02 0. -1.
    10030    2    1    2    0    0  0.00000000000E+00  0.00000000000E+00  0.14694729253E+04  0.21687565653E+04  0.15950405516E+04 0.  0.
        5    1    3    3  502    0  0.29696156880E+03 -0.23642380437E+03 -0.21892129778E+03  0.43821343343E+03  0.46999998093E+01 0. -1.
       -5    1    3    3    0  502 -0.29696156880E+03  0.23642380437E+03  0.16883942231E+04  0.17305431319E+04  0.46999998093E+01 0.  1.
</event>
<event>
 5   0  0.1526126E-03  0.1495396E+04  0.7818609E-02  0.8887520E-01
       -2   -1    0    0    0  501  0.00000000000E+00  0.00000000000E+00  0.11004542815E+04  0.11004542816E+04  0.25500000920E-02 0.  1.
        2   -1    0    0  501    0  0.00000000000E+00  0.00000000000E+00 -0.50801943416E+03  0.50801943417E+03  0.25500000920E-02 0. -1.
    10030    2    1    2    0    0  0.00000000000E+00  0.00000000000E+00  0.59243484739E+03  0.16084737157E+04  0.14953958157E+04 0.  0.
        2    1    3    3  502    0 -0.19559511687E+02  0.47647603953E+03  0.91564619309E+03  0.10323855586E+04  0.25500000920E-02 0.  1.
       -2    1    3    3    0  502  0.19559511687E+02 -0.47647603953E+03 -0.32321134570E+03  0.57608815709E+03  0.25500000920E-02 0. -1.
</event>
<event>
 5   0  0.5603875E-04  0.1489267E+04  0.7818609E-02  0.8891622E-01
        3   -1    0    0  501    0  0.00000000000E+00  0.00000000000E+00  0.11181298295E+04  0.11181298340E+04  0.10100000352E+00 0.  1.
       -3   -1    0    0    0  501  0.00000000000E+00  0.00000000000E+00 -0.49589885346E+03  0.49589886374E+03  0.10100000352E+00 0. -1.
    10030    2    1    2    0    0  0.00000000000E+00  0.00000000000E+00  0.62223097600E+03  0.16140286978E+04  0.14892673533E+04 0.  0.
        2    1    3    3  502    0  0.79540695321E+02  0.13783201816E+03  0.10994853330E+04  0.11109421160E+04  0.25500000920E-02 0.  1.
       -2    1    3    3    0  502 -0.79540695321E+02 -0.13783201816E+03 -0.47725435705E+03  0.50308658179E+03  0.25500000920E-02 0. -1.
</event>
<event>
 5   0  0.1526126E-03  0.1469980E+04  0.7818609E-02  0.8904665E-01
       -2   -1    0    0    0  501  0.00000000000E+00  0.00000000000E+00  0.59992914447E+03  0.59992914448E+03  0.25500000920E-02 0. -1.
        2   -1    0    0  501    0  0.00000000000E+00  0.00000000000E+00 -0.90045729100E+03  0.90045729101E+03  0.25500000920E-02 0.  1.
    10030    2    1    2    0    0  0.00000000000E+00  0.00000000000E+00 -0.30052814653E+03  0.15003864355E+04  0.14699803703E+04 0.  0.
        2    1    3    3  502    0  0.54476534045E+03  0.49178156357E+03 -0.10953645496E+03  0.74203545561E+03  0.25500000920E-02 0. -1.
       -2    1    3    3    0  502 -0.54476534045E+03 -0.49178156357E+03 -0.19099169157E+03  0.75835097987E+03  0.25500000920E-02 0.  1.
</event>
<event>
 5   0  0.8365016E-04  0.1467826E+04  0.7818609E-02  0.8906135E-01
        1   -1    0    0  501    0  0.00000000000E+00  0.00000000000E+00  0.12031545926E+04  0.12031545926E+04  0.50400001928E-02 0. -1.
       -1   -1    0    0    0  501  0.00000000000E+00  0.00000000000E+00 -0.44768020560E+03  0.44768020563E+03  0.50400001928E-02 0.  1.
    10030    2    1    2    0    0  0.00000000000E+00  0.00000000000E+00  0.75547438700E+03  0.16508347982E+04  0.14678262778E+04 0.  0.
        3    1    3    3  502    0  0.48827731630E+03 -0.52774270587E+03  0.54341818025E+03  0.90123827595E+03  0.10100000352E+00 0. -1.
       -3    1    3    3    0  502 -0.48827731630E+03  0.52774270587E+03  0.21205620674E+03  0.74959652229E+03  0.10100000352E+00 0.  1.
</event>
<event>
 5   0  0.1552067E-03  0.1546395E+04  0.7818609E-02  0.8854174E-01
        2   -1    0    0  501    0  0.00000000000E+00  0.00000000000E+00  0.17031565281E+04  0.17031565281E+04  0.25500000920E-02 0.  1.
       -2   -1    0    0    0  501  0.00000000000E+00  0.00000000000E+00 -0.35101554588E+03  0.35101554589E+03  0.25500000920E-02 0. -1.
    10030    2    1    2    0    0  0.00000000000E+00  0.00000000000E+00  0.13521409822E+04  0.20541720740E+04  0.15463950575E+04 0.  0.
        3    1    3    3  502    0 -0.40688551686E+03 -0.65694576159E+03  0.64090399175E+03  0.10039379933E+04  0.10100000352E+00 0.  1.
       -3    1    3    3    0  502  0.40688551686E+03  0.65694576159E+03  0.71123699049E+03  0.10502340807E+04  0.10100000352E+00 0. -1.
</event>
<event>
 5   0  0.8306301E-04  0.1498306E+04  0.7818609E-02  0.8885580E-01
        1   -1    0    0  501    0  0.00000000000E+00  0.00000000000E+00  0.10956607978E+04  0.10956607978E+04  0.50400001928E-02 0.  1.
       -1   -1    0    0    0  501  0.00000000000E+00  0.00000000000E+00 -0.51222963843E+03  0.51222963846E+03  0.50400001928E-02 0. -1.
    10030    2    1    2    0    0  0.00000000000E+00  0.00000000000E+00  0.58343115932E+03  0.16078904362E+04  0.14983056221E+04 0.  0.
        4    1    3    3  502    0  0.14501439208E+03  0.61289503496E+03  0.72704360807E+03  0.96190619019E+03  0.12699999809E+01 0.  1.
       -4    1    3    3    0  502 -0.14501439208E+03 -0.61289503496E+03 -0.14361244875E+03  0.64598424603E+03  0.12699999809E+01 0. -1.
</event>
<event>
 5   0  0.7870317E-04  0.1666152E+04  0.7818609E-02  0.8780908E-01
        1   -1    0    0  501    0  0.00000000000E+00  0.00000000000E+00  0.11277160319E+04  0.11277160319E+04  0.50400001928E-02 0.  1.
       -1   -1    0    0    0  501  0.00000000000E+00  0.00000000000E+00 -0.61541705713E+03  0.61541705715E+03  0.50400001928E-02 0. -1.
    10030    2    1    2    0    0  0.00000000000E+00  0.00000000000E+00  0.51229897481E+03  0.17431330891E+04  0.16661520719E+04 0.  0.
        1    1    3    3  502    0 -0.61964770477E+03  0.19746333167E+02  0.83833340934E+03  0.10426677807E+04  0.50400001928E-02 0.  1.
       -1    1    3    3    0  502  0.61964770477E+03 -0.19746333167E+02 -0.32603443454E+03  0.70046530837E+03  0.50400001928E-02 0. -1.
</event>
<event>
 5   0  0.1526126E-03  0.1512048E+04  0.7818609E-02  0.8876480E-01
        2   -1    0    0  501    0  0.00000000000E+00  0.00000000000E+00  0.21288721459E+04  0.21288721459E+04  0.25500000920E-02 0. -1.
       -2   -1    0    0    0  501  0.00000000000E+00  0.00000000000E+00 -0.26848597451E+03  0.26848597452E+03  0.25500000920E-02 0.  1.
    10030    2    1    2    0    0  0.00000000000E+00  0.00000000000E+00  0.18603861714E+04  0.23973581204E+04  0.15120480319E+04 0.  0.
        2    1    3    3  502    0  0.27113824665E+03  0.71551306402E+02 -0.18298061301E+03  0.33483942866E+03  0.25500000920E-02 0.  1.
       -2    1    3    3    0  502 -0.27113824665E+03 -0.71551306402E+02  0.20433667844E+04  0.20625186917E+04  0.25500000920E-02 0. -1.
</event>
<event>
 5   0  0.8365016E-04  0.1467887E+04  0.7818609E-02  0.8906093E-01
       -1   -1    0    0    0  501  0.00000000000E+00  0.00000000000E+00  0.49125723575E+03  0.49125723578E+03  0.50400001928E-02 0.  1.
        1   -1    0    0  501    0  0.00000000000E+00  0.00000000000E+00 -0.10965199583E+04  0.10965199584E+04  0.50400001928E-02 0. -1.
    10030    2    1    2    0    0  0.00000000000E+00  0.00000000000E+00 -0.60526272259E+03  0.15877771941E+04  0.14678874122E+04 0.  0.
        3    1    3    3  502    0 -0.27268225665E+03 -0.61604718321E+03  0.12363870408E+02  0.67381200682E+03  0.10100000352E+00 0.  1.
       -3    1    3    3    0  502  0.27268225665E+03  0.61604718321E+03 -0.61762659300E+03  0.91396518731E+03  0.10100000352E+00 0. -1.
</event>
<event>
 5   0  0.1500956E-03  0.1496742E+04  0.7818609E-02  0.8886622E-01
        2   -1    0    0  501    0  0.00000000000E+00  0.00000000000E+00  0.16563028310E+04  0.16563028310E+04  0.25500000920E-02 0.  1.
       -2   -1    0    0    0  501  0.00000000000E+00  0.00000000000E+00 -0.33813805436E+03  0.33813805437E+03  0.25500000920E-02 0. -1.
    10030    2    1    2    0    0  0.00000000000E+00  0.00000000000E+00  0.13181647766E+04  0.19944408854E+04  0.14967418170E+04 0.  0.
        4    1    3    3  502    0 -0.38909360848E+03  0.28919606261E+03 -0.10060596586E+03  0.49512763208E+03  0.12699999809E+01 0. -1.
       -4    1    3    3    0  502  0.38909360848E+03 -0.28919606261E+03  0.14187707425E+04  0.14993132533E+04  0.12699999809E+01 0.  1.
</event>
<event>
 5   0  0.1552067E-03  0.1407509E+04  0.7818609E-02  0.8948401E-01
       -2   -1    0    0    0  501  0.00000000000E+00  0.00000000000E+00  0.37296953264E+03  0.37296953265E+03  0.25500000920E-02 0. -1.
        2   -1    0    0  501    0  0.00000000000E+00  0.00000000000E+00 -0.13279111885E+04  0.13279111885E+04  0.25500000920E-02 0.  1.
    10030    2    1    2    0    0  0.00000000000E+00  0.00000000000E+00 -0.95494165584E+03  0.17008807211E+04  0.14075090271E+04 0.  0.
        3    1    3    3  502    0  0.61654262631E+03  0.27829394447E+03 -0.71210013614E+03  0.98217052678E+03  0.10100000352E+00 0. -1.
       -3    1    3    3    0  502 -0.61654262631E+03 -0.27829394447E+03 -0.24284151971E+03  0.71871019436E+03  0.10100000352E+00 0.  1.
</event>
<event>
 5   0  0.1484056E-03  0.1519922E+04  0.7818609E-02  0.8871312E-01
        2   -1    0    0  501    0  0.00000000000E+00  0.00000000000E+00  0.17653672107E+04  0.17653672107E+04  0.25500000920E-02 0. -1.
       -2   -1    0    0    0  501  0.00000000000E+00  0.00000000000E+00 -0.32715054311E+03  0.32715054312E+03  0.25500000920E-02 0.  1.
    10030    2    1    2    0    0  0.00000000000E+00  0.00000000000E+00  0.14382166676E+04  0.20925177538E+04  0.15199221582E+04 0.  0.
        5    1    3    3  502    0  0.52146857618E+03 -0.87002455953E+02  0.14706800012E+04  0.15628245772E+04  0.46999998093E+01 0. -1.
       -5    1    3    3    0  502 -0.52146857618E+03  0.87002455953E+02 -0.32463333620E+02  0.52969317658E+03  0.46999998093E+01 0.  1.
</event>
<event>
 5   0  0.8306301E-04  0.1501509E+04  0.7818609E-02  0.8883450E-01
        1   -1    0    0  501    0  0.00000000000E+00  0.00000000000E+00  0.88953613924E+03  0.88953613926E+03  0.50400001928E-02 0. -1.
       -1   -1    0    0    0  501  0.00000000000E+00  0.00000000000E+00 -0.63362527433E+03  0.63362527435E+03  0.50400001928E-02 0.  1.
    10030    2    1    2    0    0  0.00000000000E+00  0.00000000000E+00  0.25591086491E+03  0.15231614136E+04  0.15015093477E+04 0.  0.
        4    1    3    3  502    0  0.18485683963E+03  0.32776345945E+03 -0.53105086804E+03  0.65085910446E+03  0.12699999809E+01 0.  1.
       -4    1    3    3    0  502 -0.18485683963E+03 -0.32776345945E+03  0.78696173295E+03  0.87230230915E+03  0.12699999809E+01 0. -1.
</event>
<event>
 5   0  0.8365016E-04  0.1501306E+04  0.7818609E-02  0.8883585E-01
       -1   -1    0    0    0  501  0.00000000000E+00  0.00000000000E+00  0.11374351715E+04  0.11374351715E+04  0.50400001928E-02 0. -1.
        1   -1    0    0  501    0  0.00000000000E+00  0.00000000000E+00 -0.49539549273E+03  0.49539549276E+03  0.50400001928E-02 0.  1.
    10030    2    1    2    0    0  0.00000000000E+00  0.00000000000E+00  0.64203967878E+03  0.16328306643E+04  0.15013064408E+04 0.  0.
        3    1    3    3  502    0 -0.41591401908E+02 -0.43961277207E+02 -0.49273794280E+03  0.49644045875E+03  0.10100000352E+00 0.  1.
       -3    1    3    3    0  502  0.41591401908E+02  0.43961277207E+02  0.11347776216E+04  0.11363902055E+04  0.10100000352E+00 0. -1.
</event>
<event>
 5   0  0.8058234E-04  0.1506670E+04  0.7818609E-02  0.8880029E-01
       -1   -1    0    0    0  501  0.00000000000E+00  0.00000000000E+00  0.55876877359E+03  0.55876877361E+03  0.50400001928E-02 0. -1.
        1   -1    0    0  501    0  0.00000000000E+00  0.00000000000E+00 -0.10156508462E+04  0.10156508462E+04  0.50400001928E-02 0.  1.
    10030    2    1    2    0    0  0.00000000000E+00  0.00000000000E+00 -0.45688207263E+03  0.15744196198E+04  0.15066704719E+04 0.  0.
        5    1    3    3  502    0  0.37817513643E+03 -0.53362611010E+03 -0.61903845892E+03  0.90055758440E+03  0.46999998093E+01 0.  1.
       -5    1    3    3    0  502 -0.37817513643E+03  0.53362611010E+03  0.16215638629E+03  0.67386203544E+03  0.46999998093E+01 0. -1.
</event>
<event>
 5   0  0.1500956E-03  0.1514255E+04  0.7818609E-02  0.8875028E-01
        2   -1    0    0  501    0  0.00000000000E+00  0.00000000000E+00  0.67272655241E+03  0.67272655242E+03  0.25500000920E-02 0. -1.
       -2   -1    0    0    0  501  0.00000000000E+00  0.00000000000E+00 -0.85211795397E+03  0.85211795398E+03  0.25500000920E-02 0.  1.
    10030    2    1    2    0    0  0.00000000000E+00  0.00000000000E+00 -0.17939140156E+03  0.15248445064E+04  0.15142554255E+04 0.  0.
        4    1    3    3  502    0 -0.70217810213E+03  0.27841931815E+03 -0.37668587871E+02  0.75630148701E+03  0.12699999809E+01 0. -1.
       -4    1    3    3    0  502  0.70217810213E+03 -0.27841931815E+03 -0.14172281369E+03  0.76854301939E+03  0.12699999809E+01 0.  1.
</event>
<event>
 5   0  0.1511546E-03  0.1531692E+04  0.7818609E-02  0.8863647E-01
        2   -1    0    0  501    0  0.00000000000E+00  0.00000000000E+00  0.10620176632E+04  0.10620176632E+04  0.25500000920E-02 0.  1.
       -2   -1    0    0    0  501  0.00000000000E+00  0.00000000000E+00 -0.55226950468E+03  0.55226950468E+03  0.25500000920E-02 0. -1.
    10030    2    1    2    0    0  0.00000000000E+00  0.00000000000E+00  0.50974815853E+03  0.16142871679E+04  0.15316918343E+04 0.  0.
        1    1    3    3  502    0  0.38066659528E+03 -0.54226133750E+02  0.95291289310E+03  0.10275653323E+04  0.50400001928E-02 0.  1.
       -1    1    3    3    0  502 -0.38066659528E+03  0.54226133750E+02 -0.44316473457E+03  0.58672183557E+03  0.50400001928E-02 0. -1.
</event>
<event>
 5   0  0.1484056E-03  0.1509570E+04  0.7818609E-02  0.8878114E-01
        2   -1    0    0  501    0  0.00000000000E+00  0.00000000000E+00  0.11365609755E+04  0.11365609755E+04  0.25500000920E-02 0.  1.
       -2   -1    0    0    0  501  0.00000000000E+00  0.00000000000E+00 -0.50124931386E+03  0.50124931386E+03  0.25500000920E-02 0. -1.
    10030    2    1    2    0    0  0.00000000000E+00  0.00000000000E+00  0.63531166165E+03  0.16378102894E+04  0.15095700171E+04 0.  0.
        5    1    3    3  502    0  0.73764402112E+03  0.15630787080E+03  0.35408608578E+03  0.83303655292E+03  0.46999998093E+01 0.  1.
       -5    1    3    3    0  502 -0.73764402112E+03 -0.15630787080E+03  0.28122557587E+03  0.80477373645E+03  0.46999998093E+01 0. -1.
</event>
<event>
 5   0  0.1500956E-03  0.1486829E+04  0.7818609E-02  0.8893259E-01
       -2   -1    0    0    0  501  0.00000000000E+00  0.00000000000E+00  0.57235913819E+03  0.57235913820E+03  0.25500000920E-02 0. -1.
        2   -1    0    0  501    0  0.00000000000E+00  0.00000000000E+00 -0.96559160095E+03  0.96559160095E+03  0.25500000920E-02 0.  1.
    10030    2    1    2    0    0  0.00000000000E+00  0.00000000000E+00 -0.39323246276E+03  0.15379507391E+04  0.14868290777E+04 0.  0.
        4    1    3    3  502    0 -0.26630332369E+01  0.58009037759E+03  0.28429025233E+03  0.64601431748E+03  0.12699999809E+01 0. -1.
       -4    1    3    3    0  502  0.26630332369E+01 -0.58009037759E+03 -0.67752271509E+03  0.89193642166E+03  0.12699999809E+01 0.  1.
</event>
<event>
 5   0  0.1526126E-03  0.1433164E+04  0.7818609E-02  0.8930157E-01
       -2   -1    0    0    0  501  0.00000000000E+00  0.00000000000E+00  0.58141978390E+03  0.58141978390E+03  0.25500000920E-02 0.  1.
        2   -1    0    0  501    0  0.00000000000E+00  0.00000000000E+00 -0.88316474880E+03  0.88316474880E+03  0.25500000920E-02 0. -1.
    10030    2    1    2    0    0  0.00000000000E+00  0.00000000000E+00 -0.30174496490E+03  0.14645845327E+04  0.14331635739E+04 0.  0.
        2    1    3    3  502    0 -0.15628203479E+03 -0.60187430243E+03  0.21304261123E+03  0.65731568103E+03  0.25500000920E-02 0.  1.
       -2    1    3    3    0  502  0.15628203479E+03  0.60187430243E+03 -0.51478757613E+03  0.80726885167E+03  0.25500000920E-02 0. -1.
</event>
<event>
 5   0  0.1484056E-03  0.1503935E+04  0.7818609E-02  0.8881841E-01
        2   -1    0    0  501    0  0.00000000000E+00  0.00000000000E+00  0.55461291795E+03  0.55461291795E+03  0.25500000920E-02 0.  1.
       -2   -1    0    0    0  501  0.00000000000E+00  0.00000000000E+00 -0.10195486639E+04  0.10195486639E+04  0.25500000920E-02 0. -1.
    10030    2    1    2    0    0  0.00000000000E+00  0.00000000000E+00 -0.46493574598E+03  0.15741615819E+04  0.15039346522E+04 0.  0.
        5    1    3    3  502    0  0.94434706177E+02 -0.55019262994E+03  0.29484534171E+03  0.63133644699E+03  0.46999998093E+01 0.  1.
       -5    1    3    3    0  502 -0.94434706177E+02  0.55019262994E+03 -0.75978108770E+03  0.94282513489E+03  0.46999998093E+01 0. -1.
</event>
<event>
 5   0  0.1484056E-03  0.1498320E+04  0.7818609E-02  0.8885571E-01
       -2   -1    0    0    0  501  0.00000000000E+00  0.00000000000E+00  0.29043187078E+03  0.29043187079E+03  0.25500000920E-02 0. -1.
        2   -1    0    0  501    0  0.00000000000E+00  0.00000000000E+00 -0.19324339543E+04  0.19324339543E+04  0.25500000920E-02 0.  1.
    10030    2    1    2    0    0  0.00000000000E+00  0.00000000000E+00 -0.16420020835E+04  0.22228658251E+04  0.14983196034E+04 0.  0.
        5    1    3    3  502    0  0.55257649972E+03 -0.28697586785E+03 -0.14389982843E+04  0.15679394405E+04  0.46999998093E+01 0.  1.
       -5    1    3    3    0  502 -0.55257649972E+03  0.28697586785E+03 -0.20300379923E+03  0.65492638462E+03  0.46999998093E+01 0. -1.
</event>
<event>
 5   0  0.8191876E-04  0.1504118E+04  0.7818609E-02  0.8881719E-01
        1   -1    0    0  501    0  0.00000000000E+00  0.00000000000E+00  0.88414762531E+03  0.88414762532E+03  0.50400001928E-02 0.  1.
       -1   -1    0    0    0  501  0.00000000000E+00  0.00000000000E+00 -0.63970375948E+03  0.63970375950E+03  0.50400001928E-02 0. -1.
    10030    2    1    2    0    0  0.00000000000E+00  0.00000000000E+00  0.24444386583E+03  0.15238513848E+04  0.15041177612E+04 0.  0.
        2    1    3    3  502    0  0.10151534723E+03  0.63705645756E+03 -0.26943273388E+03  0.69909963091E+03  0.25500000920E-02 0. -1.
       -2    1    3    3    0  502 -0.10151534723E+03 -0.63705645756E+03  0.51387659971E+03  0.82475175391E+03  0.25500000920E-02 0.  1.
</event>
<event>
 5   0  0.8191876E-04  0.1499114E+04  0.7818609E-02  0.8885042E-01
       -1   -1    0    0    0  501  0.00000000000E+00  0.00000000000E+00  0.48730023016E+03  0.48730023018E+03  0.50400001928E-02 0. -1.
        1   -1    0    0  501    0  0.00000000000E+00  0.00000000000E+00 -0.11529558796E+04  0.11529558796E+04  0.50400001928E-02 0.  1.
    10030    2    1    2    0    0  0.00000000000E+00  0.00000000000E+00 -0.66565564945E+03  0.16402561098E+04  0.14991139590E+04 0.  0.
        2    1    3    3  502    0 -0.53823136949E+03  0.52149711937E+03 -0.34764590531E+03  0.82614159083E+03  0.25500000920E-02 0. -1.
       -2    1    3    3    0  502  0.53823136949E+03 -0.52149711937E+03 -0.31800974414E+03  0.81411451897E+03  0.25500000920E-02 0.  1.
</event>
<event>
 5   0  0.5603875E-04  0.1509515E+04  0.7818609E-02  0.8878150E-01
       -4   -1    0    0    0  501  0.00000000000E+00  0.00000000000E+00  0.74066392265E+03  0.74066501147E+03  0.12699999809E+01 0. -1.
        4   -1    0    0  501    0  0.00000000000E+00  0.00000000000E+00 -0.76911694941E+03  0.76911799795E+03  0.12699999809E+01 0.  1.
    10030    2    1    2    0    0  0.00000000000E+00  0.00000000000E+00 -0.28453026755E+02  0.15097830094E+04  0.15095148760E+04 0.  0.
        5    1    3    3  502    0 -0.67113358848E+03 -0.33701192823E+03 -0.89335570425E+02  0.75630699289E+03  0.46999998093E+01 0. -1.
       -5    1    3    3    0  502  0.67113358848E+03  0.33701192823E+03  0.60882543670E+02  0.75347601653E+03  0.46999998093E+01 0.  1.
</event>
<event>
 5   0  0.8058234E-04  0.1491110E+04  0.7818609E-02  0.8890386E-01
        1   -1    0    0  501    0  0.00000000000E+00  0.00000000000E+00  0.14420189441E+04  0.14420189441E+04  0.50400001928E-02 0. -1.
       -1   -1    0    0    0  501  0.00000000000E+00  0.00000000000E+00 -0.38546794083E+03  0.38546794086E+03  0.50400001928E-02 0.  1.
    10030    2    1    2    0    0  0.00000000000E+00  0.00000000000E+00  0.10565510033E+04  0.18274868850E+04  0.14911097519E+04 0.  0.
        5    1    3    3  502    0 -0.99295584737E+02  0.73445123996E+03  0.62747813163E+03  0.97109687091E+03  0.46999998093E+01 0. -1.
       -5    1    3    3    0  502  0.99295584737E+02 -0.73445123996E+03  0.42907287167E+03  0.85639001409E+03  0.46999998093E+01 0.  1.
</event>
<event>
 5   0  0.1552067E-03  0.1492428E+04  0.7818609E-02  0.8889504E-01
        2   -1    0    0  501    0  0.00000000000E+00  0.00000000000E+00  0.89323811533E+03  0.89323811533E+03  0.25500000920E-02 0. -1.
       -2   -1    0    0    0  501  0.00000000000E+00  0.00000000000E+00 -0.62338936767E+03  0.62338936767E+03  0.25500000920E-02 0.  1.
    10030    2    1    2    0    0  0.00000000000E+00  0.00000000000E+00  0.26984874766E+03  0.15166274830E+04  0.14924277455E+04 0.  0.
        3    1    3    3  502    0  0.56931078964E+02 -0.72059527583E+03 -0.53381212732E+02  0.72480912202E+03  0.10100000352E+00 0.  1.
       -3    1    3    3    0  502 -0.56931078964E+02  0.72059527583E+03  0.32322996039E+03  0.79181836098E+03  0.10100000352E+00 0. -1.
</event>
<event>
 5   0  0.7870317E-04  0.1513947E+04  0.7818609E-02  0.8875231E-01
       -1   -1    0    0    0  501  0.00000000000E+00  0.00000000000E+00  0.35145020684E+03  0.35145020688E+03  0.50400001928E-02 0.  1.
        1   -1    0    0  501    0  0.00000000000E+00  0.00000000000E+00 -0.16304127118E+04  0.16304127118E+04  0.50400001928E-02 0. -1.
    10030    2    1    2    0    0  0.00000000000E+00  0.00000000000E+00 -0.12789625050E+04  0.19818629187E+04  0.15139470068E+04 0.  0.
        1    1    3    3  502    0  0.30801763107E+03  0.12546805815E+03 -0.15296410895E+04  0.15653814096E+04  0.50400001928E-02 0. -1.
       -1    1    3    3    0  502 -0.30801763107E+03 -0.12546805815E+03  0.25067858455E+03  0.41648150912E+03  0.50400001928E-02 0.  1.
</event>
<event>
 5   0  0.8191876E-04  0.1685762E+04  0.7818609E-02  0.8769527E-01
       -1   -1    0    0    0  501  0.00000000000E+00  0.00000000000E+00  0.79154463678E+03  0.79154463680E+03  0.50400001928E-02 0.  1.
        1   -1    0    0  501    0  0.00000000000E+00  0.00000000000E+00 -0.89754673628E+03  0.89754673629E+03  0.50400001928E-02 0. -1.
    10030    2    1    2    0    0  0.00000000000E+00  0.00000000000E+00 -0.10600209950E+03  0.16890913731E+04  0.16857619113E+04 0.  0.
        2    1    3    3  502    0  0.44878523655E+03  0.68079667465E+03 -0.26686112777E+03  0.85796687715E+03  0.25500000920E-02 0. -1.
       -2    1    3    3    0  502 -0.44878523655E+03 -0.68079667465E+03  0.16085902827E+03  0.83112449594E+03  0.25500000920E-02 0.  1.
</event>
<event>
 5   0  0.8058234E-04  0.1332706E+04  0.7818609E-02  0.9004023E-01
       -1   -1    0    0    0  501  0.00000000000E+00  0.00000000000E+00  0.14037332977E+03  0.14037332986E+03  0.50400001928E-02 0. -1.
        1   -1    0    0  501    0  0.00000000000E+00  0.00000000000E+00 -0.31631833794E+04  0.31631833794E+04  0.50400001928E-02 0.  1.
    10030    2    1    2    0    0  0.00000000000E+00  0.00000000000E+00 -0.30228100496E+04  0.33035567093E+04  0.13327063950E+04 0.  0.
        5    1    3    3  502    0 -0.14015820092E+02  0.27040939896E+03 -0.30206191100E+04  0.30327346709E+04  0.46999998093E+01 0.  1.
       -5    1    3    3    0  502  0.14015820092E+02 -0.27040939896E+03 -0.21909396313E+01  0.27082203838E+03  0.46999998093E+01 0. -1.
</event>
<event>
 5   0  0.1526126E-03  0.1760922E+04  0.7818609E-02  0.8727361E-01
       -2   -1    0    0    0  501  0.00000000000E+00  0.00000000000E+00  0.12094534355E+04  0.12094534355E+04  0.25500000920E-02 0.  1.
        2   -1    0    0  501    0  0.00000000000E+00  0.00000000000E+00 -0.64096011536E+03  0.64096011536E+03  0.25500000920E-02 0. -1.
    10030    2    1    2    0    0  0.00000000000E+00  0.00000000000E+00  0.56849332017E+03  0.18504135509E+04  0.17609218195E+04 0.  0.
        2    1    3    3  502    0 -0.60745185980E+03  0.38643563273E+03  0.81683891508E+03  0.10888324359E+04  0.25500000920E-02 0.  1.
       -2    1    3    3    0  502  0.60745185980E+03 -0.38643563273E+03 -0.24834559491E+03  0.76158111501E+03  0.25500000920E-02 0. -1.
</event>
<event>
 5   0  0.1500956E-03  0.1489776E+04  0.7818609E-02  0.8891280E-01
        2   -1    0    0  501    0  0.00000000000E+00  0.00000000000E+00  0.94398926209E+03  0.94398926210E+03  0.25500000920E-02 0.  1.
       -2   -1    0    0    0  501  0.00000000000E+00  0.00000000000E+00 -0.58778008844E+03  0.58778008844E+03  0.25500000920E-02 0. -1.
    10030    2    1    2    0    0  0.00000000000E+00  0.00000000000E+00  0.35620917366E+03  0.15317693505E+04  0.14897759455E+04 0.  0.
        4    1    3    3  502    0  0.57716071730E+03  0.20091900809E+03  0.61598889233E+03  0.86771358741E+03  0.12699999809E+01 0.  1.
       -4    1    3    3    0  502 -0.57716071730E+03 -0.20091900809E+03 -0.25977971867E+03  0.66405576313E+03  0.12699999809E+01 0. -1.
</event>
<event>
 5   0  0.8365016E-04  0.1469753E+04  0.7818609E-02  0.8904820E-01
        1   -1    0    0  501    0  0.00000000000E+00  0.00000000000E+00  0.26051331661E+04  0.26051331661E+04  0.50400001928E-02 0.  1.
       -1   -1    0    0    0  501  0.00000000000E+00  0.00000000000E+00 -0.20729965862E+03  0.20729965868E+03  0.50400001928E-02 0. -1.
    10030    2    1    2    0    0  0.00000000000E+00  0.00000000000E+00  0.23978335075E+04  0.28124328248E+04  0.14697526542E+04 0.  0.
        3    1    3    3  502    0 -0.29567446207E+03 -0.16578214303E+03 -0.48759463395E+02  0.34246839553E+03  0.10100000352E+00 0. -1.
       -3    1    3    3    0  502  0.29567446207E+03  0.16578214303E+03  0.24465929709E+04  0.24699644293E+04  0.10100000352E+00 0.  1.
</event>
<event>
 5   0  0.1526126E-03  0.1510697E+04  0.7818609E-02  0.8877371E-01
        2   -1    0    0  501    0  0.00000000000E+00  0.00000000000E+00  0.12536102456E+04  0.12536102456E+04  0.25500000920E-02 0.  1.
       -2   -1    0    0    0  501  0.00000000000E+00  0.00000000000E+00 -0.45512647941E+03  0.45512647942E+03  0.25500000920E-02 0. -1.
    10030    2    1    2    0    0  0.00000000000E+00  0.00000000000E+00  0.79848376617E+03  0.17087367250E+04  0.15106968162E+04 0.  0.
        2    1    3    3  502    0 -0.40077245055E+02 -0.72884177374E+01  0.12523669818E+04  0.12530292749E+04  0.25500000920E-02 0.  1.
       -2    1    3    3    0  502  0.40077245055E+02  0.72884177374E+01 -0.45388321566E+03  0.45570745009E+03  0.25500000920E-02 0. -1.
</event>
<event>
 5   0  0.8058234E-04  0.1390400E+04  0.7818609E-02  0.8960797E-01
        1   -1    0    0  501    0  0.00000000000E+00  0.00000000000E+00  0.99642206321E+03  0.99642206322E+03  0.50400001928E-02 0.  1.
       -1   -1    0    0    0  501  0.00000000000E+00  0.00000000000E+00 -0.48503860947E+03  0.48503860950E+03  0.50400001928E-02 0. -1.
    10030    2    1    2    0    0  0.00000000000E+00  0.00000000000E+00  0.51138345374E+03  0.14814606727E+04  0.13904001899E+04 0.  0.
        5    1    3    3  502    0  0.32474107850E+03  0.61462605531E+03  0.24749878487E+03  0.73790222553E+03  0.46999998093E+01 0.  1.
       -5    1    3    3    0  502 -0.32474107850E+03 -0.61462605531E+03  0.26388466886E+03  0.74355844719E+03  0.46999998093E+01 0. -1.
</event>
<event>
 5   0  0.8306301E-04  0.1481629E+04  0.7818609E-02  0.8896762E-01
        1   -1    0    0  501    0  0.00000000000E+00  0.00000000000E+00  0.25564578611E+04  0.25564578611E+04  0.50400001928E-02 0.  1.
       -1   -1    0    0    0  501  0.00000000000E+00  0.00000000000E+00 -0.21467447158E+03  0.21467447164E+03  0.50400001928E-02 0. -1.
    10030    2    1    2    0    0  0.00000000000E+00  0.00000000000E+00  0.23417833895E+04  0.27711323327E+04  0.14816291581E+04 0.  0.
        4    1    3    3  502    0  0.22561960004E+01  0.53497999552E+03  0.21293246853E+04  0.21955031119E+04  0.12699999809E+01 0.  1.
       -4    1    3    3    0  502 -0.22561960004E+01 -0.53497999552E+03  0.21245870427E+03  0.57562922089E+03  0.12699999809E+01 0. -1.
</event>
<event>
 5   0  0.8191876E-04  0.1481803E+04  0.7818609E-02  0.8896644E-01
        1   -1    0    0  501    0  0.00000000000E+00  0.00000000000E+00  0.12158307745E+04  0.12158307745E+04  0.50400001928E-02 0.  1.
       -1   -1    0    0    0  501  0.00000000000E+00  0.00000000000E+00 -0.45148988805E+03  0.45148988808E+03  0.50400001928E-02 0. -1.
    10030    2    1    2    0    0  0.00000000000E+00  0.00000000000E+00  0.76434088645E+03  0.16673206626E+04  0.14818033612E+04 0.  0.
        2    1    3    3  502    0  0.70543238421E+02 -0.70324147203E+03  0.63228425243E+03  0.94831866603E+03  0.25500000920E-02 0.  1.
       -2    1    3    3    0  502 -0.70543238421E+02  0.70324147203E+03  0.13205663402E+03  0.71900199656E+03  0.25500000920E-02 0. -1.
</event>
<event>
 5   0  0.8058234E-04  0.1512354E+04  0.7818609E-02  0.8876279E-01
        1   -1    0    0  501    0  0.00000000000E+00  0.00000000000E+00  0.16156457787E+04  0.16156457787E+04  0.50400001928E-02 0. -1.
       -1   -1    0    0    0  501  0.00000000000E+00  0.00000000000E+00 -0.35391668408E+03  0.35391668411E+03  0.50400001928E-02 0.  1.
    10030    2    1    2    0    0  0.00000000000E+00  0.00000000000E+00  0.12617290946E+04  0.19695624628E+04  0.15123544514E+04 0.  0.
        5    1    3    3  502    0 -0.87273055196E+02 -0.43604329920E+03 -0.16560705326E+03  0.47455045151E+03  0.46999998093E+01 0.  1.
       -5    1    3    3    0  502  0.87273055196E+02  0.43604329920E+03  0.14273361479E+04  0.14950120113E+04  0.46999998093E+01 0. -1.
</event>
<event>
 5   0  0.7870317E-04  0.1612424E+04  0.7818609E-02  0.8812952E-01
        1   -1    0    0  501    0  0.00000000000E+00  0.00000000000E+00  0.65040113833E+03  0.65040113835E+03  0.50400001928E-02 0.  1.
       -1   -1    0    0    0  501  0.00000000000E+00  0.00000000000E+00 -0.99934864112E+03  0.99934864113E+03  0.50400001928E-02 0. -1.
    10030    2    1    2    0    0  0.00000000000E+00  0.00000000000E+00 -0.34894750278E+03  0.16497497795E+04  0.16124236339E+04 0.  0.
        1    1    3    3  502    0  0.72299021602E+03 -0.53889176915E+02  0.18633480853E+03  0.74855831887E+03  0.50400001928E-02 0. -1.
       -1    1    3    3    0  502 -0.72299021602E+03  0.53889176915E+02 -0.53528231131E+03  0.90119146061E+03  0.50400001928E-02 0.  1.
</event>
<event>
 5   0  0.1552067E-03  0.1473167E+04  0.7818609E-02  0.8902495E-01
        2   -1    0    0  501    0  0.00000000000E+00  0.00000000000E+00  0.25540954423E+04  0.25540954423E+04  0.25500000920E-02 0. -1.
       -2   -1    0    0    0  501  0.00000000000E+00  0.00000000000E+00 -0.21242562927E+03  0.21242562928E+03  0.25500000920E-02 0.  1.
    10030    2    1    2    0    0  0.00000000000E+00  0.00000000000E+00  0.23416698131E+04  0.27665210716E+04  0.14731671074E+04 0.  0.
        3    1    3    3  502    0 -0.53989241968E+03 -0.20775106070E+02  0.21110063717E+04  0.21790510186E+04  0.10100000352E+00 0. -1.
       -3    1    3    3    0  502  0.53989241968E+03  0.20775106070E+02  0.23066344136E+03  0.58747005306E+03  0.10100000352E+00 0.  1.
</event>
<event>
 5   0  0.1552067E-03  0.1307585E+04  0.7818609E-02  0.9023572E-01
        2   -1    0    0  501    0  0.00000000000E+00  0.00000000000E+00  0.12390839013E+04  0.12390839013E+04  0.25500000920E-02 0.  1.
       -2   -1    0    0    0  501  0.00000000000E+00  0.00000000000E+00 -0.34496840040E+03  0.34496840041E+03  0.25500000920E-02 0. -1.
    10030    2    1    2    0    0  0.00000000000E+00  0.00000000000E+00  0.89411550093E+03  0.15840523017E+04  0.13075852422E+04 0.  0.
        3    1    3    3  502    0 -0.34970454674E+03 -0.37007774851E+03  0.94388421220E+03  0.10724589625E+04  0.10100000352E+00 0.  1.
       -3    1    3    3    0  502  0.34970454674E+03  0.37007774851E+03 -0.49768711275E+02  0.51159333926E+03  0.10100000352E+00 0. -1.
</event>
<event>
 5   0  0.8058234E-04  0.1497980E+04  0.7818609E-02  0.8885797E-01
        1   -1    0    0  501    0  0.00000000000E+00  0.00000000000E+00  0.35464364239E+03  0.35464364243E+03  0.50400001928E-02 0. -1.
       -1   -1    0    0    0  501  0.00000000000E+00  0.00000000000E+00 -0.15818301412E+04  0.15818301412E+04  0.50400001928E-02 0.  1.
    10030    2    1    2    0    0  0.00000000000E+00  0.00000000000E+00 -0.12271864988E+04  0.19364737836E+04  0.14979799771E+04 0.  0.
        5    1    3    3  502    0  0.32355551221E+02 -0.70001628273E+03 -0.95535723202E+03  0.11848203275E+04  0.46999998093E+01 0.  1.
       -5    1    3    3    0  502 -0.32355551221E+02  0.70001628273E+03 -0.27182926679E+03  0.75165345610E+03  0.46999998093E+01 0. -1.
</event>
<event>
 5   0  0.8365016E-04  0.1513176E+04  0.7818609E-02  0.8875738E-01
       -1   -1    0    0    0  501  0.00000000000E+00  0.00000000000E+00  0.82301658160E+03  0.82301658162E+03  0.50400001928E-02 0.  1.
        1   -1    0    0  501    0  0.00000000000E+00  0.00000000000E+00 -0.69552101676E+03  0.69552101678E+03  0.50400001928E-02 0. -1.
    10030    2    1    2    0    0  0.00000000000E+00  0.00000000000E+00  0.12749556484E+03  0.15185375984E+04  0.15131759047E+04 0.  0.
        3    1    3    3  502    0  0.46697078509E+03  0.18457140729E+03  0.63170100533E+03  0.80695383317E+03  0.10100000352E+00 0.  1.
       -3    1    3    3    0  502 -0.46697078509E+03 -0.18457140729E+03 -0.50420544049E+03  0.71158376523E+03  0.10100000352E+00 0. -1.
</event>
<event>
 5   0  0.8365016E-04  0.1567109E+04  0.7818609E-02  0.8841013E-01
        1   -1    0    0  501    0  0.00000000000E+00  0.00000000000E+00  0.14792013639E+04  0.14792013639E+04  0.50400001928E-02 0.  1.
       -1   -1    0    0    0  501  0.00000000000E+00  0.00000000000E+00 -0.41506010264E+03  0.41506010267E+03  0.50400001928E-02 0. -1.
    10030    2    1    2    0    0  0.00000000000E+00  0.00000000000E+00  0.10641412613E+04  0.18942614666E+04  0.15671087645E+04 0.  0.
        3    1    3    3  502    0  0.77587634025E+03  0.35597023145E+02  0.40699900541E+03  0.87686911453E+03  0.10100000352E+00 0.  1.
       -3    1    3    3    0  502 -0.77587634025E+03 -0.35597023145E+02  0.65714225588E+03  0.10173923521E+04  0.10100000352E+00 0. -1.
</event>
<event>
 5   0  0.1526126E-03  0.1457829E+04  0.7818609E-02  0.8912990E-01
        2   -1    0    0  501    0  0.00000000000E+00  0.00000000000E+00  0.91670407498E+03  0.91670407498E+03  0.25500000920E-02 0. -1.
       -2   -1    0    0    0  501  0.00000000000E+00  0.00000000000E+00 -0.57959456357E+03  0.57959456358E+03  0.25500000920E-02 0.  1.
    10030    2    1    2    0    0  0.00000000000E+00  0.00000000000E+00  0.33710951141E+03  0.14962986386E+04  0.14578294801E+04 0.  0.
        2    1    3    3  502    0  0.12639702181E+03 -0.21869070497E+03  0.87034813279E+03  0.90626028481E+03  0.25500000920E-02 0. -1.
       -2    1    3    3    0  502 -0.12639702181E+03  0.21869070497E+03 -0.53323862139E+03  0.59003835376E+03  0.25500000920E-02 0.  1.
</event>
<event>
 5   0  0.1526126E-03  0.1511525E+04  0.7818609E-02  0.8876825E-01
        2   -1    0    0  501    0  0.00000000000E+00  0.00000000000E+00  0.15777816648E+04  0.15777816648E+04  0.25500000920E-02 0. -1.
       -2   -1    0    0    0  501  0.00000000000E+00  0.00000000000E+00 -0.36201247795E+03  0.36201247796E+03  0.25500000920E-02 0.  1.
    10030    2    1    2    0    0  0.00000000000E+00  0.00000000000E+00  0.12157691868E+04  0.19397941427E+04  0.15115245948E+04 0.  0.
        2    1    3    3  502    0 -0.31955488493E+02 -0.17814546767E+03 -0.33379008400E+03  0.37970091004E+03  0.25500000920E-02 0.  1.
       -2    1    3    3    0  502  0.31955488493E+02  0.17814546767E+03  0.15495592708E+04  0.15600932327E+04  0.25500000920E-02 0. -1.
</event>
<event>
 5   0  0.8306301E-04  0.1494477E+04  0.7818609E-02  0.8888134E-01
       -1   -1    0    0    0  501  0.00000000000E+00  0.00000000000E+00  0.55208161854E+03  0.55208161856E+03  0.50400001928E-02 0. -1.
        1   -1    0    0  501    0  0.00000000000E+00  0.00000000000E+00 -0.10113821457E+04  0.10113821457E+04  0.50400001928E-02 0.  1.
    10030    2    1    2    0    0  0.00000000000E+00  0.00000000000E+00 -0.45930052719E+03  0.15634637643E+04  0.14944771554E+04 0.  0.
        4    1    3    3  502    0  0.50986373786E+03  0.29370128774E+03  0.25220019858E+03  0.64017812417E+03  0.12699999809E+01 0. -1.
       -4    1    3    3    0  502 -0.50986373786E+03 -0.29370128774E+03 -0.71150072577E+03  0.92328564013E+03  0.12699999809E+01 0.  1.
</event>
<event>
 5   0  0.1511546E-03  0.1472641E+04  0.7818609E-02  0.8902853E-01
       -2   -1    0    0    0  501  0.00000000000E+00  0.00000000000E+00  0.54145747897E+03  0.54145747898E+03  0.25500000920E-02 0. -1.
        2   -1    0    0  501    0  0.00000000000E+00  0.00000000000E+00 -0.10013124740E+04  0.10013124740E+04  0.25500000920E-02 0.  1.
    10030    2    1    2    0    0  0.00000000000E+00  0.00000000000E+00 -0.45985499501E+03  0.15427699530E+04  0.14726413383E+04 0.  0.
        1    1    3    3  502    0 -0.69132596221E+03  0.12746585493E+02 -0.49511028282E+03  0.85042827661E+03  0.50400001928E-02 0. -1.
       -1    1    3    3    0  502  0.69132596221E+03 -0.12746585493E+02  0.35255287815E+02  0.69234167635E+03  0.50400001928E-02 0.  1.
</event>
<event>
 5   0  0.5603875E-04  0.1209024E+04  0.7818609E-02  0.9104995E-01
       -3   -1    0    0    0  501  0.00000000000E+00  0.00000000000E+00  0.33860123315E+03  0.33860124822E+03  0.10100000352E+00 0. -1.
        3   -1    0    0  501    0  0.00000000000E+00  0.00000000000E+00 -0.10792476074E+04  0.10792476122E+04  0.10100000352E+00 0.  1.
    10030    2    1    2    0    0  0.00000000000E+00  0.00000000000E+00 -0.74064637429E+03  0.14178488604E+04  0.12090237132E+04 0.  0.
        5    1    3    3  502    0 -0.18253298480E+03 -0.16977669930E+03 -0.10161408223E+04  0.10462823132E+04  0.46999998093E+01 0.  1.
       -5    1    3    3    0  502  0.18253298480E+03  0.16977669930E+03  0.27549444796E+03  0.37156654723E+03  0.46999998093E+01 0. -1.
</event>
<event>
 5   0  0.1484056E-03  0.1508265E+04  0.7818609E-02  0.8878976E-01
       -2   -1    0    0    0  501  0.00000000000E+00  0.00000000000E+00  0.39750091191E+03  0.39750091192E+03  0.25500000920E-02 0. -1.
        2   -1    0    0  501    0  0.00000000000E+00  0.00000000000E+00 -0.14307278143E+04  0.14307278143E+04  0.25500000920E-02 0.  1.
    10030    2    1    2    0    0  0.00000000000E+00  0.00000000000E+00 -0.10332269024E+04  0.18282287262E+04  0.15082647127E+04 0.  0.
        5    1    3    3  502    0  0.43034054803E+03  0.50410300250E+03 -0.80612235221E+02  0.66770745606E+03  0.46999998093E+01 0. -1.
       -5    1    3    3    0  502 -0.43034054803E+03 -0.50410300250E+03 -0.95261466718E+03  0.11605212702E+04  0.46999998093E+01 0.  1.
</event>
<event>
 5   0  0.1484056E-03  0.9371380E+03  0.7818609E-02  0.9380312E-01
       -2   -1    0    0    0  501  0.00000000000E+00  0.00000000000E+00  0.57971134197E+03  0.57971134198E+03  0.25500000920E-02 0.  1.
        2   -1    0    0  501    0  0.00000000000E+00  0.00000000000E+00 -0.37873491503E+03  0.37873491503E+03  0.25500000920E-02 0. -1.
    10030    2    1    2    0    0  0.00000000000E+00  0.00000000000E+00  0.20097642694E+03  0.95844625701E+03  0.93713803860E+03 0.  0.
        5    1    3    3  502    0  0.14865168025E+03 -0.10912459530E+03  0.54101314777E+03  0.57159672444E+03  0.46999998093E+01 0.  1.
       -5    1    3    3    0  502 -0.14865168025E+03  0.10912459530E+03 -0.34003672082E+03  0.38684953257E+03  0.46999998093E+01 0. -1.
</event>
<event>
 5   0  0.1526126E-03  0.1434286E+04  0.7818609E-02  0.8929368E-01
       -2   -1    0    0    0  501  0.00000000000E+00  0.00000000000E+00  0.48396718691E+03  0.48396718691E+03  0.25500000920E-02 0. -1.
        2   -1    0    0  501    0  0.00000000000E+00  0.00000000000E+00 -0.10626635154E+04  0.10626635154E+04  0.25500000920E-02 0.  1.
    10030    2    1    2    0    0  0.00000000000E+00  0.00000000000E+00 -0.57869632849E+03  0.15466307023E+04  0.14342862646E+04 0.  0.
        2    1    3    3  502    0 -0.64131340990E+03 -0.25387735385E+03 -0.77606565375E+02  0.69408888444E+03  0.25500000920E-02 0.  1.
       -2    1    3    3    0  502  0.64131340990E+03  0.25387735385E+03 -0.50108976312E+03  0.85254181787E+03  0.25500000920E-02 0. -1.
</event>
<event>
 5   0  0.8058234E-04  0.1566904E+04  0.7818609E-02  0.8841142E-01
        1   -1    0    0  501    0  0.00000000000E+00  0.00000000000E+00  0.12092392104E+04  0.12092392104E+04  0.50400001928E-02 0.  1.
       -1   -1    0    0    0  501  0.00000000000E+00  0.00000000000E+00 -0.50758965789E+03  0.50758965791E+03  0.50400001928E-02 0. -1.
    10030    2    1    2    0    0  0.00000000000E+00  0.00000000000E+00  0.70164955248E+03  0.17168288683E+04  0.15669043584E+04 0.  0.
        5    1    3    3  502    0 -0.66483366993E+03 -0.64747085466E+01  0.80487821293E+03  0.10439812058E+04  0.46999998093E+01 0.  1.
       -5    1    3    3    0  502  0.66483366993E+03  0.64747085466E+01 -0.10322866044E+03  0.67284766244E+03  0.46999998093E+01 0. -1.
</event>
<event>
 5   0  0.1552067E-03  0.1511967E+04  0.7818609E-02  0.8876534E-01
       -2   -1    0    0    0  501  0.00000000000E+00  0.00000000000E+00  0.24187112418E+03  0.24187112419E+03  0.25500000920E-02 0.  1.
        2   -1    0    0  501    0  0.00000000000E+00  0.00000000000E+00 -0.23628747862E+04  0.23628747862E+04  0.25500000920E-02 0. -1.
    10030    2    1    2    0    0  0.00000000000E+00  0.00000000000E+00 -0.21210036620E+04  0.26047459103E+04  0.15119671701E+04 0.  0.
        3    1    3    3  502    0  0.43909910087E+03 -0.57755054248E+03 -0.69448869967E+03  0.10043342141E+04  0.10100000352E+00 0.  1.
       -3    1    3    3    0  502 -0.43909910087E+03  0.57755054248E+03 -0.14265149623E+04  0.16004116962E+04  0.10100000352E+00 0. -1.
</event>
<event>
 5   0  0.8365016E-04  0.1523515E+04  0.7818609E-02  0.8868965E-01
       -1   -1    0    0    0  501  0.00000000000E+00  0.00000000000E+00  0.65419525352E+03  0.65419525354E+03  0.50400001928E-02 0.  1.
        1   -1    0    0  501    0  0.00000000000E+00  0.00000000000E+00 -0.88700481892E+03  0.88700481893E+03  0.50400001928E-02 0. -1.
    10030    2    1    2    0    0  0.00000000000E+00  0.00000000000E+00 -0.23280956540E+03  0.15412000725E+04  0.15235148078E+04 0.  0.
        3    1    3    3  502    0  0.50492174625E+03  0.23704745278E+03 -0.64121095927E+03  0.84987585517E+03  0.10100000352E+00 0. -1.
       -3    1    3    3    0  502 -0.50492174625E+03 -0.23704745278E+03  0.40840139387E+03  0.69132421730E+03  0.10100000352E+00 0.  1.
</event>
<event>
 5   0  0.1500956E-03  0.1490268E+04  0.7818609E-02  0.8890950E-01
        2   -1    0    0  501    0  0.00000000000E+00  0.00000000000E+00  0.13021240899E+04  0.13021240899E+04  0.25500000920E-02 0.  1.
       -2   -1    0    0    0  501  0.00000000000E+00  0.00000000000E+00 -0.42639921596E+03  0.42639921597E+03  0.25500000920E-02 0. -1.
    10030    2    1    2    0    0  0.00000000000E+00  0.00000000000E+00  0.87572487396E+03  0.17285233059E+04  0.14902680176E+04 0.  0.
        4    1    3    3  502    0  0.57543215084E+03 -0.16730875099E+03  0.95150297057E+03  0.11244882811E+04  0.12699999809E+01 0.  1.
       -4    1    3    3    0  502 -0.57543215084E+03  0.16730875099E+03 -0.75778096611E+02  0.60403502481E+03  0.12699999809E+01 0. -1.
</event>
<event>
 5   0  0.8191876E-04  0.1490432E+04  0.7818609E-02  0.8890841E-01
        1   -1    0    0  501    0  0.00000000000E+00  0.00000000000E+00  0.42711605714E+03  0.42711605717E+03  0.50400001928E-02 0.  1.
       -1   -1    0    0    0  501  0.00000000000E+00  0.00000000000E+00 -0.13002239328E+04  0.13002239328E+04  0.50400001928E-02 0. -1.
    10030    2    1    2    0    0  0.00000000000E+00  0.00000000000E+00 -0.87310787569E+03  0.17273399900E+04  0.14904315075E+04 0.  0.
        2    1    3    3  502    0  0.39887679844E+03  0.59510540186E+03 -0.67433250434E+03  0.98385845835E+03  0.25500000920E-02 0. -1.
       -2    1    3    3    0  502 -0.39887679844E+03 -0.59510540186E+03 -0.19877537134E+03  0.74348153166E+03  0.25500000920E-02 0.  1.
</event>
<event>
 5   0  0.7870317E-04  0.1463842E+04  0.7818609E-02  0.8908860E-01
       -1   -1    0    0    0  501  0.00000000000E+00  0.00000000000E+00  0.28054220018E+03  0.28054220022E+03  0.50400001928E-02 0. -1.
        1   -1    0    0  501    0  0.00000000000E+00  0.00000000000E+00 -0.19095464020E+04  0.19095464020E+04  0.50400001928E-02 0.  1.
    10030    2    1    2    0    0  0.00000000000E+00  0.00000000000E+00 -0.16290042018E+04  0.21900886022E+04  0.14638419983E+04 0.  0.
        1    1    3    3  502    0  0.70367567335E+03 -0.17605116294E+03 -0.96074681759E+03  0.12038222098E+04  0.50400001928E-02 0.  1.
       -1    1    3    3    0  502 -0.70367567335E+03  0.17605116294E+03 -0.66825738421E+03  0.98626639242E+03  0.50400001928E-02 0. -1.
</event>
<event>
 5   0  0.1484056E-03  0.1485875E+04  0.7818609E-02  0.8893901E-01
        2   -1    0    0  501    0  0.00000000000E+00  0.00000000000E+00  0.16396459877E+04  0.16396459877E+04  0.25500000920E-02 0.  1.
       -2   -1    0    0    0  501  0.00000000000E+00  0.00000000000E+00 -0.33663118728E+03  0.33663118729E+03  0.25500000920E-02 0. -1.
    10030    2    1    2    0    0  0.00000000000E+00  0.00000000000E+00  0.13030148004E+04  0.19762771750E+04  0.14858747936E+04 0.  0.
        5    1    3    3  502    0 -0.50618877037E+03 -0.40665601330E+02  0.13727452960E+04  0.14636708988E+04  0.46999998093E+01 0.  1.
       -5    1    3    3    0  502  0.50618877037E+03  0.40665601330E+02 -0.69730495554E+02  0.51260627619E+03  0.46999998093E+01 0. -1.
</event>
<event>
 5   0  0.8058234E-04  0.1506333E+04  0.7818609E-02  0.8880252E-01
       -1   -1    0    0    0  501  0.00000000000E+00  0.00000000000E+00  0.49674159015E+03  0.49674159018E+03  0.50400001928E-02 0.  1.
        1   -1    0    0  501    0  0.00000000000E+00  0.00000000000E+00 -0.11419615292E+04  0.11419615292E+04  0.50400001928E-02 0. -1.
    10030    2    1    2    0    0  0.00000000000E+00  0.00000000000E+00 -0.64521993903E+03  0.16387031194E+04  0.15063330122E+04 0.  0.
        5    1    3    3  502    0  0.62421718125E+03  0.40220418876E+03 -0.18576922557E+03  0.76547213795E+03  0.46999998093E+01 0.  1.
       -5    1    3    3    0  502 -0.62421718125E+03 -0.40220418876E+03 -0.45945071345E+03  0.87323098142E+03  0.46999998093E+01 0. -1.
</event>
<event>
 5   0  0.1552067E-03  0.1486840E+04  0.7818609E-02  0.8893251E-01
        2   -1    0    0  501    0  0.00000000000E+00  0.00000000000E+00  0.80676363598E+03  0.80676363599E+03  0.25500000920E-02 0.  1.
       -2   -1    0    0    0  501  0.00000000000E+00  0.00000000000E+00 -0.68505012527E+03  0.68505012528E+03  0.25500000920E-02 0. -1.
    10030    2    1    2    0    0  0.00000000000E+00  0.00000000000E+00  0.12171351071E+03  0.14918137613E+04  0.14868403141E+04 0.  0.
        3    1    3    3  502    0  0.37737741172E+03 -0.53578666056E+03  0.41301864081E+03  0.77463892516E+03  0.10100000352E+00 0. -1.
       -3    1    3    3    0  502 -0.37737741172E+03  0.53578666056E+03 -0.29130513011E+03  0.71717483610E+03  0.10100000352E+00 0.  1.
</event>
<event>
 5   0  0.1511546E-03  0.1545765E+04  0.7818609E-02  0.8854577E-01
       -2   -1    0    0    0  501  0.00000000000E+00  0.00000000000E+00  0.11233988043E+04  0.11233988043E+04  0.25500000920E-02 0.  1.
        2   -1    0    0  501    0  0.00000000000E+00  0.00000000000E+00 -0.53173235656E+03  0.53173235657E+03  0.25500000920E-02 0. -1.
    10030    2    1    2    0    0  0.00000000000E+00  0.00000000000E+00  0.59166644778E+03  0.16551311609E+04  0.15457651744E+04 0.  0.
        1    1    3    3  502    0  0.21877860865E+03  0.23047989599E+03  0.10502100666E+04  0.10972357295E+04  0.50400001928E-02 0.  1.
       -1    1    3    3    0  502 -0.21877860865E+03 -0.23047989599E+03 -0.45854361880E+03  0.55789543144E+03  0.50400001928E-02 0. -1.
</event>
<event>
 5   0  0.8191876E-04  0.1516976E+04  0.7818609E-02  0.8873242E-01
       -1   -1    0    0    0  501  0.00000000000E+00  0.00000000000E+00  0.11326849281E+04  0.11326849281E+04  0.50400001928E-02 0.  1.
        1   -1    0    0  501    0  0.00000000000E+00  0.00000000000E+00 -0.50791195887E+03  0.50791195890E+03  0.50400001928E-02 0. -1.
    10030    2    1    2    0    0  0.00000000000E+00  0.00000000000E+00  0.62477296919E+03  0.16405968870E+04  0.15169762300E+04 0.  0.
        2    1    3    3  502    0  0.40500639188E+03 -0.57322231198E+03  0.62337918263E+03  0.93873084628E+03  0.25500000920E-02 0.  1.
       -2    1    3    3    0  502 -0.40500639188E+03  0.57322231198E+03  0.13937865576E+01  0.70186604069E+03  0.25500000920E-02 0. -1.
</event>
<event>
 5   0  0.8191876E-04  0.1509007E+04  0.7818609E-02  0.8878486E-01
        1   -1    0    0  501    0  0.00000000000E+00  0.00000000000E+00  0.64288602507E+03  0.64288602509E+03  0.50400001928E-02 0. -1.
       -1   -1    0    0    0  501  0.00000000000E+00  0.00000000000E+00 -0.88549953638E+03  0.88549953639E+03  0.50400001928E-02 0.  1.
    10030    2    1    2    0    0  0.00000000000E+00  0.00000000000E+00 -0.24261351130E+03  0.15283855615E+04  0.15090066629E+04 0.  0.
        2    1    3    3  502    0 -0.55152055295E+02 -0.17778914120E+03  0.61926341893E+03  0.64663584030E+03  0.25500000920E-02 0. -1.
       -2    1    3    3    0  502  0.55152055295E+02  0.17778914120E+03 -0.86187693023E+03  0.88174972118E+03  0.25500000920E-02 0.  1.
</event>
<event>
 5   0  0.1552067E-03  0.1499318E+04  0.7818609E-02  0.8884906E-01
        2   -1    0    0  501    0  0.00000000000E+00  0.00000000000E+00  0.15358370004E+04  0.15358370004E+04  0.25500000920E-02 0. -1.
       -2   -1    0    0    0  501  0.00000000000E+00  0.00000000000E+00 -0.36591700811E+03  0.36591700812E+03  0.25500000920E-02 0.  1.
    10030    2    1    2    0    0  0.00000000000E+00  0.00000000000E+00  0.11699199923E+04  0.19017540086E+04  0.14993183520E+04 0.  0.
        3    1    3    3  502    0 -0.24135598171E+03 -0.69368826733E+03  0.77536026686E+03  0.10680073388E+04  0.10100000352E+00 0.  1.
       -3    1    3    3    0  502  0.24135598171E+03  0.69368826733E+03  0.39455972547E+03  0.83374666974E+03  0.10100000352E+00 0. -1.
</event>
<event>
 5   0  0.1484056E-03  0.1514568E+04  0.7818609E-02  0.8874823E-01
       -2   -1    0    0    0  501  0.00000000000E+00  0.00000000000E+00  0.51696346497E+03  0.51696346498E+03  0.25500000920E-02 0. -1.
        2   -1    0    0  501    0  0.00000000000E+00  0.00000000000E+00 -0.11093227572E+04  0.11093227572E+04  0.25500000920E-02 0.  1.
    10030    2    1    2    0    0  0.00000000000E+00  0.00000000000E+00 -0.59235929218E+03  0.16262862221E+04  0.15145683693E+04 0.  0.
        5    1    3    3  502    0 -0.48035469464E+03 -0.24455553805E+03  0.27494596696E+03  0.60511603730E+03  0.46999998093E+01 0. -1.
       -5    1    3    3    0  502  0.48035469464E+03  0.24455553805E+03 -0.86730525915E+03  0.10211701848E+04  0.46999998093E+01 0.  1.
</event>
<event>
 5   0  0.8306301E-04  0.1461895E+04  0.7818609E-02  0.8910195E-01
        1   -1    0    0  501    0  0.00000000000E+00  0.00000000000E+00  0.11122673333E+04  0.11122673333E+04  0.50400001928E-02 0.  1.
       -1   -1    0    0    0  501  0.00000000000E+00  0.00000000000E+00 -0.48035599160E+03  0.48035599163E+03  0.50400001928E-02 0. -1.
    10030    2    1    2    0    0  0.00000000000E+00  0.00000000000E+00  0.63191134172E+03  0.15926233250E+04  0.14618950412E+04 0.  0.
        4    1    3    3  502    0 -0.58528966768E+03  0.42078032382E+02 -0.15884832610E+03  0.60792183667E+03  0.12699999809E+01 0. -1.
       -4    1    3    3    0  502  0.58528966768E+03 -0.42078032382E+02  0.79075966782E+03  0.98470148830E+03  0.12699999809E+01 0.  1.
</event>
<event>
 5   0  0.8306301E-04  0.1497431E+04  0.7818609E-02  0.8886163E-01
        1   -1    0    0  501    0  0.00000000000E+00  0.00000000000E+00  0.67930264375E+03  0.67930264377E+03  0.50400001928E-02 0.  1.
       -1   -1    0    0    0  501  0.00000000000E+00  0.00000000000E+00 -0.82522150745E+03  0.82522150747E+03  0.50400001928E-02 0. -1.
    10030    2    1    2    0    0  0.00000000000E+00  0.00000000000E+00 -0.14591886370E+03  0.15045241512E+04  0.14974313363E+04 0.  0.
        4    1    3    3  502    0  0.22280320109E+03 -0.71314628730E+03 -0.24204899420E+02  0.74753353340E+03  0.12699999809E+01 0. -1.
       -4    1    3    3    0  502 -0.22280320109E+03  0.71314628730E+03 -0.12171396428E+03  0.75699061784E+03  0.12699999809E+01 0.  1.
</event>
<event>
 5   0  0.7870317E-04  0.1456236E+04  0.7818609E-02  0.8914088E-01
        1   -1    0    0  501    0  0.00000000000E+00  0.00000000000E+00  0.22902159538E+04  0.22902159538E+04  0.50400001928E-02 0.  1.
       -1   -1    0    0    0  501  0.00000000000E+00  0.00000000000E+00 -0.23148740478E+03  0.23148740483E+03  0.50400001928E-02 0. -1.
    10030    2    1    2    0    0  0.00000000000E+00  0.00000000000E+00  0.20587285491E+04  0.25217033587E+04  0.14562364473E+04 0.  0.
        1    1    3    3  502    0 -0.12405379561E+03 -0.59690465649E+03  0.17187112412E+04  0.18236372566E+04  0.50400001928E-02 0.  1.
       -1    1    3    3    0  502  0.12405379561E+03  0.59690465649E+03  0.34001730787E+03  0.69806610205E+03  0.50400001928E-02 0. -1.
</event>
<event>
 5   0  0.7870317E-04  0.1538493E+04  0.7818609E-02  0.8859251E-01
        1   -1    0    0  501    0  0.00000000000E+00  0.00000000000E+00  0.23440769459E+04  0.23440769459E+04  0.50400001928E-02 0.  1.
       -1   -1    0    0    0  501  0.00000000000E+00  0.00000000000E+00 -0.25244063339E+03  0.25244063344E+03  0.50400001928E-02 0. -1.
    10030    2    1    2    0    0  0.00000000000E+00  0.00000000000E+00  0.20916363125E+04  0.25965175793E+04  0.15384931186E+04 0.  0.
        1    1    3    3  502    0 -0.52602964680E+03  0.41131865837E+02  0.19905411688E+04  0.20592846245E+04  0.50400001928E-02 0.  1.
       -1    1    3    3    0  502  0.52602964680E+03 -0.41131865837E+02  0.10109514367E+03  0.53723295487E+03  0.50400001928E-02 0. -1.
</event>
<event>
 5   0  0.8191876E-04  0.1644541E+04  0.7818609E-02  0.8793643E-01
       -1   -1    0    0    0  501  0.00000000000E+00  0.00000000000E+00  0.12772009318E+04  0.12772009318E+04  0.50400001928E-02 0. -1.
        1   -1    0    0  501    0  0.00000000000E+00  0.00000000000E+00 -0.52938293710E+03  0.52938293712E+03  0.50400001928E-02 0.  1.
    10030    2    1    2    0    0  0.00000000000E+00  0.00000000000E+00  0.74781799470E+03  0.18065838689E+04  0.16445405201E+04 0.  0.
        2    1    3    3  502    0 -0.30515962956E+03  0.75428622731E+03  0.24365847795E+03  0.84937598631E+03  0.25500000920E-02 0. -1.
       -2    1    3    3    0  502  0.30515962956E+03 -0.75428622731E+03  0.50415951675E+03  0.95720788263E+03  0.25500000920E-02 0.  1.
</event>
<event>
 5   0  0.8058234E-04  0.1480166E+04  0.7818609E-02  0.8897750E-01
        1   -1    0    0  501    0  0.00000000000E+00  0.00000000000E+00  0.12913844576E+04  0.12913844576E+04  0.50400001928E-02 0.  1.
       -1   -1    0    0    0  501  0.00000000000E+00  0.00000000000E+00 -0.42413633819E+03  0.42413633822E+03  0.50400001928E-02 0. -1.
    10030    2    1    2    0    0  0.00000000000E+00  0.00000000000E+00  0.86724811943E+03  0.17155207958E+04  0.14801663083E+04 0.  0.
        5    1    3    3  502    0  0.42125750662E+03  0.28593270353E+03  0.10561357805E+04  0.11724590716E+04  0.46999998093E+01 0.  1.
       -5    1    3    3    0  502 -0.42125750662E+03 -0.28593270353E+03 -0.18888766104E+03  0.54306172423E+03  0.46999998093E+01 0. -1.
</event>
<event>
 5   0  0.8191876E-04  0.1503974E+04  0.7818609E-02  0.8881814E-01
        1   -1    0    0  501    0  0.00000000000E+00  0.00000000000E+00  0.63867888451E+03  0.63867888453E+03  0.50400001928E-02 0. -1.
       -1   -1    0    0    0  501  0.00000000000E+00  0.00000000000E+00 -0.88539723040E+03  0.88539723041E+03  0.50400001928E-02 0.  1.
    10030    2    1    2    0    0  0.00000000000E+00  0.00000000000E+00 -0.24671834588E+03  0.15240761149E+04  0.15039740895E+04 0.  0.
        2    1    3    3  502    0 -0.51716609101E+03  0.49603096834E+03 -0.35439111313E+03  0.79943764504E+03  0.25500000920E-02 0. -1.
       -2    1    3    3    0  502  0.51716609101E+03 -0.49603096834E+03  0.10767276725E+03  0.72463846990E+03  0.25500000920E-02 0.  1.
</event>
<event>
 5   0  0.1511546E-03  0.1487610E+04  0.7818609E-02  0.8892734E-01
        2   -1    0    0  501    0  0.00000000000E+00  0.00000000000E+00  0.13353826291E+04  0.13353826291E+04  0.25500000920E-02 0. -1.
       -2   -1    0    0    0  501  0.00000000000E+00  0.00000000000E+00 -0.41429752402E+03  0.41429752403E+03  0.25500000920E-02 0.  1.
    10030    2    1    2    0    0  0.00000000000E+00  0.00000000000E+00  0.92108510505E+03  0.17496801531E+04  0.14876097833E+04 0.  0.
        1    1    3    3  502    0  0.13270871408E+03 -0.55706165975E+03  0.10188405396E+04  0.11687451993E+04  0.50400001928E-02 0. -1.
       -1    1    3    3    0  502 -0.13270871408E+03  0.55706165975E+03 -0.97755434602E+02  0.58093495383E+03  0.50400001928E-02 0.  1.
</event>
<event>
 5   0  0.1511546E-03  0.1494521E+04  0.7818609E-02  0.8888104E-01
        2   -1    0    0  501    0  0.00000000000E+00  0.00000000000E+00  0.65400879524E+03  0.65400879524E+03  0.25500000920E-02 0.  1.
       -2   -1    0    0    0  501  0.00000000000E+00  0.00000000000E+00 -0.85380882653E+03  0.85380882654E+03  0.25500000920E-02 0. -1.
    10030    2    1    2    0    0  0.00000000000E+00  0.00000000000E+00 -0.19980003130E+03  0.15078176218E+04  0.14945213040E+04 0.  0.
        1    1    3    3  502    0  0.46449646938E+03  0.54547005703E+03  0.11436629459E+03  0.72551650742E+03  0.50400001928E-02 0. -1.
       -1    1    3    3    0  502 -0.46449646938E+03 -0.54547005703E+03 -0.31416632589E+03  0.78230111436E+03  0.50400001928E-02 0.  1.
</event>
<event>
 5   0  0.1526126E-03  0.1473640E+04  0.7818609E-02  0.8902174E-01
        2   -1    0    0  501    0  0.00000000000E+00  0.00000000000E+00  0.97486913265E+03  0.97486913266E+03  0.25500000920E-02 0. -1.
       -2   -1    0    0    0  501  0.00000000000E+00  0.00000000000E+00 -0.55689872835E+03  0.55689872836E+03  0.25500000920E-02 0.  1.
    10030    2    1    2    0    0  0.00000000000E+00  0.00000000000E+00  0.41797040430E+03  0.15317678610E+04  0.14736395493E+04 0.  0.
        2    1    3    3  502    0 -0.39550916634E+03 -0.37897570453E+03  0.72122543320E+03  0.90565788838E+03  0.25500000920E-02 0. -1.
       -2    1    3    3    0  502  0.39550916634E+03  0.37897570453E+03 -0.30325502890E+03  0.62610997264E+03  0.25500000920E-02 0.  1.
</event>
<event>
 5   0  0.8306301E-04  0.1533077E+04  0.7818609E-02  0.8862750E-01
        1   -1    0    0  501    0  0.00000000000E+00  0.00000000000E+00  0.14835270668E+04  0.14835270668E+04  0.50400001928E-02 0. -1.
       -1   -1    0    0    0  501  0.00000000000E+00  0.00000000000E+00 -0.39607069276E+03  0.39607069279E+03  0.50400001928E-02 0.  1.
    10030    2    1    2    0    0  0.00000000000E+00  0.00000000000E+00  0.10874563741E+04  0.18795977596E+04  0.15330774189E+04 0.  0.
        4    1    3    3  502    0 -0.26219670902E+03  0.50542510439E+03  0.11729312839E+04  0.13038293830E+04  0.12699999809E+01 0. -1.
       -4    1    3    3    0  502  0.26219670902E+03 -0.50542510439E+03 -0.85474909844E+02  0.57576837659E+03  0.12699999809E+01 0.  1.
</event>
<event>
 5   0  0.8306301E-04  0.1473531E+04  0.7818609E-02  0.8902248E-01
       -1   -1    0    0    0  501  0.00000000000E+00  0.00000000000E+00  0.55510330536E+03  0.55510330538E+03  0.50400001928E-02 0. -1.
        1   -1    0    0  501    0  0.00000000000E+00  0.00000000000E+00 -0.97787867008E+03  0.97787867009E+03  0.50400001928E-02 0.  1.
    10030    2    1    2    0    0  0.00000000000E+00  0.00000000000E+00 -0.42277536472E+03  0.15329819755E+04  0.14735313801E+04 0.  0.
        4    1    3    3  502    0  0.36438384504E+03 -0.73945343976E+01 -0.87752727447E+03  0.95020313407E+03  0.12699999809E+01 0.  1.
       -4    1    3    3    0  502 -0.36438384504E+03  0.73945343976E+01  0.45475190975E+03  0.58277884140E+03  0.12699999809E+01 0. -1.
</event>
<event>
 5   0  0.7870317E-04  0.1484635E+04  0.7818609E-02  0.8894735E-01
        1   -1    0    0  501    0  0.00000000000E+00  0.00000000000E+00  0.23097585321E+04  0.23097585321E+04  0.50400001928E-02 0. -1.
       -1   -1    0    0    0  501  0.00000000000E+00  0.00000000000E+00 -0.23856822391E+03  0.23856822397E+03  0.50400001928E-02 0.  1.
    10030    2    1    2    0    0  0.00000000000E+00  0.00000000000E+00  0.20711903082E+04  0.25483267561E+04  0.14846346227E+04 0.  0.
        1    1    3    3  502    0  0.61645350444E+02  0.57527726263E+03  0.18338740836E+04  0.19229763994E+04  0.50400001928E-02 0. -1.
       -1    1    3    3    0  502 -0.61645350444E+02 -0.57527726263E+03  0.23731622461E+03  0.62535035669E+03  0.50400001928E-02 0.  1.
</event>
<event>
 5   0  0.8191876E-04  0.1645137E+04  0.7818609E-02  0.8793288E-01
       -1   -1    0    0    0  501  0.00000000000E+00  0.00000000000E+00  0.66574917463E+03  0.66574917465E+03  0.50400001928E-02 0. -1.
        1   -1    0    0  501    0  0.00000000000E+00  0.00000000000E+00 -0.10163273973E+04  0.10163273974E+04  0.50400001928E-02 0.  1.
    10030    2    1    2    0    0  0.00000000000E+00  0.00000000000E+00 -0.35057822272E+03  0.16820765720E+04  0.16451372295E+04 0.  0.
        2    1    3    3  502    0  0.52809954021E+03  0.31839017191E+03 -0.73190005296E+03  0.95704708007E+03  0.25500000920E-02 0.  1.
       -2    1    3    3    0  502 -0.52809954021E+03 -0.31839017191E+03  0.38132183025E+03  0.72502949193E+03  0.25500000920E-02 0. -1.
</event>
<event>
 5   0  0.8191876E-04  0.1499402E+04  0.7818609E-02  0.8884850E-01
       -1   -1    0    0    0  501  0.00000000000E+00  0.00000000000E+00  0.82276005646E+03  0.82276005647E+03  0.50400001928E-02 0.  1.
        1   -1    0    0  501    0  0.00000000000E+00  0.00000000000E+00 -0.68312985684E+03  0.68312985686E+03  0.50400001928E-02 0. -1.
    10030    2    1    2    0    0  0.00000000000E+00  0.00000000000E+00  0.13963019962E+03  0.15058899133E+04  0.14994024938E+04 0.  0.
        2    1    3    3  502    0 -0.13480583533E+03 -0.58880278361E+03 -0.37616772193E+03  0.71159221908E+03  0.25500000920E-02 0. -1.
       -2    1    3    3    0  502  0.13480583533E+03  0.58880278361E+03  0.51579792155E+03  0.79429769425E+03  0.25500000920E-02 0.  1.
</event>
<event>
 5   0  0.1552067E-03  0.1523556E+04  0.7818609E-02  0.8868938E-01
       -2   -1    0    0    0  501  0.00000000000E+00  0.00000000000E+00  0.53761001912E+03  0.53761001913E+03  0.25500000920E-02 0.  1.
        2   -1    0    0  501    0  0.00000000000E+00  0.00000000000E+00 -0.10794181163E+04  0.10794181163E+04  0.25500000920E-02 0. -1.
    10030    2    1    2    0    0  0.00000000000E+00  0.00000000000E+00 -0.54180809720E+03  0.16170281355E+04  0.15235563582E+04 0.  0.
        3    1    3    3  502    0 -0.49075278463E+03  0.50765588706E+03 -0.57437100076E+03  0.91019495275E+03  0.10100000352E+00 0. -1.
       -3    1    3    3    0  502  0.49075278463E+03 -0.50765588706E+03  0.32562903562E+02  0.70683318271E+03  0.10100000352E+00 0.  1.
</event>
<event>
 5   0  0.1511546E-03  0.1412515E+04  0.7818609E-02  0.8944809E-01
        2   -1    0    0  501    0  0.00000000000E+00  0.00000000000E+00  0.25144628909E+04  0.25144628909E+04  0.25500000920E-02 0. -1.
       -2   -1    0    0    0  501  0.00000000000E+00  0.00000000000E+00 -0.19837211040E+03  0.19837211041E+03  0.25500000920E-02 0.  1.
    10030    2    1    2    0    0  0.00000000000E+00  0.00000000000E+00  0.23160907805E+04  0.27128350013E+04  0.14125145100E+04 0.  0.
        1    1    3    3  502    0  0.16636199318E+03  0.13085715307E+03 -0.13602560489E+03  0.25160062101E+03  0.50400001928E-02 0.  1.
       -1    1    3    3    0  502 -0.16636199318E+03 -0.13085715307E+03  0.24521163854E+04  0.24612343803E+04  0.50400001928E-02 0. -1.
</event>
<event>
 5   0  0.1552067E-03  0.1447715E+04  0.7818609E-02  0.8919986E-01
       -2   -1    0    0    0  501  0.00000000000E+00  0.00000000000E+00  0.44558445411E+03  0.44558445412E+03  0.25500000920E-02 0.  1.
        2   -1    0    0  501    0  0.00000000000E+00  0.00000000000E+00 -0.11759157143E+04  0.11759157143E+04  0.25500000920E-02 0. -1.
    10030    2    1    2    0    0  0.00000000000E+00  0.00000000000E+00 -0.73033126015E+03  0.16215001684E+04  0.14477151123E+04 0.  0.
        3    1    3    3  502    0 -0.18482270024E+03 -0.40260581997E+03 -0.10063524959E+04  0.10995436476E+04  0.10100000352E+00 0. -1.
       -3    1    3    3    0  502  0.18482270024E+03  0.40260581997E+03  0.27602123575E+03  0.52195652078E+03  0.10100000352E+00 0.  1.
</event>
<event>
 5   0  0.7870317E-04  0.1497012E+04  0.7818609E-02  0.8886442E-01
       -1   -1    0    0    0  501  0.00000000000E+00  0.00000000000E+00  0.17768590610E+04  0.17768590610E+04  0.50400001928E-02 0. -1.
        1   -1    0    0  501    0  0.00000000000E+00  0.00000000000E+00 -0.31531007302E+03  0.31531007306E+03  0.50400001928E-02 0.  1.
    10030    2    1    2    0    0  0.00000000000E+00  0.00000000000E+00  0.14615489880E+04  0.20921691340E+04  0.14970124386E+04 0.  0.
        1    1    3    3  502    0  0.35838400005E+03 -0.17882527272E+03 -0.15294954415E+03  0.42873200573E+03  0.50400001928E-02 0.  1.
       -1    1    3    3    0  502 -0.35838400005E+03  0.17882527272E+03  0.16144985321E+04  0.16634371283E+04  0.50400001928E-02 0. -1.
</event>
<event>
 5   0  0.1526126E-03  0.1011966E+04  0.7818609E-02  0.9295518E-01
       -2   -1    0    0    0  501  0.00000000000E+00  0.00000000000E+00  0.12219114463E+03  0.12219114465E+03  0.25500000920E-02 0.  1.
        2   -1    0    0  501    0  0.00000000000E+00  0.00000000000E+00 -0.20952307068E+04  0.20952307068E+04  0.25500000920E-02 0. -1.
    10030    2    1    2    0    0  0.00000000000E+00  0.00000000000E+00 -0.19730395622E+04  0.22174218515E+04  0.10119656879E+04 0.  0.
        2    1    3    3  502    0  0.22815410455E+03  0.44050851002E+03 -0.76831521440E+03  0.91455470668E+03  0.25500000920E-02 0.  1.
       -2    1    3    3    0  502 -0.22815410455E+03 -0.44050851002E+03 -0.12047243478E+04  0.13028671448E+04  0.25500000920E-02 0. -1.
</event>
<event>
 5   0  0.1526126E-03  0.1454401E+04  0.7818609E-02  0.8915355E-01
        2   -1    0    0  501    0  0.00000000000E+00  0.00000000000E+00  0.23735199583E+04  0.23735199583E+04  0.25500000920E-02 0.  1.
       -2   -1    0    0    0  501  0.00000000000E+00  0.00000000000E+00 -0.22280004456E+03  0.22280004458E+03  0.25500000920E-02 0. -1.
    10030    2    1    2    0    0  0.00000000000E+00  0.00000000000E+00  0.21507199138E+04  0.25963200029E+04  0.14544007048E+04 0.  0.
        2    1    3    3  502    0  0.33711372797E+03  0.53152825358E+03  0.42518280597E+03  0.75957117404E+03  0.25500000920E-02 0. -1.
       -2    1    3    3    0  502 -0.33711372797E+03 -0.53152825358E+03  0.17255371078E+04  0.18367488289E+04  0.25500000920E-02 0.  1.
</event>
<event>
 5   0  0.7870317E-04  0.1521895E+04  0.7818609E-02  0.8870022E-01
        1   -1    0    0  501    0  0.00000000000E+00  0.00000000000E+00  0.19511168204E+04  0.19511168204E+04  0.50400001928E-02 0.  1.
       -1   -1    0    0    0  501  0.00000000000E+00  0.00000000000E+00 -0.29677430346E+03  0.29677430351E+03  0.50400001928E-02 0. -1.
    10030    2    1    2    0    0  0.00000000000E+00  0.00000000000E+00  0.16543425169E+04  0.22478911239E+04  0.15218953123E+04 0.  0.
        1    1    3    3  502    0 -0.32102578246E+03  0.21320588648E+03  0.17963206019E+04  0.18371940583E+04  0.50400001928E-02 0.  1.
       -1    1    3    3    0  502  0.32102578246E+03 -0.21320588648E+03 -0.14197808498E+03  0.41069706558E+03  0.50400001928E-02 0. -1.
</event>
<event>
 5   0  0.8306301E-04  0.1509083E+04  0.7818609E-02  0.8878435E-01
       -1   -1    0    0    0  501  0.00000000000E+00  0.00000000000E+00  0.34885042206E+03  0.34885042210E+03  0.50400001928E-02 0. -1.
        1   -1    0    0  501    0  0.00000000000E+00  0.00000000000E+00 -0.16320266403E+04  0.16320266403E+04  0.50400001928E-02 0.  1.
    10030    2    1    2    0    0  0.00000000000E+00  0.00000000000E+00 -0.12831762183E+04  0.19808770624E+04  0.15090834070E+04 0.  0.
        4    1    3    3  502    0  0.57390456236E+03 -0.66665859394E+01  0.13632526208E+01  0.57394630535E+03  0.12699999809E+01 0.  1.
       -4    1    3    3    0  502 -0.57390456236E+03  0.66665859394E+01 -0.12845394709E+04  0.14069307571E+04  0.12699999809E+01 0. -1.
</event>
<event>
 5   0  0.8058234E-04  0.1513334E+04  0.7818609E-02  0.8875634E-01
       -1   -1    0    0    0  501  0.00000000000E+00  0.00000000000E+00  0.15304553573E+04  0.15304553574E+04  0.50400001928E-02 0.  1.
        1   -1    0    0  501    0  0.00000000000E+00  0.00000000000E+00 -0.37410089927E+03  0.37410089930E+03  0.50400001928E-02 0. -1.
    10030    2    1    2    0    0  0.00000000000E+00  0.00000000000E+00  0.11563544581E+04  0.19045562567E+04  0.15133337048E+04 0.  0.
        5    1    3    3  502    0 -0.44217137429E+03  0.31688739557E+02 -0.19353381961E+03  0.48373249817E+03  0.46999998093E+01 0. -1.
       -5    1    3    3    0  502  0.44217137429E+03 -0.31688739557E+02  0.13498882777E+04  0.14208237585E+04  0.46999998093E+01 0.  1.
</event>
<event>
 5   0  0.1500956E-03  0.1468231E+04  0.7818609E-02  0.8905858E-01
       -2   -1    0    0    0  501  0.00000000000E+00  0.00000000000E+00  0.35682059948E+03  0.35682059949E+03  0.25500000920E-02 0.  1.
        2   -1    0    0  501    0  0.00000000000E+00  0.00000000000E+00 -0.15103539287E+04  0.15103539287E+04  0.25500000920E-02 0. -1.
    10030    2    1    2    0    0  0.00000000000E+00  0.00000000000E+00 -0.11535333292E+04  0.18671745282E+04  0.14682307642E+04 0.  0.
        4    1    3    3  502    0  0.41985483903E+03 -0.10206834106E+03 -0.13315153725E+04  0.13998681482E+04  0.12699999809E+01 0. -1.
       -4    1    3    3    0  502 -0.41985483903E+03  0.10206834106E+03  0.17798204336E+03  0.46730637997E+03  0.12699999809E+01 0.  1.
</event>
<event>
 5   0  0.8058234E-04  0.1477820E+04  0.7818609E-02  0.8899338E-01
       -1   -1    0    0    0  501  0.00000000000E+00  0.00000000000E+00  0.23428354188E+03  0.23428354193E+03  0.50400001928E-02 0. -1.
        1   -1    0    0  501    0  0.00000000000E+00  0.00000000000E+00 -0.23304591582E+04  0.23304591582E+04  0.50400001928E-02 0.  1.
    10030    2    1    2    0    0  0.00000000000E+00  0.00000000000E+00 -0.20961756163E+04  0.25647427001E+04  0.14778203218E+04 0.  0.
        5    1    3    3  502    0 -0.23599203534E+03  0.39683986997E+03 -0.46915992292E+02  0.46410917193E+03  0.46999998093E+01 0. -1.
       -5    1    3    3    0  502  0.23599203534E+03 -0.39683986997E+03 -0.20492596240E+04  0.21006335282E+04  0.46999998093E+01 0.  1.
</event>
<event>
 5   0  0.1511546E-03  0.1521870E+04  0.7818609E-02  0.8870038E-01
        2   -1    0    0  501    0  0.00000000000E+00  0.00000000000E+00  0.10756662023E+04  0.10756662023E+04  0.25500000920E-02 0.  1.
       -2   -1    0    0    0  501  0.00000000000E+00  0.00000000000E+00 -0.53829183852E+03  0.53829183852E+03  0.25500000920E-02 0. -1.
    10030    2    1    2    0    0  0.00000000000E+00  0.00000000000E+00  0.53737436381E+03  0.16139580409E+04  0.15218703462E+04 0.  0.
        1    1    3    3  502    0  0.38697343553E+03 -0.20750544934E+03 -0.39037952078E+03  0.58753988936E+03  0.50400001928E-02 0.  1.
       -1    1    3    3    0  502 -0.38697343553E+03  0.20750544934E+03  0.92775388460E+03  0.10264181515E+04  0.50400001928E-02 0. -1.
</event>
<event>
 5   0  0.8058234E-04  0.1527729E+04  0.7818609E-02  0.8866220E-01
       -1   -1    0    0    0  501  0.00000000000E+00  0.00000000000E+00  0.23086337992E+03  0.23086337998E+03  0.50400001928E-02 0. -1.
        1   -1    0    0  501    0  0.00000000000E+00  0.00000000000E+00 -0.25274213068E+04  0.25274213068E+04  0.50400001928E-02 0.  1.
    10030    2    1    2    0    0  0.00000000000E+00  0.00000000000E+00 -0.22965579268E+04  0.27582846868E+04  0.15277290669E+04 0.  0.
        5    1    3    3  502    0  0.17921674525E+03 -0.10920219078E+02 -0.24887541901E+04  0.24952269239E+04  0.46999998093E+01 0.  1.
       -5    1    3    3    0  502 -0.17921674525E+03  0.10920219078E+02  0.19219626329E+03  0.26305776283E+03  0.46999998093E+01 0. -1.
</event>
<event>
 5   0  0.8365016E-04  0.1494765E+04  0.7818609E-02  0.8887941E-01
       -1   -1    0    0    0  501  0.00000000000E+00  0.00000000000E+00  0.12855884330E+04  0.12855884331E+04  0.50400001928E-02 0. -1.
        1   -1    0    0  501    0  0.00000000000E+00  0.00000000000E+00 -0.43449420705E+03  0.43449420708E+03  0.50400001928E-02 0.  1.
    10030    2    1    2    0    0  0.00000000000E+00  0.00000000000E+00  0.85109422599E+03  0.17200826401E+04  0.14947651680E+04 0.  0.
        3    1    3    3  502    0  0.15307084700E+03  0.14366870121E+03  0.12509632855E+04  0.12684559637E+04  0.10100000352E+00 0. -1.
       -3    1    3    3    0  502 -0.15307084700E+03 -0.14366870121E+03 -0.39986905952E+03  0.45162667644E+03  0.10100000352E+00 0.  1.
</event>
<event>
 5   0  0.8365016E-04  0.1480401E+04  0.7818609E-02  0.8897592E-01
       -1   -1    0    0    0  501  0.00000000000E+00  0.00000000000E+00  0.50128073497E+03  0.50128073499E+03  0.50400001928E-02 0. -1.
        1   -1    0    0  501    0  0.00000000000E+00  0.00000000000E+00 -0.10929931692E+04  0.10929931692E+04  0.50400001928E-02 0.  1.
    10030    2    1    2    0    0  0.00000000000E+00  0.00000000000E+00 -0.59171243420E+03  0.15942739042E+04  0.14804005123E+04 0.  0.
        3    1    3    3  502    0 -0.46855495955E+03 -0.41740155896E+03  0.12693438381E+03  0.64021883722E+03  0.10100000352E+00 0. -1.
       -3    1    3    3    0  502  0.46855495955E+03  0.41740155896E+03 -0.71864681801E+03  0.95405506695E+03  0.10100000352E+00 0.  1.
</event>
<event>
 5   0  0.8058234E-04  0.1526509E+04  0.7818609E-02  0.8867014E-01
       -1   -1    0    0    0  501  0.00000000000E+00  0.00000000000E+00  0.63025595351E+03  0.63025595353E+03  0.50400001928E-02 0.  1.
        1   -1    0    0  501    0  0.00000000000E+00  0.00000000000E+00 -0.92431868177E+03  0.92431868179E+03  0.50400001928E-02 0. -1.
    10030    2    1    2    0    0  0.00000000000E+00  0.00000000000E+00 -0.29406272826E+03  0.15545746353E+04  0.15265088957E+04 0.  0.
        5    1    3    3  502    0 -0.72204274168E+03 -0.86167243289E+02  0.89104005705E+02  0.73262004372E+03  0.46999998093E+01 0.  1.
       -5    1    3    3    0  502  0.72204274168E+03  0.86167243289E+02 -0.38316673397E+03  0.82195459160E+03  0.46999998093E+01 0. -1.
</event>
<event>
 5   0  0.1500956E-03  0.1512447E+04  0.7818609E-02  0.8876218E-01
        2   -1    0    0  501    0  0.00000000000E+00  0.00000000000E+00  0.22820156297E+04  0.22820156297E+04  0.25500000920E-02 0.  1.
       -2   -1    0    0    0  501  0.00000000000E+00  0.00000000000E+00 -0.25060027611E+03  0.25060027612E+03  0.25500000920E-02 0. -1.
    10030    2    1    2    0    0  0.00000000000E+00  0.00000000000E+00  0.20314153536E+04  0.25326159058E+04  0.15124466892E+04 0.  0.
        4    1    3    3  502    0 -0.71678175522E+03  0.23873241227E+03  0.10713178586E+04  0.13109129706E+04  0.12699999809E+01 0.  1.
       -4    1    3    3    0  502  0.71678175522E+03 -0.23873241227E+03  0.96009749500E+03  0.12217029353E+04  0.12699999809E+01 0. -1.
</event>
<event>
 5   0  0.1552067E-03  0.1497214E+04  0.7818609E-02  0.8886308E-01
       -2   -1    0    0    0  501  0.00000000000E+00  0.00000000000E+00  0.43156830037E+03  0.43156830038E+03  0.25500000920E-02 0.  1.
        2   -1    0    0  501    0  0.00000000000E+00  0.00000000000E+00 -0.12985491547E+04  0.12985491547E+04  0.25500000920E-02 0. -1.
    10030    2    1    2    0    0  0.00000000000E+00  0.00000000000E+00 -0.86698085435E+03  0.17301174551E+04  0.14972142821E+04 0.  0.
        3    1    3    3  502    0 -0.10513014382E+03 -0.27885377197E+03 -0.12270488844E+04  0.12627195842E+04  0.10100000352E+00 0. -1.
       -3    1    3    3    0  502  0.10513014382E+03  0.27885377197E+03  0.36006803007E+03  0.46739787094E+03  0.10100000352E+00 0.  1.
</event>
<event>
 5   0  0.1526126E-03  0.1533061E+04  0.7818609E-02  0.8862761E-01
       -2   -1    0    0    0  501  0.00000000000E+00  0.00000000000E+00  0.40176591082E+03  0.40176591083E+03  0.25500000920E-02 0. -1.
        2   -1    0    0  501    0  0.00000000000E+00  0.00000000000E+00 -0.14624662499E+04  0.14624662499E+04  0.25500000920E-02 0.  1.
    10030    2    1    2    0    0  0.00000000000E+00  0.00000000000E+00 -0.10607003391E+04  0.18642321608E+04  0.15330611012E+04 0.  0.
        2    1    3    3  502    0  0.19786598830E+03 -0.72974387965E+03 -0.37705449938E+03  0.84489477139E+03  0.25500000920E-02 0. -1.
       -2    1    3    3    0  502 -0.19786598830E+03  0.72974387965E+03 -0.68364583973E+03  0.10193373894E+04  0.25500000920E-02 0.  1.
</event>
<event>
 5   0  0.1511546E-03  0.1515423E+04  0.7818609E-02  0.8874261E-01
        2   -1    0    0  501    0  0.00000000000E+00  0.00000000000E+00  0.71208186115E+03  0.71208186116E+03  0.25500000920E-02 0.  1.
       -2   -1    0    0    0  501  0.00000000000E+00  0.00000000000E+00 -0.80626470369E+03  0.80626470369E+03  0.25500000920E-02 0. -1.
    10030    2    1    2    0    0  0.00000000000E+00  0.00000000000E+00 -0.94182842534E+02  0.15183465648E+04  0.15154226748E+04 0.  0.
        1    1    3    3  502    0 -0.56952056274E+03 -0.49530493590E+03  0.19714208246E+02  0.75502933780E+03  0.50400001928E-02 0.  1.
       -1    1    3    3    0  502  0.56952056274E+03  0.49530493590E+03 -0.11389705078E+03  0.76331722705E+03  0.50400001928E-02 0. -1.
</event>
<event>
 5   0  0.1484056E-03  0.1436559E+04  0.7818609E-02  0.8927772E-01
        2   -1    0    0  501    0  0.00000000000E+00  0.00000000000E+00  0.61686982575E+03  0.61686982575E+03  0.25500000920E-02 0.  1.
       -2   -1    0    0    0  501  0.00000000000E+00  0.00000000000E+00 -0.83636017471E+03  0.83636017471E+03  0.25500000920E-02 0. -1.
    10030    2    1    2    0    0  0.00000000000E+00  0.00000000000E+00 -0.21949034896E+03  0.14532300005E+04  0.14365588818E+04 0.  0.
        5    1    3    3  502    0  0.21113210507E+03  0.57979130721E+03  0.26217414107E+03  0.67044171704E+03  0.46999998093E+01 0.  1.
       -5    1    3    3    0  502 -0.21113210507E+03 -0.57979130721E+03 -0.48166449003E+03  0.78278828342E+03  0.46999998093E+01 0. -1.
</event>
<event>
 5   0  0.1552067E-03  0.1503045E+04  0.7818609E-02  0.8882431E-01
       -2   -1    0    0    0  501  0.00000000000E+00  0.00000000000E+00  0.43298382600E+03  0.43298382600E+03  0.25500000920E-02 0.  1.
        2   -1    0    0  501    0  0.00000000000E+00  0.00000000000E+00 -0.13044041944E+04  0.13044041944E+04  0.25500000920E-02 0. -1.
    10030    2    1    2    0    0  0.00000000000E+00  0.00000000000E+00 -0.87142036840E+03  0.17373880204E+04  0.15030448014E+04 0.  0.
        3    1    3    3  502    0  0.64260451236E+03 -0.30758941408E+03 -0.71224660137E+03  0.10073961675E+04  0.10100000352E+00 0. -1.
       -3    1    3    3    0  502 -0.64260451236E+03  0.30758941408E+03 -0.15917376703E+03  0.72999185288E+03  0.10100000352E+00 0.  1.
</event>
<event>
 5   0  0.7870317E-04  0.1526176E+04  0.7818609E-02  0.8867230E-01
       -1   -1    0    0    0  501  0.00000000000E+00  0.00000000000E+00  0.12752780757E+04  0.12752780757E+04  0.50400001928E-02 0.  1.
        1   -1    0    0  501    0  0.00000000000E+00  0.00000000000E+00 -0.45660899919E+03  0.45660899922E+03  0.50400001928E-02 0. -1.
    10030    2    1    2    0    0  0.00000000000E+00  0.00000000000E+00  0.81866907651E+03  0.17318870749E+04  0.15261761967E+04 0.  0.
        1    1    3    3  502    0  0.37448536502E+03 -0.66429612758E+03  0.37774719542E+03  0.85101209005E+03  0.50400001928E-02 0.  1.
       -1    1    3    3    0  502 -0.37448536502E+03  0.66429612758E+03  0.44092188109E+03  0.88087498488E+03  0.50400001928E-02 0. -1.
</event>
<event>
 5   0  0.8365016E-04  0.1515624E+04  0.7818609E-02  0.8874129E-01
       -1   -1    0    0    0  501  0.00000000000E+00  0.00000000000E+00  0.38771250836E+03  0.38771250840E+03  0.50400001928E-02 0. -1.
        1   -1    0    0  501    0  0.00000000000E+00  0.00000000000E+00 -0.14811979070E+04  0.14811979070E+04  0.50400001928E-02 0.  1.
    10030    2    1    2    0    0  0.00000000000E+00  0.00000000000E+00 -0.10934853986E+04  0.18689104154E+04  0.15156239058E+04 0.  0.
        3    1    3    3  502    0 -0.16191390326E+03  0.66179922097E+03 -0.13761359898E+03  0.69507685458E+03  0.10100000352E+00 0. -1.
       -3    1    3    3    0  502  0.16191390326E+03 -0.66179922097E+03 -0.95587179963E+03  0.11738335608E+04  0.10100000352E+00 0.  1.
</event>
<event>
 5   0  0.8058234E-04  0.1486861E+04  0.7818609E-02  0.8893238E-01
       -1   -1    0    0    0  501  0.00000000000E+00  0.00000000000E+00  0.72039473823E+03  0.72039473825E+03  0.50400001928E-02 0. -1.
        1   -1    0    0  501    0  0.00000000000E+00  0.00000000000E+00 -0.76720256691E+03  0.76720256693E+03  0.50400001928E-02 0.  1.
    10030    2    1    2    0    0  0.00000000000E+00  0.00000000000E+00 -0.46807828687E+02  0.14875973052E+04  0.14868607095E+04 0.  0.
        5    1    3    3  502    0 -0.59942029973E+03  0.38596484928E+03  0.18739702870E+03  0.73716571880E+03  0.46999998093E+01 0. -1.
       -5    1    3    3    0  502  0.59942029973E+03 -0.38596484928E+03 -0.23420485739E+03  0.75043158638E+03  0.46999998093E+01 0.  1.
</event>
<event>
 5   0  0.8365016E-04  0.1520077E+04  0.7818609E-02  0.8871211E-01
        1   -1    0    0  501    0  0.00000000000E+00  0.00000000000E+00  0.10678610101E+04  0.10678610101E+04  0.50400001928E-02 0. -1.
       -1   -1    0    0    0  501  0.00000000000E+00  0.00000000000E+00 -0.54094931945E+03  0.54094931947E+03  0.50400001928E-02 0.  1.
    10030    2    1    2    0    0  0.00000000000E+00  0.00000000000E+00  0.52691169065E+03  0.16088103296E+04  0.15200772174E+04 0.  0.
        3    1    3    3  502    0  0.69784615361E+03  0.27051553857E+03  0.12348305889E+03  0.75856178836E+03  0.10100000352E+00 0. -1.
       -3    1    3    3    0  502 -0.69784615361E+03 -0.27051553857E+03  0.40342863176E+03  0.85024854122E+03  0.10100000352E+00 0.  1.
</event>
<event>
 5   0  0.1526126E-03  0.1672374E+04  0.7818609E-02  0.8777279E-01
       -2   -1    0    0    0  501  0.00000000000E+00  0.00000000000E+00  0.65577488812E+03  0.65577488813E+03  0.25500000920E-02 0.  1.
        2   -1    0    0  501    0  0.00000000000E+00  0.00000000000E+00 -0.10662332646E+04  0.10662332646E+04  0.25500000920E-02 0. -1.
    10030    2    1    2    0    0  0.00000000000E+00  0.00000000000E+00 -0.41045837651E+03  0.17220081528E+04  0.16723743598E+04 0.  0.
        2    1    3    3  502    0  0.12449595804E+03 -0.74706111620E+03  0.15970357114E+03  0.77401859509E+03  0.25500000920E-02 0. -1.
       -2    1    3    3    0  502 -0.12449595804E+03  0.74706111620E+03 -0.57016194765E+03  0.94798955768E+03  0.25500000920E-02 0.  1.
</event>
<event>
 5   0  0.1552067E-03  0.1445007E+04  0.7818609E-02  0.8921869E-01
        2   -1    0    0  501    0  0.00000000000E+00  0.00000000000E+00  0.95844687818E+03  0.95844687818E+03  0.25500000920E-02 0.  1.
       -2   -1    0    0    0  501  0.00000000000E+00  0.00000000000E+00 -0.54464321838E+03  0.54464321838E+03  0.25500000920E-02 0. -1.
    10030    2    1    2    0    0  0.00000000000E+00  0.00000000000E+00  0.41380365980E+03  0.15030900966E+04  0.14450073943E+04 0.  0.
        3    1    3    3  502    0  0.25431280847E+03  0.46410112352E+03  0.71855399669E+03  0.89240389610E+03  0.10100000352E+00 0.  1.
       -3    1    3    3    0  502 -0.25431280847E+03 -0.46410112352E+03 -0.30475033689E+03  0.61068620047E+03  0.10100000352E+00 0. -1.
</event>
<event>
 5   0  0.8365016E-04  0.1516786E+04  0.7818609E-02  0.8873367E-01
       -1   -1    0    0    0  501  0.00000000000E+00  0.00000000000E+00  0.83009630803E+03  0.83009630804E+03  0.50400001928E-02 0.  1.
        1   -1    0    0  501    0  0.00000000000E+00  0.00000000000E+00 -0.69288310377E+03  0.69288310379E+03  0.50400001928E-02 0. -1.
    10030    2    1    2    0    0  0.00000000000E+00  0.00000000000E+00  0.13721320426E+03  0.15229794118E+04  0.15167856887E+04 0.  0.
        3    1    3    3  502    0  0.41600838768E+03  0.62334191602E+03 -0.48236847985E+02  0.75096266658E+03  0.10100000352E+00 0. -1.
       -3    1    3    3    0  502 -0.41600838768E+03 -0.62334191602E+03  0.18545005224E+03  0.77201674526E+03  0.10100000352E+00 0.  1.
</event>
<event>
 5   0  0.8191876E-04  0.1475823E+04  0.7818609E-02  0.8900691E-01
        1   -1    0    0  501    0  0.00000000000E+00  0.00000000000E+00  0.69574221127E+03  0.69574221129E+03  0.50400001928E-02 0.  1.
       -1   -1    0    0    0  501  0.00000000000E+00  0.00000000000E+00 -0.78263674264E+03  0.78263674265E+03  0.50400001928E-02 0. -1.
    10030    2    1    2    0    0  0.00000000000E+00  0.00000000000E+00 -0.86894531365E+02  0.14783789539E+04  0.14758230490E+04 0.  0.
        2    1    3    3  502    0 -0.18934021534E+03  0.12774438860E+03  0.65944097925E+03  0.69787588516E+03  0.25500000920E-02 0.  1.
       -2    1    3    3    0  502  0.18934021534E+03 -0.12774438860E+03 -0.74633551061E+03  0.78050306878E+03  0.25500000920E-02 0. -1.
</event>
<event>
 5   0  0.1526126E-03  0.1454130E+04  0.7818609E-02  0.8915542E-01
       -2   -1    0    0    0  501  0.00000000000E+00  0.00000000000E+00  0.59743216074E+03  0.59743216074E+03  0.25500000920E-02 0. -1.
        2   -1    0    0  501    0  0.00000000000E+00  0.00000000000E+00 -0.88482606204E+03  0.88482606204E+03  0.25500000920E-02 0.  1.
    10030    2    1    2    0    0  0.00000000000E+00  0.00000000000E+00 -0.28739390131E+03  0.14822582228E+04  0.14541300439E+04 0.  0.
        2    1    3    3  502    0 -0.70627250275E+03 -0.81991620994E+02  0.11163030121E+02  0.71110342940E+03  0.25500000920E-02 0. -1.
       -2    1    3    3    0  502  0.70627250275E+03  0.81991620994E+02 -0.29855693143E+03  0.77115479339E+03  0.25500000920E-02 0.  1.
</event>
<event>
 5   0  0.8306301E-04  0.1494400E+04  0.7818609E-02  0.8888185E-01
       -1   -1    0    0    0  501  0.00000000000E+00  0.00000000000E+00  0.43393152972E+03  0.43393152975E+03  0.50400001928E-02 0. -1.
        1   -1    0    0  501    0  0.00000000000E+00  0.00000000000E+00 -0.12866272759E+04  0.12866272759E+04  0.50400001928E-02 0.  1.
    10030    2    1    2    0    0  0.00000000000E+00  0.00000000000E+00 -0.85269574619E+03  0.17205588057E+04  0.14944004042E+04 0.  0.
        4    1    3    3  502    0 -0.65584018615E+03 -0.24952515301E+03 -0.72194656259E+03  0.10067758459E+04  0.12699999809E+01 0.  1.
       -4    1    3    3    0  502  0.65584018615E+03  0.24952515301E+03 -0.13074918359E+03  0.71378295977E+03  0.12699999809E+01 0. -1.
</event>
<event>
 5   0  0.1511546E-03  0.1436496E+04  0.7818609E-02  0.8927816E-01
       -2   -1    0    0    0  501  0.00000000000E+00  0.00000000000E+00  0.23510046084E+03  0.23510046085E+03  0.25500000920E-02 0. -1.
        2   -1    0    0  501    0  0.00000000000E+00  0.00000000000E+00 -0.21942977337E+04  0.21942977337E+04  0.25500000920E-02 0.  1.
    10030    2    1    2    0    0  0.00000000000E+00  0.00000000000E+00 -0.19591972729E+04  0.24293981946E+04  0.14364963048E+04 0.  0.
        1    1    3    3  502    0  0.56898141345E+02 -0.80222050217E+02 -0.21828557836E+04  0.21850703302E+04  0.50400001928E-02 0.  1.
       -1    1    3    3    0  502 -0.56898141345E+02  0.80222050217E+02  0.22365851077E+03  0.24432786434E+03  0.50400001928E-02 0. -1.
</event>
<event>
 5   0  0.8306301E-04  0.1539062E+04  0.7818609E-02  0.8858884E-01
       -1   -1    0    0    0  501  0.00000000000E+00  0.00000000000E+00  0.28807557467E+03  0.28807557471E+03  0.50400001928E-02 0.  1.
        1   -1    0    0  501    0  0.00000000000E+00  0.00000000000E+00 -0.20556352469E+04  0.20556352470E+04  0.50400001928E-02 0. -1.
    10030    2    1    2    0    0  0.00000000000E+00  0.00000000000E+00 -0.17675596723E+04  0.23437108217E+04  0.15390624485E+04 0.  0.
        4    1    3    3  502    0  0.23628670866E+03  0.64523864944E+03 -0.35623328606E+03  0.77399489043E+03  0.12699999809E+01 0.  1.
       -4    1    3    3    0  502 -0.23628670866E+03 -0.64523864944E+03 -0.14113263862E+04  0.15697159312E+04  0.12699999809E+01 0. -1.
</event>
<event>
 5   0  0.8365016E-04  0.1479984E+04  0.7818609E-02  0.8897873E-01
        1   -1    0    0  501    0  0.00000000000E+00  0.00000000000E+00  0.11053744805E+04  0.11053744805E+04  0.50400001928E-02 0.  1.
       -1   -1    0    0    0  501  0.00000000000E+00  0.00000000000E+00 -0.49538717719E+03  0.49538717722E+03  0.50400001928E-02 0. -1.
    10030    2    1    2    0    0  0.00000000000E+00  0.00000000000E+00  0.60998730328E+03  0.16007616577E+04  0.14799842481E+04 0.  0.
        3    1    3    3  502    0 -0.44134660928E+03  0.58357778895E+02 -0.33434132734E+03  0.55675541601E+03  0.10100000352E+00 0. -1.
       -3    1    3    3    0  502  0.44134660928E+03 -0.58357778895E+02  0.94432863062E+03  0.10440062417E+04  0.10100000352E+00 0.  1.
</event>
<event>
 5   0  0.8191876E-04  0.9308648E+03  0.7818609E-02  0.9387801E-01
        1   -1    0    0  501    0  0.00000000000E+00  0.00000000000E+00  0.67882188223E+03  0.67882188225E+03  0.50400001928E-02 0.  1.
       -1   -1    0    0    0  501  0.00000000000E+00  0.00000000000E+00 -0.31912244930E+03  0.31912244934E+03  0.50400001928E-02 0. -1.
    10030    2    1    2    0    0  0.00000000000E+00  0.00000000000E+00  0.35969943294E+03  0.99794433159E+03  0.93086476294E+03 0.  0.
        2    1    3    3  502    0 -0.24866207586E+03  0.79801340878E+02  0.59287347852E+03  0.64784260706E+03  0.25500000920E-02 0.  1.
       -2    1    3    3    0  502  0.24866207586E+03 -0.79801340878E+02 -0.23317404558E+03  0.35010172453E+03  0.25500000920E-02 0. -1.
</event>
<event>
 5   0  0.1511546E-03  0.1496622E+04  0.7818609E-02  0.8886702E-01
        2   -1    0    0  501    0  0.00000000000E+00  0.00000000000E+00  0.78246408043E+03  0.78246408044E+03  0.25500000920E-02 0. -1.
       -2   -1    0    0    0  501  0.00000000000E+00  0.00000000000E+00 -0.71564898709E+03  0.71564898710E+03  0.25500000920E-02 0.  1.
    10030    2    1    2    0    0  0.00000000000E+00  0.00000000000E+00  0.66815093343E+02  0.14981130675E+04  0.14966223660E+04 0.  0.
        1    1    3    3  502    0 -0.83639705503E+02 -0.32903771654E+03 -0.63412113908E+03  0.71928508833E+03  0.50400001928E-02 0.  1.
       -1    1    3    3    0  502  0.83639705503E+02  0.32903771654E+03  0.70093623242E+03  0.77882797920E+03  0.50400001928E-02 0. -1.
</event>
<event>
 5   0  0.1484056E-03  0.1499601E+04  0.7818609E-02  0.8884718E-01
       -2   -1    0    0    0  501  0.00000000000E+00  0.00000000000E+00  0.43480205902E+03  0.43480205903E+03  0.25500000920E-02 0.  1.
        2   -1    0    0  501    0  0.00000000000E+00  0.00000000000E+00 -0.12930037537E+04  0.12930037538E+04  0.25500000920E-02 0. -1.
    10030    2    1    2    0    0  0.00000000000E+00  0.00000000000E+00 -0.85820169473E+03  0.17278058128E+04  0.14996008728E+04 0.  0.
        5    1    3    3  502    0  0.73668838884E+03  0.13817944815E+03 -0.40678123083E+03  0.85281674578E+03  0.46999998093E+01 0. -1.
       -5    1    3    3    0  502 -0.73668838884E+03 -0.13817944815E+03 -0.45142046390E+03  0.87498906700E+03  0.46999998093E+01 0.  1.
</event>
<event>
 5   0  0.8058234E-04  0.1510852E+04  0.7818609E-02  0.8877269E-01
        1   -1    0    0  501    0  0.00000000000E+00  0.00000000000E+00  0.20721019307E+04  0.20721019307E+04  0.50400001928E-02 0.  1.
       -1   -1    0    0    0  501  0.00000000000E+00  0.00000000000E+00 -0.27540551203E+03  0.27540551208E+03  0.50400001928E-02 0. -1.
    10030    2    1    2    0    0  0.00000000000E+00  0.00000000000E+00  0.17966964186E+04  0.23475074427E+04  0.15108518038E+04 0.  0.
        5    1    3    3  502    0 -0.20619192380E+03 -0.27142648771E+03  0.19457959104E+04  0.19754319180E+04  0.46999998093E+01 0.  1.
       -5    1    3    3    0  502  0.20619192380E+03  0.27142648771E+03 -0.14909949177E+03  0.37207552475E+03  0.46999998093E+01 0. -1.
</event>
<event>
 5   0  0.1500956E-03  0.1469660E+04  0.7818609E-02  0.8904883E-01
        2   -1    0    0  501    0  0.00000000000E+00  0.00000000000E+00  0.20614505698E+04  0.20614505698E+04  0.25500000920E-02 0.  1.
       -2   -1    0    0    0  501  0.00000000000E+00  0.00000000000E+00 -0.26193938043E+03  0.26193938045E+03  0.25500000920E-02 0. -1.
    10030    2    1    2    0    0  0.00000000000E+00  0.00000000000E+00  0.17995111894E+04  0.23233899503E+04  0.14696599404E+04 0.  0.
        4    1    3    3  502    0 -0.40825642793E+03 -0.92769783443E+02 -0.54950107825E+02  0.42225664105E+03  0.12699999809E+01 0. -1.
       -4    1    3    3    0  502  0.40825642793E+03  0.92769783443E+02  0.18544612972E+04  0.19011333092E+04  0.12699999809E+01 0.  1.
</event>
<event>
 5   0  0.7870317E-04  0.1491395E+04  0.7818609E-02  0.8890195E-01
       -1   -1    0    0    0  501  0.00000000000E+00  0.00000000000E+00  0.28809549249E+03  0.28809549253E+03  0.50400001928E-02 0. -1.
        1   -1    0    0  501    0  0.00000000000E+00  0.00000000000E+00 -0.19301409195E+04  0.19301409195E+04  0.50400001928E-02 0.  1.
    10030    2    1    2    0    0  0.00000000000E+00  0.00000000000E+00 -0.16420454270E+04  0.22182364120E+04  0.14913951842E+04 0.  0.
        1    1    3    3  502    0 -0.44800667425E+03  0.58783015419E+03 -0.96834332326E+03  0.12181720166E+04  0.50400001928E-02 0.  1.
       -1    1    3    3    0  502  0.44800667425E+03 -0.58783015419E+03 -0.67370210377E+03  0.10000643954E+04  0.50400001928E-02 0. -1.
</event>
<event>
 5   0  0.8058234E-04  0.1477183E+04  0.7818609E-02  0.8899769E-01
        1   -1    0    0  501    0  0.00000000000E+00  0.00000000000E+00  0.71448647607E+03  0.71448647609E+03  0.50400001928E-02 0.  1.
       -1   -1    0    0    0  501  0.00000000000E+00  0.00000000000E+00 -0.76351000859E+03  0.76351000860E+03  0.50400001928E-02 0. -1.
    10030    2    1    2    0    0  0.00000000000E+00  0.00000000000E+00 -0.49023532514E+02  0.14779964847E+04  0.14771832324E+04 0.  0.
        5    1    3    3  502    0  0.36167442837E+03 -0.64174301780E+03  0.28931051076E+02  0.73722560234E+03  0.46999998093E+01 0.  1.
       -5    1    3    3    0  502 -0.36167442837E+03  0.64174301780E+03 -0.77954583590E+02  0.74077088235E+03  0.46999998093E+01 0. -1.
</event>
<event>
 5   0  0.8191876E-04  0.1494540E+04  0.7818609E-02  0.8888092E-01
       -1   -1    0    0    0  501  0.00000000000E+00  0.00000000000E+00  0.21544136876E+04  0.21544136876E+04  0.50400001928E-02 0.  1.
        1   -1    0    0  501    0  0.00000000000E+00  0.00000000000E+00 -0.25919477232E+03  0.25919477237E+03  0.50400001928E-02 0. -1.
    10030    2    1    2    0    0  0.00000000000E+00  0.00000000000E+00  0.18952189153E+04  0.24136084600E+04  0.14945404181E+04 0.  0.
        2    1    3    3  502    0 -0.59996718416E+03 -0.39676670435E+03  0.12747249036E+04  0.14636625361E+04  0.25500000920E-02 0. -1.
       -2    1    3    3    0  502  0.59996718416E+03  0.39676670435E+03  0.62049401171E+03  0.94994592390E+03  0.25500000920E-02 0.  1.
</event>
<event>
 5   0  0.8191876E-04  0.1552076E+04  0.7818609E-02  0.8850543E-01
       -1   -1    0    0    0  501  0.00000000000E+00  0.00000000000E+00  0.31957595815E+03  0.31957595819E+03  0.50400001928E-02 0. -1.
        1   -1    0    0  501    0  0.00000000000E+00  0.00000000000E+00 -0.18844803698E+04  0.18844803698E+04  0.50400001928E-02 0.  1.
    10030    2    1    2    0    0  0.00000000000E+00  0.00000000000E+00 -0.15649044116E+04  0.22040563280E+04  0.15520755392E+04 0.  0.
        2    1    3    3  502    0  0.66346917916E+03  0.32639660253E+03 -0.44788013653E+03  0.86447828807E+03  0.25500000920E-02 0. -1.
       -2    1    3    3    0  502 -0.66346917916E+03 -0.32639660253E+03 -0.11170242751E+04  0.13395780399E+04  0.25500000920E-02 0.  1.
</event>
<event>
 5   0  0.8058234E-04  0.1483322E+04  0.7818609E-02  0.8895620E-01
        1   -1    0    0  501    0  0.00000000000E+00  0.00000000000E+00  0.48504150932E+03  0.48504150935E+03  0.50400001928E-02 0.  1.
       -1   -1    0    0    0  501  0.00000000000E+00  0.00000000000E+00 -0.11340494891E+04  0.11340494891E+04  0.50400001928E-02 0. -1.
    10030    2    1    2    0    0  0.00000000000E+00  0.00000000000E+00 -0.64900797973E+03  0.16190909984E+04  0.14833220498E+04 0.  0.
        5    1    3    3  502    0  0.45145779230E+02 -0.21988816166E+03  0.44705434875E+03  0.50026855364E+03  0.46999998093E+01 0.  1.
       -5    1    3    3    0  502 -0.45145779230E+02  0.21988816166E+03 -0.10960623285E+04  0.11188224448E+04  0.46999998093E+01 0. -1.
</event>
<event>
 5   0  0.8058234E-04  0.1484030E+04  0.7818609E-02  0.8895143E-01
        1   -1    0    0  501    0  0.00000000000E+00  0.00000000000E+00  0.98622246358E+03  0.98622246360E+03  0.50400001928E-02 0.  1.
       -1   -1    0    0    0  501  0.00000000000E+00  0.00000000000E+00 -0.55827798801E+03  0.55827798803E+03  0.50400001928E-02 0. -1.
    10030    2    1    2    0    0  0.00000000000E+00  0.00000000000E+00  0.42794447558E+03  0.15445004516E+04  0.14840300438E+04 0.  0.
        5    1    3    3  502    0  0.54739580307E+03 -0.39490533433E+03  0.53470454917E+03  0.86111754900E+03  0.46999998093E+01 0.  1.
       -5    1    3    3    0  502 -0.54739580307E+03  0.39490533433E+03 -0.10676007359E+03  0.68338290263E+03  0.46999998093E+01 0. -1.
</event>
<event>
 5   0  0.8191876E-04  0.1476409E+04  0.7818609E-02  0.8900294E-01
       -1   -1    0    0    0  501  0.00000000000E+00  0.00000000000E+00  0.46303093654E+03  0.46303093657E+03  0.50400001928E-02 0.  1.
        1   -1    0    0  501    0  0.00000000000E+00  0.00000000000E+00 -0.11769101738E+04  0.11769101739E+04  0.50400001928E-02 0. -1.
    10030    2    1    2    0    0  0.00000000000E+00  0.00000000000E+00 -0.71387923730E+03  0.16399411104E+04  0.14764089136E+04 0.  0.
        2    1    3    3  502    0  0.25059497307E+03 -0.57036648181E+03 -0.79682167150E+03  0.10114546655E+04  0.25500000920E-02 0. -1.
       -2    1    3    3    0  502 -0.25059497307E+03  0.57036648181E+03  0.82942434201E+02  0.62848644496E+03  0.25500000920E-02 0.  1.
</event>
<event>
 5   0  0.8191876E-04  0.1421005E+04  0.7818609E-02  0.8938753E-01
       -1   -1    0    0    0  501  0.00000000000E+00  0.00000000000E+00  0.40020959371E+03  0.40020959375E+03  0.50400001928E-02 0. -1.
        1   -1    0    0  501    0  0.00000000000E+00  0.00000000000E+00 -0.12613742827E+04  0.12613742827E+04  0.50400001928E-02 0.  1.
    10030    2    1    2    0    0  0.00000000000E+00  0.00000000000E+00 -0.86116468894E+03  0.16615838764E+04  0.14210054035E+04 0.  0.
        2    1    3    3  502    0 -0.56620633291E+03 -0.12889172787E+03  0.48134067779E+02  0.58268308490E+03  0.25500000920E-02 0.  1.
       -2    1    3    3    0  502  0.56620633291E+03  0.12889172787E+03 -0.90929875672E+03  0.10789007915E+04  0.25500000920E-02 0. -1.
</event>
<event>
 5   0  0.5603875E-04  0.1527148E+04  0.7818609E-02  0.8866598E-01
       -4   -1    0    0    0  501  0.00000000000E+00  0.00000000000E+00  0.80060311766E+03  0.80060412497E+03  0.12699999809E+01 0. -1.
        4   -1    0    0  501    0  0.00000000000E+00  0.00000000000E+00 -0.72825519846E+03  0.72825630584E+03  0.12699999809E+01 0.  1.
    10030    2    1    2    0    0  0.00000000000E+00  0.00000000000E+00  0.72347919200E+02  0.15288604308E+04  0.15271476666E+04 0.  0.
        5    1    3    3  502    0  0.26989949941E+03  0.61354514630E+03 -0.32994034010E+03  0.74710514946E+03  0.46999998093E+01 0.  1.
       -5    1    3    3    0  502 -0.26989949941E+03 -0.61354514630E+03  0.40228825930E+03  0.78175528134E+03  0.46999998093E+01 0. -1.
</event>
<event>
 5   0  0.1511546E-03  0.1322312E+04  0.7818609E-02  0.9012056E-01
        2   -1    0    0  501    0  0.00000000000E+00  0.00000000000E+00  0.14422736290E+04  0.14422736290E+04  0.25500000920E-02 0.  1.
       -2   -1    0    0    0  501  0.00000000000E+00  0.00000000000E+00 -0.30308221241E+03  0.30308221242E+03  0.25500000920E-02 0. -1.
    10030    2    1    2    0    0  0.00000000000E+00  0.00000000000E+00  0.11391914166E+04  0.17453558414E+04  0.13223123419E+04 0.  0.
        1    1    3    3  502    0 -0.53842536835E+03  0.38040878524E+03  0.63578661160E+03  0.91588063452E+03  0.50400001928E-02 0.  1.
       -1    1    3    3    0  502  0.53842536835E+03 -0.38040878524E+03  0.50340480501E+03  0.82947520692E+03  0.50400001928E-02 0. -1.
</event>
<event>
 5   0  0.8058234E-04  0.1492418E+04  0.7818609E-02  0.8889511E-01
       -1   -1    0    0    0  501  0.00000000000E+00  0.00000000000E+00  0.10833165224E+04  0.10833165224E+04  0.50400001928E-02 0. -1.
        1   -1    0    0  501    0  0.00000000000E+00  0.00000000000E+00 -0.51400286423E+03  0.51400286426E+03  0.50400001928E-02 0.  1.
    10030    2    1    2    0    0  0.00000000000E+00  0.00000000000E+00  0.56931365819E+03  0.15973193867E+04  0.14924178978E+04 0.  0.
        5    1    3    3  502    0  0.69433468198E+03 -0.24991484626E+03  0.16620896201E+03  0.75644272092E+03  0.46999998093E+01 0.  1.
       -5    1    3    3    0  502 -0.69433468198E+03  0.24991484626E+03  0.40310469618E+03  0.84087666578E+03  0.46999998093E+01 0. -1.
</event>
<event>
 5   0  0.8191876E-04  0.1221291E+04  0.7818609E-02  0.9094422E-01
        1   -1    0    0  501    0  0.00000000000E+00  0.00000000000E+00  0.24512158030E+04  0.24512158030E+04  0.50400001928E-02 0.  1.
       -1   -1    0    0    0  501  0.00000000000E+00  0.00000000000E+00 -0.15212354885E+03  0.15212354893E+03  0.50400001928E-02 0. -1.
    10030    2    1    2    0    0  0.00000000000E+00  0.00000000000E+00  0.22990922542E+04  0.26033393520E+04  0.12212905421E+04 0.  0.
        2    1    3    3  502    0  0.11564224870E+03 -0.27717558616E+03  0.16191978534E+02  0.30076837504E+03  0.25500000920E-02 0. -1.
       -2    1    3    3    0  502 -0.11564224870E+03  0.27717558616E+03  0.22829002757E+04  0.23025709769E+04  0.25500000920E-02 0.  1.
</event>
<event>
 5   0  0.7870317E-04  0.1508017E+04  0.7818609E-02  0.8879139E-01
       -1   -1    0    0    0  501  0.00000000000E+00  0.00000000000E+00  0.37519832475E+03  0.37519832478E+03  0.50400001928E-02 0.  1.
        1   -1    0    0  501    0  0.00000000000E+00  0.00000000000E+00 -0.15152748203E+04  0.15152748203E+04  0.50400001928E-02 0. -1.
    10030    2    1    2    0    0  0.00000000000E+00  0.00000000000E+00 -0.11400764956E+04  0.18904731451E+04  0.15080166765E+04 0.  0.
        1    1    3    3  502    0 -0.21253141881E+03  0.42552441676E+03  0.16339428094E+03  0.50292974093E+03  0.50400001928E-02 0.  1.
       -1    1    3    3    0  502  0.21253141881E+03 -0.42552441676E+03 -0.13034707765E+04  0.13875434042E+04  0.50400001928E-02 0. -1.
</event>
<event>
 5   0  0.1484056E-03  0.1507618E+04  0.7818609E-02  0.8879403E-01
       -2   -1    0    0    0  501  0.00000000000E+00  0.00000000000E+00  0.50065730347E+03  0.50065730347E+03  0.25500000920E-02 0.  1.
        2   -1    0    0  501    0  0.00000000000E+00  0.00000000000E+00 -0.11349640777E+04  0.11349640777E+04  0.25500000920E-02 0. -1.
    10030    2    1    2    0    0  0.00000000000E+00  0.00000000000E+00 -0.63430677420E+03  0.16356213811E+04  0.15076180613E+04 0.  0.
        5    1    3    3  502    0  0.26911929570E+03 -0.57309200109E+03 -0.76096589795E+03  0.98992465616E+03  0.46999998093E+01 0. -1.
       -5    1    3    3    0  502 -0.26911929570E+03  0.57309200109E+03  0.12665912374E+03  0.64569672499E+03  0.46999998093E+01 0.  1.
</event>
<event>
 5   0  0.1484056E-03  0.1504743E+04  0.7818609E-02  0.8881305E-01
       -2   -1    0    0    0  501  0.00000000000E+00  0.00000000000E+00  0.90768289809E+03  0.90768289809E+03  0.25500000920E-02 0.  1.
        2   -1    0    0  501    0  0.00000000000E+00  0.00000000000E+00 -0.62363515622E+03  0.62363515623E+03  0.25500000920E-02 0. -1.
    10030    2    1    2    0    0  0.00000000000E+00  0.00000000000E+00  0.28404774187E+03  0.15313180543E+04  0.15047431222E+04 0.  0.
        5    1    3    3  502    0  0.50018093335E+01 -0.72545197856E+03 -0.60833690408E+02  0.72803050704E+03  0.46999998093E+01 0. -1.
       -5    1    3    3    0  502 -0.50018093335E+01  0.72545197856E+03  0.34488143228E+03  0.80328754728E+03  0.46999998093E+01 0.  1.
</event>
<event>
 5   0  0.1500956E-03  0.1483733E+04  0.7818609E-02  0.8895343E-01
        2   -1    0    0  501    0  0.00000000000E+00  0.00000000000E+00  0.57654579326E+03  0.57654579326E+03  0.25500000920E-02 0.  1.
       -2   -1    0    0    0  501  0.00000000000E+00  0.00000000000E+00 -0.95459148643E+03  0.95459148643E+03  0.25500000920E-02 0. -1.
    10030    2    1    2    0    0  0.00000000000E+00  0.00000000000E+00 -0.37804569317E+03  0.15311372797E+04  0.14837327331E+04 0.  0.
        4    1    3    3  502    0 -0.53827418596E+02  0.37041234026E+03 -0.85000355117E+03  0.92876818567E+03  0.12699999809E+01 0. -1.
       -4    1    3    3    0  502  0.53827418596E+02 -0.37041234026E+03  0.47195785800E+03  0.60236909402E+03  0.12699999809E+01 0.  1.
</event>
<event>
 5   0  0.8058234E-04  0.1510150E+04  0.7818609E-02  0.8877731E-01
       -1   -1    0    0    0  501  0.00000000000E+00  0.00000000000E+00  0.85419339515E+03  0.85419339517E+03  0.50400001928E-02 0.  1.
        1   -1    0    0  501    0  0.00000000000E+00  0.00000000000E+00 -0.66745777637E+03  0.66745777639E+03  0.50400001928E-02 0. -1.
    10030    2    1    2    0    0  0.00000000000E+00  0.00000000000E+00  0.18673561878E+03  0.15216511716E+04  0.15101496934E+04 0.  0.
        5    1    3    3  502    0 -0.29172807548E+03  0.12150761888E+03  0.78433578692E+03  0.84562053435E+03  0.46999998093E+01 0.  1.
       -5    1    3    3    0  502  0.29172807548E+03 -0.12150761888E+03 -0.59760016814E+03  0.67603063720E+03  0.46999998093E+01 0. -1.
</event>
<event>
 5   0  0.1526126E-03  0.1503938E+04  0.7818609E-02  0.8881838E-01
       -2   -1    0    0    0  501  0.00000000000E+00  0.00000000000E+00  0.41158573516E+03  0.41158573517E+03  0.25500000920E-02 0. -1.
        2   -1    0    0  501    0  0.00000000000E+00  0.00000000000E+00 -0.13738507400E+04  0.13738507400E+04  0.25500000920E-02 0.  1.
    10030    2    1    2    0    0  0.00000000000E+00  0.00000000000E+00 -0.96226500482E+03  0.17854364752E+04  0.15039379865E+04 0.  0.
        2    1    3    3  502    0 -0.44135889915E+03  0.60743720042E+03 -0.43247665340E+03  0.86649505830E+03  0.25500000920E-02 0.  1.
       -2    1    3    3    0  502  0.44135889915E+03 -0.60743720042E+03 -0.52978835143E+03  0.91894141686E+03  0.25500000920E-02 0. -1.
</event>
<event>
 5   0  0.8191876E-04  0.1527819E+04  0.7818609E-02  0.8866161E-01
       -1   -1    0    0    0  501  0.00000000000E+00  0.00000000000E+00  0.13775411631E+04  0.13775411631E+04  0.50400001928E-02 0. -1.
        1   -1    0    0  501    0  0.00000000000E+00  0.00000000000E+00 -0.42362296242E+03  0.42362296245E+03  0.50400001928E-02 0.  1.
    10030    2    1    2    0    0  0.00000000000E+00  0.00000000000E+00  0.95391820070E+03  0.18011641256E+04  0.15278194506E+04 0.  0.
        2    1    3    3  502    0  0.32232462933E+03 -0.38618604411E+03 -0.20081281479E+03  0.54162589850E+03  0.25500000920E-02 0.  1.
       -2    1    3    3    0  502 -0.32232462933E+03  0.38618604411E+03  0.11547310155E+04  0.12595382271E+04  0.25500000920E-02 0. -1.
</event>
<event>
 5   0  0.1526126E-03  0.1432198E+04  0.7818609E-02  0.8930836E-01
       -2   -1    0    0    0  501  0.00000000000E+00  0.00000000000E+00  0.68479668317E+03  0.68479668317E+03  0.25500000920E-02 0. -1.
        2   -1    0    0  501    0  0.00000000000E+00  0.00000000000E+00 -0.74883221395E+03  0.74883221395E+03  0.25500000920E-02 0.  1.
    10030    2    1    2    0    0  0.00000000000E+00  0.00000000000E+00 -0.64035530780E+02  0.14336288971E+04  0.14321980539E+04 0.  0.
        2    1    3    3  502    0 -0.18391121311E+03 -0.66801329577E+03  0.14908484341E+03  0.70872518522E+03  0.25500000920E-02 0. -1.
       -2    1    3    3    0  502  0.18391121311E+03  0.66801329577E+03 -0.21312037419E+03  0.72490371190E+03  0.25500000920E-02 0.  1.
</event>
<event>
 5   0  0.8058234E-04  0.1512714E+04  0.7818609E-02  0.8876042E-01
        1   -1    0    0  501    0  0.00000000000E+00  0.00000000000E+00  0.92432086496E+03  0.92432086498E+03  0.50400001928E-02 0. -1.
       -1   -1    0    0    0  501  0.00000000000E+00  0.00000000000E+00 -0.61891514085E+03  0.61891514087E+03  0.50400001928E-02 0.  1.
    10030    2    1    2    0    0  0.00000000000E+00  0.00000000000E+00  0.30540572412E+03  0.15432360058E+04  0.15127143529E+04 0.  0.
        5    1    3    3  502    0 -0.13707638118E+03 -0.18206785116E+03 -0.58303871331E+03  0.62601507004E+03  0.46999998093E+01 0.  1.
       -5    1    3    3    0  502  0.13707638118E+03  0.18206785116E+03  0.88844443742E+03  0.91722093581E+03  0.46999998093E+01 0. -1.
</event>
<event>
 5   0  0.1500956E-03  0.1528359E+04  0.7818609E-02  0.8865811E-01
        2   -1    0    0  501    0  0.00000000000E+00  0.00000000000E+00  0.11956053076E+04  0.11956053076E+04  0.25500000920E-02 0.  1.
       -2   -1    0    0    0  501  0.00000000000E+00  0.00000000000E+00 -0.48843040946E+03  0.48843040947E+03  0.25500000920E-02 0. -1.
    10030    2    1    2    0    0  0.00000000000E+00  0.00000000000E+00  0.70717489810E+03  0.16840357170E+04  0.15283585835E+04 0.  0.
        4    1    3    3  502    0 -0.47945699330E+02 -0.65678249438E+03 -0.73596268382E+02  0.66263116334E+03  0.12699999809E+01 0. -1.
       -4    1    3    3    0  502  0.47945699330E+02  0.65678249438E+03  0.78077116649E+03  0.10214045537E+04  0.12699999809E+01 0.  1.
</event>
<event>
 5   0  0.7870317E-04  0.1520270E+04  0.7818609E-02  0.8871084E-01
        1   -1    0    0  501    0  0.00000000000E+00  0.00000000000E+00  0.11962366062E+04  0.11962366062E+04  0.50400001928E-02 0.  1.
       -1   -1    0    0    0  501  0.00000000000E+00  0.00000000000E+00 -0.48301947392E+03  0.48301947395E+03  0.50400001928E-02 0. -1.
    10030    2    1    2    0    0  0.00000000000E+00  0.00000000000E+00  0.71321713228E+03  0.16792560802E+04  0.15202704710E+04 0.  0.
        1    1    3    3  502    0 -0.52827305382E+03 -0.50677675731E+03  0.13047899386E+03  0.74358581819E+03  0.50400001928E-02 0.  1.
       -1    1    3    3    0  502  0.52827305382E+03  0.50677675731E+03  0.58273813842E+03  0.93567026197E+03  0.50400001928E-02 0. -1.
</event>
<event>
 5   0  0.8058234E-04  0.1548943E+04  0.7818609E-02  0.8852543E-01
       -1   -1    0    0    0  501  0.00000000000E+00  0.00000000000E+00  0.55472345275E+03  0.55472345278E+03  0.50400001928E-02 0.  1.
        1   -1    0    0  501    0  0.00000000000E+00  0.00000000000E+00 -0.10812706384E+04  0.10812706384E+04  0.50400001928E-02 0. -1.
    10030    2    1    2    0    0  0.00000000000E+00  0.00000000000E+00 -0.52654718562E+03  0.16359940912E+04  0.15489431002E+04 0.  0.
        5    1    3    3  502    0 -0.24002898430E+03  0.56387188238E+02  0.51214620937E+03  0.56842700329E+03  0.46999998093E+01 0.  1.
       -5    1    3    3    0  502  0.24002898430E+03 -0.56387188238E+02 -0.10386933950E+04  0.10675670879E+04  0.46999998093E+01 0. -1.
</event>
<event>
 5   0  0.7870317E-04  0.1503348E+04  0.7818609E-02  0.8882229E-01
        1   -1    0    0  501    0  0.00000000000E+00  0.00000000000E+00  0.86458116945E+03  0.86458116947E+03  0.50400001928E-02 0.  1.
       -1   -1    0    0    0  501  0.00000000000E+00  0.00000000000E+00 -0.65351187106E+03  0.65351187108E+03  0.50400001928E-02 0. -1.
    10030    2    1    2    0    0  0.00000000000E+00  0.00000000000E+00  0.21106929840E+03  0.15180930405E+04  0.15033483399E+04 0.  0.
        1    1    3    3  502    0 -0.47052157034E+03 -0.25063448890E+03 -0.42957385403E+03  0.68464727508E+03  0.50400001928E-02 0. -1.
       -1    1    3    3    0  502  0.47052157034E+03  0.25063448890E+03  0.64064315243E+03  0.83344576546E+03  0.50400001928E-02 0.  1.
</event>
<event>
 5   0  0.1526126E-03  0.1386157E+04  0.7818609E-02  0.8963900E-01
       -2   -1    0    0    0  501  0.00000000000E+00  0.00000000000E+00  0.48867136295E+03  0.48867136296E+03  0.25500000920E-02 0.  1.
        2   -1    0    0  501    0  0.00000000000E+00  0.00000000000E+00 -0.98298768725E+03  0.98298768725E+03  0.25500000920E-02 0. -1.
    10030    2    1    2    0    0  0.00000000000E+00  0.00000000000E+00 -0.49431632429E+03  0.14716590502E+04  0.13861571814E+04 0.  0.
        2    1    3    3  502    0 -0.58583611165E+03  0.18367820933E+03  0.94262044690E+02  0.62114971414E+03  0.25500000920E-02 0.  1.
       -2    1    3    3    0  502  0.58583611165E+03 -0.18367820933E+03 -0.58857836898E+03  0.85050933607E+03  0.25500000920E-02 0. -1.
</event>
<event>
 5   0  0.1552067E-03  0.1516266E+04  0.7818609E-02  0.8873707E-01
       -2   -1    0    0    0  501  0.00000000000E+00  0.00000000000E+00  0.61348104906E+03  0.61348104906E+03  0.25500000920E-02 0. -1.
        2   -1    0    0  501    0  0.00000000000E+00  0.00000000000E+00 -0.93689270410E+03  0.93689270410E+03  0.25500000920E-02 0.  1.
    10030    2    1    2    0    0  0.00000000000E+00  0.00000000000E+00 -0.32341165504E+03  0.15503737532E+04  0.15162663605E+04 0.  0.
        3    1    3    3  502    0 -0.12956056768E+02  0.41285414529E+03  0.48832197539E+03  0.63958952973E+03  0.10100000352E+00 0. -1.
       -3    1    3    3    0  502  0.12956056768E+02 -0.41285414529E+03 -0.81173363043E+03  0.91078422344E+03  0.10100000352E+00 0.  1.
</event>
<event>
 5   0  0.8058234E-04  0.1508457E+04  0.7818609E-02  0.8878849E-01
       -1   -1    0    0    0  501  0.00000000000E+00  0.00000000000E+00  0.10196254512E+04  0.10196254512E+04  0.50400001928E-02 0.  1.
        1   -1    0    0  501    0  0.00000000000E+00  0.00000000000E+00 -0.55791123020E+03  0.55791123022E+03  0.50400001928E-02 0. -1.
    10030    2    1    2    0    0  0.00000000000E+00  0.00000000000E+00  0.46171422103E+03  0.15775366815E+04  0.15084568139E+04 0.  0.
        5    1    3    3  502    0 -0.59600367105E+03 -0.43458793446E+03  0.39538746801E+03  0.83692316764E+03  0.46999998093E+01 0.  1.
       -5    1    3    3    0  502  0.59600367105E+03  0.43458793446E+03  0.66326753026E+02  0.74061351382E+03  0.46999998093E+01 0. -1.
</event>
<event>
 5   0  0.1484056E-03  0.1445604E+04  0.7818609E-02  0.8921454E-01
        2   -1    0    0  501    0  0.00000000000E+00  0.00000000000E+00  0.53736109225E+03  0.53736109226E+03  0.25500000920E-02 0.  1.
       -2   -1    0    0    0  501  0.00000000000E+00  0.00000000000E+00 -0.97223819294E+03  0.97223819295E+03  0.25500000920E-02 0. -1.
    10030    2    1    2    0    0  0.00000000000E+00  0.00000000000E+00 -0.43487710069E+03  0.15095992852E+04  0.14456043405E+04 0.  0.
        5    1    3    3  502    0  0.59892285620E+03  0.18134459433E+03 -0.59514986621E+03  0.86360865142E+03  0.46999998093E+01 0.  1.
       -5    1    3    3    0  502 -0.59892285620E+03 -0.18134459433E+03  0.16027276552E+03  0.64599063378E+03  0.46999998093E+01 0. -1.
</event>
<event>
 5   0  0.1484056E-03  0.1492238E+04  0.7818609E-02  0.8889631E-01
        2   -1    0    0  501    0  0.00000000000E+00  0.00000000000E+00  0.74856310143E+03  0.74856310144E+03  0.25500000920E-02 0.  1.
       -2   -1    0    0    0  501  0.00000000000E+00  0.00000000000E+00 -0.74368295793E+03  0.74368295793E+03  0.25500000920E-02 0. -1.
    10030    2    1    2    0    0  0.00000000000E+00  0.00000000000E+00  0.48801435057E+01  0.14922460594E+04  0.14922380795E+04 0.  0.
        5    1    3    3  502    0 -0.31554171642E+03  0.40881970500E+03 -0.53605273858E+03  0.74436197817E+03  0.46999998093E+01 0. -1.
       -5    1    3    3    0  502  0.31554171642E+03 -0.40881970500E+03  0.54093288209E+03  0.74788408121E+03  0.46999998093E+01 0.  1.
</event>
<event>
 5   0  0.1484056E-03  0.1473597E+04  0.7818609E-02  0.8902203E-01
       -2   -1    0    0    0  501  0.00000000000E+00  0.00000000000E+00  0.32672189828E+03  0.32672189829E+03  0.25500000920E-02 0. -1.
        2   -1    0    0  501    0  0.00000000000E+00  0.00000000000E+00 -0.16615716585E+04  0.16615716585E+04  0.25500000920E-02 0.  1.
    10030    2    1    2    0    0  0.00000000000E+00  0.00000000000E+00 -0.13348497602E+04  0.19882935568E+04  0.14735967514E+04 0.  0.
        5    1    3    3  502    0 -0.19999443861E+03  0.14803583786E+03  0.26829555162E+03  0.36594668708E+03  0.46999998093E+01 0. -1.
       -5    1    3    3    0  502  0.19999443861E+03 -0.14803583786E+03 -0.16031453119E+04  0.16223468697E+04  0.46999998093E+01 0.  1.
</event>
<event>
 5   0  0.7870317E-04  0.1507303E+04  0.7818609E-02  0.8879611E-01
        1   -1    0    0  501    0  0.00000000000E+00  0.00000000000E+00  0.44506979157E+03  0.44506979160E+03  0.50400001928E-02 0. -1.
       -1   -1    0    0    0  501  0.00000000000E+00  0.00000000000E+00 -0.12761833655E+04  0.12761833655E+04  0.50400001928E-02 0.  1.
    10030    2    1    2    0    0  0.00000000000E+00  0.00000000000E+00 -0.83111357393E+03  0.17212531571E+04  0.15073031076E+04 0.  0.
        1    1    3    3  502    0 -0.73871400295E+03  0.94954429970E+02 -0.54713283501E+03  0.92415856923E+03  0.50400001928E-02 0.  1.
       -1    1    3    3    0  502  0.73871400295E+03 -0.94954429970E+02 -0.28398073892E+03  0.79709458788E+03  0.50400001928E-02 0. -1.
</event>
<event>
 5   0  0.1500956E-03  0.1478046E+04  0.7818609E-02  0.8899185E-01
       -2   -1    0    0    0  501  0.00000000000E+00  0.00000000000E+00  0.33371532677E+03  0.33371532678E+03  0.25500000920E-02 0. -1.
        2   -1    0    0  501    0  0.00000000000E+00  0.00000000000E+00 -0.16365895722E+04  0.16365895722E+04  0.25500000920E-02 0.  1.
    10030    2    1    2    0    0  0.00000000000E+00  0.00000000000E+00 -0.13028742455E+04  0.19703048990E+04  0.14780460397E+04 0.  0.
        4    1    3    3  502    0 -0.32115319273E+03 -0.61972461367E+03 -0.32776341615E+03  0.77112154675E+03  0.12699999809E+01 0.  1.
       -4    1    3    3    0  502  0.32115319273E+03  0.61972461367E+03 -0.97511082932E+03  0.11991833523E+04  0.12699999809E+01 0. -1.
</event>
<event>
 5   0  0.7870317E-04  0.1669257E+04  0.7818609E-02  0.8779095E-01
        1   -1    0    0  501    0  0.00000000000E+00  0.00000000000E+00  0.67909378085E+03  0.67909378087E+03  0.50400001928E-02 0. -1.
       -1   -1    0    0    0  501  0.00000000000E+00  0.00000000000E+00 -0.10257852549E+04  0.10257852549E+04  0.50400001928E-02 0.  1.
    10030    2    1    2    0    0  0.00000000000E+00  0.00000000000E+00 -0.34669147405E+03  0.17048790358E+04  0.16692565856E+04 0.  0.
        1    1    3    3  502    0 -0.15231345467E+03 -0.47484429768E+03  0.51021093253E+03  0.71343653622E+03  0.50400001928E-02 0. -1.
       -1    1    3    3    0  502  0.15231345467E+03  0.47484429768E+03 -0.85690240658E+03  0.99144249957E+03  0.50400001928E-02 0.  1.
</event>
<event>
 5   0  0.8365016E-04  0.1467521E+04  0.7818609E-02  0.8906343E-01
       -1   -1    0    0    0  501  0.00000000000E+00  0.00000000000E+00  0.57100856518E+03  0.57100856520E+03  0.50400001928E-02 0.  1.
        1   -1    0    0  501    0  0.00000000000E+00  0.00000000000E+00 -0.94290085296E+03  0.94290085298E+03  0.50400001928E-02 0. -1.
    10030    2    1    2    0    0  0.00000000000E+00  0.00000000000E+00 -0.37189228778E+03  0.15139094182E+04  0.14675209889E+04 0.  0.
        3    1    3    3  502    0 -0.22267264428E+03  0.59713036092E+03  0.18922063565E+03  0.66479488085E+03  0.10100000352E+00 0.  1.
       -3    1    3    3    0  502  0.22267264428E+03 -0.59713036092E+03 -0.56111292344E+03  0.84911453733E+03  0.10100000352E+00 0. -1.
</event>
<event>
 5   0  0.8191876E-04  0.1504392E+04  0.7818609E-02  0.8881538E-01
        1   -1    0    0  501    0  0.00000000000E+00  0.00000000000E+00  0.65648283217E+03  0.65648283219E+03  0.50400001928E-02 0. -1.
       -1   -1    0    0    0  501  0.00000000000E+00  0.00000000000E+00 -0.86186385927E+03  0.86186385929E+03  0.50400001928E-02 0.  1.
    10030    2    1    2    0    0  0.00000000000E+00  0.00000000000E+00 -0.20538102710E+03  0.15183466915E+04  0.15043920065E+04 0.  0.
        2    1    3    3  502    0 -0.64070580634E+03  0.15635500427E+03 -0.46777509410E+03  0.80855695922E+03  0.25500000920E-02 0.  1.
       -2    1    3    3    0  502  0.64070580634E+03 -0.15635500427E+03  0.26239406700E+03  0.70978973227E+03  0.25500000920E-02 0. -1.
</event>
<event>
 5   0  0.1500956E-03  0.1469706E+04  0.7818609E-02  0.8904852E-01
       -2   -1    0    0    0  501  0.00000000000E+00  0.00000000000E+00  0.40268244637E+03  0.40268244637E+03  0.25500000920E-02 0.  1.
        2   -1    0    0  501    0  0.00000000000E+00  0.00000000000E+00 -0.13410296348E+04  0.13410296348E+04  0.25500000920E-02 0. -1.
    10030    2    1    2    0    0  0.00000000000E+00  0.00000000000E+00 -0.93834718840E+03  0.17437120811E+04  0.14697062210E+04 0.  0.
        4    1    3    3  502    0  0.33353000258E+03 -0.43550028304E+03  0.11097376604E+03  0.55966020834E+03  0.12699999809E+01 0.  1.
       -4    1    3    3    0  502 -0.33353000258E+03  0.43550028304E+03 -0.10493209544E+04  0.11840518728E+04  0.12699999809E+01 0. -1.
</event>
<event>
 5   0  0.8306301E-04  0.1444391E+04  0.7818609E-02  0.8922298E-01
        1   -1    0    0  501    0  0.00000000000E+00  0.00000000000E+00  0.96652412020E+03  0.96652412021E+03  0.50400001928E-02 0.  1.
       -1   -1    0    0    0  501  0.00000000000E+00  0.00000000000E+00 -0.53963091114E+03  0.53963091117E+03  0.50400001928E-02 0. -1.
    10030    2    1    2    0    0  0.00000000000E+00  0.00000000000E+00  0.42689320906E+03  0.15061550314E+04  0.14443909328E+04 0.  0.
        4    1    3    3  502    0 -0.15194808424E+03  0.70369457645E+03  0.15363170566E+03  0.73612403242E+03  0.12699999809E+01 0. -1.
       -4    1    3    3    0  502  0.15194808424E+03 -0.70369457645E+03  0.27326150340E+03  0.77003099896E+03  0.12699999809E+01 0.  1.
</event>
<event>
 5   0  0.8365016E-04  0.1649398E+04  0.7818609E-02  0.8790763E-01
        1   -1    0    0  501    0  0.00000000000E+00  0.00000000000E+00  0.87334624023E+03  0.87334624024E+03  0.50400001928E-02 0.  1.
       -1   -1    0    0    0  501  0.00000000000E+00  0.00000000000E+00 -0.77876132792E+03  0.77876132793E+03  0.50400001928E-02 0. -1.
    10030    2    1    2    0    0  0.00000000000E+00  0.00000000000E+00  0.94584912308E+02  0.16521075682E+04  0.16493978026E+04 0.  0.
        3    1    3    3  502    0 -0.40119206507E+03 -0.60813032509E+03  0.43438654863E+03  0.84821533186E+03  0.10100000352E+00 0.  1.
       -3    1    3    3    0  502  0.40119206507E+03  0.60813032509E+03 -0.33980163632E+03  0.80389223632E+03  0.10100000352E+00 0. -1.
</event>
<event>
 5   0  0.1511546E-03  0.1500722E+04  0.7818609E-02  0.8883973E-01
       -2   -1    0    0    0  501  0.00000000000E+00  0.00000000000E+00  0.44073022401E+03  0.44073022402E+03  0.25500000920E-02 0. -1.
        2   -1    0    0  501    0  0.00000000000E+00  0.00000000000E+00 -0.12775205732E+04  0.12775205732E+04  0.25500000920E-02 0.  1.
    10030    2    1    2    0    0  0.00000000000E+00  0.00000000000E+00 -0.83679034917E+03  0.17182507972E+04  0.15007223973E+04 0.  0.
        1    1    3    3  502    0  0.19247531603E+03 -0.32712297184E+03 -0.11595105311E+04  0.12200495308E+04  0.50400001928E-02 0.  1.
       -1    1    3    3    0  502 -0.19247531603E+03  0.32712297184E+03  0.32272018190E+03  0.49820126637E+03  0.50400001928E-02 0. -1.
</event>
<event>
 5   0  0.1484056E-03  0.1519330E+04  0.7818609E-02  0.8871700E-01
       -2   -1    0    0    0  501  0.00000000000E+00  0.00000000000E+00  0.35960514657E+03  0.35960514658E+03  0.25500000920E-02 0. -1.
        2   -1    0    0  501    0  0.00000000000E+00  0.00000000000E+00 -0.16047903129E+04  0.16047903129E+04  0.25500000920E-02 0.  1.
    10030    2    1    2    0    0  0.00000000000E+00  0.00000000000E+00 -0.12451851663E+04  0.19643954595E+04  0.15193299256E+04 0.  0.
        5    1    3    3  502    0  0.37867018314E+03 -0.35932278304E+03  0.90944716906E+02  0.52990282274E+03  0.46999998093E+01 0. -1.
       -5    1    3    3    0  502 -0.37867018314E+03  0.35932278304E+03 -0.13361298832E+04  0.14344926368E+04  0.46999998093E+01 0.  1.
</event>
<event>
 5   0  0.8306301E-04  0.1667886E+04  0.7818609E-02  0.8779895E-01
        1   -1    0    0  501    0  0.00000000000E+00  0.00000000000E+00  0.12838439859E+04  0.12838439859E+04  0.50400001928E-02 0.  1.
       -1   -1    0    0    0  501  0.00000000000E+00  0.00000000000E+00 -0.54170232268E+03  0.54170232270E+03  0.50400001928E-02 0. -1.
    10030    2    1    2    0    0  0.00000000000E+00  0.00000000000E+00  0.74214166320E+03  0.18255463086E+04  0.16678864100E+04 0.  0.
        4    1    3    3  502    0  0.72343139968E+03  0.36611639262E+03  0.58461705084E+03  0.99958637047E+03  0.12699999809E+01 0.  1.
       -4    1    3    3    0  502 -0.72343139968E+03 -0.36611639262E+03  0.15752461236E+03  0.82595993812E+03  0.12699999809E+01 0. -1.
</event>
<event>
 5   0  0.1500956E-03  0.1510208E+04  0.7818609E-02  0.8877693E-01
        2   -1    0    0  501    0  0.00000000000E+00  0.00000000000E+00  0.18342065067E+04  0.18342065067E+04  0.25500000920E-02 0. -1.
       -2   -1    0    0    0  501  0.00000000000E+00  0.00000000000E+00 -0.31086034962E+03  0.31086034963E+03  0.25500000920E-02 0.  1.
    10030    2    1    2    0    0  0.00000000000E+00  0.00000000000E+00  0.15233461571E+04  0.21450668563E+04  0.15102080333E+04 0.  0.
        4    1    3    3  502    0 -0.54983386771E+03 -0.50487139272E+03  0.92342204917E+03  0.11874014903E+04  0.12699999809E+01 0.  1.
       -4    1    3    3    0  502  0.54983386771E+03  0.50487139272E+03  0.59992410792E+03  0.95766536610E+03  0.12699999809E+01 0. -1.
</event>
<event>
 5   0  0.1526126E-03  0.1502431E+04  0.7818609E-02  0.8882838E-01
       -2   -1    0    0    0  501  0.00000000000E+00  0.00000000000E+00  0.75730807263E+03  0.75730807264E+03  0.25500000920E-02 0. -1.
        2   -1    0    0  501    0  0.00000000000E+00  0.00000000000E+00 -0.74517216614E+03  0.74517216614E+03  0.25500000920E-02 0.  1.
    10030    2    1    2    0    0  0.00000000000E+00  0.00000000000E+00  0.12135906492E+02  0.15024802388E+04  0.15024312256E+04 0.  0.
        2    1    3    3  502    0  0.64615709471E+03 -0.10095895200E+03 -0.36355632813E+03  0.74825457216E+03  0.25500000920E-02 0.  1.
       -2    1    3    3    0  502 -0.64615709471E+03  0.10095895200E+03  0.37569223462E+03  0.75422566662E+03  0.25500000920E-02 0. -1.
</event>
<event>
 5   0  0.7870317E-04  0.1501501E+04  0.7818609E-02  0.8883455E-01
       -1   -1    0    0    0  501  0.00000000000E+00  0.00000000000E+00  0.82860134034E+03  0.82860134036E+03  0.50400001928E-02 0.  1.
        1   -1    0    0  501    0  0.00000000000E+00  0.00000000000E+00 -0.68021411320E+03  0.68021411322E+03  0.50400001928E-02 0. -1.
    10030    2    1    2    0    0  0.00000000000E+00  0.00000000000E+00  0.14838722714E+03  0.15088154536E+04  0.15015010169E+04 0.  0.
        1    1    3    3  502    0 -0.27438709769E+03  0.52572174937E+02 -0.62603249587E+03  0.68554270390E+03  0.50400001928E-02 0. -1.
       -1    1    3    3    0  502  0.27438709769E+03 -0.52572174937E+02  0.77441972301E+03  0.82327274968E+03  0.50400001928E-02 0.  1.
</event>
<event>
 5   0  0.1526126E-03  0.1499211E+04  0.7818609E-02  0.8884978E-01
        2   -1    0    0  501    0  0.00000000000E+00  0.00000000000E+00  0.91838075702E+03  0.91838075702E+03  0.25500000920E-02 0.  1.
       -2   -1    0    0    0  501  0.00000000000E+00  0.00000000000E+00 -0.61184674789E+03  0.61184674790E+03  0.25500000920E-02 0. -1.
    10030    2    1    2    0    0  0.00000000000E+00  0.00000000000E+00  0.30653400913E+03  0.15302275049E+04  0.14992108318E+04 0.  0.
        2    1    3    3  502    0 -0.33848390649E+03  0.15470479996E+03 -0.51088951045E+03  0.63207042486E+03  0.25500000920E-02 0. -1.
       -2    1    3    3    0  502  0.33848390649E+03 -0.15470479996E+03  0.81742351958E+03  0.89815708006E+03  0.25500000920E-02 0.  1.
</event>
<event>
 5   0  0.8191876E-04  0.1498335E+04  0.7818609E-02  0.8885561E-01
       -1   -1    0    0    0  501  0.00000000000E+00  0.00000000000E+00  0.85089798999E+03  0.85089799000E+03  0.50400001928E-02 0.  1.
        1   -1    0    0  501    0  0.00000000000E+00  0.00000000000E+00 -0.65959945300E+03  0.65959945302E+03  0.50400001928E-02 0. -1.
    10030    2    1    2    0    0  0.00000000000E+00  0.00000000000E+00  0.19129853699E+03  0.15104974430E+04  0.14983348742E+04 0.  0.
        2    1    3    3  502    0 -0.74822401353E+03 -0.29733910632E+01  0.13342117247E+03  0.76003238401E+03  0.25500000920E-02 0. -1.
       -2    1    3    3    0  502  0.74822401353E+03  0.29733910632E+01  0.57877364519E+02  0.75046505901E+03  0.25500000920E-02 0.  1.
</event>
<event>
 5   0  0.8306301E-04  0.1494369E+04  0.7818609E-02  0.8888206E-01
        1   -1    0    0  501    0  0.00000000000E+00  0.00000000000E+00  0.11501713497E+04  0.11501713497E+04  0.50400001928E-02 0.  1.
       -1   -1    0    0    0  501  0.00000000000E+00  0.00000000000E+00 -0.48539241695E+03  0.48539241698E+03  0.50400001928E-02 0. -1.
    10030    2    1    2    0    0  0.00000000000E+00  0.00000000000E+00  0.66477893274E+03  0.16355637667E+04  0.14943686980E+04 0.  0.
        4    1    3    3  502    0  0.69934214668E+02  0.24867251480E+02 -0.48134627300E+03  0.48703698218E+03  0.12699999809E+01 0. -1.
       -4    1    3    3    0  502 -0.69934214668E+02 -0.24867251480E+02  0.11461252057E+04  0.11485267845E+04  0.12699999809E+01 0.  1.
</event>
<event>
 5   0  0.1511546E-03  0.1516454E+04  0.7818609E-02  0.8873585E-01
       -2   -1    0    0    0  501  0.00000000000E+00  0.00000000000E+00  0.52405065662E+03  0.52405065663E+03  0.25500000920E-02 0. -1.
        2   -1    0    0  501    0  0.00000000000E+00  0.00000000000E+00 -0.10970466069E+04  0.10970466069E+04  0.25500000920E-02 0.  1.
    10030    2    1    2    0    0  0.00000000000E+00  0.00000000000E+00 -0.57299595031E+03  0.16210972636E+04  0.15164537510E+04 0.  0.
        1    1    3    3  502    0 -0.67979006185E+03  0.80860614686E+02 -0.63495935098E+03  0.93371641553E+03  0.50400001928E-02 0.  1.
       -1    1    3    3    0  502  0.67979006185E+03 -0.80860614686E+02  0.61963400669E+02  0.68738084804E+03  0.50400001928E-02 0. -1.
</event>
<event>
 5   0  0.1526126E-03  0.1412768E+04  0.7818609E-02  0.8944628E-01
        2   -1    0    0  501    0  0.00000000000E+00  0.00000000000E+00  0.89912549235E+03  0.89912549236E+03  0.25500000920E-02 0.  1.
       -2   -1    0    0    0  501  0.00000000000E+00  0.00000000000E+00 -0.55495973220E+03  0.55495973221E+03  0.25500000920E-02 0. -1.
    10030    2    1    2    0    0  0.00000000000E+00  0.00000000000E+00  0.34416576015E+03  0.14540852246E+04  0.14127681232E+04 0.  0.
        2    1    3    3  502    0 -0.61472651621E+02  0.48511766233E+03 -0.35259050362E+03  0.60285827228E+03  0.25500000920E-02 0. -1.
       -2    1    3    3    0  502  0.61472651621E+02 -0.48511766233E+03  0.69675626377E+03  0.85122695229E+03  0.25500000920E-02 0.  1.
</event>
<event>
 5   0  0.7870317E-04  0.1447664E+04  0.7818609E-02  0.8920022E-01
       -1   -1    0    0    0  501  0.00000000000E+00  0.00000000000E+00  0.19611419146E+03  0.19611419152E+03  0.50400001928E-02 0. -1.
        1   -1    0    0  501    0  0.00000000000E+00  0.00000000000E+00 -0.26715698986E+04  0.26715698987E+04  0.50400001928E-02 0.  1.
    10030    2    1    2    0    0  0.00000000000E+00  0.00000000000E+00 -0.24754557072E+04  0.28676840902E+04  0.14476640089E+04 0.  0.
        1    1    3    3  502    0 -0.33234356650E+03  0.29154626958E+03 -0.23730493294E+04  0.24138795731E+04  0.50400001928E-02 0.  1.
       -1    1    3    3    0  502  0.33234356650E+03 -0.29154626958E+03 -0.10240637779E+03  0.45380451710E+03  0.50400001928E-02 0. -1.
</event>
<event>
 5   0  0.8191876E-04  0.1481450E+04  0.7818609E-02  0.8896883E-01
        1   -1    0    0  501    0  0.00000000000E+00  0.00000000000E+00  0.90094766677E+03  0.90094766678E+03  0.50400001928E-02 0.  1.
       -1   -1    0    0    0  501  0.00000000000E+00  0.00000000000E+00 -0.60899587854E+03  0.60899587856E+03  0.50400001928E-02 0. -1.
    10030    2    1    2    0    0  0.00000000000E+00  0.00000000000E+00  0.29195178822E+03  0.15099435453E+04  0.14814498518E+04 0.  0.
        2    1    3    3  502    0  0.19663721023E+03 -0.57248517843E+03 -0.28916400058E+03  0.67083626259E+03  0.25500000920E-02 0. -1.
       -2    1    3    3    0  502 -0.19663721023E+03  0.57248517843E+03  0.58111578880E+03  0.83910728275E+03  0.25500000920E-02 0.  1.
</event>
<event>
 5   0  0.1511546E-03  0.1522030E+04  0.7818609E-02  0.8869934E-01
       -2   -1    0    0    0  501  0.00000000000E+00  0.00000000000E+00  0.32531547690E+03  0.32531547691E+03  0.25500000920E-02 0.  1.
        2   -1    0    0  501    0  0.00000000000E+00  0.00000000000E+00 -0.17802520792E+04  0.17802520792E+04  0.25500000920E-02 0. -1.
    10030    2    1    2    0    0  0.00000000000E+00  0.00000000000E+00 -0.14549366023E+04  0.21055675561E+04  0.15220296372E+04 0.  0.
        1    1    3    3  502    0  0.36063801276E+03 -0.29783065914E+03 -0.15579437900E+04  0.16266381683E+04  0.50400001928E-02 0. -1.
       -1    1    3    3    0  502 -0.36063801276E+03  0.29783065914E+03  0.10300718770E+03  0.47892938781E+03  0.50400001928E-02 0.  1.
</event>
<event>
 5   0  0.8191876E-04  0.1491987E+04  0.7818609E-02  0.8889799E-01
        1   -1    0    0  501    0  0.00000000000E+00  0.00000000000E+00  0.48014298317E+03  0.48014298320E+03  0.50400001928E-02 0.  1.
       -1   -1    0    0    0  501  0.00000000000E+00  0.00000000000E+00 -0.11590421604E+04  0.11590421604E+04  0.50400001928E-02 0. -1.
    10030    2    1    2    0    0  0.00000000000E+00  0.00000000000E+00 -0.67889917722E+03  0.16391851436E+04  0.14919865422E+04 0.  0.
        2    1    3    3  502    0 -0.42866091899E+03  0.14035140982E+03  0.31335872407E+03  0.54921980268E+03  0.25500000920E-02 0.  1.
       -2    1    3    3    0  502  0.42866091899E+03 -0.14035140982E+03 -0.99225790129E+03  0.10899653409E+04  0.25500000920E-02 0. -1.
</event>
<event>
 5   0  0.8365016E-04  0.1533415E+04  0.7818609E-02  0.8862532E-01
       -1   -1    0    0    0  501  0.00000000000E+00  0.00000000000E+00  0.50209459418E+03  0.50209459421E+03  0.50400001928E-02 0.  1.
        1   -1    0    0  501    0  0.00000000000E+00  0.00000000000E+00 -0.11707755815E+04  0.11707755816E+04  0.50400001928E-02 0. -1.
    10030    2    1    2    0    0  0.00000000000E+00  0.00000000000E+00 -0.66868098736E+03  0.16728701758E+04  0.15334146087E+04 0.  0.
        3    1    3    3  502    0  0.53584962731E+03 -0.50573355722E+03 -0.10307357978E+03  0.74399289448E+03  0.10100000352E+00 0.  1.
       -3    1    3    3    0  502 -0.53584962731E+03  0.50573355722E+03 -0.56560740757E+03  0.92887728128E+03  0.10100000352E+00 0. -1.
</event>
<event>
 5   0  0.1500956E-03  0.1519921E+04  0.7818609E-02  0.8871312E-01
        2   -1    0    0  501    0  0.00000000000E+00  0.00000000000E+00  0.85361538562E+03  0.85361538562E+03  0.25500000920E-02 0.  1.
       -2   -1    0    0    0  501  0.00000000000E+00  0.00000000000E+00 -0.67658136143E+03  0.67658136144E+03  0.25500000920E-02 0. -1.
    10030    2    1    2    0    0  0.00000000000E+00  0.00000000000E+00  0.17703402418E+03  0.15301967471E+04  0.15199213924E+04 0.  0.
        4    1    3    3  502    0 -0.73765297216E+03 -0.17410861319E+03  0.32526915704E+02  0.75862067575E+03  0.12699999809E+01 0. -1.
       -4    1    3    3    0  502  0.73765297216E+03  0.17410861319E+03  0.14450710848E+03  0.77157607131E+03  0.12699999809E+01 0.  1.
</event>
<event>
 5   0  0.1500956E-03  0.1518870E+04  0.7818609E-02  0.8872001E-01
       -2   -1    0    0    0  501  0.00000000000E+00  0.00000000000E+00  0.47225083438E+03  0.47225083439E+03  0.25500000920E-02 0.  1.
        2   -1    0    0  501    0  0.00000000000E+00  0.00000000000E+00 -0.12212613033E+04  0.12212613033E+04  0.25500000920E-02 0. -1.
    10030    2    1    2    0    0  0.00000000000E+00  0.00000000000E+00 -0.74901046892E+03  0.16935121377E+04  0.15188701979E+04 0.  0.
        4    1    3    3  502    0  0.52648176845E+03 -0.33699725310E+03  0.10634771178E+03  0.63408331456E+03  0.12699999809E+01 0.  1.
       -4    1    3    3    0  502 -0.52648176845E+03  0.33699725310E+03 -0.85535818070E+03  0.10594288231E+04  0.12699999809E+01 0. -1.
</event>
<event>
 5   0  0.1500956E-03  0.1492964E+04  0.7818609E-02  0.8889145E-01
       -2   -1    0    0    0  501  0.00000000000E+00  0.00000000000E+00  0.80055513071E+03  0.80055513071E+03  0.25500000920E-02 0. -1.
        2   -1    0    0  501    0  0.00000000000E+00  0.00000000000E+00 -0.69606099844E+03  0.69606099845E+03  0.25500000920E-02 0.  1.
    10030    2    1    2    0    0  0.00000000000E+00  0.00000000000E+00  0.10449413227E+03  0.14966161292E+04  0.14929637686E+04 0.  0.
        4    1    3    3  502    0  0.67999478169E+03 -0.16181695437E+02 -0.25604201637E+03  0.72678323965E+03  0.12699999809E+01 0.  1.
       -4    1    3    3    0  502 -0.67999478169E+03  0.16181695437E+02  0.36053614863E+03  0.76983288951E+03  0.12699999809E+01 0. -1.
</event>
<event>
 5   0  0.1552067E-03  0.1510390E+04  0.7818609E-02  0.8877573E-01
       -2   -1    0    0    0  501  0.00000000000E+00  0.00000000000E+00  0.34557249986E+03  0.34557249987E+03  0.25500000920E-02 0.  1.
        2   -1    0    0  501    0  0.00000000000E+00  0.00000000000E+00 -0.16503619444E+04  0.16503619444E+04  0.25500000920E-02 0. -1.
    10030    2    1    2    0    0  0.00000000000E+00  0.00000000000E+00 -0.13047894445E+04  0.19959344443E+04  0.15103902844E+04 0.  0.
        3    1    3    3  502    0  0.88449078365E+02  0.68489889840E+03 -0.24851349777E+03  0.73394053524E+03  0.10100000352E+00 0.  1.
       -3    1    3    3    0  502 -0.88449078365E+02 -0.68489889840E+03 -0.10562759468E+04  0.12619939090E+04  0.10100000352E+00 0. -1.
</event>
<event>
 5   0  0.7870317E-04  0.1495356E+04  0.7818609E-02  0.8887547E-01
        1   -1    0    0  501    0  0.00000000000E+00  0.00000000000E+00  0.13455975852E+04  0.13455975852E+04  0.50400001928E-02 0. -1.
       -1   -1    0    0    0  501  0.00000000000E+00  0.00000000000E+00 -0.41544563412E+03  0.41544563415E+03  0.50400001928E-02 0.  1.
    10030    2    1    2    0    0  0.00000000000E+00  0.00000000000E+00  0.93015195107E+03  0.17610432193E+04  0.14953563349E+04 0.  0.
        1    1    3    3  502    0  0.11542666835E+03  0.11558037067E+03  0.13243270333E+04  0.13343628550E+04  0.50400001928E-02 0. -1.
       -1    1    3    3    0  502 -0.11542666835E+03 -0.11558037067E+03 -0.39417508219E+03  0.42668036432E+03  0.50400001928E-02 0.  1.
</event>
<event>
 5   0  0.1526126E-03  0.1482853E+04  0.7818609E-02  0.8895936E-01
       -2   -1    0    0    0  501  0.00000000000E+00  0.00000000000E+00  0.37798033375E+03  0.37798033376E+03  0.25500000920E-02 0. -1.
        2   -1    0    0  501    0  0.00000000000E+00  0.00000000000E+00 -0.14543442079E+04  0.14543442079E+04  0.25500000920E-02 0.  1.
    10030    2    1    2    0    0  0.00000000000E+00  0.00000000000E+00 -0.10763638742E+04  0.18323245417E+04  0.14828533429E+04 0.  0.
        2    1    3    3  502    0 -0.22534563074E+03 -0.18176867742E+03 -0.13816085344E+04  0.14116170329E+04  0.25500000920E-02 0.  1.
       -2    1    3    3    0  502  0.22534563074E+03  0.18176867742E+03  0.30524466018E+03  0.42070750879E+03  0.25500000920E-02 0. -1.
</event>
<event>
 5   0  0.1511546E-03  0.1502687E+04  0.7818609E-02  0.8882668E-01
       -2   -1    0    0    0  501  0.00000000000E+00  0.00000000000E+00  0.37911253207E+03  0.37911253207E+03  0.25500000920E-02 0.  1.
        2   -1    0    0  501    0  0.00000000000E+00  0.00000000000E+00 -0.14890482523E+04  0.14890482523E+04  0.25500000920E-02 0. -1.
    10030    2    1    2    0    0  0.00000000000E+00  0.00000000000E+00 -0.11099357203E+04  0.18681607844E+04  0.15026867316E+04 0.  0.
        1    1    3    3  502    0  0.53072107360E+03  0.17062925111E+03 -0.11812041914E+04  0.13061479783E+04  0.50400001928E-02 0. -1.
       -1    1    3    3    0  502 -0.53072107360E+03 -0.17062925111E+03  0.71268471121E+02  0.56201280617E+03  0.50400001928E-02 0.  1.
</event>
<event>
 5   0  0.8191876E-04  0.1459938E+04  0.7818609E-02  0.8911540E-01
        1   -1    0    0  501    0  0.00000000000E+00  0.00000000000E+00  0.13305647303E+04  0.13305647303E+04  0.50400001928E-02 0.  1.
       -1   -1    0    0    0  501  0.00000000000E+00  0.00000000000E+00 -0.40047267088E+03  0.40047267091E+03  0.50400001928E-02 0. -1.
    10030    2    1    2    0    0  0.00000000000E+00  0.00000000000E+00  0.93009205942E+03  0.17310374012E+04  0.14599380964E+04 0.  0.
        2    1    3    3  502    0 -0.46636741148E+03  0.28963467637E+03  0.10354959089E+04  0.11720232871E+04  0.25500000920E-02 0.  1.
       -2    1    3    3    0  502  0.46636741148E+03 -0.28963467637E+03 -0.10540384949E+03  0.55901411408E+03  0.25500000920E-02 0. -1.
</event>
<event>
 5   0  0.8191876E-04  0.1499099E+04  0.7818609E-02  0.8885052E-01
       -1   -1    0    0    0  501  0.00000000000E+00  0.00000000000E+00  0.36948385408E+03  0.36948385411E+03  0.50400001928E-02 0.  1.
        1   -1    0    0  501    0  0.00000000000E+00  0.00000000000E+00 -0.15205658227E+04  0.15205658227E+04  0.50400001928E-02 0. -1.
    10030    2    1    2    0    0  0.00000000000E+00  0.00000000000E+00 -0.11510819686E+04  0.18900496768E+04  0.14990990902E+04 0.  0.
        2    1    3    3  502    0 -0.40568247179E+03 -0.25762531976E+03 -0.13007699627E+04  0.13867052928E+04  0.25500000920E-02 0. -1.
       -2    1    3    3    0  502  0.40568247179E+03  0.25762531976E+03  0.14968799409E+03  0.50334438397E+03  0.25500000920E-02 0.  1.
</event>
<event>
 5   0  0.1511546E-03  0.1451315E+04  0.7818609E-02  0.8917490E-01
        2   -1    0    0  501    0  0.00000000000E+00  0.00000000000E+00  0.10398663715E+04  0.10398663715E+04  0.25500000920E-02 0. -1.
       -2   -1    0    0    0  501  0.00000000000E+00  0.00000000000E+00 -0.50639066107E+03  0.50639066107E+03  0.25500000920E-02 0.  1.
    10030    2    1    2    0    0  0.00000000000E+00  0.00000000000E+00  0.53347571042E+03  0.15462570326E+04  0.14513147409E+04 0.  0.
        1    1    3    3  502    0 -0.52646727958E+03 -0.36146102870E+03  0.63389267087E+03  0.89980097241E+03  0.50400001928E-02 0. -1.
       -1    1    3    3    0  502  0.52646727958E+03  0.36146102870E+03 -0.10041696045E+03  0.64645606016E+03  0.50400001928E-02 0.  1.
</event>
<event>
 5   0  0.1500956E-03  0.1505042E+04  0.7818609E-02  0.8881107E-01
       -2   -1    0    0    0  501  0.00000000000E+00  0.00000000000E+00  0.41440057458E+03  0.41440057459E+03  0.25500000920E-02 0.  1.
        2   -1    0    0  501    0  0.00000000000E+00  0.00000000000E+00 -0.13665222143E+04  0.13665222143E+04  0.25500000920E-02 0. -1.
    10030    2    1    2    0    0  0.00000000000E+00  0.00000000000E+00 -0.95212163970E+03  0.17809227889E+04  0.15050416483E+04 0.  0.
        4    1    3    3  502    0  0.10026397308E+03 -0.67132943131E+03 -0.86049810634E+03  0.10959902707E+04  0.12699999809E+01 0. -1.
       -4    1    3    3    0  502 -0.10026397308E+03  0.67132943131E+03 -0.91623533360E+02  0.68493251814E+03  0.12699999809E+01 0.  1.
</event>
<event>
 5   0  0.1500956E-03  0.1301563E+04  0.7818609E-02  0.9028327E-01
       -2   -1    0    0    0  501  0.00000000000E+00  0.00000000000E+00  0.17877033706E+03  0.17877033708E+03  0.25500000920E-02 0.  1.
        2   -1    0    0  501    0  0.00000000000E+00  0.00000000000E+00 -0.23690543079E+04  0.23690543079E+04  0.25500000920E-02 0. -1.
    10030    2    1    2    0    0  0.00000000000E+00  0.00000000000E+00 -0.21902839708E+04  0.25478246450E+04  0.13015631174E+04 0.  0.
        4    1    3    3  502    0 -0.23633805553E+03 -0.36783913526E+03 -0.20387228265E+04  0.20850788192E+04  0.12699999809E+01 0. -1.
       -4    1    3    3    0  502  0.23633805553E+03  0.36783913526E+03 -0.15156114430E+03  0.46274582579E+03  0.12699999809E+01 0.  1.
</event>
<event>
 5   0  0.8365016E-04  0.1400798E+04  0.7818609E-02  0.8953241E-01
       -1   -1    0    0    0  501  0.00000000000E+00  0.00000000000E+00  0.99289377346E+03  0.99289377347E+03  0.50400001928E-02 0. -1.
        1   -1    0    0  501    0  0.00000000000E+00  0.00000000000E+00 -0.49406985279E+03  0.49406985281E+03  0.50400001928E-02 0.  1.
    10030    2    1    2    0    0  0.00000000000E+00  0.00000000000E+00  0.49882392067E+03  0.14869636263E+04  0.14007981732E+04 0.  0.
        3    1    3    3  502    0  0.51236748769E+03  0.46488142460E+03  0.36532441345E+03  0.78236635833E+03  0.10100000352E+00 0. -1.
       -3    1    3    3    0  502 -0.51236748769E+03 -0.46488142460E+03  0.13349950721E+03  0.70459726795E+03  0.10100000352E+00 0.  1.
</event>
<event>
 5   0  0.8058234E-04  0.1365339E+04  0.7818609E-02  0.8979297E-01
        1   -1    0    0  501    0  0.00000000000E+00  0.00000000000E+00  0.36819883887E+03  0.36819883891E+03  0.50400001928E-02 0.  1.
       -1   -1    0    0    0  501  0.00000000000E+00  0.00000000000E+00 -0.12657231188E+04  0.12657231188E+04  0.50400001928E-02 0. -1.
    10030    2    1    2    0    0  0.00000000000E+00  0.00000000000E+00 -0.89752427990E+03  0.16339219577E+04  0.13653391999E+04 0.  0.
        5    1    3    3  502    0  0.43758448285E+03  0.51277875387E+03 -0.31990830946E+03  0.74618070634E+03  0.46999998093E+01 0.  1.
       -5    1    3    3    0  502 -0.43758448285E+03 -0.51277875387E+03 -0.57761597044E+03  0.88774125135E+03  0.46999998093E+01 0. -1.
</event>
<event>
 5   0  0.1526126E-03  0.1506339E+04  0.7818609E-02  0.8880248E-01
       -2   -1    0    0    0  501  0.00000000000E+00  0.00000000000E+00  0.10541182782E+04  0.10541182782E+04  0.25500000920E-02 0.  1.
        2   -1    0    0  501    0  0.00000000000E+00  0.00000000000E+00 -0.53814126450E+03  0.53814126450E+03  0.25500000920E-02 0. -1.
    10030    2    1    2    0    0  0.00000000000E+00  0.00000000000E+00  0.51597701368E+03  0.15922595427E+04  0.15063393285E+04 0.  0.
        2    1    3    3  502    0 -0.13029557043E+01  0.75316742675E+03  0.25935561971E+03  0.79657278883E+03  0.25500000920E-02 0.  1.
       -2    1    3    3    0  502  0.13029557043E+01 -0.75316742675E+03  0.25662139397E+03  0.79568675386E+03  0.25500000920E-02 0. -1.
</event>
<event>
 5   0  0.8191876E-04  0.1496428E+04  0.7818609E-02  0.8886832E-01
       -1   -1    0    0    0  501  0.00000000000E+00  0.00000000000E+00  0.58392712673E+03  0.58392712676E+03  0.50400001928E-02 0. -1.
        1   -1    0    0  501    0  0.00000000000E+00  0.00000000000E+00 -0.95872237494E+03  0.95872237496E+03  0.50400001928E-02 0.  1.
    10030    2    1    2    0    0  0.00000000000E+00  0.00000000000E+00 -0.37479524821E+03  0.15426495017E+04  0.14964277487E+04 0.  0.
        2    1    3    3  502    0  0.92699802005E+02 -0.20951050173E+02 -0.95247479656E+03  0.95720449115E+03  0.25500000920E-02 0.  1.
       -2    1    3    3    0  502 -0.92699802005E+02  0.20951050173E+02  0.57767954835E+03  0.58544501056E+03  0.25500000920E-02 0. -1.
</event>
<event>
 5   0  0.8191876E-04  0.1461261E+04  0.7818609E-02  0.8910630E-01
       -1   -1    0    0    0  501  0.00000000000E+00  0.00000000000E+00  0.47610873405E+03  0.47610873408E+03  0.50400001928E-02 0. -1.
        1   -1    0    0  501    0  0.00000000000E+00  0.00000000000E+00 -0.11212171248E+04  0.11212171249E+04  0.50400001928E-02 0.  1.
    10030    2    1    2    0    0  0.00000000000E+00  0.00000000000E+00 -0.64510839079E+03  0.15973258589E+04  0.14612614632E+04 0.  0.
        2    1    3    3  502    0  0.49085343400E+03 -0.50149359956E+03 -0.54493874206E+03  0.88847687459E+03  0.25500000920E-02 0. -1.
       -2    1    3    3    0  502 -0.49085343400E+03  0.50149359956E+03 -0.10016964873E+03  0.70884898434E+03  0.25500000920E-02 0.  1.
</event>
<event>
 5   0  0.7870317E-04  0.1516606E+04  0.7818609E-02  0.8873484E-01
        1   -1    0    0  501    0  0.00000000000E+00  0.00000000000E+00  0.88125044483E+03  0.88125044484E+03  0.50400001928E-02 0.  1.
       -1   -1    0    0    0  501  0.00000000000E+00  0.00000000000E+00 -0.65250875148E+03  0.65250875150E+03  0.50400001928E-02 0. -1.
    10030    2    1    2    0    0  0.00000000000E+00  0.00000000000E+00  0.22874169335E+03  0.15337591963E+04  0.15166062475E+04 0.  0.
        1    1    3    3  502    0  0.74012478390E+03 -0.11387576433E+03  0.23518427962E+03  0.78489746519E+03  0.50400001928E-02 0.  1.
       -1    1    3    3    0  502 -0.74012478390E+03  0.11387576433E+03 -0.64425862735E+01  0.74886173116E+03  0.50400001928E-02 0. -1.
</event>
<event>
 5   0  0.1526126E-03  0.1512957E+04  0.7818609E-02  0.8875882E-01
       -2   -1    0    0    0  501  0.00000000000E+00  0.00000000000E+00  0.45710734429E+03  0.45710734430E+03  0.25500000920E-02 0. -1.
        2   -1    0    0  501    0  0.00000000000E+00  0.00000000000E+00 -0.12519150382E+04  0.12519150382E+04  0.25500000920E-02 0.  1.
    10030    2    1    2    0    0  0.00000000000E+00  0.00000000000E+00 -0.79480769388E+03  0.17090223825E+04  0.15129567851E+04 0.  0.
        2    1    3    3  502    0 -0.43023926089E+03  0.43202340218E+03 -0.90321537398E+03  0.10897467841E+04  0.25500000920E-02 0.  1.
       -2    1    3    3    0  502  0.43023926089E+03 -0.43202340218E+03  0.10840768011E+03  0.61927559838E+03  0.25500000920E-02 0. -1.
</event>
<event>
 5   0  0.1500956E-03  0.1534512E+04  0.7818609E-02  0.8861821E-01
        2   -1    0    0  501    0  0.00000000000E+00  0.00000000000E+00  0.98783121229E+03  0.98783121230E+03  0.25500000920E-02 0.  1.
       -2   -1    0    0    0  501  0.00000000000E+00  0.00000000000E+00 -0.59593385795E+03  0.59593385796E+03  0.25500000920E-02 0. -1.
    10030    2    1    2    0    0  0.00000000000E+00  0.00000000000E+00  0.39189735434E+03  0.15837650703E+04  0.15345123856E+04 0.  0.
        4    1    3    3  502    0 -0.43204904705E+03 -0.37697019634E+03 -0.33022583295E+03  0.66168241750E+03  0.12699999809E+01 0. -1.
       -4    1    3    3    0  502  0.43204904705E+03  0.37697019634E+03  0.72212318729E+03  0.92208265275E+03  0.12699999809E+01 0.  1.
</event>
<event>
 5   0  0.7870317E-04  0.1517210E+04  0.7818609E-02  0.8873089E-01
       -1   -1    0    0    0  501  0.00000000000E+00  0.00000000000E+00  0.83625267757E+03  0.83625267759E+03  0.50400001928E-02 0. -1.
        1   -1    0    0  501    0  0.00000000000E+00  0.00000000000E+00 -0.68816691675E+03  0.68816691677E+03  0.50400001928E-02 0.  1.
    10030    2    1    2    0    0  0.00000000000E+00  0.00000000000E+00  0.14808576082E+03  0.15244195944E+04  0.15172098428E+04 0.  0.
        1    1    3    3  502    0 -0.20624711217E+03 -0.29465475161E+02 -0.65885832676E+03  0.69101402321E+03  0.50400001928E-02 0.  1.
       -1    1    3    3    0  502  0.20624711217E+03  0.29465475161E+02  0.80694408758E+03  0.83340557115E+03  0.50400001928E-02 0. -1.
</event>
<event>
 5   0  0.1511546E-03  0.1460690E+04  0.7818609E-02  0.8911023E-01
       -2   -1    0    0    0  501  0.00000000000E+00  0.00000000000E+00  0.46719275550E+03  0.46719275551E+03  0.25500000920E-02 0.  1.
        2   -1    0    0  501    0  0.00000000000E+00  0.00000000000E+00 -0.11417209819E+04  0.11417209819E+04  0.25500000920E-02 0. -1.
    10030    2    1    2    0    0  0.00000000000E+00  0.00000000000E+00 -0.67452822637E+03  0.16089137374E+04  0.14606899350E+04 0.  0.
        1    1    3    3  502    0 -0.10414904765E+03 -0.44983829010E+03  0.28602123753E+03  0.54314791697E+03  0.50400001928E-02 0.  1.
       -1    1    3    3    0  502  0.10414904765E+03  0.44983829010E+03 -0.96054946390E+03  0.10657658204E+04  0.50400001928E-02 0. -1.
</event>
<event>
 5   0  0.8191876E-04  0.1505662E+04  0.7818609E-02  0.8880696E-01
       -1   -1    0    0    0  501  0.00000000000E+00  0.00000000000E+00  0.78635522617E+03  0.78635522618E+03  0.50400001928E-02 0. -1.
        1   -1    0    0  501    0  0.00000000000E+00  0.00000000000E+00 -0.72073599686E+03  0.72073599688E+03  0.50400001928E-02 0.  1.
    10030    2    1    2    0    0  0.00000000000E+00  0.00000000000E+00  0.65619229307E+02  0.15070912231E+04  0.15056620044E+04 0.  0.
        2    1    3    3  502    0 -0.30614591648E+03 -0.71227300383E+02  0.71753195543E+03  0.78335863917E+03  0.25500000920E-02 0. -1.
       -2    1    3    3    0  502  0.30614591648E+03  0.71227300383E+02 -0.65191272612E+03  0.72373258389E+03  0.25500000920E-02 0.  1.
</event>
<event>
 5   0  0.7870317E-04  0.1485068E+04  0.7818609E-02  0.8894444E-01
        1   -1    0    0  501    0  0.00000000000E+00  0.00000000000E+00  0.13428302806E+04  0.13428302806E+04  0.50400001928E-02 0. -1.
       -1   -1    0    0    0  501  0.00000000000E+00  0.00000000000E+00 -0.41059276964E+03  0.41059276967E+03  0.50400001928E-02 0.  1.
    10030    2    1    2    0    0  0.00000000000E+00  0.00000000000E+00  0.93223751092E+03  0.17534230502E+04  0.14850675461E+04 0.  0.
        1    1    3    3  502    0  0.19873622536E+03 -0.27013306327E+03  0.12483183338E+04  0.12925813792E+04  0.50400001928E-02 0. -1.
       -1    1    3    3    0  502 -0.19873622536E+03  0.27013306327E+03 -0.31608082292E+03  0.46084167106E+03  0.50400001928E-02 0.  1.
</event>
<event>
 5   0  0.8365016E-04  0.1375602E+04  0.7818609E-02  0.8971671E-01
        1   -1    0    0  501    0  0.00000000000E+00  0.00000000000E+00  0.14646204547E+04  0.14646204547E+04  0.50400001928E-02 0.  1.
       -1   -1    0    0    0  501  0.00000000000E+00  0.00000000000E+00 -0.32299849144E+03  0.32299849148E+03  0.50400001928E-02 0. -1.
    10030    2    1    2    0    0  0.00000000000E+00  0.00000000000E+00  0.11416219633E+04  0.17876189462E+04  0.13756019736E+04 0.  0.
        3    1    3    3  502    0  0.93626649242E+02 -0.32649583950E+03 -0.20640994370E+03  0.39745510151E+03  0.10100000352E+00 0. -1.
       -3    1    3    3    0  502 -0.93626649242E+02  0.32649583950E+03  0.13480319070E+04  0.13901638447E+04  0.10100000352E+00 0.  1.
</event>
<event>
 5   0  0.7870317E-04  0.1385142E+04  0.7818609E-02  0.8964644E-01
        1   -1    0    0  501    0  0.00000000000E+00  0.00000000000E+00  0.95461897205E+03  0.95461897206E+03  0.50400001928E-02 0. -1.
       -1   -1    0    0    0  501  0.00000000000E+00  0.00000000000E+00 -0.50245662417E+03  0.50245662419E+03  0.50400001928E-02 0.  1.
    10030    2    1    2    0    0  0.00000000000E+00  0.00000000000E+00  0.45216234788E+03  0.14570755963E+04  0.13851420521E+04 0.  0.
        1    1    3    3  502    0  0.99933128223E+02  0.35734342194E+03 -0.38907318781E+03  0.53764197829E+03  0.50400001928E-02 0.  1.
       -1    1    3    3    0  502 -0.99933128223E+02 -0.35734342194E+03  0.84123553568E+03  0.91943361797E+03  0.50400001928E-02 0. -1.
</event>
<event>
 5   0  0.7870317E-04  0.1514957E+04  0.7818609E-02  0.8874568E-01
        1   -1    0    0  501    0  0.00000000000E+00  0.00000000000E+00  0.18126692114E+04  0.18126692114E+04  0.50400001928E-02 0. -1.
       -1   -1    0    0    0  501  0.00000000000E+00  0.00000000000E+00 -0.31653502817E+03  0.31653502821E+03  0.50400001928E-02 0.  1.
    10030    2    1    2    0    0  0.00000000000E+00  0.00000000000E+00  0.14961341832E+04  0.21292042396E+04  0.15149565009E+04 0.  0.
        1    1    3    3  502    0 -0.62177970302E+03 -0.34764436340E+03  0.11099731537E+04  0.13189037131E+04  0.50400001928E-02 0. -1.
       -1    1    3    3    0  502  0.62177970302E+03  0.34764436340E+03  0.38616102952E+03  0.81030052650E+03  0.50400001928E-02 0.  1.
</event>
<event>
 5   0  0.8191876E-04  0.1497501E+04  0.7818609E-02  0.8886117E-01
        1   -1    0    0  501    0  0.00000000000E+00  0.00000000000E+00  0.12663384964E+04  0.12663384965E+04  0.50400001928E-02 0. -1.
       -1   -1    0    0    0  501  0.00000000000E+00  0.00000000000E+00 -0.44271505309E+03  0.44271505312E+03  0.50400001928E-02 0.  1.
    10030    2    1    2    0    0  0.00000000000E+00  0.00000000000E+00  0.82362344335E+03  0.17090535496E+04  0.14975007375E+04 0.  0.
        2    1    3    3  502    0  0.19893278982E+03  0.70908651000E+03  0.25763801381E+03  0.78022771015E+03  0.25500000920E-02 0. -1.
       -2    1    3    3    0  502 -0.19893278982E+03 -0.70908651000E+03  0.56598542954E+03  0.92882583942E+03  0.25500000920E-02 0.  1.
</event>
<event>
 5   0  0.7870317E-04  0.1470179E+04  0.7818609E-02  0.8904529E-01
        1   -1    0    0  501    0  0.00000000000E+00  0.00000000000E+00  0.12370455066E+04  0.12370455066E+04  0.50400001928E-02 0.  1.
       -1   -1    0    0    0  501  0.00000000000E+00  0.00000000000E+00 -0.43681243581E+03  0.43681243584E+03  0.50400001928E-02 0. -1.
    10030    2    1    2    0    0  0.00000000000E+00  0.00000000000E+00  0.80023307075E+03  0.16738579424E+04  0.14701793917E+04 0.  0.
        1    1    3    3  502    0  0.18609151275E+03  0.70956622047E+03  0.45403320661E+03  0.86270529445E+03  0.50400001928E-02 0.  1.
       -1    1    3    3    0  502 -0.18609151275E+03 -0.70956622047E+03  0.34619986415E+03  0.81115264797E+03  0.50400001928E-02 0. -1.
</event>
<event>
 5   0  0.1526126E-03  0.1477600E+04  0.7818609E-02  0.8899487E-01
        2   -1    0    0  501    0  0.00000000000E+00  0.00000000000E+00  0.18369684620E+04  0.18369684620E+04  0.25500000920E-02 0. -1.
       -2   -1    0    0    0  501  0.00000000000E+00  0.00000000000E+00 -0.29713375493E+03  0.29713375495E+03  0.25500000920E-02 0.  1.
    10030    2    1    2    0    0  0.00000000000E+00  0.00000000000E+00  0.15398347070E+04  0.21341022169E+04  0.14775998603E+04 0.  0.
        2    1    3    3  502    0  0.12459052827E+03  0.71855363936E+03  0.59912763252E+03  0.94381992585E+03  0.25500000920E-02 0. -1.
       -2    1    3    3    0  502 -0.12459052827E+03 -0.71855363936E+03  0.94070707452E+03  0.11902822911E+04  0.25500000920E-02 0.  1.
</event>
<event>
 5   0  0.8191876E-04  0.1443356E+04  0.7818609E-02  0.8923019E-01
        1   -1    0    0  501    0  0.00000000000E+00  0.00000000000E+00  0.12950578425E+04  0.12950578425E+04  0.50400001928E-02 0.  1.
       -1   -1    0    0    0  501  0.00000000000E+00  0.00000000000E+00 -0.40215921306E+03  0.40215921309E+03  0.50400001928E-02 0. -1.
    10030    2    1    2    0    0  0.00000000000E+00  0.00000000000E+00  0.89289862948E+03  0.16972170556E+04  0.14433564256E+04 0.  0.
        2    1    3    3  502    0 -0.82473656780E+02  0.66772450526E+03  0.75344582805E+03  0.10101180796E+04  0.25500000920E-02 0.  1.
       -2    1    3    3    0  502  0.82473656780E+02 -0.66772450526E+03  0.13945280143E+03  0.68709897600E+03  0.25500000920E-02 0. -1.
</event>
<event>
 5   0  0.8058234E-04  0.1505605E+04  0.7818609E-02  0.8880734E-01
       -1   -1    0    0    0  501  0.00000000000E+00  0.00000000000E+00  0.30300484832E+03  0.30300484836E+03  0.50400001928E-02 0. -1.
        1   -1    0    0  501    0  0.00000000000E+00  0.00000000000E+00 -0.18703052839E+04  0.18703052839E+04  0.50400001928E-02 0.  1.
    10030    2    1    2    0    0  0.00000000000E+00  0.00000000000E+00 -0.15673004355E+04  0.21733101322E+04  0.15056049534E+04 0.  0.
        5    1    3    3  502    0 -0.29864730994E+03 -0.55497755214E+03 -0.18936562593E+03  0.65808185615E+03  0.46999998093E+01 0. -1.
       -5    1    3    3    0  502  0.29864730994E+03  0.55497755214E+03 -0.13779348096E+04  0.15152282761E+04  0.46999998093E+01 0.  1.
</event>
<event>
 5   0  0.1511546E-03  0.1477020E+04  0.7818609E-02  0.8899880E-01
       -2   -1    0    0    0  501  0.00000000000E+00  0.00000000000E+00  0.10847278298E+04  0.10847278298E+04  0.25500000920E-02 0. -1.
        2   -1    0    0  501    0  0.00000000000E+00  0.00000000000E+00 -0.50279642613E+03  0.50279642614E+03  0.25500000920E-02 0.  1.
    10030    2    1    2    0    0  0.00000000000E+00  0.00000000000E+00  0.58193140365E+03  0.15875242559E+04  0.14770203467E+04 0.  0.
        1    1    3    3  502    0 -0.28632460774E+03  0.66053607535E+03  0.46792742236E+03  0.85863016512E+03  0.50400001928E-02 0. -1.
       -1    1    3    3    0  502  0.28632460774E+03 -0.66053607535E+03  0.11400398128E+03  0.72889409080E+03  0.50400001928E-02 0.  1.
</event>
<event>
 5   0  0.1511546E-03  0.1417555E+04  0.7818609E-02  0.8941209E-01
       -2   -1    0    0    0  501  0.00000000000E+00  0.00000000000E+00  0.20016670549E+03  0.20016670551E+03  0.25500000920E-02 0. -1.
        2   -1    0    0  501    0  0.00000000000E+00  0.00000000000E+00 -0.25097349105E+04  0.25097349105E+04  0.25500000920E-02 0.  1.
    10030    2    1    2    0    0  0.00000000000E+00  0.00000000000E+00 -0.23095682050E+04  0.27099016160E+04  0.14175547520E+04 0.  0.
        1    1    3    3  502    0 -0.94993816488E+01 -0.21244907083E+03  0.13773967750E+03  0.25337139683E+03  0.50400001928E-02 0. -1.
       -1    1    3    3    0  502  0.94993816488E+01  0.21244907083E+03 -0.24473078825E+04  0.24565302192E+04  0.50400001928E-02 0.  1.
</event>
<event>
 5   0  0.1526126E-03  0.1497625E+04  0.7818609E-02  0.8886034E-01
        2   -1    0    0  501    0  0.00000000000E+00  0.00000000000E+00  0.17524947251E+04  0.17524947251E+04  0.25500000920E-02 0.  1.
       -2   -1    0    0    0  501  0.00000000000E+00  0.00000000000E+00 -0.31995546572E+03  0.31995546573E+03  0.25500000920E-02 0. -1.
    10030    2    1    2    0    0  0.00000000000E+00  0.00000000000E+00  0.14325392594E+04  0.20724501908E+04  0.14976251413E+04 0.  0.
        2    1    3    3  502    0  0.34507662191E+03  0.60614707509E+03  0.33924893147E+03  0.77561716661E+03  0.25500000920E-02 0. -1.
       -2    1    3    3    0  502 -0.34507662191E+03 -0.60614707509E+03  0.10932903279E+04  0.12968330242E+04  0.25500000920E-02 0.  1.
</event>
<event>
 5   0  0.1484056E-03  0.1468168E+04  0.7818609E-02  0.8905901E-01
        2   -1    0    0  501    0  0.00000000000E+00  0.00000000000E+00  0.17405174551E+04  0.17405174551E+04  0.25500000920E-02 0. -1.
       -2   -1    0    0    0  501  0.00000000000E+00  0.00000000000E+00 -0.30960875301E+03  0.30960875303E+03  0.25500000920E-02 0.  1.
    10030    2    1    2    0    0  0.00000000000E+00  0.00000000000E+00  0.14309087021E+04  0.20501262081E+04  0.14681681632E+04 0.  0.
        5    1    3    3  502    0 -0.56185807241E+03 -0.29961768508E+03  0.12254730809E+04  0.13810364270E+04  0.46999998093E+01 0. -1.
       -5    1    3    3    0  502  0.56185807241E+03  0.29961768508E+03  0.20543562121E+03  0.66908978112E+03  0.46999998093E+01 0.  1.
</event>
<event>
 5   0  0.8306301E-04  0.1418009E+04  0.7818609E-02  0.8940885E-01
        1   -1    0    0  501    0  0.00000000000E+00  0.00000000000E+00  0.99491389877E+03  0.99491389879E+03  0.50400001928E-02 0.  1.
       -1   -1    0    0    0  501  0.00000000000E+00  0.00000000000E+00 -0.50525697591E+03  0.50525697594E+03  0.50400001928E-02 0. -1.
    10030    2    1    2    0    0  0.00000000000E+00  0.00000000000E+00  0.48965692286E+03  0.15001708747E+04  0.14180087275E+04 0.  0.
        4    1    3    3  502    0 -0.35861512767E+03  0.31953344194E+03 -0.30690538584E+03  0.56999908690E+03  0.12699999809E+01 0. -1.
       -4    1    3    3    0  502  0.35861512767E+03 -0.31953344194E+03  0.79656230870E+03  0.93017178782E+03  0.12699999809E+01 0.  1.
</event>
<event>
 5   0  0.1511546E-03  0.1489732E+04  0.7818609E-02  0.8891310E-01
       -2   -1    0    0    0  501  0.00000000000E+00  0.00000000000E+00  0.91571609867E+03  0.91571609867E+03  0.25500000920E-02 0.  1.
        2   -1    0    0  501    0  0.00000000000E+00  0.00000000000E+00 -0.60589217640E+03  0.60589217640E+03  0.25500000920E-02 0. -1.
    10030    2    1    2    0    0  0.00000000000E+00  0.00000000000E+00  0.30982392227E+03  0.15216082751E+04  0.14897318148E+04 0.  0.
        1    1    3    3  502    0 -0.58597389218E+03  0.37091222992E+03  0.43254412538E+03  0.81733451233E+03  0.50400001928E-02 0. -1.
       -1    1    3    3    0  502  0.58597389218E+03 -0.37091222992E+03 -0.12272020311E+03  0.70427376275E+03  0.50400001928E-02 0.  1.
</event>
<event>
 5   0  0.7870317E-04  0.1354011E+04  0.7818609E-02  0.8987798E-01
       -1   -1    0    0    0  501  0.00000000000E+00  0.00000000000E+00  0.32836736547E+03  0.32836736551E+03  0.50400001928E-02 0. -1.
        1   -1    0    0  501    0  0.00000000000E+00  0.00000000000E+00 -0.13958034098E+04  0.13958034098E+04  0.50400001928E-02 0.  1.
    10030    2    1    2    0    0  0.00000000000E+00  0.00000000000E+00 -0.10674360443E+04  0.17241707753E+04  0.13540107657E+04 0.  0.
        1    1    3    3  502    0 -0.66736391906E+03  0.30624336137E+02 -0.39408770651E+03  0.77564010396E+03  0.50400001928E-02 0. -1.
       -1    1    3    3    0  502  0.66736391906E+03 -0.30624336137E+02 -0.67334833778E+03  0.94853067132E+03  0.50400001928E-02 0.  1.
</event>
<event>
 5   0  0.8191876E-04  0.1497243E+04  0.7818609E-02  0.8886288E-01
       -1   -1    0    0    0  501  0.00000000000E+00  0.00000000000E+00  0.31796907462E+03  0.31796907466E+03  0.50400001928E-02 0. -1.
        1   -1    0    0  501    0  0.00000000000E+00  0.00000000000E+00 -0.17625433631E+04  0.17625433631E+04  0.50400001928E-02 0.  1.
    10030    2    1    2    0    0  0.00000000000E+00  0.00000000000E+00 -0.14445742885E+04  0.20805124377E+04  0.14972431762E+04 0.  0.
        2    1    3    3  502    0  0.23959026208E+03 -0.19345681342E+03  0.22588437982E+03  0.38190677580E+03  0.25500000920E-02 0. -1.
       -2    1    3    3    0  502 -0.23959026208E+03  0.19345681342E+03 -0.16704586683E+04  0.16986056620E+04  0.25500000920E-02 0.  1.
</event>
<event>
 5   0  0.7870317E-04  0.1473721E+04  0.7818609E-02  0.8902119E-01
        1   -1    0    0  501    0  0.00000000000E+00  0.00000000000E+00  0.68515374678E+03  0.68515374679E+03  0.50400001928E-02 0.  1.
       -1   -1    0    0    0  501  0.00000000000E+00  0.00000000000E+00 -0.79246903350E+03  0.79246903351E+03  0.50400001928E-02 0. -1.
    10030    2    1    2    0    0  0.00000000000E+00  0.00000000000E+00 -0.10731528672E+03  0.14776227803E+04  0.14737206350E+04 0.  0.
        1    1    3    3  502    0 -0.13083210707E+02 -0.56397069302E+03  0.42165349002E+03  0.70429097585E+03  0.50400001928E-02 0.  1.
       -1    1    3    3    0  502  0.13083210707E+02  0.56397069302E+03 -0.52896877674E+03  0.77333180446E+03  0.50400001928E-02 0. -1.
</event>
<event>
 5   0  0.8058234E-04  0.1489119E+04  0.7818609E-02  0.8891721E-01
        1   -1    0    0  501    0  0.00000000000E+00  0.00000000000E+00  0.81643620057E+03  0.81643620059E+03  0.50400001928E-02 0.  1.
       -1   -1    0    0    0  501  0.00000000000E+00  0.00000000000E+00 -0.67901066465E+03  0.67901066467E+03  0.50400001928E-02 0. -1.
    10030    2    1    2    0    0  0.00000000000E+00  0.00000000000E+00  0.13742553592E+03  0.14954468653E+04  0.14891190513E+04 0.  0.
        5    1    3    3  502    0  0.31449773830E+03  0.22289526720E+01 -0.60901271461E+03  0.68544319398E+03  0.46999998093E+01 0. -1.
       -5    1    3    3    0  502 -0.31449773830E+03 -0.22289526720E+01  0.74643825053E+03  0.81000367127E+03  0.46999998093E+01 0.  1.
</event>
<event>
 5   0  0.8191876E-04  0.1486521E+04  0.7818609E-02  0.8893466E-01
       -1   -1    0    0    0  501  0.00000000000E+00  0.00000000000E+00  0.78660382283E+03  0.78660382285E+03  0.50400001928E-02 0.  1.
        1   -1    0    0  501    0  0.00000000000E+00  0.00000000000E+00 -0.70230548694E+03  0.70230548696E+03  0.50400001928E-02 0. -1.
    10030    2    1    2    0    0  0.00000000000E+00  0.00000000000E+00  0.84298335891E+02  0.14889093098E+04  0.14865210134E+04 0.  0.
        2    1    3    3  502    0 -0.69319288173E+03 -0.13472874762E+03  0.27440093632E+03  0.75760417143E+03  0.25500000920E-02 0.  1.
       -2    1    3    3    0  502  0.69319288173E+03  0.13472874762E+03 -0.19010260043E+03  0.73130513837E+03  0.25500000920E-02 0. -1.
</event>
<event>
 5   0  0.1511546E-03  0.1506960E+04  0.7818609E-02  0.8879838E-01
       -2   -1    0    0    0  501  0.00000000000E+00  0.00000000000E+00  0.45338922588E+03  0.45338922589E+03  0.25500000920E-02 0.  1.
        2   -1    0    0  501    0  0.00000000000E+00  0.00000000000E+00 -0.12521955480E+04  0.12521955480E+04  0.25500000920E-02 0. -1.
    10030    2    1    2    0    0  0.00000000000E+00  0.00000000000E+00 -0.79880632212E+03  0.17055847739E+04  0.15069598139E+04 0.  0.
        1    1    3    3  502    0 -0.29497741797E+03  0.68411202796E+03 -0.52700647302E+03  0.91255507589E+03  0.50400001928E-02 0. -1.
       -1    1    3    3    0  502  0.29497741797E+03 -0.68411202796E+03 -0.27179984910E+03  0.79302969799E+03  0.50400001928E-02 0.  1.
</event>
<event>
 5   0  0.1552067E-03  0.1439926E+04  0.7818609E-02  0.8925415E-01
        2   -1    0    0  501    0  0.00000000000E+00  0.00000000000E+00  0.53414787382E+03  0.53414787383E+03  0.25500000920E-02 0.  1.
       -2   -1    0    0    0  501  0.00000000000E+00  0.00000000000E+00 -0.97041781100E+03  0.97041781101E+03  0.25500000920E-02 0. -1.
    10030    2    1    2    0    0  0.00000000000E+00  0.00000000000E+00 -0.43626993718E+03  0.15045656848E+04  0.14399258460E+04 0.  0.
        3    1    3    3  502    0  0.25226303642E+03  0.38702358567E+03 -0.79512180767E+03  0.91958827453E+03  0.10100000352E+00 0. -1.
       -3    1    3    3    0  502 -0.25226303642E+03 -0.38702358567E+03  0.35885187049E+03  0.58497741030E+03  0.10100000352E+00 0.  1.
</event>
<event>
 5   0  0.7870317E-04  0.1512124E+04  0.7818609E-02  0.8876431E-01
        1   -1    0    0  501    0  0.00000000000E+00  0.00000000000E+00  0.88125180329E+03  0.88125180330E+03  0.50400001928E-02 0. -1.
       -1   -1    0    0    0  501  0.00000000000E+00  0.00000000000E+00 -0.64865631818E+03  0.64865631820E+03  0.50400001928E-02 0.  1.
    10030    2    1    2    0    0  0.00000000000E+00  0.00000000000E+00  0.23259548510E+03  0.15299081215E+04  0.15121237385E+04 0.  0.
        1    1    3    3  502    0 -0.62585327544E+03  0.12951912755E+03 -0.29238618638E+03  0.70282089382E+03  0.50400001928E-02 0.  1.
       -1    1    3    3    0  502  0.62585327544E+03 -0.12951912755E+03  0.52498167148E+03  0.82708722768E+03  0.50400001928E-02 0. -1.
</event>
<event>
 5   0  0.8191876E-04  0.1426686E+04  0.7818609E-02  0.8934725E-01
       -1   -1    0    0    0  501  0.00000000000E+00  0.00000000000E+00  0.24628584005E+03  0.24628584010E+03  0.50400001928E-02 0. -1.
        1   -1    0    0  501    0  0.00000000000E+00  0.00000000000E+00 -0.20661281520E+04  0.20661281520E+04  0.50400001928E-02 0.  1.
    10030    2    1    2    0    0  0.00000000000E+00  0.00000000000E+00 -0.18198423120E+04  0.23124139921E+04  0.14266858205E+04 0.  0.
        2    1    3    3  502    0 -0.49833400456E+03  0.28213172482E+02 -0.83893840401E+02  0.50613332203E+03  0.25500000920E-02 0.  1.
       -2    1    3    3    0  502  0.49833400456E+03 -0.28213172482E+02 -0.17359484716E+04  0.18062806701E+04  0.25500000920E-02 0. -1.
</event>
<event>
 5   0  0.7870317E-04  0.1499192E+04  0.7818609E-02  0.8884990E-01
       -1   -1    0    0    0  501  0.00000000000E+00  0.00000000000E+00  0.25030121650E+03  0.25030121655E+03  0.50400001928E-02 0.  1.
        1   -1    0    0  501    0  0.00000000000E+00  0.00000000000E+00 -0.22448727216E+04  0.22448727216E+04  0.50400001928E-02 0. -1.
    10030    2    1    2    0    0  0.00000000000E+00  0.00000000000E+00 -0.19945715051E+04  0.24951739382E+04  0.14991922801E+04 0.  0.
        1    1    3    3  502    0  0.38519512956E+03 -0.44898624430E+03 -0.23108926631E+03  0.63511115912E+03  0.50400001928E-02 0.  1.
       -1    1    3    3    0  502 -0.38519512956E+03  0.44898624430E+03 -0.17634822388E+04  0.18600627790E+04  0.50400001928E-02 0. -1.
</event>
<event>
 5   0  0.8191876E-04  0.1507877E+04  0.7818609E-02  0.8879231E-01
        1   -1    0    0  501    0  0.00000000000E+00  0.00000000000E+00  0.88702712165E+03  0.88702712166E+03  0.50400001928E-02 0. -1.
       -1   -1    0    0    0  501  0.00000000000E+00  0.00000000000E+00 -0.64081859407E+03  0.64081859409E+03  0.50400001928E-02 0.  1.
    10030    2    1    2    0    0  0.00000000000E+00  0.00000000000E+00  0.24620852758E+03  0.15278457158E+04  0.15078772802E+04 0.  0.
        2    1    3    3  502    0  0.47858696012E+03  0.49086895087E+03 -0.19477901801E+03  0.71269675962E+03  0.25500000920E-02 0.  1.
       -2    1    3    3    0  502 -0.47858696012E+03 -0.49086895087E+03  0.44098754558E+03  0.81514895613E+03  0.25500000920E-02 0. -1.
</event>
<event>
 5   0  0.8365016E-04  0.1502199E+04  0.7818609E-02  0.8882992E-01
        1   -1    0    0  501    0  0.00000000000E+00  0.00000000000E+00  0.43335791571E+03  0.43335791574E+03  0.50400001928E-02 0. -1.
       -1   -1    0    0    0  501  0.00000000000E+00  0.00000000000E+00 -0.13018126129E+04  0.13018126129E+04  0.50400001928E-02 0.  1.
    10030    2    1    2    0    0  0.00000000000E+00  0.00000000000E+00 -0.86845469721E+03  0.17351705287E+04  0.15021994550E+04 0.  0.
        3    1    3    3  502    0  0.10685261120E+03 -0.26231065808E+03  0.36930660552E+03  0.46541566470E+03  0.10100000352E+00 0. -1.
       -3    1    3    3    0  502 -0.10685261120E+03  0.26231065808E+03 -0.12377613027E+04  0.12697548640E+04  0.10100000352E+00 0.  1.
</event>
<event>
 5   0  0.1511546E-03  0.1507431E+04  0.7818609E-02  0.8879526E-01
        2   -1    0    0  501    0  0.00000000000E+00  0.00000000000E+00  0.17849079895E+04  0.17849079895E+04  0.25500000920E-02 0.  1.
       -2   -1    0    0    0  501  0.00000000000E+00  0.00000000000E+00 -0.31827249254E+03  0.31827249255E+03  0.25500000920E-02 0. -1.
    10030    2    1    2    0    0  0.00000000000E+00  0.00000000000E+00  0.14666354969E+04  0.21031804820E+04  0.15074310794E+04 0.  0.
        1    1    3    3  502    0  0.49022432549E+03  0.55014841883E+03  0.51225780983E+03  0.89743592295E+03  0.50400001928E-02 0. -1.
       -1    1    3    3    0  502 -0.49022432549E+03 -0.55014841883E+03  0.95437768709E+03  0.12057445591E+04  0.50400001928E-02 0.  1.
</event>
<event>
 5   0  0.8058234E-04  0.1298914E+04  0.7818609E-02  0.9030427E-01
       -1   -1    0    0    0  501  0.00000000000E+00  0.00000000000E+00  0.33354212875E+03  0.33354212879E+03  0.50400001928E-02 0. -1.
        1   -1    0    0  501    0  0.00000000000E+00  0.00000000000E+00 -0.12645911650E+04  0.12645911650E+04  0.50400001928E-02 0.  1.
    10030    2    1    2    0    0  0.00000000000E+00  0.00000000000E+00 -0.93104903629E+03  0.15981332938E+04  0.12989140529E+04 0.  0.
        5    1    3    3  502    0  0.68223942726E+02 -0.29693319228E+03 -0.11711862188E+04  0.12101748122E+04  0.46999998093E+01 0.  1.
       -5    1    3    3    0  502 -0.68223942726E+02  0.29693319228E+03  0.24013718251E+03  0.38795848162E+03  0.46999998093E+01 0. -1.
</event>
<event>
 5   0  0.1526126E-03  0.1502377E+04  0.7818609E-02  0.8882874E-01
        2   -1    0    0  501    0  0.00000000000E+00  0.00000000000E+00  0.16859617451E+04  0.16859617451E+04  0.25500000920E-02 0. -1.
       -2   -1    0    0    0  501  0.00000000000E+00  0.00000000000E+00 -0.33469557089E+03  0.33469557090E+03  0.25500000920E-02 0.  1.
    10030    2    1    2    0    0  0.00000000000E+00  0.00000000000E+00  0.13512661742E+04  0.20206573160E+04  0.15023766888E+04 0.  0.
        2    1    3    3  502    0  0.20408497747E+00 -0.74867108983E+03  0.59299118882E+03  0.95506386825E+03  0.25500000920E-02 0.  1.
       -2    1    3    3    0  502 -0.20408497747E+00  0.74867108983E+03  0.75827498534E+03  0.10655934477E+04  0.25500000920E-02 0. -1.
</event>
<event>
 5   0  0.8191876E-04  0.1533952E+04  0.7818609E-02  0.8862184E-01
       -1   -1    0    0    0  501  0.00000000000E+00  0.00000000000E+00  0.57244890673E+03  0.57244890676E+03  0.50400001928E-02 0.  1.
        1   -1    0    0  501    0  0.00000000000E+00  0.00000000000E+00 -0.10276058709E+04  0.10276058709E+04  0.50400001928E-02 0. -1.
    10030    2    1    2    0    0  0.00000000000E+00  0.00000000000E+00 -0.45515696418E+03  0.16000547777E+04  0.15339515734E+04 0.  0.
        2    1    3    3  502    0  0.56581271908E+03  0.47851505429E+03 -0.21237923300E+02  0.74133105942E+03  0.25500000920E-02 0. -1.
       -2    1    3    3    0  502 -0.56581271908E+03 -0.47851505429E+03 -0.43391904088E+03  0.85872371826E+03  0.25500000920E-02 0.  1.
</event>
<event>
 5   0  0.1552067E-03  0.1446653E+04  0.7818609E-02  0.8920724E-01
       -2   -1    0    0    0  501  0.00000000000E+00  0.00000000000E+00  0.28560434428E+03  0.28560434430E+03  0.25500000920E-02 0.  1.
        2   -1    0    0  501    0  0.00000000000E+00  0.00000000000E+00 -0.18319096159E+04  0.18319096159E+04  0.25500000920E-02 0. -1.
    10030    2    1    2    0    0  0.00000000000E+00  0.00000000000E+00 -0.15463052716E+04  0.21175139602E+04  0.14466531646E+04 0.  0.
        3    1    3    3  502    0  0.76341266585E+02  0.47775586694E+03  0.13898480158E+02  0.48401635854E+03  0.10100000352E+00 0.  1.
       -3    1    3    3    0  502 -0.76341266585E+02 -0.47775586694E+03 -0.15602037518E+04  0.16334976017E+04  0.10100000352E+00 0. -1.
</event>
<event>
 5   0  0.7870317E-04  0.1509993E+04  0.7818609E-02  0.8877835E-01
       -1   -1    0    0    0  501  0.00000000000E+00  0.00000000000E+00  0.20651812958E+03  0.20651812964E+03  0.50400001928E-02 0.  1.
        1   -1    0    0  501    0  0.00000000000E+00  0.00000000000E+00 -0.27601427430E+04  0.27601427430E+04  0.50400001928E-02 0. -1.
    10030    2    1    2    0    0  0.00000000000E+00  0.00000000000E+00 -0.25536246134E+04  0.29666608726E+04  0.15099927374E+04 0.  0.
        1    1    3    3  502    0  0.28498562552E+03  0.58250087910E+02  0.92010531143E+02  0.30508329578E+03  0.50400001928E-02 0.  1.
       -1    1    3    3    0  502 -0.28498562552E+03 -0.58250087910E+02 -0.26456351445E+04  0.26615775768E+04  0.50400001928E-02 0. -1.
</event>
<event>
 5   0  0.1552067E-03  0.1487359E+04  0.7818609E-02  0.8892903E-01
        2   -1    0    0  501    0  0.00000000000E+00  0.00000000000E+00  0.11275499608E+04  0.11275499609E+04  0.25500000920E-02 0.  1.
       -2   -1    0    0    0  501  0.00000000000E+00  0.00000000000E+00 -0.49049665979E+03  0.49049665980E+03  0.25500000920E-02 0. -1.
    10030    2    1    2    0    0  0.00000000000E+00  0.00000000000E+00  0.63705330106E+03  0.16180466206E+04  0.14873593911E+04 0.  0.
        3    1    3    3  502    0  0.24288755690E+03  0.60709853685E+03 -0.66854868492E+02  0.65729185480E+03  0.10100000352E+00 0. -1.
       -3    1    3    3    0  502 -0.24288755690E+03 -0.60709853685E+03  0.70390816955E+03  0.96075476585E+03  0.10100000352E+00 0.  1.
</event>
<event>
 5   0  0.8365016E-04  0.1384474E+04  0.7818609E-02  0.8965134E-01
        1   -1    0    0  501    0  0.00000000000E+00  0.00000000000E+00  0.68789218516E+03  0.68789218517E+03  0.50400001928E-02 0.  1.
       -1   -1    0    0    0  501  0.00000000000E+00  0.00000000000E+00 -0.69660930821E+03  0.69660930823E+03  0.50400001928E-02 0. -1.
    10030    2    1    2    0    0  0.00000000000E+00  0.00000000000E+00 -0.87171230582E+01  0.13845014934E+04  0.13844740507E+04 0.  0.
        3    1    3    3  502    0 -0.47990771745E+03  0.12294475926E+03  0.47914379144E+03  0.68920651054E+03  0.10100000352E+00 0. -1.
       -3    1    3    3    0  502  0.47990771745E+03 -0.12294475926E+03 -0.48786091450E+03  0.69529498286E+03  0.10100000352E+00 0.  1.
</event>
<event>
 5   0  0.8058234E-04  0.1489638E+04  0.7818609E-02  0.8891373E-01
        1   -1    0    0  501    0  0.00000000000E+00  0.00000000000E+00  0.42887096290E+03  0.42887096293E+03  0.50400001928E-02 0.  1.
       -1   -1    0    0    0  501  0.00000000000E+00  0.00000000000E+00 -0.12935246292E+04  0.12935246292E+04  0.50400001928E-02 0. -1.
    10030    2    1    2    0    0  0.00000000000E+00  0.00000000000E+00 -0.86465366629E+03  0.17223955921E+04  0.14896377456E+04 0.  0.
        5    1    3    3  502    0  0.67635547303E+03  0.20390633625E+03 -0.15944529385E+03  0.72420950808E+03  0.46999998093E+01 0.  1.
       -5    1    3    3    0  502 -0.67635547303E+03 -0.20390633625E+03 -0.70520837243E+03  0.99818608406E+03  0.46999998093E+01 0. -1.
</event>
<event>
 5   0  0.8365016E-04  0.1490671E+04  0.7818609E-02  0.8890680E-01
        1   -1    0    0  501    0  0.00000000000E+00  0.00000000000E+00  0.10498043528E+04  0.10498043528E+04  0.50400001928E-02 0.  1.
       -1   -1    0    0    0  501  0.00000000000E+00  0.00000000000E+00 -0.52916997436E+03  0.52916997438E+03  0.50400001928E-02 0. -1.
    10030    2    1    2    0    0  0.00000000000E+00  0.00000000000E+00  0.52063437848E+03  0.15789743272E+04  0.14906709127E+04 0.  0.
        3    1    3    3  502    0 -0.48581879992E+03 -0.55031965719E+02 -0.33556997566E+03  0.59300560062E+03  0.10100000352E+00 0. -1.
       -3    1    3    3    0  502  0.48581879992E+03  0.55031965719E+02  0.85620435413E+03  0.98596872661E+03  0.10100000352E+00 0.  1.
</event>
<event>
 5   0  0.1484056E-03  0.1485474E+04  0.7818609E-02  0.8894171E-01
        2   -1    0    0  501    0  0.00000000000E+00  0.00000000000E+00  0.24097804069E+04  0.24097804069E+04  0.25500000920E-02 0.  1.
       -2   -1    0    0    0  501  0.00000000000E+00  0.00000000000E+00 -0.22892455537E+03  0.22892455539E+03  0.25500000920E-02 0. -1.
    10030    2    1    2    0    0  0.00000000000E+00  0.00000000000E+00  0.21808558515E+04  0.26387049623E+04  0.14854735383E+04 0.  0.
        5    1    3    3  502    0 -0.46730420351E+03 -0.51103650198E+03  0.61344099895E+03  0.92512889598E+03  0.46999998093E+01 0.  1.
       -5    1    3    3    0  502  0.46730420351E+03  0.51103650198E+03  0.15674148526E+04  0.17135760663E+04  0.46999998093E+01 0. -1.
</event>
<event>
 5   0  0.1511546E-03  0.1484755E+04  0.7818609E-02  0.8894654E-01
        2   -1    0    0  501    0  0.00000000000E+00  0.00000000000E+00  0.72114677818E+03  0.72114677819E+03  0.25500000920E-02 0.  1.
       -2   -1    0    0    0  501  0.00000000000E+00  0.00000000000E+00 -0.76423339315E+03  0.76423339316E+03  0.25500000920E-02 0. -1.
    10030    2    1    2    0    0  0.00000000000E+00  0.00000000000E+00 -0.43086614973E+02  0.14853801713E+04  0.14847551303E+04 0.  0.
        1    1    3    3  502    0 -0.54890169103E+03  0.48901369221E+03 -0.12501310901E+03  0.74569144760E+03  0.50400001928E-02 0. -1.
       -1    1    3    3    0  502  0.54890169103E+03 -0.48901369221E+03  0.81926494040E+02  0.73968872374E+03  0.50400001928E-02 0.  1.
</event>
<event>
 5   0  0.1511546E-03  0.1497801E+04  0.7818609E-02  0.8885916E-01
       -2   -1    0    0    0  501  0.00000000000E+00  0.00000000000E+00  0.57872887593E+03  0.57872887594E+03  0.25500000920E-02 0. -1.
        2   -1    0    0  501    0  0.00000000000E+00  0.00000000000E+00 -0.96911063250E+03  0.96911063250E+03  0.25500000920E-02 0.  1.
    10030    2    1    2    0    0  0.00000000000E+00  0.00000000000E+00 -0.39038175656E+03  0.15478395084E+04  0.14978014648E+04 0.  0.
        1    1    3    3  502    0 -0.45663773192E+03  0.11178018634E+03  0.40724189655E+03  0.62197973488E+03  0.50400001928E-02 0. -1.
       -1    1    3    3    0  502  0.45663773192E+03 -0.11178018634E+03 -0.79762365311E+03  0.92585977356E+03  0.50400001928E-02 0.  1.
</event>
<event>
 5   0  0.8191876E-04  0.1357636E+04  0.7818609E-02  0.8985068E-01
        1   -1    0    0  501    0  0.00000000000E+00  0.00000000000E+00  0.62300816022E+03  0.62300816024E+03  0.50400001928E-02 0.  1.
       -1   -1    0    0    0  501  0.00000000000E+00  0.00000000000E+00 -0.73962721636E+03  0.73962721637E+03  0.50400001928E-02 0. -1.
    10030    2    1    2    0    0  0.00000000000E+00  0.00000000000E+00 -0.11661905613E+03  0.13626353766E+04  0.13576358736E+04 0.  0.
        2    1    3    3  502    0 -0.33833031268E+03 -0.70272785782E+01  0.53231051792E+03  0.63077037868E+03  0.25500000920E-02 0.  1.
       -2    1    3    3    0  502  0.33833031268E+03  0.70272785782E+01 -0.64892957405E+03  0.73186499794E+03  0.25500000920E-02 0. -1.
</event>
<event>
 5   0  0.5603875E-04  0.1495682E+04  0.7818609E-02  0.8887329E-01
        4   -1    0    0  501    0  0.00000000000E+00  0.00000000000E+00  0.15405166361E+04  0.15405171596E+04  0.12699999809E+01 0. -1.
       -4   -1    0    0    0  501  0.00000000000E+00  0.00000000000E+00 -0.36303655982E+03  0.36303878121E+03  0.12699999809E+01 0.  1.
    10030    2    1    2    0    0  0.00000000000E+00  0.00000000000E+00  0.11774800763E+04  0.19035559408E+04  0.14956824161E+04 0.  0.
        3    1    3    3  502    0 -0.72982028782E+03  0.87262185180E+02  0.76423488963E+03  0.10603335882E+04  0.10100000352E+00 0. -1.
       -3    1    3    3    0  502  0.72982028782E+03 -0.87262185180E+02  0.41324518664E+03  0.84322235262E+03  0.10100000352E+00 0.  1.
</event>
<event>
 5   0  0.1526126E-03  0.1472503E+04  0.7818609E-02  0.8902947E-01
        2   -1    0    0  501    0  0.00000000000E+00  0.00000000000E+00  0.86016991616E+03  0.86016991616E+03  0.25500000920E-02 0. -1.
       -2   -1    0    0    0  501  0.00000000000E+00  0.00000000000E+00 -0.63018475110E+03  0.63018475111E+03  0.25500000920E-02 0.  1.
    10030    2    1    2    0    0  0.00000000000E+00  0.00000000000E+00  0.22998516506E+03  0.14903546673E+04  0.14725025834E+04 0.  0.
        2    1    3    3  502    0 -0.33511258749E+03  0.52938241840E+03  0.50635839150E+03  0.80557123326E+03  0.25500000920E-02 0. -1.
       -2    1    3    3    0  502  0.33511258749E+03 -0.52938241840E+03 -0.27637322644E+03  0.68478343401E+03  0.25500000920E-02 0.  1.
</event>
<event>
 5   0  0.8058234E-04  0.1511832E+04  0.7818609E-02  0.8876622E-01
       -1   -1    0    0    0  501  0.00000000000E+00  0.00000000000E+00  0.88750277796E+03  0.88750277797E+03  0.50400001928E-02 0. -1.
        1   -1    0    0  501    0  0.00000000000E+00  0.00000000000E+00 -0.64383947608E+03  0.64383947610E+03  0.50400001928E-02 0.  1.
    10030    2    1    2    0    0  0.00000000000E+00  0.00000000000E+00  0.24366330188E+03  0.15313422541E+04  0.15118324294E+04 0.  0.
        5    1    3    3  502    0  0.17868466931E+03 -0.46436543136E+03  0.69823032177E+03  0.85738622401E+03  0.46999998093E+01 0. -1.
       -5    1    3    3    0  502 -0.17868466931E+03  0.46436543136E+03 -0.45456701989E+03  0.67395603006E+03  0.46999998093E+01 0.  1.
</event>
<event>
 5   0  0.8306301E-04  0.1475681E+04  0.7818609E-02  0.8900788E-01
       -1   -1    0    0    0  501  0.00000000000E+00  0.00000000000E+00  0.50452716025E+03  0.50452716028E+03  0.50400001928E-02 0. -1.
        1   -1    0    0  501    0  0.00000000000E+00  0.00000000000E+00 -0.10790465436E+04  0.10790465436E+04  0.50400001928E-02 0.  1.
    10030    2    1    2    0    0  0.00000000000E+00  0.00000000000E+00 -0.57451938335E+03  0.15835737039E+04  0.14756805731E+04 0.  0.
        4    1    3    3  502    0 -0.41979426891E+03 -0.58206443247E+03 -0.10332015114E+03  0.72505372097E+03  0.12699999809E+01 0. -1.
       -4    1    3    3    0  502  0.41979426891E+03  0.58206443247E+03 -0.47119923222E+03  0.85851998293E+03  0.12699999809E+01 0.  1.
</event>
<event>
 5   0  0.8365016E-04  0.1500529E+04  0.7818609E-02  0.8884102E-01
       -1   -1    0    0    0  501  0.00000000000E+00  0.00000000000E+00  0.58093501638E+03  0.58093501640E+03  0.50400001928E-02 0. -1.
        1   -1    0    0  501    0  0.00000000000E+00  0.00000000000E+00 -0.96894914147E+03  0.96894914148E+03  0.50400001928E-02 0.  1.
    10030    2    1    2    0    0  0.00000000000E+00  0.00000000000E+00 -0.38801412509E+03  0.15498841579E+04  0.15005285541E+04 0.  0.
        3    1    3    3  502    0  0.85499614456E+01  0.55634731175E+02  0.57875100818E+03  0.58148178374E+03  0.10100000352E+00 0. -1.
       -3    1    3    3    0  502 -0.85499614456E+01 -0.55634731175E+02 -0.96676513327E+03  0.96840237415E+03  0.10100000352E+00 0.  1.
</event>
<event>
 5   0  0.8058234E-04  0.1489421E+04  0.7818609E-02  0.8891518E-01
       -1   -1    0    0    0  501  0.00000000000E+00  0.00000000000E+00  0.61130387493E+03  0.61130387495E+03  0.50400001928E-02 0. -1.
        1   -1    0    0  501    0  0.00000000000E+00  0.00000000000E+00 -0.90723078855E+03  0.90723078856E+03  0.50400001928E-02 0.  1.
    10030    2    1    2    0    0  0.00000000000E+00  0.00000000000E+00 -0.29592691362E+03  0.15185346635E+04  0.14894209566E+04 0.  0.
        5    1    3    3  502    0 -0.34671533630E+03 -0.40980847463E+03  0.37828192183E+03  0.65671440725E+03  0.46999998093E+01 0.  1.
       -5    1    3    3    0  502  0.34671533630E+03  0.40980847463E+03 -0.67420883545E+03  0.86182025626E+03  0.46999998093E+01 0. -1.
</event>
<event>
 5   0  0.1526126E-03  0.1487368E+04  0.7818609E-02  0.8892897E-01
       -2   -1    0    0    0  501  0.00000000000E+00  0.00000000000E+00  0.96497043347E+03  0.96497043347E+03  0.25500000920E-02 0.  1.
        2   -1    0    0  501    0  0.00000000000E+00  0.00000000000E+00 -0.57314250211E+03  0.57314250212E+03  0.25500000920E-02 0. -1.
    10030    2    1    2    0    0  0.00000000000E+00  0.00000000000E+00  0.39182793136E+03  0.15381129356E+04  0.14873675655E+04 0.  0.
        2    1    3    3  502    0  0.47525441955E+03  0.45046000603E+02 -0.39377761676E+03  0.61883496745E+03  0.25500000920E-02 0. -1.
       -2    1    3    3    0  502 -0.47525441955E+03 -0.45046000603E+02  0.78560554812E+03  0.91927796814E+03  0.25500000920E-02 0.  1.
</event>
<event>
 5   0  0.1526126E-03  0.1546637E+04  0.7818609E-02  0.8854019E-01
       -2   -1    0    0    0  501  0.00000000000E+00  0.00000000000E+00  0.46386551847E+03  0.46386551847E+03  0.25500000920E-02 0. -1.
        2   -1    0    0  501    0  0.00000000000E+00  0.00000000000E+00 -0.12892134919E+04  0.12892134919E+04  0.25500000920E-02 0.  1.
    10030    2    1    2    0    0  0.00000000000E+00  0.00000000000E+00 -0.82534797346E+03  0.17530790104E+04  0.15466372359E+04 0.  0.
        2    1    3    3  502    0 -0.53379121506E+03 -0.46480965596E+03 -0.76576753409E+03  0.10427756201E+04  0.25500000920E-02 0.  1.
       -2    1    3    3    0  502  0.53379121506E+03  0.46480965596E+03 -0.59580439364E+02  0.71030339033E+03  0.25500000920E-02 0. -1.
</event>
<event>
 5   0  0.8306301E-04  0.1467807E+04  0.7818609E-02  0.8906148E-01
        1   -1    0    0  501    0  0.00000000000E+00  0.00000000000E+00  0.11441258196E+04  0.11441258196E+04  0.50400001928E-02 0. -1.
       -1   -1    0    0    0  501  0.00000000000E+00  0.00000000000E+00 -0.47076508153E+03  0.47076508156E+03  0.50400001928E-02 0.  1.
    10030    2    1    2    0    0  0.00000000000E+00  0.00000000000E+00  0.67336073807E+03  0.16148909012E+04  0.14678071873E+04 0.  0.
        4    1    3    3  502    0  0.66714404161E+03  0.25181012206E+03  0.52763311078E+03  0.88706697736E+03  0.12699999809E+01 0. -1.
       -4    1    3    3    0  502 -0.66714404161E+03 -0.25181012206E+03  0.14572762729E+03  0.72782392382E+03  0.12699999809E+01 0.  1.
</event>
<event>
 5   0  0.7870317E-04  0.1459292E+04  0.7818609E-02  0.8911984E-01
       -1   -1    0    0    0  501  0.00000000000E+00  0.00000000000E+00  0.44593866485E+03  0.44593866488E+03  0.50400001928E-02 0.  1.
        1   -1    0    0  501    0  0.00000000000E+00  0.00000000000E+00 -0.11938490599E+04  0.11938490599E+04  0.50400001928E-02 0. -1.
    10030    2    1    2    0    0  0.00000000000E+00  0.00000000000E+00 -0.74791039507E+03  0.16397877248E+04  0.14592922337E+04 0.  0.
        1    1    3    3  502    0  0.35748017768E+03  0.49429685319E+02  0.33863256876E+03  0.49488118561E+03  0.50400001928E-02 0.  1.
       -1    1    3    3    0  502 -0.35748017768E+03 -0.49429685319E+02 -0.10865429638E+04  0.11449065392E+04  0.50400001928E-02 0. -1.
</event>
<event>
 5   0  0.7870317E-04  0.1523411E+04  0.7818609E-02  0.8869032E-01
       -1   -1    0    0    0  501  0.00000000000E+00  0.00000000000E+00  0.93331476429E+03  0.93331476430E+03  0.50400001928E-02 0.  1.
        1   -1    0    0  501    0  0.00000000000E+00  0.00000000000E+00 -0.62165020515E+03  0.62165020517E+03  0.50400001928E-02 0. -1.
    10030    2    1    2    0    0  0.00000000000E+00  0.00000000000E+00  0.31166455914E+03  0.15549649695E+04  0.15234110604E+04 0.  0.
        1    1    3    3  502    0 -0.42902889709E+03 -0.61045028933E+03 -0.57329299152E+00  0.74613382109E+03  0.50400001928E-02 0.  1.
       -1    1    3    3    0  502  0.42902889709E+03  0.61045028933E+03  0.31223785213E+03  0.80883114839E+03  0.50400001928E-02 0. -1.
</event>
<event>
 5   0  0.8058234E-04  0.1498732E+04  0.7818609E-02  0.8885297E-01
       -1   -1    0    0    0  501  0.00000000000E+00  0.00000000000E+00  0.89511741163E+03  0.89511741165E+03  0.50400001928E-02 0. -1.
        1   -1    0    0  501    0  0.00000000000E+00  0.00000000000E+00 -0.62734696938E+03  0.62734696940E+03  0.50400001928E-02 0.  1.
    10030    2    1    2    0    0  0.00000000000E+00  0.00000000000E+00  0.26777044226E+03  0.15224643810E+04  0.14987317244E+04 0.  0.
        5    1    3    3  502    0 -0.16790776526E+03 -0.49705103608E+03  0.67740388661E+03  0.85682604168E+03  0.46999998093E+01 0. -1.
       -5    1    3    3    0  502  0.16790776526E+03  0.49705103608E+03 -0.40963344436E+03  0.66563833937E+03  0.46999998093E+01 0.  1.
</event>
<event>
 5   0  0.1511546E-03  0.1467829E+04  0.7818609E-02  0.8906133E-01
       -2   -1    0    0    0  501  0.00000000000E+00  0.00000000000E+00  0.45883811985E+03  0.45883811986E+03  0.25500000920E-02 0.  1.
        2   -1    0    0  501    0  0.00000000000E+00  0.00000000000E+00 -0.11739004244E+04  0.11739004244E+04  0.25500000920E-02 0. -1.
    10030    2    1    2    0    0  0.00000000000E+00  0.00000000000E+00 -0.71506230451E+03  0.16327385442E+04  0.14678286870E+04 0.  0.
        1    1    3    3  502    0  0.13926067017E+03  0.14572345658E+03 -0.11425074752E+04  0.11601517966E+04  0.50400001928E-02 0. -1.
       -1    1    3    3    0  502 -0.13926067017E+03 -0.14572345658E+03  0.42744517073E+03  0.47258674766E+03  0.50400001928E-02 0.  1.
</event>
<event>
 5   0  0.1552067E-03  0.1526441E+04  0.7818609E-02  0.8867058E-01
       -2   -1    0    0    0  501  0.00000000000E+00  0.00000000000E+00  0.46135757134E+03  0.46135757135E+03  0.25500000920E-02 0.  1.
        2   -1    0    0  501    0  0.00000000000E+00  0.00000000000E+00 -0.12625907978E+04  0.12625907978E+04  0.25500000920E-02 0. -1.
    10030    2    1    2    0    0  0.00000000000E+00  0.00000000000E+00 -0.80123322643E+03  0.17239483691E+04  0.15264413832E+04 0.  0.
        3    1    3    3  502    0  0.54612824964E+03 -0.52864820712E+03 -0.32252661612E+03  0.82568058004E+03  0.10100000352E+00 0.  1.
       -3    1    3    3    0  502 -0.54612824964E+03  0.52864820712E+03 -0.47870661031E+03  0.89826778908E+03  0.10100000352E+00 0. -1.
</event>
<event>
 5   0  0.1511546E-03  0.1535801E+04  0.7818609E-02  0.8860989E-01
        2   -1    0    0  501    0  0.00000000000E+00  0.00000000000E+00  0.11431300509E+04  0.11431300509E+04  0.25500000920E-02 0.  1.
       -2   -1    0    0    0  501  0.00000000000E+00  0.00000000000E+00 -0.51583891730E+03  0.51583891730E+03  0.25500000920E-02 0. -1.
    10030    2    1    2    0    0  0.00000000000E+00  0.00000000000E+00  0.62729113356E+03  0.16589689682E+04  0.15358007264E+04 0.  0.
        1    1    3    3  502    0 -0.29520970557E+03  0.39320977548E+03 -0.32349575168E+03  0.58856792231E+03  0.50400001928E-02 0. -1.
       -1    1    3    3    0  502  0.29520970557E+03 -0.39320977548E+03  0.95078688524E+03  0.10704010459E+04  0.50400001928E-02 0.  1.
</event>
<event>
 5   0  0.1552067E-03  0.1519116E+04  0.7818609E-02  0.8871840E-01
        2   -1    0    0  501    0  0.00000000000E+00  0.00000000000E+00  0.10797155108E+04  0.10797155108E+04  0.25500000920E-02 0. -1.
       -2   -1    0    0    0  501  0.00000000000E+00  0.00000000000E+00 -0.53433336769E+03  0.53433336769E+03  0.25500000920E-02 0.  1.
    10030    2    1    2    0    0  0.00000000000E+00  0.00000000000E+00  0.54538214308E+03  0.16140488785E+04  0.15191155651E+04 0.  0.
        3    1    3    3  502    0 -0.25876384258E+02  0.74531008405E+03  0.42582018648E+03  0.85876629537E+03  0.10100000352E+00 0.  1.
       -3    1    3    3    0  502  0.25876384258E+02 -0.74531008405E+03  0.11956195660E+03  0.75528258309E+03  0.10100000352E+00 0. -1.
</event>
<event>
 5   0  0.1484056E-03  0.1510186E+04  0.7818609E-02  0.8877707E-01
        2   -1    0    0  501    0  0.00000000000E+00  0.00000000000E+00  0.10480046574E+04  0.10480046574E+04  0.25500000920E-02 0.  1.
       -2   -1    0    0    0  501  0.00000000000E+00  0.00000000000E+00 -0.54404888801E+03  0.54404888801E+03  0.25500000920E-02 0. -1.
    10030    2    1    2    0    0  0.00000000000E+00  0.00000000000E+00  0.50395576942E+03  0.15920535454E+04  0.15101864368E+04 0.  0.
        5    1    3    3  502    0  0.73293900872E+03  0.12393217451E+03  0.39177464509E+03  0.84027866622E+03  0.46999998093E+01 0.  1.
       -5    1    3    3    0  502 -0.73293900872E+03 -0.12393217451E+03  0.11218112434E+03  0.75177487922E+03  0.46999998093E+01 0. -1.
</event>
<event>
 5   0  0.5603875E-04  0.1495834E+04  0.7818609E-02  0.8887228E-01
       -4   -1    0    0    0  501  0.00000000000E+00  0.00000000000E+00  0.97163228661E+03  0.97163311660E+03  0.12699999809E+01 0. -1.
        4   -1    0    0  501    0  0.00000000000E+00  0.00000000000E+00 -0.57570937410E+03  0.57571077489E+03  0.12699999809E+01 0.  1.
    10030    2    1    2    0    0  0.00000000000E+00  0.00000000000E+00  0.39592291250E+03  0.15473438915E+04  0.14958336023E+04 0.  0.
        3    1    3    3  502    0 -0.21669988547E+03 -0.68132301314E+03  0.42511292731E+03  0.83179378440E+03  0.10100000352E+00 0. -1.
       -3    1    3    3    0  502  0.21669988547E+03  0.68132301314E+03 -0.29190014802E+02  0.71555010710E+03  0.10100000352E+00 0.  1.
</event>
<event>
 5   0  0.8365016E-04  0.1517050E+04  0.7818609E-02  0.8873194E-01
       -1   -1    0    0    0  501  0.00000000000E+00  0.00000000000E+00  0.58727919170E+03  0.58727919172E+03  0.50400001928E-02 0.  1.
        1   -1    0    0  501    0  0.00000000000E+00  0.00000000000E+00 -0.97970441270E+03  0.97970441271E+03  0.50400001928E-02 0. -1.
    10030    2    1    2    0    0  0.00000000000E+00  0.00000000000E+00 -0.39242522100E+03  0.15669836044E+04  0.15170497891E+04 0.  0.
        3    1    3    3  502    0 -0.30097263859E+03  0.66006372674E+03 -0.42507114805E+03  0.84080565153E+03  0.10100000352E+00 0. -1.
       -3    1    3    3    0  502  0.30097263859E+03 -0.66006372674E+03  0.32645927051E+02  0.72617795291E+03  0.10100000352E+00 0.  1.
</event>
<event>
 5   0  0.1511546E-03  0.1474783E+04  0.7818609E-02  0.8901397E-01
        2   -1    0    0  501    0  0.00000000000E+00  0.00000000000E+00  0.14919949960E+04  0.14919949960E+04  0.25500000920E-02 0. -1.
       -2   -1    0    0    0  501  0.00000000000E+00  0.00000000000E+00 -0.36444235557E+03  0.36444235558E+03  0.25500000920E-02 0.  1.
    10030    2    1    2    0    0  0.00000000000E+00  0.00000000000E+00  0.11275526404E+04  0.18564373516E+04  0.14747829276E+04 0.  0.
        1    1    3    3  502    0 -0.46901437194E+03  0.49278871401E+03  0.92188065453E+03  0.11457221037E+04  0.50400001928E-02 0. -1.
       -1    1    3    3    0  502  0.46901437194E+03 -0.49278871401E+03  0.20567198591E+03  0.71071524787E+03  0.50400001928E-02 0.  1.
</event>
<event>
 5   0  0.8365016E-04  0.1517782E+04  0.7818609E-02  0.8872714E-01
       -1   -1    0    0    0  501  0.00000000000E+00  0.00000000000E+00  0.62254142904E+03  0.62254142906E+03  0.50400001928E-02 0. -1.
        1   -1    0    0  501    0  0.00000000000E+00  0.00000000000E+00 -0.92510386686E+03  0.92510386687E+03  0.50400001928E-02 0.  1.
    10030    2    1    2    0    0  0.00000000000E+00  0.00000000000E+00 -0.30256243782E+03  0.15476452959E+04  0.15177819123E+04 0.  0.
        3    1    3    3  502    0  0.78439216694E+02  0.47455887921E+03 -0.74982009833E+03  0.89083614128E+03  0.10100000352E+00 0.  1.
       -3    1    3    3    0  502 -0.78439216694E+02 -0.47455887921E+03  0.44725766051E+03  0.65680915465E+03  0.10100000352E+00 0. -1.
</event>
<event>
 5   0  0.8191876E-04  0.1504520E+04  0.7818609E-02  0.8881453E-01
        1   -1    0    0  501    0  0.00000000000E+00  0.00000000000E+00  0.16352651081E+04  0.16352651081E+04  0.50400001928E-02 0.  1.
       -1   -1    0    0    0  501  0.00000000000E+00  0.00000000000E+00 -0.34605718237E+03  0.34605718241E+03  0.50400001928E-02 0. -1.
    10030    2    1    2    0    0  0.00000000000E+00  0.00000000000E+00  0.12892079257E+04  0.19813222905E+04  0.15045201704E+04 0.  0.
        2    1    3    3  502    0 -0.69829713926E+03  0.14043473218E+03  0.96327088009E+03  0.11980115179E+04  0.25500000920E-02 0.  1.
       -2    1    3    3    0  502  0.69829713926E+03 -0.14043473218E+03  0.32593704564E+03  0.78331077257E+03  0.25500000920E-02 0. -1.
</event>
<event>
 5   0  0.8306301E-04  0.1501205E+04  0.7818609E-02  0.8883652E-01
       -1   -1    0    0    0  501  0.00000000000E+00  0.00000000000E+00  0.59191489306E+03  0.59191489308E+03  0.50400001928E-02 0.  1.
        1   -1    0    0  501    0  0.00000000000E+00  0.00000000000E+00 -0.95183244824E+03  0.95183244825E+03  0.50400001928E-02 0. -1.
    10030    2    1    2    0    0  0.00000000000E+00  0.00000000000E+00 -0.35991755518E+03  0.15437473413E+04  0.15012045854E+04 0.  0.
        4    1    3    3  502    0  0.42518088074E+03  0.52239963786E+03  0.16067150070E+03  0.69245729617E+03  0.12699999809E+01 0. -1.
       -4    1    3    3    0  502 -0.42518088074E+03 -0.52239963786E+03 -0.52058905588E+03  0.85129004516E+03  0.12699999809E+01 0.  1.
</event>
<event>
 5   0  0.1500956E-03  0.1534324E+04  0.7818609E-02  0.8861943E-01
       -2   -1    0    0    0  501  0.00000000000E+00  0.00000000000E+00  0.23316495381E+03  0.23316495383E+03  0.25500000920E-02 0.  1.
        2   -1    0    0  501    0  0.00000000000E+00  0.00000000000E+00 -0.25241247574E+04  0.25241247574E+04  0.25500000920E-02 0. -1.
    10030    2    1    2    0    0  0.00000000000E+00  0.00000000000E+00 -0.22909598035E+04  0.27572897112E+04  0.15343238674E+04 0.  0.
        4    1    3    3  502    0 -0.64121324252E+03 -0.76918104561E+01 -0.38873944010E+03  0.74988902614E+03  0.12699999809E+01 0.  1.
       -4    1    3    3    0  502  0.64121324252E+03  0.76918104561E+01 -0.19022203634E+04  0.20074006850E+04  0.12699999809E+01 0. -1.
</event>
<event>
 5   0  0.8058234E-04  0.1415986E+04  0.7818609E-02  0.8942327E-01
       -1   -1    0    0    0  501  0.00000000000E+00  0.00000000000E+00  0.54096851370E+03  0.54096851373E+03  0.50400001928E-02 0.  1.
        1   -1    0    0  501    0  0.00000000000E+00  0.00000000000E+00 -0.92658685996E+03  0.92658685998E+03  0.50400001928E-02 0. -1.
    10030    2    1    2    0    0  0.00000000000E+00  0.00000000000E+00 -0.38561834626E+03  0.14675553737E+04  0.14159863226E+04 0.  0.
        5    1    3    3  502    0  0.53001900460E+03 -0.39214288108E+03  0.74530812323E+02  0.66353079537E+03  0.46999998093E+01 0.  1.
       -5    1    3    3    0  502 -0.53001900460E+03  0.39214288108E+03 -0.46014915858E+03  0.80402457833E+03  0.46999998093E+01 0. -1.
</event>
<event>
 5   0  0.8058234E-04  0.1455625E+04  0.7818609E-02  0.8914510E-01
       -1   -1    0    0    0  501  0.00000000000E+00  0.00000000000E+00  0.42123959124E+03  0.42123959127E+03  0.50400001928E-02 0.  1.
        1   -1    0    0  501    0  0.00000000000E+00  0.00000000000E+00 -0.12575056384E+04  0.12575056384E+04  0.50400001928E-02 0. -1.
    10030    2    1    2    0    0  0.00000000000E+00  0.00000000000E+00 -0.83626604713E+03  0.16787452296E+04  0.14556251731E+04 0.  0.
        5    1    3    3  502    0  0.39185425673E+03  0.41038257926E+02 -0.11238574541E+04  0.11909288662E+04  0.46999998093E+01 0. -1.
       -5    1    3    3    0  502 -0.39185425673E+03 -0.41038257926E+02  0.28759140696E+03  0.48781636349E+03  0.46999998093E+01 0.  1.
</event>
<event>
 5   0  0.8058234E-04  0.1452077E+04  0.7818609E-02  0.8916962E-01
       -1   -1    0    0    0  501  0.00000000000E+00  0.00000000000E+00  0.63708559171E+03  0.63708559173E+03  0.50400001928E-02 0.  1.
        1   -1    0    0  501    0  0.00000000000E+00  0.00000000000E+00 -0.82741111648E+03  0.82741111650E+03  0.50400001928E-02 0. -1.
    10030    2    1    2    0    0  0.00000000000E+00  0.00000000000E+00 -0.19032552477E+03  0.14644967082E+04  0.14520767208E+04 0.  0.
        5    1    3    3  502    0  0.36050511449E+03 -0.34087932952E+02  0.53949191307E+03  0.64976883506E+03  0.46999998093E+01 0.  1.
       -5    1    3    3    0  502 -0.36050511449E+03  0.34087932952E+02 -0.72981743784E+03  0.81472787317E+03  0.46999998093E+01 0. -1.
</event>
<event>
 5   0  0.1484056E-03  0.1498516E+04  0.7818609E-02  0.8885441E-01
       -2   -1    0    0    0  501  0.00000000000E+00  0.00000000000E+00  0.75581073323E+03  0.75581073323E+03  0.25500000920E-02 0. -1.
        2   -1    0    0  501    0  0.00000000000E+00  0.00000000000E+00 -0.74276184305E+03  0.74276184306E+03  0.25500000920E-02 0.  1.
    10030    2    1    2    0    0  0.00000000000E+00  0.00000000000E+00  0.13048890175E+02  0.14985725763E+04  0.14985157633E+04 0.  0.
        5    1    3    3  502    0 -0.78527516171E+02  0.73538271390E+03 -0.11352583297E+03  0.74824094478E+03  0.46999998093E+01 0. -1.
       -5    1    3    3    0  502  0.78527516171E+02 -0.73538271390E+03  0.12657472315E+03  0.75033163151E+03  0.46999998093E+01 0.  1.
</event>
<event>
 5   0  0.1511546E-03  0.1512050E+04  0.7818609E-02  0.8876479E-01
        2   -1    0    0  501    0  0.00000000000E+00  0.00000000000E+00  0.60058996520E+03  0.60058996520E+03  0.25500000920E-02 0. -1.
       -2   -1    0    0    0  501  0.00000000000E+00  0.00000000000E+00 -0.95168708180E+03  0.95168708181E+03  0.25500000920E-02 0.  1.
    10030    2    1    2    0    0  0.00000000000E+00  0.00000000000E+00 -0.35109711661E+03  0.15522770470E+04  0.15120498819E+04 0.  0.
        1    1    3    3  502    0  0.63755948110E+03 -0.37415807074E+03 -0.33818471977E+03  0.81292389469E+03  0.50400001928E-02 0. -1.
       -1    1    3    3    0  502 -0.63755948110E+03  0.37415807074E+03 -0.12912396832E+02  0.73935315233E+03  0.50400001928E-02 0.  1.
</event>
<event>
 5   0  0.8191876E-04  0.1478216E+04  0.7818609E-02  0.8899069E-01
       -1   -1    0    0    0  501  0.00000000000E+00  0.00000000000E+00  0.60517006468E+03  0.60517006470E+03  0.50400001928E-02 0.  1.
        1   -1    0    0  501    0  0.00000000000E+00  0.00000000000E+00 -0.90268969545E+03  0.90268969546E+03  0.50400001928E-02 0. -1.
    10030    2    1    2    0    0  0.00000000000E+00  0.00000000000E+00 -0.29751963076E+03  0.15078597602E+04  0.14782161972E+04 0.  0.
        2    1    3    3  502    0  0.53375793886E+03  0.54016335082E+02 -0.66734997128E+03  0.85625421805E+03  0.25500000920E-02 0. -1.
       -2    1    3    3    0  502 -0.53375793886E+03 -0.54016335082E+02  0.36983034052E+03  0.65160554212E+03  0.25500000920E-02 0.  1.
</event>
<event>
 5   0  0.5603875E-04  0.1513155E+04  0.7818609E-02  0.8875752E-01
       -4   -1    0    0    0  501  0.00000000000E+00  0.00000000000E+00  0.10236243156E+04  0.10236251034E+04  0.12699999809E+01 0.  1.
        4   -1    0    0  501    0  0.00000000000E+00  0.00000000000E+00 -0.55919707559E+03  0.55919851775E+03  0.12699999809E+01 0. -1.
    10030    2    1    2    0    0  0.00000000000E+00  0.00000000000E+00  0.46442723997E+03  0.15828236211E+04  0.15131549671E+04 0.  0.
        1    1    3    3  502    0 -0.46618221479E+03 -0.39045057140E+03 -0.23865864616E+03  0.65324991810E+03  0.50400001928E-02 0. -1.
       -1    1    3    3    0  502  0.46618221479E+03  0.39045057140E+03  0.70308588612E+03  0.92957370304E+03  0.50400001928E-02 0.  1.
</event>
<event>
 5   0  0.1511546E-03  0.1533883E+04  0.7818609E-02  0.8862229E-01
       -2   -1    0    0    0  501  0.00000000000E+00  0.00000000000E+00  0.12609514651E+04  0.12609514651E+04  0.25500000920E-02 0. -1.
        2   -1    0    0  501    0  0.00000000000E+00  0.00000000000E+00 -0.46647259943E+03  0.46647259944E+03  0.25500000920E-02 0.  1.
    10030    2    1    2    0    0  0.00000000000E+00  0.00000000000E+00  0.79447886564E+03  0.17274240645E+04  0.15338830564E+04 0.  0.
        1    1    3    3  502    0  0.16625171072E+03  0.55317051823E+03  0.96544246710E+03  0.11250406263E+04  0.50400001928E-02 0.  1.
       -1    1    3    3    0  502 -0.16625171072E+03 -0.55317051823E+03 -0.17096360146E+03  0.60238343819E+03  0.50400001928E-02 0. -1.
</event>
<event>
 5   0  0.5603875E-04  0.1488126E+04  0.7818609E-02  0.8892387E-01
        3   -1    0    0  501    0  0.00000000000E+00  0.00000000000E+00  0.11135383323E+04  0.11135383369E+04  0.10100000352E+00 0.  1.
       -3   -1    0    0    0  501  0.00000000000E+00  0.00000000000E+00 -0.49718092061E+03  0.49718093086E+03  0.10100000352E+00 0. -1.
    10030    2    1    2    0    0  0.00000000000E+00  0.00000000000E+00  0.61635741171E+03  0.16107192678E+04  0.14881263725E+04 0.  0.
        5    1    3    3  502    0 -0.64580457630E+03  0.25766216587E+03  0.59486576797E+03  0.91506322973E+03  0.46999998093E+01 0. -1.
       -5    1    3    3    0  502  0.64580457630E+03 -0.25766216587E+03  0.21491643734E+02  0.69565603803E+03  0.46999998093E+01 0.  1.
</event>
<event>
 5   0  0.1511546E-03  0.1457656E+04  0.7818609E-02  0.8913110E-01
        2   -1    0    0  501    0  0.00000000000E+00  0.00000000000E+00  0.13941681112E+04  0.13941681112E+04  0.25500000920E-02 0.  1.
       -2   -1    0    0    0  501  0.00000000000E+00  0.00000000000E+00 -0.38100865934E+03  0.38100865934E+03  0.25500000920E-02 0. -1.
    10030    2    1    2    0    0  0.00000000000E+00  0.00000000000E+00  0.10131594518E+04  0.17751767705E+04  0.14576558207E+04 0.  0.
        1    1    3    3  502    0  0.57258815774E+03  0.45091104847E+03  0.51082485351E+03  0.89001123757E+03  0.50400001928E-02 0.  1.
       -1    1    3    3    0  502 -0.57258815774E+03 -0.45091104847E+03  0.50233459833E+03  0.88516553295E+03  0.50400001928E-02 0. -1.
</event>
<event>
 5   0  0.1552067E-03  0.1494182E+04  0.7818609E-02  0.8888331E-01
       -2   -1    0    0    0  501  0.00000000000E+00  0.00000000000E+00  0.58426564619E+03  0.58426564619E+03  0.25500000920E-02 0. -1.
        2   -1    0    0  501    0  0.00000000000E+00  0.00000000000E+00 -0.95529290176E+03  0.95529290176E+03  0.25500000920E-02 0.  1.
    10030    2    1    2    0    0  0.00000000000E+00  0.00000000000E+00 -0.37102725557E+03  0.15395585480E+04  0.14941818156E+04 0.  0.
        3    1    3    3  502    0  0.71049227925E+03  0.22536506636E+03 -0.13342012264E+03  0.75722495425E+03  0.10100000352E+00 0.  1.
       -3    1    3    3    0  502 -0.71049227925E+03 -0.22536506636E+03 -0.23760713293E+03  0.78233359370E+03  0.10100000352E+00 0. -1.
</event>
<event>
 5   0  0.8306301E-04  0.1170925E+04  0.7818609E-02  0.9138693E-01
        1   -1    0    0  501    0  0.00000000000E+00  0.00000000000E+00  0.12846113445E+04  0.12846113445E+04  0.50400001928E-02 0. -1.
       -1   -1    0    0    0  501  0.00000000000E+00  0.00000000000E+00 -0.26682504911E+03  0.26682504916E+03  0.50400001928E-02 0.  1.
    10030    2    1    2    0    0  0.00000000000E+00  0.00000000000E+00  0.10177862954E+04  0.15514363936E+04  0.11709252497E+04 0.  0.
        4    1    3    3  502    0 -0.22737844543E+03 -0.41775954308E+03  0.56575066991E+02  0.47898470162E+03  0.12699999809E+01 0.  1.
       -4    1    3    3    0  502  0.22737844543E+03  0.41775954308E+03  0.96121122838E+03  0.10724516920E+04  0.12699999809E+01 0. -1.
</event>
<event>
 5   0  0.8306301E-04  0.1498997E+04  0.7818609E-02  0.8885120E-01
        1   -1    0    0  501    0  0.00000000000E+00  0.00000000000E+00  0.17948710125E+04  0.17948710125E+04  0.50400001928E-02 0. -1.
       -1   -1    0    0    0  501  0.00000000000E+00  0.00000000000E+00 -0.31297410846E+03  0.31297410850E+03  0.50400001928E-02 0.  1.
    10030    2    1    2    0    0  0.00000000000E+00  0.00000000000E+00  0.14818969040E+04  0.21078451210E+04  0.14989972048E+04 0.  0.
        4    1    3    3  502    0 -0.98928765747E+02  0.69498862524E+03  0.11101864888E+04  0.13135112267E+04  0.12699999809E+01 0. -1.
       -4    1    3    3    0  502  0.98928765747E+02 -0.69498862524E+03  0.37171041523E+03  0.79433389428E+03  0.12699999809E+01 0.  1.
</event>
<event>
 5   0  0.7870317E-04  0.1404551E+04  0.7818609E-02  0.8950531E-01
        1   -1    0    0  501    0  0.00000000000E+00  0.00000000000E+00  0.65050923501E+03  0.65050923503E+03  0.50400001928E-02 0. -1.
       -1   -1    0    0    0  501  0.00000000000E+00  0.00000000000E+00 -0.75816096207E+03  0.75816096209E+03  0.50400001928E-02 0.  1.
    10030    2    1    2    0    0  0.00000000000E+00  0.00000000000E+00 -0.10765172707E+03  0.14086701971E+04  0.14045507573E+04 0.  0.
        1    1    3    3  502    0  0.14970070004E+03 -0.17056762818E+03 -0.72037050593E+03  0.75527298456E+03  0.50400001928E-02 0.  1.
       -1    1    3    3    0  502 -0.14970070004E+03  0.17056762818E+03  0.61271877886E+03  0.65339721255E+03  0.50400001928E-02 0. -1.
</event>
<event>
 5   0  0.1484056E-03  0.1498841E+04  0.7818609E-02  0.8885224E-01
        2   -1    0    0  501    0  0.00000000000E+00  0.00000000000E+00  0.20733060938E+04  0.20733060938E+04  0.25500000920E-02 0.  1.
       -2   -1    0    0    0  501  0.00000000000E+00  0.00000000000E+00 -0.27088662721E+03  0.27088662722E+03  0.25500000920E-02 0. -1.
    10030    2    1    2    0    0  0.00000000000E+00  0.00000000000E+00  0.18024194666E+04  0.23441927210E+04  0.14988407453E+04 0.  0.
        5    1    3    3  502    0 -0.55455940600E+03  0.19893175604E+03  0.16255627660E+04  0.17290420396E+04  0.46999998093E+01 0.  1.
       -5    1    3    3    0  502  0.55455940600E+03 -0.19893175604E+03  0.17685670057E+03  0.61515068144E+03  0.46999998093E+01 0. -1.
</event>
<event>
 5   0  0.7870317E-04  0.1554260E+04  0.7818609E-02  0.8849151E-01
        1   -1    0    0  501    0  0.00000000000E+00  0.00000000000E+00  0.18074627633E+04  0.18074627633E+04  0.50400001928E-02 0.  1.
       -1   -1    0    0    0  501  0.00000000000E+00  0.00000000000E+00 -0.33413179357E+03  0.33413179361E+03  0.50400001928E-02 0. -1.
    10030    2    1    2    0    0  0.00000000000E+00  0.00000000000E+00  0.14733309697E+04  0.21415945569E+04  0.15542596629E+04 0.  0.
        1    1    3    3  502    0 -0.59130752741E+02  0.72188804377E+03  0.11247113658E+04  0.13377572463E+04  0.50400001928E-02 0. -1.
       -1    1    3    3    0  502  0.59130752741E+02 -0.72188804377E+03  0.34861960391E+03  0.80383731060E+03  0.50400001928E-02 0.  1.
</event>
<event>
 5   0  0.1484056E-03  0.1507625E+04  0.7818609E-02  0.8879398E-01
        2   -1    0    0  501    0  0.00000000000E+00  0.00000000000E+00  0.11287208958E+04  0.11287208958E+04  0.25500000920E-02 0.  1.
       -2   -1    0    0    0  501  0.00000000000E+00  0.00000000000E+00 -0.50343110414E+03  0.50343110415E+03  0.25500000920E-02 0. -1.
    10030    2    1    2    0    0  0.00000000000E+00  0.00000000000E+00  0.62528979166E+03  0.16321520000E+04  0.15076248961E+04 0.  0.
        5    1    3    3  502    0 -0.73542385365E+03  0.10846176418E+03  0.44785667867E+03  0.86787665796E+03  0.46999998093E+01 0.  1.
       -5    1    3    3    0  502  0.73542385365E+03 -0.10846176418E+03  0.17743311300E+03  0.76427534200E+03  0.46999998093E+01 0. -1.
</event>
<event>
 5   0  0.1511546E-03  0.1488542E+04  0.7818609E-02  0.8892108E-01
        2   -1    0    0  501    0  0.00000000000E+00  0.00000000000E+00  0.67898841471E+03  0.67898841472E+03  0.25500000920E-02 0. -1.
       -2   -1    0    0    0  501  0.00000000000E+00  0.00000000000E+00 -0.81583078220E+03  0.81583078220E+03  0.25500000920E-02 0.  1.
    10030    2    1    2    0    0  0.00000000000E+00  0.00000000000E+00 -0.13684236748E+03  0.14948191969E+04  0.14885424408E+04 0.  0.
        1    1    3    3  502    0 -0.24916136665E+03 -0.64886088023E+03 -0.33569723203E+03  0.77187723126E+03  0.50400001928E-02 0.  1.
       -1    1    3    3    0  502  0.24916136665E+03  0.64886088023E+03  0.19885486455E+03  0.72294196565E+03  0.50400001928E-02 0. -1.
</event>
<event>
 5   0  0.1500956E-03  0.1508683E+04  0.7818609E-02  0.8878699E-01
        2   -1    0    0  501    0  0.00000000000E+00  0.00000000000E+00  0.10110766411E+04  0.10110766411E+04  0.25500000920E-02 0. -1.
       -2   -1    0    0    0  501  0.00000000000E+00  0.00000000000E+00 -0.56279756206E+03  0.56279756206E+03  0.25500000920E-02 0.  1.
    10030    2    1    2    0    0  0.00000000000E+00  0.00000000000E+00  0.44827907900E+03  0.15738742031E+04  0.15086834905E+04 0.  0.
        4    1    3    3  502    0  0.31127504706E+03 -0.52434681199E+01 -0.49265316110E+03  0.58277645707E+03  0.12699999809E+01 0.  1.
       -4    1    3    3    0  502 -0.31127504706E+03  0.52434681199E+01  0.94093224009E+03  0.99109774605E+03  0.12699999809E+01 0. -1.
</event>
<event>
 5   0  0.1484056E-03  0.1191462E+04  0.7818609E-02  0.9120363E-01
       -2   -1    0    0    0  501  0.00000000000E+00  0.00000000000E+00  0.32534492094E+03  0.32534492095E+03  0.25500000920E-02 0. -1.
        2   -1    0    0  501    0  0.00000000000E+00  0.00000000000E+00 -0.10908277082E+04  0.10908277082E+04  0.25500000920E-02 0.  1.
    10030    2    1    2    0    0  0.00000000000E+00  0.00000000000E+00 -0.76548278729E+03  0.14161726292E+04  0.11914617149E+04 0.  0.
        5    1    3    3  502    0  0.11470663856E+03 -0.46235659474E+03 -0.80789175740E+03  0.93789253931E+03  0.46999998093E+01 0.  1.
       -5    1    3    3    0  502 -0.11470663856E+03  0.46235659474E+03  0.42408970115E+02  0.47828008987E+03  0.46999998093E+01 0. -1.
</event>
<event>
 5   0  0.8306301E-04  0.1457183E+04  0.7818609E-02  0.8913436E-01
       -1   -1    0    0    0  501  0.00000000000E+00  0.00000000000E+00  0.67575292020E+03  0.67575292022E+03  0.50400001928E-02 0.  1.
        1   -1    0    0  501    0  0.00000000000E+00  0.00000000000E+00 -0.78556195633E+03  0.78556195634E+03  0.50400001928E-02 0. -1.
    10030    2    1    2    0    0  0.00000000000E+00  0.00000000000E+00 -0.10980903613E+03  0.14613148766E+04  0.14571832912E+04 0.  0.
        4    1    3    3  502    0 -0.23733688172E+02  0.72353723174E+03 -0.13744681730E+03  0.73685999631E+03  0.12699999809E+01 0. -1.
       -4    1    3    3    0  502  0.23733688172E+02 -0.72353723174E+03  0.27637781168E+02  0.72445488025E+03  0.12699999809E+01 0.  1.
</event>
<event>
 5   0  0.1511546E-03  0.1491382E+04  0.7818609E-02  0.8890204E-01
       -2   -1    0    0    0  501  0.00000000000E+00  0.00000000000E+00  0.28950090812E+03  0.28950090813E+03  0.25500000920E-02 0. -1.
        2   -1    0    0  501    0  0.00000000000E+00  0.00000000000E+00 -0.19207360459E+04  0.19207360459E+04  0.25500000920E-02 0.  1.
    10030    2    1    2    0    0  0.00000000000E+00  0.00000000000E+00 -0.16312351377E+04  0.22102369540E+04  0.14913816809E+04 0.  0.
        1    1    3    3  502    0  0.36424890924E+03  0.52795261238E+03 -0.25198037530E+03  0.68913375941E+03  0.50400001928E-02 0. -1.
       -1    1    3    3    0  502 -0.36424890924E+03 -0.52795261238E+03 -0.13792547625E+04  0.15211031946E+04  0.50400001928E-02 0.  1.
</event>
<event>
 5   0  0.8306301E-04  0.1171297E+04  0.7818609E-02  0.9138358E-01
       -1   -1    0    0    0  501  0.00000000000E+00  0.00000000000E+00  0.97938892882E+03  0.97938892883E+03  0.50400001928E-02 0.  1.
        1   -1    0    0  501    0  0.00000000000E+00  0.00000000000E+00 -0.35020211248E+03  0.35020211252E+03  0.50400001928E-02 0. -1.
    10030    2    1    2    0    0  0.00000000000E+00  0.00000000000E+00  0.62918681634E+03  0.13295910414E+04  0.11712968400E+04 0.  0.
        4    1    3    3  502    0  0.46245857693E+03 -0.26954274394E+03  0.44865250076E+02  0.53715521942E+03  0.12699999809E+01 0. -1.
       -4    1    3    3    0  502 -0.46245857693E+03  0.26954274394E+03  0.58432156626E+03  0.79243582193E+03  0.12699999809E+01 0.  1.
</event>
<event>
 5   0  0.8191876E-04  0.1512825E+04  0.7818609E-02  0.8875969E-01
       -1   -1    0    0    0  501  0.00000000000E+00  0.00000000000E+00  0.50358934066E+03  0.50358934068E+03  0.50400001928E-02 0. -1.
        1   -1    0    0  501    0  0.00000000000E+00  0.00000000000E+00 -0.11361634012E+04  0.11361634012E+04  0.50400001928E-02 0.  1.
    10030    2    1    2    0    0  0.00000000000E+00  0.00000000000E+00 -0.63257406050E+03  0.16397527419E+04  0.15128248783E+04 0.  0.
        2    1    3    3  502    0  0.17691524517E+03 -0.64425942335E+02 -0.11103584783E+04  0.11262085315E+04  0.25500000920E-02 0.  1.
       -2    1    3    3    0  502 -0.17691524517E+03  0.64425942335E+02  0.47778441785E+03  0.51354421033E+03  0.25500000920E-02 0. -1.
</event>
<event>
 5   0  0.8191876E-04  0.1523219E+04  0.7818609E-02  0.8869158E-01
        1   -1    0    0  501    0  0.00000000000E+00  0.00000000000E+00  0.54448822850E+03  0.54448822853E+03  0.50400001928E-02 0.  1.
       -1   -1    0    0    0  501  0.00000000000E+00  0.00000000000E+00 -0.10653107217E+04  0.10653107218E+04  0.50400001928E-02 0. -1.
    10030    2    1    2    0    0  0.00000000000E+00  0.00000000000E+00 -0.52082249324E+03  0.16097989503E+04  0.15232191539E+04 0.  0.
        2    1    3    3  502    0  0.14962061916E+03 -0.53835986375E+03 -0.80735171012E+03  0.98185256348E+03  0.25500000920E-02 0. -1.
       -2    1    3    3    0  502 -0.14962061916E+03  0.53835986375E+03  0.28652921688E+03  0.62794638681E+03  0.25500000920E-02 0.  1.
</event>
<event>
 5   0  0.7870317E-04  0.1522905E+04  0.7818609E-02  0.8869363E-01
        1   -1    0    0  501    0  0.00000000000E+00  0.00000000000E+00  0.13980443072E+04  0.13980443072E+04  0.50400001928E-02 0. -1.
       -1   -1    0    0    0  501  0.00000000000E+00  0.00000000000E+00 -0.41472912262E+03  0.41472912265E+03  0.50400001928E-02 0.  1.
    10030    2    1    2    0    0  0.00000000000E+00  0.00000000000E+00  0.98331518459E+03  0.18127734299E+04  0.15229047100E+04 0.  0.
        1    1    3    3  502    0 -0.73023969710E+03 -0.81127752094E+02  0.72965987373E+03  0.10354879327E+04  0.50400001928E-02 0. -1.
       -1    1    3    3    0  502  0.73023969710E+03  0.81127752094E+02  0.25365531086E+03  0.77728549719E+03  0.50400001928E-02 0.  1.
</event>
<event>
 5   0  0.8306301E-04  0.1494412E+04  0.7818609E-02  0.8888177E-01
       -1   -1    0    0    0  501  0.00000000000E+00  0.00000000000E+00  0.51188688803E+03  0.51188688806E+03  0.50400001928E-02 0. -1.
        1   -1    0    0  501    0  0.00000000000E+00  0.00000000000E+00 -0.10907041667E+04  0.10907041667E+04  0.50400001928E-02 0.  1.
    10030    2    1    2    0    0  0.00000000000E+00  0.00000000000E+00 -0.57881727867E+03  0.16025910548E+04  0.14944124754E+04 0.  0.
        4    1    3    3  502    0  0.20905220502E+03 -0.50840236308E+03  0.25332998603E+03  0.60527141179E+03  0.12699999809E+01 0. -1.
       -4    1    3    3    0  502 -0.20905220502E+03  0.50840236308E+03 -0.83214726470E+03  0.99731964297E+03  0.12699999809E+01 0.  1.
</event>
<event>
 5   0  0.1500956E-03  0.1502671E+04  0.7818609E-02  0.8882679E-01
       -2   -1    0    0    0  501  0.00000000000E+00  0.00000000000E+00  0.50058003215E+03  0.50058003216E+03  0.25500000920E-02 0. -1.
        2   -1    0    0  501    0  0.00000000000E+00  0.00000000000E+00 -0.11277015153E+04  0.11277015153E+04  0.25500000920E-02 0.  1.
    10030    2    1    2    0    0  0.00000000000E+00  0.00000000000E+00 -0.62712148318E+03  0.16282815475E+04  0.15026707701E+04 0.  0.
        4    1    3    3  502    0 -0.57070219301E+03 -0.42262266713E+03 -0.47710988166E+02  0.71175056247E+03  0.12699999809E+01 0. -1.
       -4    1    3    3    0  502  0.57070219301E+03  0.42262266713E+03 -0.57941049501E+03  0.91653098503E+03  0.12699999809E+01 0.  1.
</event>
<event>
 5   0  0.1500956E-03  0.1512820E+04  0.7818609E-02  0.8875972E-01
       -2   -1    0    0    0  501  0.00000000000E+00  0.00000000000E+00  0.89088477429E+03  0.89088477429E+03  0.25500000920E-02 0.  1.
        2   -1    0    0  501    0  0.00000000000E+00  0.00000000000E+00 -0.64223364794E+03  0.64223364794E+03  0.25500000920E-02 0. -1.
    10030    2    1    2    0    0  0.00000000000E+00  0.00000000000E+00  0.24865112636E+03  0.15331184222E+04  0.15128201195E+04 0.  0.
        4    1    3    3  502    0  0.12603862673E+03 -0.10211013524E+03 -0.62439890276E+03  0.64512620302E+03  0.12699999809E+01 0. -1.
       -4    1    3    3    0  502 -0.12603862673E+03  0.10211013524E+03  0.87305002912E+03  0.88799221922E+03  0.12699999809E+01 0.  1.
</event>
<event>
 5   0  0.8058234E-04  0.1517145E+04  0.7818609E-02  0.8873131E-01
       -1   -1    0    0    0  501  0.00000000000E+00  0.00000000000E+00  0.57692054924E+03  0.57692054926E+03  0.50400001928E-02 0.  1.
        1   -1    0    0  501    0  0.00000000000E+00  0.00000000000E+00 -0.99742051212E+03  0.99742051213E+03  0.50400001928E-02 0. -1.
    10030    2    1    2    0    0  0.00000000000E+00  0.00000000000E+00 -0.42049996288E+03  0.15743410614E+04  0.15171452003E+04 0.  0.
        5    1    3    3  502    0 -0.52086423948E+03 -0.27823734242E+03  0.28382445340E+03  0.65520529991E+03  0.46999998093E+01 0.  1.
       -5    1    3    3    0  502  0.52086423948E+03  0.27823734242E+03 -0.70432441628E+03  0.91913576149E+03  0.46999998093E+01 0. -1.
</event>
<event>
 5   0  0.1526126E-03  0.1497252E+04  0.7818609E-02  0.8886283E-01
       -2   -1    0    0    0  501  0.00000000000E+00  0.00000000000E+00  0.26609222322E+03  0.26609222324E+03  0.25500000920E-02 0. -1.
        2   -1    0    0  501    0  0.00000000000E+00  0.00000000000E+00 -0.21061893385E+04  0.21061893385E+04  0.25500000920E-02 0.  1.
    10030    2    1    2    0    0  0.00000000000E+00  0.00000000000E+00 -0.18400971152E+04  0.23722815617E+04  0.14972516203E+04 0.  0.
        2    1    3    3  502    0 -0.64258850943E+03  0.27297303782E+03 -0.49194217229E+03  0.85407340007E+03  0.25500000920E-02 0. -1.
       -2    1    3    3    0  502  0.64258850943E+03 -0.27297303782E+03 -0.13481549430E+04  0.15182081616E+04  0.25500000920E-02 0.  1.
</event>
<event>
 5   0  0.8058234E-04  0.1506020E+04  0.7818609E-02  0.8880459E-01
        1   -1    0    0  501    0  0.00000000000E+00  0.00000000000E+00  0.72142039135E+03  0.72142039137E+03  0.50400001928E-02 0. -1.
       -1   -1    0    0    0  501  0.00000000000E+00  0.00000000000E+00 -0.78598317444E+03  0.78598317446E+03  0.50400001928E-02 0.  1.
    10030    2    1    2    0    0  0.00000000000E+00  0.00000000000E+00 -0.64562783090E+02  0.15074035658E+04  0.15060203044E+04 0.  0.
        5    1    3    3  502    0  0.22535792195E+03  0.62253091188E+03 -0.39131863844E+03  0.76907951216E+03  0.46999998093E+01 0.  1.
       -5    1    3    3    0  502 -0.22535792195E+03 -0.62253091188E+03  0.32675585535E+03  0.73832405367E+03  0.46999998093E+01 0. -1.
</event>
<event>
 5   0  0.1511546E-03  0.1503289E+04  0.7818609E-02  0.8882268E-01
        2   -1    0    0  501    0  0.00000000000E+00  0.00000000000E+00  0.10444838341E+04  0.10444838341E+04  0.25500000920E-02 0. -1.
       -2   -1    0    0    0  501  0.00000000000E+00  0.00000000000E+00 -0.54090805009E+03  0.54090805010E+03  0.25500000920E-02 0.  1.
    10030    2    1    2    0    0  0.00000000000E+00  0.00000000000E+00  0.50357578400E+03  0.15853918842E+04  0.15032893455E+04 0.  0.
        1    1    3    3  502    0  0.39479081554E+03 -0.63785240623E+03  0.20171605370E+03  0.77679137902E+03  0.50400001928E-02 0.  1.
       -1    1    3    3    0  502 -0.39479081554E+03  0.63785240623E+03  0.30185973030E+03  0.80860050518E+03  0.50400001928E-02 0. -1.
</event>
<event>
 5   0  0.1500956E-03  0.1475561E+04  0.7818609E-02  0.8900869E-01
       -2   -1    0    0    0  501  0.00000000000E+00  0.00000000000E+00  0.22285288132E+03  0.22285288133E+03  0.25500000920E-02 0. -1.
        2   -1    0    0  501    0  0.00000000000E+00  0.00000000000E+00 -0.24425074611E+04  0.24425074611E+04  0.25500000920E-02 0.  1.
    10030    2    1    2    0    0  0.00000000000E+00  0.00000000000E+00 -0.22196545797E+04  0.26653603424E+04  0.14755606736E+04 0.  0.
        4    1    3    3  502    0  0.19270948685E+02  0.79596515032E+02 -0.24342695472E+04  0.24356471042E+04  0.12699999809E+01 0.  1.
       -4    1    3    3    0  502 -0.19270948685E+02 -0.79596515032E+02  0.21461496745E+03  0.22971323824E+03  0.12699999809E+01 0. -1.
</event>
<event>
 5   0  0.8058234E-04  0.1520026E+04  0.7818609E-02  0.8871244E-01
       -1   -1    0    0    0  501  0.00000000000E+00  0.00000000000E+00  0.30370924719E+03  0.30370924724E+03  0.50400001928E-02 0. -1.
        1   -1    0    0  501    0  0.00000000000E+00  0.00000000000E+00 -0.19018838881E+04  0.19018838881E+04  0.50400001928E-02 0.  1.
    10030    2    1    2    0    0  0.00000000000E+00  0.00000000000E+00 -0.15981746409E+04  0.22055931353E+04  0.15200259523E+04 0.  0.
        5    1    3    3  502    0 -0.30045820332E+03 -0.35365948006E+02  0.21254941098E+03  0.36976374123E+03  0.46999998093E+01 0. -1.
       -5    1    3    3    0  502  0.30045820332E+03  0.35365948006E+02 -0.18107240519E+04  0.18358293941E+04  0.46999998093E+01 0.  1.
</event>
<event>
 5   0  0.1500956E-03  0.1497579E+04  0.7818609E-02  0.8886064E-01
       -2   -1    0    0    0  501  0.00000000000E+00  0.00000000000E+00  0.47158440071E+03  0.47158440072E+03  0.25500000920E-02 0. -1.
        2   -1    0    0  501    0  0.00000000000E+00  0.00000000000E+00 -0.11889402605E+04  0.11889402605E+04  0.25500000920E-02 0.  1.
    10030    2    1    2    0    0  0.00000000000E+00  0.00000000000E+00 -0.71735585980E+03  0.16605246612E+04  0.14975789532E+04 0.  0.
        4    1    3    3  502    0 -0.54074287721E+02  0.21455140219E+03  0.43450814236E+03  0.48760154988E+03  0.12699999809E+01 0. -1.
       -4    1    3    3    0  502  0.54074287721E+02 -0.21455140219E+03 -0.11518640022E+04  0.11729231114E+04  0.12699999809E+01 0.  1.
</event>
<event>
 5   0  0.1484056E-03  0.1472676E+04  0.7818609E-02  0.8902829E-01
       -2   -1    0    0    0  501  0.00000000000E+00  0.00000000000E+00  0.74321004295E+03  0.74321004296E+03  0.25500000920E-02 0.  1.
        2   -1    0    0  501    0  0.00000000000E+00  0.00000000000E+00 -0.72952935194E+03  0.72952935195E+03  0.25500000920E-02 0. -1.
    10030    2    1    2    0    0  0.00000000000E+00  0.00000000000E+00  0.13680691008E+02  0.14727393949E+04  0.14726758516E+04 0.  0.
        5    1    3    3  502    0 -0.19671961140E+03  0.49732709286E+03 -0.49928287319E+03  0.73166817633E+03  0.46999998093E+01 0. -1.
       -5    1    3    3    0  502  0.19671961140E+03 -0.49732709286E+03  0.51296356420E+03  0.74107121857E+03  0.46999998093E+01 0.  1.
</event>
<event>
 5   0  0.1511546E-03  0.1373513E+04  0.7818609E-02  0.8973217E-01
        2   -1    0    0  501    0  0.00000000000E+00  0.00000000000E+00  0.85278533654E+03  0.85278533654E+03  0.25500000920E-02 0. -1.
       -2   -1    0    0    0  501  0.00000000000E+00  0.00000000000E+00 -0.55305212384E+03  0.55305212385E+03  0.25500000920E-02 0.  1.
    10030    2    1    2    0    0  0.00000000000E+00  0.00000000000E+00  0.29973321269E+03  0.14058374604E+04  0.13735133659E+04 0.  0.
        1    1    3    3  502    0 -0.52616336306E+03  0.36343936126E+03 -0.10642326712E+03  0.64827614930E+03  0.50400001928E-02 0.  1.
       -1    1    3    3    0  502  0.52616336306E+03 -0.36343936126E+03  0.40615647981E+03  0.75756131109E+03  0.50400001928E-02 0. -1.
</event>
<event>
 5   0  0.8306301E-04  0.1371973E+04  0.7818609E-02  0.8974360E-01
        1   -1    0    0  501    0  0.00000000000E+00  0.00000000000E+00  0.37101434995E+03  0.37101434998E+03  0.50400001928E-02 0.  1.
       -1   -1    0    0    0  501  0.00000000000E+00  0.00000000000E+00 -0.12683535369E+04  0.12683535369E+04  0.50400001928E-02 0. -1.
    10030    2    1    2    0    0  0.00000000000E+00  0.00000000000E+00 -0.89733918694E+03  0.16393678869E+04  0.13719728321E+04 0.  0.
        4    1    3    3  502    0  0.21817019373E+03 -0.46758070265E+03  0.91479651532E+02  0.52402298277E+03  0.12699999809E+01 0.  1.
       -4    1    3    3    0  502 -0.21817019373E+03  0.46758070265E+03 -0.98881883848E+03  0.11153449041E+04  0.12699999809E+01 0. -1.
</event>
<event>
 5   0  0.1511546E-03  0.1490856E+04  0.7818609E-02  0.8890557E-01
        2   -1    0    0  501    0  0.00000000000E+00  0.00000000000E+00  0.32504988337E+03  0.32504988338E+03  0.25500000920E-02 0. -1.
       -2   -1    0    0    0  501  0.00000000000E+00  0.00000000000E+00 -0.17094689270E+04  0.17094689270E+04  0.25500000920E-02 0.  1.
    10030    2    1    2    0    0  0.00000000000E+00  0.00000000000E+00 -0.13844190437E+04  0.20345188104E+04  0.14908556944E+04 0.  0.
        1    1    3    3  502    0 -0.17872788307E+03  0.69370226254E+03 -0.97352983951E+03  0.12086880630E+04  0.50400001928E-02 0. -1.
       -1    1    3    3    0  502  0.17872788307E+03 -0.69370226254E+03 -0.41088920416E+03  0.82583074741E+03  0.50400001928E-02 0.  1.
</event>
<event>
 5   0  0.8191876E-04  0.1494518E+04  0.7818609E-02  0.8888106E-01
       -1   -1    0    0    0  501  0.00000000000E+00  0.00000000000E+00  0.68419082276E+03  0.68419082278E+03  0.50400001928E-02 0.  1.
        1   -1    0    0  501    0  0.00000000000E+00  0.00000000000E+00 -0.81614104167E+03  0.81614104168E+03  0.50400001928E-02 0. -1.
    10030    2    1    2    0    0  0.00000000000E+00  0.00000000000E+00 -0.13195021890E+03  0.15003318645E+04  0.14945182646E+04 0.  0.
        2    1    3    3  502    0  0.35733554719E+03  0.35413380367E+03  0.48871089541E+03  0.70138276532E+03  0.25500000920E-02 0.  1.
       -2    1    3    3    0  502 -0.35733554719E+03 -0.35413380367E+03 -0.62066111431E+03  0.79894909914E+03  0.25500000920E-02 0. -1.
</event>
<event>
 5   0  0.1552067E-03  0.1465973E+04  0.7818609E-02  0.8907401E-01
        2   -1    0    0  501    0  0.00000000000E+00  0.00000000000E+00  0.15381407584E+04  0.15381407584E+04  0.25500000920E-02 0. -1.
       -2   -1    0    0    0  501  0.00000000000E+00  0.00000000000E+00 -0.34929785373E+03  0.34929785374E+03  0.25500000920E-02 0.  1.
    10030    2    1    2    0    0  0.00000000000E+00  0.00000000000E+00  0.11888429047E+04  0.18874386122E+04  0.14659730771E+04 0.  0.
        3    1    3    3  502    0  0.56433946228E+02 -0.68849635235E+03  0.27889954506E+03  0.74498119702E+03  0.10100000352E+00 0.  1.
       -3    1    3    3    0  502 -0.56433946228E+02  0.68849635235E+03  0.90994335965E+03  0.11424574152E+04  0.10100000352E+00 0. -1.
</event>
<event>
 5   0  0.8306301E-04  0.1490973E+04  0.7818609E-02  0.8890478E-01
        1   -1    0    0  501    0  0.00000000000E+00  0.00000000000E+00  0.53732706995E+03  0.53732706997E+03  0.50400001928E-02 0. -1.
       -1   -1    0    0    0  501  0.00000000000E+00  0.00000000000E+00 -0.10342861714E+04  0.10342861714E+04  0.50400001928E-02 0.  1.
    10030    2    1    2    0    0  0.00000000000E+00  0.00000000000E+00 -0.49695910146E+03  0.15716132414E+04  0.14909727804E+04 0.  0.
        4    1    3    3  502    0 -0.40710504172E+03 -0.11944709045E+03  0.39765546318E+03  0.58149256462E+03  0.12699999809E+01 0. -1.
       -4    1    3    3    0  502  0.40710504172E+03  0.11944709045E+03 -0.89461456464E+03  0.99012067677E+03  0.12699999809E+01 0.  1.
</event>
<event>
 5   0  0.7870317E-04  0.1419655E+04  0.7818609E-02  0.8939713E-01
       -1   -1    0    0    0  501  0.00000000000E+00  0.00000000000E+00  0.42802353198E+03  0.42802353201E+03  0.50400001928E-02 0. -1.
        1   -1    0    0  501    0  0.00000000000E+00  0.00000000000E+00 -0.11771661192E+04  0.11771661192E+04  0.50400001928E-02 0.  1.
    10030    2    1    2    0    0  0.00000000000E+00  0.00000000000E+00 -0.74914258725E+03  0.16051896512E+04  0.14196546060E+04 0.  0.
        1    1    3    3  502    0  0.61339851924E+03  0.17860279328E+03 -0.72435156511E+03  0.96583740406E+03  0.50400001928E-02 0.  1.
       -1    1    3    3    0  502 -0.61339851924E+03 -0.17860279328E+03 -0.24791022137E+02  0.63935224719E+03  0.50400001928E-02 0. -1.
</event>
<event>
 5   0  0.1511546E-03  0.1508971E+04  0.7818609E-02  0.8878509E-01
       -2   -1    0    0    0  501  0.00000000000E+00  0.00000000000E+00  0.66150792685E+03  0.66150792686E+03  0.25500000920E-02 0.  1.
        2   -1    0    0  501    0  0.00000000000E+00  0.00000000000E+00 -0.86053137755E+03  0.86053137755E+03  0.25500000920E-02 0. -1.
    10030    2    1    2    0    0  0.00000000000E+00  0.00000000000E+00 -0.19902345070E+03  0.15220393044E+04  0.15089709441E+04 0.  0.
        1    1    3    3  502    0  0.57245411491E+03  0.48888004519E+03 -0.15035576893E+03  0.76766807250E+03  0.50400001928E-02 0.  1.
       -1    1    3    3    0  502 -0.57245411491E+03 -0.48888004519E+03 -0.48667681772E+02  0.75437123191E+03  0.50400001928E-02 0. -1.
</event>
<event>
 5   0  0.1500956E-03  0.1494117E+04  0.7818609E-02  0.8888375E-01
        2   -1    0    0  501    0  0.00000000000E+00  0.00000000000E+00  0.49641798728E+03  0.49641798729E+03  0.25500000920E-02 0. -1.
       -2   -1    0    0    0  501  0.00000000000E+00  0.00000000000E+00 -0.11242462730E+04  0.11242462730E+04  0.25500000920E-02 0.  1.
    10030    2    1    2    0    0  0.00000000000E+00  0.00000000000E+00 -0.62782828567E+03  0.16206642602E+04  0.14941165577E+04 0.  0.
        4    1    3    3  502    0  0.12107490643E+03  0.72839963249E+03 -0.43696540279E+03  0.85800089378E+03  0.12699999809E+01 0.  1.
       -4    1    3    3    0  502 -0.12107490643E+03 -0.72839963249E+03 -0.19086288288E+03  0.76266336646E+03  0.12699999809E+01 0. -1.
</event>
<event>
 5   0  0.8058234E-04  0.1486859E+04  0.7818609E-02  0.8893239E-01
        1   -1    0    0  501    0  0.00000000000E+00  0.00000000000E+00  0.12219248764E+04  0.12219248764E+04  0.50400001928E-02 0. -1.
       -1   -1    0    0    0  501  0.00000000000E+00  0.00000000000E+00 -0.45230901288E+03  0.45230901291E+03  0.50400001928E-02 0.  1.
    10030    2    1    2    0    0  0.00000000000E+00  0.00000000000E+00  0.76961586349E+03  0.16742338893E+04  0.14868592868E+04 0.  0.
        5    1    3    3  502    0 -0.57807398962E+03 -0.29240982518E+03 -0.25830730031E+02  0.64835357634E+03  0.46999998093E+01 0.  1.
       -5    1    3    3    0  502  0.57807398962E+03  0.29240982518E+03  0.79544659352E+03  0.10258803129E+04  0.46999998093E+01 0. -1.
</event>
<event>
 5   0  0.1511546E-03  0.1261272E+04  0.7818609E-02  0.9060854E-01
        2   -1    0    0  501    0  0.00000000000E+00  0.00000000000E+00  0.83553511152E+03  0.83553511152E+03  0.25500000920E-02 0.  1.
       -2   -1    0    0    0  501  0.00000000000E+00  0.00000000000E+00 -0.47598433312E+03  0.47598433313E+03  0.25500000920E-02 0. -1.
    10030    2    1    2    0    0  0.00000000000E+00  0.00000000000E+00  0.35955077840E+03  0.13115194446E+04  0.12612717754E+04 0.  0.
        1    1    3    3  502    0 -0.99402548310E+02  0.14836098634E+03 -0.44914215386E+03  0.48334306996E+03  0.50400001928E-02 0. -1.
       -1    1    3    3    0  502  0.99402548310E+02 -0.14836098634E+03  0.80869293226E+03  0.82817637469E+03  0.50400001928E-02 0.  1.
</event>
<event>
 5   0  0.1552067E-03  0.1502659E+04  0.7818609E-02  0.8882686E-01
        2   -1    0    0  501    0  0.00000000000E+00  0.00000000000E+00  0.37876436353E+03  0.37876436354E+03  0.25500000920E-02 0.  1.
       -2   -1    0    0    0  501  0.00000000000E+00  0.00000000000E+00 -0.14903627914E+04  0.14903627914E+04  0.25500000920E-02 0. -1.
    10030    2    1    2    0    0  0.00000000000E+00  0.00000000000E+00 -0.11115984279E+04  0.18691271550E+04  0.15026593947E+04 0.  0.
        3    1    3    3  502    0 -0.37219830180E+03  0.46243580966E+03 -0.11286834927E+04  0.12752665959E+04  0.10100000352E+00 0. -1.
       -3    1    3    3    0  502  0.37219830180E+03 -0.46243580966E+03  0.17085064772E+02  0.59386055902E+03  0.10100000352E+00 0.  1.
</event>
<event>
 5   0  0.7870317E-04  0.1483491E+04  0.7818609E-02  0.8895506E-01
        1   -1    0    0  501    0  0.00000000000E+00  0.00000000000E+00  0.17557999145E+04  0.17557999145E+04  0.50400001928E-02 0.  1.
       -1   -1    0    0    0  501  0.00000000000E+00  0.00000000000E+00 -0.31335374492E+03  0.31335374496E+03  0.50400001928E-02 0. -1.
    10030    2    1    2    0    0  0.00000000000E+00  0.00000000000E+00  0.14424461696E+04  0.20691536594E+04  0.14834911238E+04 0.  0.
        1    1    3    3  502    0 -0.29669673672E+03 -0.16379473485E+01 -0.22698039568E+03  0.37356624112E+03  0.50400001928E-02 0. -1.
       -1    1    3    3    0  502  0.29669673672E+03  0.16379473485E+01  0.16694265652E+04  0.16955874183E+04  0.50400001928E-02 0.  1.
</event>
<event>
 5   0  0.7870317E-04  0.1493060E+04  0.7818609E-02  0.8889081E-01
        1   -1    0    0  501    0  0.00000000000E+00  0.00000000000E+00  0.44890794786E+03  0.44890794789E+03  0.50400001928E-02 0.  1.
       -1   -1    0    0    0  501  0.00000000000E+00  0.00000000000E+00 -0.12414733136E+04  0.12414733137E+04  0.50400001928E-02 0. -1.
    10030    2    1    2    0    0  0.00000000000E+00  0.00000000000E+00 -0.79256536579E+03  0.16903812615E+04  0.14930602635E+04 0.  0.
        1    1    3    3  502    0 -0.18161217905E+02 -0.32509729210E+03 -0.11568449627E+04  0.12017938038E+04  0.50400001928E-02 0. -1.
       -1    1    3    3    0  502  0.18161217905E+02  0.32509729210E+03  0.36427959687E+03  0.48858745776E+03  0.50400001928E-02 0.  1.
</event>
<event>
 5   0  0.8365016E-04  0.1490919E+04  0.7818609E-02  0.8890514E-01
       -1   -1    0    0    0  501  0.00000000000E+00  0.00000000000E+00  0.47745570672E+03  0.47745570675E+03  0.50400001928E-02 0.  1.
        1   -1    0    0  501    0  0.00000000000E+00  0.00000000000E+00 -0.11638981066E+04  0.11638981066E+04  0.50400001928E-02 0. -1.
    10030    2    1    2    0    0  0.00000000000E+00  0.00000000000E+00 -0.68644239986E+03  0.16413538133E+04  0.14909189020E+04 0.  0.
        3    1    3    3  502    0 -0.66060924324E+03  0.30913365390E+03 -0.17359101698E+03  0.74973464612E+03  0.10100000352E+00 0.  1.
       -3    1    3    3    0  502  0.66060924324E+03 -0.30913365390E+03 -0.51285138288E+03  0.89161916721E+03  0.10100000352E+00 0. -1.
</event>
<event>
 5   0  0.8058234E-04  0.1505536E+04  0.7818609E-02  0.8880780E-01
        1   -1    0    0  501    0  0.00000000000E+00  0.00000000000E+00  0.10777461303E+04  0.10777461303E+04  0.50400001928E-02 0.  1.
       -1   -1    0    0    0  501  0.00000000000E+00  0.00000000000E+00 -0.52578185974E+03  0.52578185977E+03  0.50400001928E-02 0. -1.
    10030    2    1    2    0    0  0.00000000000E+00  0.00000000000E+00  0.55196427053E+03  0.16035279901E+04  0.15055356053E+04 0.  0.
        5    1    3    3  502    0 -0.28530958009E+03  0.55911016907E+03 -0.16655078427E+03  0.64943590245E+03  0.46999998093E+01 0. -1.
       -5    1    3    3    0  502  0.28530958009E+03 -0.55911016907E+03  0.71851505480E+03  0.95409208760E+03  0.46999998093E+01 0.  1.
</event>
<event>
 5   0  0.8058234E-04  0.1432036E+04  0.7818609E-02  0.8930950E-01
       -1   -1    0    0    0  501  0.00000000000E+00  0.00000000000E+00  0.12234412841E+04  0.12234412841E+04  0.50400001928E-02 0. -1.
        1   -1    0    0  501    0  0.00000000000E+00  0.00000000000E+00 -0.41904917077E+03  0.41904917080E+03  0.50400001928E-02 0.  1.
    10030    2    1    2    0    0  0.00000000000E+00  0.00000000000E+00  0.80439211330E+03  0.16424904549E+04  0.14320363901E+04 0.  0.
        5    1    3    3  502    0 -0.53379191577E+03  0.94092446918E+02  0.93878863931E+03  0.10840356992E+04  0.46999998093E+01 0. -1.
       -5    1    3    3    0  502  0.53379191577E+03 -0.94092446918E+02 -0.13439652602E+03  0.55845475565E+03  0.46999998093E+01 0.  1.
</event>
<event>
 5   0  0.1500956E-03  0.1475572E+04  0.7818609E-02  0.8900861E-01
       -2   -1    0    0    0  501  0.00000000000E+00  0.00000000000E+00  0.43459854031E+03  0.43459854032E+03  0.25500000920E-02 0.  1.
        2   -1    0    0  501    0  0.00000000000E+00  0.00000000000E+00 -0.12524857516E+04  0.12524857516E+04  0.25500000920E-02 0. -1.
    10030    2    1    2    0    0  0.00000000000E+00  0.00000000000E+00 -0.81788721133E+03  0.16870842920E+04  0.14755724034E+04 0.  0.
        4    1    3    3  502    0 -0.65605042115E+03  0.24714407251E+03 -0.67177439030E+03  0.97096075721E+03  0.12699999809E+01 0. -1.
       -4    1    3    3    0  502  0.65605042115E+03 -0.24714407251E+03 -0.14611282103E+03  0.71612353476E+03  0.12699999809E+01 0.  1.
</event>
<event>
 5   0  0.1511546E-03  0.1226759E+04  0.7818609E-02  0.9089752E-01
        2   -1    0    0  501    0  0.00000000000E+00  0.00000000000E+00  0.24829497058E+04  0.24829497058E+04  0.25500000920E-02 0. -1.
       -2   -1    0    0    0  501  0.00000000000E+00  0.00000000000E+00 -0.15152716485E+03  0.15152716487E+03  0.25500000920E-02 0.  1.
    10030    2    1    2    0    0  0.00000000000E+00  0.00000000000E+00  0.23314225410E+04  0.26344768707E+04  0.12267588669E+04 0.  0.
        1    1    3    3  502    0 -0.30271225736E+03 -0.52425034867E+03  0.95353999863E+03  0.11294740669E+04  0.50400001928E-02 0. -1.
       -1    1    3    3    0  502  0.30271225736E+03  0.52425034867E+03  0.13778825424E+04  0.15050028038E+04  0.50400001928E-02 0.  1.
</event>
<event>
 5   0  0.8191876E-04  0.1499912E+04  0.7818609E-02  0.8884512E-01
       -1   -1    0    0    0  501  0.00000000000E+00  0.00000000000E+00  0.49721310914E+03  0.49721310917E+03  0.50400001928E-02 0.  1.
        1   -1    0    0  501    0  0.00000000000E+00  0.00000000000E+00 -0.11311723937E+04  0.11311723937E+04  0.50400001928E-02 0. -1.
    10030    2    1    2    0    0  0.00000000000E+00  0.00000000000E+00 -0.63395928459E+03  0.16283855029E+04  0.14999116546E+04 0.  0.
        2    1    3    3  502    0 -0.90608430371E+02 -0.57702776662E+03 -0.82765601053E+03  0.10130080962E+04  0.25500000920E-02 0. -1.
       -2    1    3    3    0  502  0.90608430371E+02  0.57702776662E+03  0.19369672594E+03  0.61537740676E+03  0.25500000920E-02 0.  1.
</event>
<event>
 5   0  0.1484056E-03  0.1488086E+04  0.7818609E-02  0.8892415E-01
        2   -1    0    0  501    0  0.00000000000E+00  0.00000000000E+00  0.13445386535E+04  0.13445386535E+04  0.25500000920E-02 0.  1.
       -2   -1    0    0    0  501  0.00000000000E+00  0.00000000000E+00 -0.41173962603E+03  0.41173962604E+03  0.25500000920E-02 0. -1.
    10030    2    1    2    0    0  0.00000000000E+00  0.00000000000E+00  0.93279902745E+03  0.17562782795E+04  0.14880858072E+04 0.  0.
        5    1    3    3  502    0 -0.26776227097E+03 -0.29875783162E+03  0.12059269013E+04  0.12709188239E+04  0.46999998093E+01 0.  1.
       -5    1    3    3    0  502  0.26776227097E+03  0.29875783162E+03 -0.27312787383E+03  0.48535945563E+03  0.46999998093E+01 0. -1.
</event>
<event>
 5   0  0.8191876E-04  0.1441550E+04  0.7818609E-02  0.8924280E-01
       -1   -1    0    0    0  501  0.00000000000E+00  0.00000000000E+00  0.73477664964E+03  0.73477664966E+03  0.50400001928E-02 0. -1.
        1   -1    0    0  501    0  0.00000000000E+00  0.00000000000E+00 -0.70704048273E+03  0.70704048275E+03  0.50400001928E-02 0.  1.
    10030    2    1    2    0    0  0.00000000000E+00  0.00000000000E+00  0.27736166917E+02  0.14418171324E+04  0.14415503281E+04 0.  0.
        2    1    3    3  502    0 -0.45368338226E+03  0.73041447941E+02  0.56926643072E+03  0.73159273753E+03  0.25500000920E-02 0. -1.
       -2    1    3    3    0  502  0.45368338226E+03 -0.73041447941E+02 -0.54153026380E+03  0.71022439488E+03  0.25500000920E-02 0.  1.
</event>
<event>
 5   0  0.1526126E-03  0.1499036E+04  0.7818609E-02  0.8885094E-01
       -2   -1    0    0    0  501  0.00000000000E+00  0.00000000000E+00  0.67278857796E+03  0.67278857796E+03  0.25500000920E-02 0.  1.
        2   -1    0    0  501    0  0.00000000000E+00  0.00000000000E+00 -0.83499858003E+03  0.83499858004E+03  0.25500000920E-02 0. -1.
    10030    2    1    2    0    0  0.00000000000E+00  0.00000000000E+00 -0.16221000208E+03  0.15077871580E+04  0.14990363668E+04 0.  0.
        2    1    3    3  502    0  0.41673803080E+03  0.42799828126E+03  0.37422335663E+03  0.70490867191E+03  0.25500000920E-02 0.  1.
       -2    1    3    3    0  502 -0.41673803080E+03 -0.42799828126E+03 -0.53643335871E+03  0.80287848609E+03  0.25500000920E-02 0. -1.
</event>
<event>
 5   0  0.1552067E-03  0.1486951E+04  0.7818609E-02  0.8893177E-01
       -2   -1    0    0    0  501  0.00000000000E+00  0.00000000000E+00  0.40994053806E+03  0.40994053806E+03  0.25500000920E-02 0. -1.
        2   -1    0    0  501    0  0.00000000000E+00  0.00000000000E+00 -0.13483812771E+04  0.13483812771E+04  0.25500000920E-02 0.  1.
    10030    2    1    2    0    0  0.00000000000E+00  0.00000000000E+00 -0.93844073904E+03  0.17583218152E+04  0.14869514400E+04 0.  0.
        3    1    3    3  502    0 -0.55153792796E+03 -0.48090190757E+03 -0.31370727937E+03  0.79616141455E+03  0.10100000352E+00 0. -1.
       -3    1    3    3    0  502  0.55153792796E+03  0.48090190757E+03 -0.62473345967E+03  0.96216040061E+03  0.10100000352E+00 0.  1.
</event>
<event>
 5   0  0.5603875E-04  0.1524319E+04  0.7818609E-02  0.8868440E-01
       -3   -1    0    0    0  501  0.00000000000E+00  0.00000000000E+00  0.12060936245E+04  0.12060936288E+04  0.10100000352E+00 0.  1.
        3   -1    0    0  501    0  0.00000000000E+00  0.00000000000E+00 -0.48162688443E+03  0.48162689502E+03  0.10100000352E+00 0. -1.
    10030    2    1    2    0    0  0.00000000000E+00  0.00000000000E+00  0.72446674012E+03  0.16877205238E+04  0.15243190312E+04 0.  0.
        5    1    3    3  502    0  0.11444540324E+03  0.19547427790E+03 -0.44348089871E+03  0.49800134655E+03  0.46999998093E+01 0. -1.
       -5    1    3    3    0  502 -0.11444540324E+03 -0.19547427790E+03  0.11679476388E+04  0.11897191772E+04  0.46999998093E+01 0.  1.
</event>
<event>
 5   0  0.1511546E-03  0.1449519E+04  0.7818609E-02  0.8918734E-01
        2   -1    0    0  501    0  0.00000000000E+00  0.00000000000E+00  0.81444540750E+03  0.81444540751E+03  0.25500000920E-02 0. -1.
       -2   -1    0    0    0  501  0.00000000000E+00  0.00000000000E+00 -0.64494932590E+03  0.64494932591E+03  0.25500000920E-02 0.  1.
    10030    2    1    2    0    0  0.00000000000E+00  0.00000000000E+00  0.16949608160E+03  0.14593947334E+04  0.14495185636E+04 0.  0.
        1    1    3    3  502    0  0.34043124778E+03  0.42204191461E+02  0.72753464930E+03  0.80435147430E+03  0.50400001928E-02 0. -1.
       -1    1    3    3    0  502 -0.34043124778E+03 -0.42204191461E+02 -0.55803856771E+03  0.65504325912E+03  0.50400001928E-02 0.  1.
</event>
<event>
 5   0  0.1500956E-03  0.1606822E+04  0.7818609E-02  0.8816368E-01
       -2   -1    0    0    0  501  0.00000000000E+00  0.00000000000E+00  0.77210454258E+03  0.77210454259E+03  0.25500000920E-02 0. -1.
        2   -1    0    0  501    0  0.00000000000E+00  0.00000000000E+00 -0.83598632257E+03  0.83598632258E+03  0.25500000920E-02 0.  1.
    10030    2    1    2    0    0  0.00000000000E+00  0.00000000000E+00 -0.63881779991E+02  0.16080908652E+04  0.16068215050E+04 0.  0.
        4    1    3    3  502    0 -0.20532460955E+03  0.52433313159E+03  0.54155962064E+03  0.78126299271E+03  0.12699999809E+01 0. -1.
       -4    1    3    3    0  502  0.20532460955E+03 -0.52433313159E+03 -0.60544140063E+03  0.82682787246E+03  0.12699999809E+01 0.  1.
</event>
<event>
 5   0  0.8058234E-04  0.1492898E+04  0.7818609E-02  0.8889190E-01
       -1   -1    0    0    0  501  0.00000000000E+00  0.00000000000E+00  0.93745913885E+03  0.93745913886E+03  0.50400001928E-02 0.  1.
        1   -1    0    0  501    0  0.00000000000E+00  0.00000000000E+00 -0.59435758430E+03  0.59435758432E+03  0.50400001928E-02 0. -1.
    10030    2    1    2    0    0  0.00000000000E+00  0.00000000000E+00  0.34310155455E+03  0.15318167232E+04  0.14928977851E+04 0.  0.
        5    1    3    3  502    0  0.59525447490E+03  0.23573472538E+03 -0.22220475049E+03  0.67771365028E+03  0.46999998093E+01 0. -1.
       -5    1    3    3    0  502 -0.59525447490E+03 -0.23573472538E+03  0.56530630503E+03  0.85410307290E+03  0.46999998093E+01 0.  1.
</event>
<event>
 5   0  0.8306301E-04  0.1472726E+04  0.7818609E-02  0.8902795E-01
       -1   -1    0    0    0  501  0.00000000000E+00  0.00000000000E+00  0.65616700122E+03  0.65616700124E+03  0.50400001928E-02 0. -1.
        1   -1    0    0  501    0  0.00000000000E+00  0.00000000000E+00 -0.82636011969E+03  0.82636011970E+03  0.50400001928E-02 0.  1.
    10030    2    1    2    0    0  0.00000000000E+00  0.00000000000E+00 -0.17019311847E+03  0.14825271209E+04  0.14727256930E+04 0.  0.
        4    1    3    3  502    0 -0.11498793846E+02 -0.26795872972E+03  0.60524774372E+03  0.66201249782E+03  0.12699999809E+01 0. -1.
       -4    1    3    3    0  502  0.11498793846E+02  0.26795872972E+03 -0.77544086219E+03  0.82051462312E+03  0.12699999809E+01 0.  1.
</event>
<event>
 5   0  0.5603875E-04  0.1432790E+04  0.7818609E-02  0.8930419E-01
       -3   -1    0    0    0  501  0.00000000000E+00  0.00000000000E+00  0.64585556872E+03  0.64585557662E+03  0.10100000352E+00 0.  1.
        3   -1    0    0  501    0  0.00000000000E+00  0.00000000000E+00 -0.79463901984E+03  0.79463902626E+03  0.10100000352E+00 0. -1.
    10030    2    1    2    0    0  0.00000000000E+00  0.00000000000E+00 -0.14878345112E+03  0.14404946029E+04  0.14327903495E+04 0.  0.
        2    1    3    3  502    0  0.56907598178E+03  0.23024482165E+03  0.29686600234E+03  0.68190144030E+03  0.25500000920E-02 0.  1.
       -2    1    3    3    0  502 -0.56907598178E+03 -0.23024482165E+03 -0.44564945346E+03  0.75859316258E+03  0.25500000920E-02 0. -1.
</event>
<event>
 5   0  0.1552067E-03  0.1440345E+04  0.7818609E-02  0.8925121E-01
       -2   -1    0    0    0  501  0.00000000000E+00  0.00000000000E+00  0.51493170781E+03  0.51493170782E+03  0.25500000920E-02 0.  1.
        2   -1    0    0  501    0  0.00000000000E+00  0.00000000000E+00 -0.10072183451E+04  0.10072183451E+04  0.25500000920E-02 0. -1.
    10030    2    1    2    0    0  0.00000000000E+00  0.00000000000E+00 -0.49228663728E+03  0.15221500529E+04  0.14403453233E+04 0.  0.
        3    1    3    3  502    0  0.45571601097E+03 -0.30732092982E+03 -0.73789435167E+03  0.92011484120E+03  0.10100000352E+00 0. -1.
       -3    1    3    3    0  502 -0.45571601097E+03  0.30732092982E+03  0.24560771440E+03  0.60203521171E+03  0.10100000352E+00 0.  1.
</event>
<event>
 5   0  0.1526126E-03  0.1547514E+04  0.7818609E-02  0.8853457E-01
       -2   -1    0    0    0  501  0.00000000000E+00  0.00000000000E+00  0.21520921188E+03  0.21520921189E+03  0.25500000920E-02 0. -1.
        2   -1    0    0  501    0  0.00000000000E+00  0.00000000000E+00 -0.27819453762E+04  0.27819453762E+04  0.25500000920E-02 0.  1.
    10030    2    1    2    0    0  0.00000000000E+00  0.00000000000E+00 -0.25667361643E+04  0.29971545881E+04  0.15475144871E+04 0.  0.
        2    1    3    3  502    0 -0.12859654127E+03  0.14607277904E+03 -0.27337703449E+04  0.27406887138E+04  0.25500000920E-02 0.  1.
       -2    1    3    3    0  502  0.12859654127E+03 -0.14607277904E+03  0.16703418057E+03  0.25646587432E+03  0.25500000920E-02 0. -1.
</event>
<event>
 5   0  0.1484056E-03  0.1523688E+04  0.7818609E-02  0.8868852E-01
        2   -1    0    0  501    0  0.00000000000E+00  0.00000000000E+00  0.52538459072E+03  0.52538459073E+03  0.25500000920E-02 0.  1.
       -2   -1    0    0    0  501  0.00000000000E+00  0.00000000000E+00 -0.11047262358E+04  0.11047262358E+04  0.25500000920E-02 0. -1.
    10030    2    1    2    0    0  0.00000000000E+00  0.00000000000E+00 -0.57934164504E+03  0.16301108265E+04  0.15236878174E+04 0.  0.
        5    1    3    3  502    0 -0.63412217974E+03 -0.42064965951E+03 -0.32864282583E+03  0.82890606938E+03  0.46999998093E+01 0. -1.
       -5    1    3    3    0  502  0.63412217974E+03  0.42064965951E+03 -0.25069881920E+03  0.80120475712E+03  0.46999998093E+01 0.  1.
</event>
<event>
 5   0  0.8306301E-04  0.1494771E+04  0.7818609E-02  0.8887937E-01
        1   -1    0    0  501    0  0.00000000000E+00  0.00000000000E+00  0.57293595548E+03  0.57293595551E+03  0.50400001928E-02 0.  1.
       -1   -1    0    0    0  501  0.00000000000E+00  0.00000000000E+00 -0.97495249088E+03  0.97495249089E+03  0.50400001928E-02 0. -1.
    10030    2    1    2    0    0  0.00000000000E+00  0.00000000000E+00 -0.40201653539E+03  0.15478884464E+04  0.14947713363E+04 0.  0.
        4    1    3    3  502    0  0.28407149257E+03  0.49711684925E+03 -0.69845547480E+03  0.90314087378E+03  0.12699999809E+01 0. -1.
       -4    1    3    3    0  502 -0.28407149257E+03 -0.49711684925E+03  0.29643893941E+03  0.64474757262E+03  0.12699999809E+01 0.  1.
</event>
<event>
 5   0  0.7870317E-04  0.1520527E+04  0.7818609E-02  0.8870916E-01
       -1   -1    0    0    0  501  0.00000000000E+00  0.00000000000E+00  0.30357548500E+03  0.30357548504E+03  0.50400001928E-02 0.  1.
        1   -1    0    0  501    0  0.00000000000E+00  0.00000000000E+00 -0.19039772611E+04  0.19039772611E+04  0.50400001928E-02 0. -1.
    10030    2    1    2    0    0  0.00000000000E+00  0.00000000000E+00 -0.16004017761E+04  0.22075527462E+04  0.15205273040E+04 0.  0.
        1    1    3    3  502    0 -0.19685230789E+03  0.73345477196E+02 -0.18610040355E+04  0.18728231124E+04  0.50400001928E-02 0. -1.
       -1    1    3    3    0  502  0.19685230789E+03 -0.73345477196E+02  0.26060225935E+03  0.33472963381E+03  0.50400001928E-02 0.  1.
</event>
<event>
 5   0  0.1526126E-03  0.1488607E+04  0.7818609E-02  0.8892065E-01
        2   -1    0    0  501    0  0.00000000000E+00  0.00000000000E+00  0.16240578549E+04  0.16240578549E+04  0.25500000920E-02 0. -1.
       -2   -1    0    0    0  501  0.00000000000E+00  0.00000000000E+00 -0.34111318593E+03  0.34111318594E+03  0.25500000920E-02 0.  1.
    10030    2    1    2    0    0  0.00000000000E+00  0.00000000000E+00  0.12829446689E+04  0.19651710408E+04  0.14886067970E+04 0.  0.
        2    1    3    3  502    0  0.35001406807E+02 -0.93065699374E+02 -0.33230622997E+03  0.34686272986E+03  0.25500000920E-02 0.  1.
       -2    1    3    3    0  502 -0.35001406807E+02  0.93065699374E+02  0.16152508989E+04  0.16183083110E+04  0.25500000920E-02 0. -1.
</event>
<event>
 5   0  0.5603875E-04  0.1507451E+04  0.7818609E-02  0.8879513E-01
       -3   -1    0    0    0  501  0.00000000000E+00  0.00000000000E+00  0.68581489953E+03  0.68581490696E+03  0.10100000352E+00 0.  1.
        3   -1    0    0  501    0  0.00000000000E+00  0.00000000000E+00 -0.82836075640E+03  0.82836076255E+03  0.10100000352E+00 0. -1.
    10030    2    1    2    0    0  0.00000000000E+00  0.00000000000E+00 -0.14254585687E+03  0.15141756695E+04  0.15074510396E+04 0.  0.
        3    1    3    3  502    0  0.45708458482E+03 -0.51603277545E+03 -0.37740455028E+03  0.78590734047E+03  0.10100000352E+00 0. -1.
       -3    1    3    3    0  502 -0.45708458482E+03  0.51603277545E+03  0.23485869341E+03  0.72826832905E+03  0.10100000352E+00 0.  1.
</event>
<event>
 5   0  0.8306301E-04  0.1498498E+04  0.7818609E-02  0.8885452E-01
        1   -1    0    0  501    0  0.00000000000E+00  0.00000000000E+00  0.55858049471E+03  0.55858049473E+03  0.50400001928E-02 0. -1.
       -1   -1    0    0    0  501  0.00000000000E+00  0.00000000000E+00 -0.10050015901E+04  0.10050015902E+04  0.50400001928E-02 0.  1.
    10030    2    1    2    0    0  0.00000000000E+00  0.00000000000E+00 -0.44642109543E+03  0.15635820849E+04  0.14984982955E+04 0.  0.
        4    1    3    3  502    0 -0.67000765124E+03  0.14174602803E+02  0.12639623818E+03  0.68197418867E+03  0.12699999809E+01 0. -1.
       -4    1    3    3    0  502  0.67000765124E+03 -0.14174602803E+02 -0.57281733361E+03  0.88160789621E+03  0.12699999809E+01 0.  1.
</event>
<event>
 5   0  0.1500956E-03  0.1494076E+04  0.7818609E-02  0.8888402E-01
        2   -1    0    0  501    0  0.00000000000E+00  0.00000000000E+00  0.10714050186E+04  0.10714050187E+04  0.25500000920E-02 0.  1.
       -2   -1    0    0    0  501  0.00000000000E+00  0.00000000000E+00 -0.52087278495E+03  0.52087278495E+03  0.25500000920E-02 0. -1.
    10030    2    1    2    0    0  0.00000000000E+00  0.00000000000E+00  0.55053223370E+03  0.15922778036E+04  0.14940759229E+04 0.  0.
        4    1    3    3  502    0 -0.15495505431E+03 -0.99429452854E+02  0.10468460715E+04  0.10629137290E+04  0.12699999809E+01 0.  1.
       -4    1    3    3    0  502  0.15495505431E+03  0.99429452854E+02 -0.49631383783E+03  0.52936407459E+03  0.12699999809E+01 0. -1.
</event>
<event>
 5   0  0.8058234E-04  0.1485533E+04  0.7818609E-02  0.8894131E-01
       -1   -1    0    0    0  501  0.00000000000E+00  0.00000000000E+00  0.15742484208E+04  0.15742484208E+04  0.50400001928E-02 0. -1.
        1   -1    0    0  501    0  0.00000000000E+00  0.00000000000E+00 -0.35045425107E+03  0.35045425111E+03  0.50400001928E-02 0.  1.
    10030    2    1    2    0    0  0.00000000000E+00  0.00000000000E+00  0.12237941697E+04  0.19247026719E+04  0.14855329702E+04 0.  0.
        5    1    3    3  502    0  0.18174903032E+03 -0.51753719615E+03 -0.36957363605E+02  0.54978668240E+03  0.46999998093E+01 0.  1.
       -5    1    3    3    0  502 -0.18174903032E+03  0.51753719615E+03  0.12607515333E+04  0.13749159895E+04  0.46999998093E+01 0. -1.
</event>
<event>
 5   0  0.1484056E-03  0.1586056E+04  0.7818609E-02  0.8829160E-01
       -2   -1    0    0    0  501  0.00000000000E+00  0.00000000000E+00  0.89484206041E+03  0.89484206042E+03  0.25500000920E-02 0.  1.
        2   -1    0    0  501    0  0.00000000000E+00  0.00000000000E+00 -0.70279822153E+03  0.70279822153E+03  0.25500000920E-02 0. -1.
    10030    2    1    2    0    0  0.00000000000E+00  0.00000000000E+00  0.19204383889E+03  0.15976402820E+04  0.15860559998E+04 0.  0.
        5    1    3    3  502    0 -0.56066347106E+03 -0.55856363572E+03  0.45310842301E+02  0.79272443217E+03  0.46999998093E+01 0.  1.
       -5    1    3    3    0  502  0.56066347106E+03  0.55856363572E+03  0.14673299658E+03  0.80491584978E+03  0.46999998093E+01 0. -1.
</event>
<event>
 5   0  0.1511546E-03  0.1511460E+04  0.7818609E-02  0.8876868E-01
       -2   -1    0    0    0  501  0.00000000000E+00  0.00000000000E+00  0.34905839757E+03  0.34905839758E+03  0.25500000920E-02 0.  1.
        2   -1    0    0  501    0  0.00000000000E+00  0.00000000000E+00 -0.16361956285E+04  0.16361956285E+04  0.25500000920E-02 0. -1.
    10030    2    1    2    0    0  0.00000000000E+00  0.00000000000E+00 -0.12871372310E+04  0.19852540261E+04  0.15114599885E+04 0.  0.
        1    1    3    3  502    0  0.33931041857E+03  0.11470726835E+03  0.23049314222E+03  0.42593004849E+03  0.50400001928E-02 0.  1.
       -1    1    3    3    0  502 -0.33931041857E+03 -0.11470726835E+03 -0.15176303732E+04  0.15593239776E+04  0.50400001928E-02 0. -1.
</event>
<event>
 5   0  0.8365016E-04  0.1506427E+04  0.7818609E-02  0.8880191E-01
       -1   -1    0    0    0  501  0.00000000000E+00  0.00000000000E+00  0.95346661747E+03  0.95346661748E+03  0.50400001928E-02 0.  1.
        1   -1    0    0  501    0  0.00000000000E+00  0.00000000000E+00 -0.59501847777E+03  0.59501847779E+03  0.50400001928E-02 0. -1.
    10030    2    1    2    0    0  0.00000000000E+00  0.00000000000E+00  0.35844813970E+03  0.15484850953E+04  0.15064265735E+04 0.  0.
        3    1    3    3  502    0  0.42323199874E+03 -0.10714378404E+03  0.81013980230E+03  0.92028888111E+03  0.10100000352E+00 0.  1.
       -3    1    3    3    0  502 -0.42323199874E+03  0.10714378404E+03 -0.45169166261E+03  0.62819621416E+03  0.10100000352E+00 0. -1.
</event>
<event>
 5   0  0.8306301E-04  0.1488380E+04  0.7818609E-02  0.8892217E-01
        1   -1    0    0  501    0  0.00000000000E+00  0.00000000000E+00  0.46955672286E+03  0.46955672289E+03  0.50400001928E-02 0. -1.
       -1   -1    0    0    0  501  0.00000000000E+00  0.00000000000E+00 -0.11794501968E+04  0.11794501968E+04  0.50400001928E-02 0.  1.
    10030    2    1    2    0    0  0.00000000000E+00  0.00000000000E+00 -0.70989347391E+03  0.16490069197E+04  0.14883800176E+04 0.  0.
        4    1    3    3  502    0  0.44176647076E+03 -0.28232344450E+03 -0.94010612448E+03  0.10764131550E+04  0.12699999809E+01 0.  1.
       -4    1    3    3    0  502 -0.44176647076E+03  0.28232344450E+03  0.23021265057E+03  0.57259376471E+03  0.12699999809E+01 0. -1.
</event>
<event>
 5   0  0.8306301E-04  0.1474388E+04  0.7818609E-02  0.8901665E-01
       -1   -1    0    0    0  501  0.00000000000E+00  0.00000000000E+00  0.64194078720E+03  0.64194078722E+03  0.50400001928E-02 0. -1.
        1   -1    0    0  501    0  0.00000000000E+00  0.00000000000E+00 -0.84658122989E+03  0.84658122990E+03  0.50400001928E-02 0.  1.
    10030    2    1    2    0    0  0.00000000000E+00  0.00000000000E+00 -0.20464044269E+03  0.14885220171E+04  0.14743880373E+04 0.  0.
        4    1    3    3  502    0 -0.27087004758E+03 -0.20866326476E+03 -0.76168326631E+03  0.83490954708E+03  0.12699999809E+01 0.  1.
       -4    1    3    3    0  502  0.27087004758E+03  0.20866326476E+03  0.55704282362E+03  0.65361247004E+03  0.12699999809E+01 0. -1.
</event>
<event>
 5   0  0.8306301E-04  0.1428028E+04  0.7818609E-02  0.8933777E-01
        1   -1    0    0  501    0  0.00000000000E+00  0.00000000000E+00  0.45093867185E+03  0.45093867188E+03  0.50400001928E-02 0.  1.
       -1   -1    0    0    0  501  0.00000000000E+00  0.00000000000E+00 -0.11305661067E+04  0.11305661067E+04  0.50400001928E-02 0. -1.
    10030    2    1    2    0    0  0.00000000000E+00  0.00000000000E+00 -0.67962743483E+03  0.15815047786E+04  0.14280279810E+04 0.  0.
        4    1    3    3  502    0  0.33472117348E+03  0.22767622962E+03  0.31156558319E+03  0.51083212021E+03  0.12699999809E+01 0.  1.
       -4    1    3    3    0  502 -0.33472117348E+03 -0.22767622962E+03 -0.99119301802E+03  0.10706726584E+04  0.12699999809E+01 0. -1.
</event>
<event>
 5   0  0.8365016E-04  0.1492064E+04  0.7818609E-02  0.8889747E-01
        1   -1    0    0  501    0  0.00000000000E+00  0.00000000000E+00  0.84963729101E+03  0.84963729102E+03  0.50400001928E-02 0.  1.
       -1   -1    0    0    0  501  0.00000000000E+00  0.00000000000E+00 -0.65506051491E+03  0.65506051493E+03  0.50400001928E-02 0. -1.
    10030    2    1    2    0    0  0.00000000000E+00  0.00000000000E+00  0.19457677610E+03  0.15046978059E+04  0.14920641291E+04 0.  0.
        3    1    3    3  502    0 -0.13473959589E+03 -0.73217362337E+03  0.14597613507E+03  0.75864485477E+03  0.10100000352E+00 0.  1.
       -3    1    3    3    0  502  0.13473959589E+03  0.73217362337E+03  0.48600641030E+02  0.74605295118E+03  0.10100000352E+00 0. -1.
</event>
<event>
 5   0  0.1484056E-03  0.1520954E+04  0.7818609E-02  0.8870637E-01
       -2   -1    0    0    0  501  0.00000000000E+00  0.00000000000E+00  0.60508797437E+03  0.60508797438E+03  0.25500000920E-02 0. -1.
        2   -1    0    0  501    0  0.00000000000E+00  0.00000000000E+00 -0.95577044456E+03  0.95577044456E+03  0.25500000920E-02 0.  1.
    10030    2    1    2    0    0  0.00000000000E+00  0.00000000000E+00 -0.35068247019E+03  0.15608584189E+04  0.15209539142E+04 0.  0.
        5    1    3    3  502    0  0.70641722647E+03  0.10490118639E+03  0.92806242832E+02  0.72018375813E+03  0.46999998093E+01 0. -1.
       -5    1    3    3    0  502 -0.70641722647E+03 -0.10490118639E+03 -0.44348871302E+03  0.84067466081E+03  0.46999998093E+01 0.  1.
</event>
<event>
 5   0  0.1526126E-03  0.1526653E+04  0.7818609E-02  0.8866920E-01
       -2   -1    0    0    0  501  0.00000000000E+00  0.00000000000E+00  0.50239370794E+03  0.50239370795E+03  0.25500000920E-02 0.  1.
        2   -1    0    0  501    0  0.00000000000E+00  0.00000000000E+00 -0.11597822038E+04  0.11597822038E+04  0.25500000920E-02 0. -1.
    10030    2    1    2    0    0  0.00000000000E+00  0.00000000000E+00 -0.65738849581E+03  0.16621759117E+04  0.15266529164E+04 0.  0.
        2    1    3    3  502    0 -0.74550395849E+03 -0.16015242633E+03 -0.29031865012E+03  0.81591045489E+03  0.25500000920E-02 0.  1.
       -2    1    3    3    0  502  0.74550395849E+03  0.16015242633E+03 -0.36706984569E+03  0.84626545681E+03  0.25500000920E-02 0. -1.
</event>
<event>
 5   0  0.8191876E-04  0.1404221E+04  0.7818609E-02  0.8950769E-01
       -1   -1    0    0    0  501  0.00000000000E+00  0.00000000000E+00  0.30638507644E+03  0.30638507648E+03  0.50400001928E-02 0.  1.
        1   -1    0    0  501    0  0.00000000000E+00  0.00000000000E+00 -0.16089533827E+04  0.16089533827E+04  0.50400001928E-02 0. -1.
    10030    2    1    2    0    0  0.00000000000E+00  0.00000000000E+00 -0.13025683063E+04  0.19153384592E+04  0.14042212151E+04 0.  0.
        2    1    3    3  502    0 -0.37524480928E+02  0.13532581815E+03  0.28703346136E+03  0.31954557057E+03  0.25500000920E-02 0.  1.
       -2    1    3    3    0  502  0.37524480928E+02 -0.13532581815E+03 -0.15896017677E+04  0.15957928886E+04  0.25500000920E-02 0. -1.
</event>
<event>
 5   0  0.7870317E-04  0.1537871E+04  0.7818609E-02  0.8859652E-01
       -1   -1    0    0    0  501  0.00000000000E+00  0.00000000000E+00  0.39182271100E+03  0.39182271103E+03  0.50400001928E-02 0. -1.
        1   -1    0    0  501    0  0.00000000000E+00  0.00000000000E+00 -0.15090042835E+04  0.15090042835E+04  0.50400001928E-02 0.  1.
    10030    2    1    2    0    0  0.00000000000E+00  0.00000000000E+00 -0.11171815725E+04  0.19008269945E+04  0.15378714502E+04 0.  0.
        1    1    3    3  502    0 -0.23907376102E+03 -0.49042135531E+03 -0.12283138299E+04  0.13440328247E+04  0.50400001928E-02 0.  1.
       -1    1    3    3    0  502  0.23907376102E+03  0.49042135531E+03  0.11113225742E+03  0.55679416988E+03  0.50400001928E-02 0. -1.
</event>
<event>
 5   0  0.8365016E-04  0.1484187E+04  0.7818609E-02  0.8895037E-01
       -1   -1    0    0    0  501  0.00000000000E+00  0.00000000000E+00  0.78125781088E+03  0.78125781090E+03  0.50400001928E-02 0.  1.
        1   -1    0    0  501    0  0.00000000000E+00  0.00000000000E+00 -0.70489241264E+03  0.70489241266E+03  0.50400001928E-02 0. -1.
    10030    2    1    2    0    0  0.00000000000E+00  0.00000000000E+00  0.76365398240E+02  0.14861502236E+04  0.14841869198E+04 0.  0.
        3    1    3    3  502    0 -0.17168051510E+03 -0.68582662509E+03 -0.18766018235E+03  0.73147024081E+03  0.10100000352E+00 0. -1.
       -3    1    3    3    0  502  0.17168051510E+03  0.68582662509E+03  0.26402558059E+03  0.75467998274E+03  0.10100000352E+00 0.  1.
</event>
<event>
 5   0  0.7870317E-04  0.1262769E+04  0.7818609E-02  0.9059622E-01
        1   -1    0    0  501    0  0.00000000000E+00  0.00000000000E+00  0.82579443860E+03  0.82579443862E+03  0.50400001928E-02 0. -1.
       -1   -1    0    0    0  501  0.00000000000E+00  0.00000000000E+00 -0.48274301093E+03  0.48274301095E+03  0.50400001928E-02 0.  1.
    10030    2    1    2    0    0  0.00000000000E+00  0.00000000000E+00  0.34305142768E+03  0.13085374496E+04  0.12627691693E+04 0.  0.
        1    1    3    3  502    0  0.49482375536E+03 -0.13214909088E+03  0.55414070804E+03  0.75457660673E+03  0.50400001928E-02 0. -1.
       -1    1    3    3    0  502 -0.49482375536E+03  0.13214909088E+03 -0.21108928036E+03  0.55396084284E+03  0.50400001928E-02 0.  1.
</event>
<event>
 5   0  0.8306301E-04  0.1478833E+04  0.7818609E-02  0.8898652E-01
        1   -1    0    0  501    0  0.00000000000E+00  0.00000000000E+00  0.53054429441E+03  0.53054429443E+03  0.50400001928E-02 0. -1.
       -1   -1    0    0    0  501  0.00000000000E+00  0.00000000000E+00 -0.10305206551E+04  0.10305206552E+04  0.50400001928E-02 0.  1.
    10030    2    1    2    0    0  0.00000000000E+00  0.00000000000E+00 -0.49997636074E+03  0.15610649496E+04  0.14788331263E+04 0.  0.
        4    1    3    3  502    0 -0.38660702295E+03 -0.21213223193E+03 -0.87651509875E+03  0.98119590564E+03  0.12699999809E+01 0.  1.
       -4    1    3    3    0  502  0.38660702295E+03  0.21213223193E+03  0.37653873801E+03  0.57986904395E+03  0.12699999809E+01 0. -1.
</event>
<event>
 5   0  0.8306301E-04  0.1502117E+04  0.7818609E-02  0.8883047E-01
       -1   -1    0    0    0  501  0.00000000000E+00  0.00000000000E+00  0.52979598342E+03  0.52979598345E+03  0.50400001928E-02 0.  1.
        1   -1    0    0  501    0  0.00000000000E+00  0.00000000000E+00 -0.10647280083E+04  0.10647280083E+04  0.50400001928E-02 0. -1.
    10030    2    1    2    0    0  0.00000000000E+00  0.00000000000E+00 -0.53493202485E+03  0.15945239917E+04  0.15021166696E+04 0.  0.
        4    1    3    3  502    0  0.56411790332E+02  0.59455996364E+03 -0.75089766942E+03  0.95944398653E+03  0.12699999809E+01 0. -1.
       -4    1    3    3    0  502 -0.56411790332E+02 -0.59455996364E+03  0.21596564458E+03  0.63508000519E+03  0.12699999809E+01 0.  1.
</event>
<event>
 5   0  0.8365016E-04  0.1485416E+04  0.7818609E-02  0.8894209E-01
        1   -1    0    0  501    0  0.00000000000E+00  0.00000000000E+00  0.12221315720E+04  0.12221315720E+04  0.50400001928E-02 0. -1.
       -1   -1    0    0    0  501  0.00000000000E+00  0.00000000000E+00 -0.45135495677E+03  0.45135495679E+03  0.50400001928E-02 0.  1.
    10030    2    1    2    0    0  0.00000000000E+00  0.00000000000E+00  0.77077661525E+03  0.16734865288E+04  0.14854159591E+04 0.  0.
        3    1    3    3  502    0  0.54913537395E+03 -0.49565675933E+03  0.46003301327E+03  0.87112322061E+03  0.10100000352E+00 0. -1.
       -3    1    3    3    0  502 -0.54913537395E+03  0.49565675933E+03  0.31074360198E+03  0.80236330821E+03  0.10100000352E+00 0.  1.
</event>
<event>
 5   0  0.1526126E-03  0.1466471E+04  0.7818609E-02  0.8907060E-01
        2   -1    0    0  501    0  0.00000000000E+00  0.00000000000E+00  0.13427300398E+04  0.13427300398E+04  0.25500000920E-02 0.  1.
       -2   -1    0    0    0  501  0.00000000000E+00  0.00000000000E+00 -0.40040402879E+03  0.40040402880E+03  0.25500000920E-02 0. -1.
    10030    2    1    2    0    0  0.00000000000E+00  0.00000000000E+00  0.94232601097E+03  0.17431340686E+04  0.14664712987E+04 0.  0.
        2    1    3    3  502    0  0.43963082308E+03  0.35708179508E+03  0.10246899774E+04  0.11707998201E+04  0.25500000920E-02 0.  1.
       -2    1    3    3    0  502 -0.43963082308E+03 -0.35708179508E+03 -0.82363966433E+02  0.57233424845E+03  0.25500000920E-02 0. -1.
</event>
<event>
 5   0  0.8058234E-04  0.1522731E+04  0.7818609E-02  0.8869476E-01
        1   -1    0    0  501    0  0.00000000000E+00  0.00000000000E+00  0.12405875739E+04  0.12405875739E+04  0.50400001928E-02 0. -1.
       -1   -1    0    0    0  501  0.00000000000E+00  0.00000000000E+00 -0.46726051256E+03  0.46726051258E+03  0.50400001928E-02 0.  1.
    10030    2    1    2    0    0  0.00000000000E+00  0.00000000000E+00  0.77332706131E+03  0.17078480865E+04  0.15227312116E+04 0.  0.
        5    1    3    3  502    0  0.55226320145E+03  0.13362131632E+03 -0.18170331522E+03  0.59656306004E+03  0.46999998093E+01 0.  1.
       -5    1    3    3    0  502 -0.55226320145E+03 -0.13362131632E+03  0.95503037653E+03  0.11112850264E+04  0.46999998093E+01 0. -1.
</event>
<event>
 5   0  0.1511546E-03  0.1509020E+04  0.7818609E-02  0.8878477E-01
        2   -1    0    0  501    0  0.00000000000E+00  0.00000000000E+00  0.58987040256E+03  0.58987040256E+03  0.25500000920E-02 0.  1.
       -2   -1    0    0    0  501  0.00000000000E+00  0.00000000000E+00 -0.96510278996E+03  0.96510278996E+03  0.25500000920E-02 0. -1.
    10030    2    1    2    0    0  0.00000000000E+00  0.00000000000E+00 -0.37523238740E+03  0.15549731925E+04  0.15090203063E+04 0.  0.
        1    1    3    3  502    0  0.75027203226E+03 -0.43721216969E+02 -0.11875373679E+03  0.76086931679E+03  0.50400001928E-02 0. -1.
       -1    1    3    3    0  502 -0.75027203226E+03  0.43721216969E+02 -0.25647865061E+03  0.79410387573E+03  0.50400001928E-02 0.  1.
</event>
<event>
 5   0  0.8365016E-04  0.1489122E+04  0.7818609E-02  0.8891719E-01
        1   -1    0    0  501    0  0.00000000000E+00  0.00000000000E+00  0.13770204060E+04  0.13770204060E+04  0.50400001928E-02 0. -1.
       -1   -1    0    0    0  501  0.00000000000E+00  0.00000000000E+00 -0.40258752393E+03  0.40258752396E+03  0.50400001928E-02 0.  1.
    10030    2    1    2    0    0  0.00000000000E+00  0.00000000000E+00  0.97443288204E+03  0.17796079299E+04  0.14891222054E+04 0.  0.
        3    1    3    3  502    0 -0.38640878449E+03  0.60923729432E+03  0.70721807509E+03  0.10102669179E+04  0.10100000352E+00 0. -1.
       -3    1    3    3    0  502  0.38640878449E+03 -0.60923729432E+03  0.26721480695E+03  0.76934101202E+03  0.10100000352E+00 0.  1.
</event>
<event>
 5   0  0.1511546E-03  0.1572584E+04  0.7818609E-02  0.8837570E-01
        2   -1    0    0  501    0  0.00000000000E+00  0.00000000000E+00  0.71697467667E+03  0.71697467668E+03  0.25500000920E-02 0. -1.
       -2   -1    0    0    0  501  0.00000000000E+00  0.00000000000E+00 -0.86231132585E+03  0.86231132585E+03  0.25500000920E-02 0.  1.
    10030    2    1    2    0    0  0.00000000000E+00  0.00000000000E+00 -0.14533664918E+03  0.15792860025E+04  0.15725843495E+04 0.  0.
        1    1    3    3  502    0 -0.44628908607E+03 -0.33810676075E+03  0.48173977055E+03  0.73862259414E+03  0.50400001928E-02 0. -1.
       -1    1    3    3    0  502  0.44628908607E+03  0.33810676075E+03 -0.62707641973E+03  0.84066340840E+03  0.50400001928E-02 0.  1.
</event>
<event>
 5   0  0.7870317E-04  0.1489621E+04  0.7818609E-02  0.8891385E-01
       -1   -1    0    0    0  501  0.00000000000E+00  0.00000000000E+00  0.13086962860E+04  0.13086962860E+04  0.50400001928E-02 0. -1.
        1   -1    0    0  501    0  0.00000000000E+00  0.00000000000E+00 -0.42388937828E+03  0.42388937831E+03  0.50400001928E-02 0.  1.
    10030    2    1    2    0    0  0.00000000000E+00  0.00000000000E+00  0.88480690772E+03  0.17325856643E+04  0.14896206968E+04 0.  0.
        1    1    3    3  502    0 -0.67337906769E+03 -0.16690266315E+03  0.75761696847E+03  0.10272679002E+04  0.50400001928E-02 0. -1.
       -1    1    3    3    0  502  0.67337906769E+03  0.16690266315E+03  0.12718993925E+03  0.70531776416E+03  0.50400001928E-02 0.  1.
</event>
<event>
 5   0  0.1484056E-03  0.1514495E+04  0.7818609E-02  0.8874871E-01
       -2   -1    0    0    0  501  0.00000000000E+00  0.00000000000E+00  0.62756461390E+03  0.62756461391E+03  0.25500000920E-02 0.  1.
        2   -1    0    0  501    0  0.00000000000E+00  0.00000000000E+00 -0.91372879933E+03  0.91372879934E+03  0.25500000920E-02 0. -1.
    10030    2    1    2    0    0  0.00000000000E+00  0.00000000000E+00 -0.28616418543E+03  0.15412934132E+04  0.15144951121E+04 0.  0.
        5    1    3    3  502    0  0.38686080744E+03  0.40326117743E+03  0.37695972951E+03  0.67409316064E+03  0.46999998093E+01 0.  1.
       -5    1    3    3    0  502 -0.38686080744E+03 -0.40326117743E+03 -0.66312391493E+03  0.86720025260E+03  0.46999998093E+01 0. -1.
</event>
<event>
 5   0  0.8191876E-04  0.1513201E+04  0.7818609E-02  0.8875722E-01
       -1   -1    0    0    0  501  0.00000000000E+00  0.00000000000E+00  0.69933886275E+03  0.69933886276E+03  0.50400001928E-02 0. -1.
        1   -1    0    0  501    0  0.00000000000E+00  0.00000000000E+00 -0.81855060095E+03  0.81855060097E+03  0.50400001928E-02 0.  1.
    10030    2    1    2    0    0  0.00000000000E+00  0.00000000000E+00 -0.11921173821E+03  0.15178894637E+04  0.15132009072E+04 0.  0.
        2    1    3    3  502    0  0.16075059559E+03 -0.53250100099E+03  0.45486353260E+03  0.71853942364E+03  0.25500000920E-02 0. -1.
       -2    1    3    3    0  502 -0.16075059559E+03  0.53250100099E+03 -0.57407527081E+03  0.79935004009E+03  0.25500000920E-02 0.  1.
</event>
<event>
 5   0  0.1552067E-03  0.1487416E+04  0.7818609E-02  0.8892865E-01
       -2   -1    0    0    0  501  0.00000000000E+00  0.00000000000E+00  0.38654033812E+03  0.38654033813E+03  0.25500000920E-02 0.  1.
        2   -1    0    0  501    0  0.00000000000E+00  0.00000000000E+00 -0.14309019300E+04  0.14309019300E+04  0.25500000920E-02 0. -1.
    10030    2    1    2    0    0  0.00000000000E+00  0.00000000000E+00 -0.10443615919E+04  0.18174422681E+04  0.14874156324E+04 0.  0.
        3    1    3    3  502    0 -0.10044687200E+01 -0.15520412649E+03 -0.14108927759E+04  0.14194040176E+04  0.10100000352E+00 0. -1.
       -3    1    3    3    0  502  0.10044687200E+01  0.15520412649E+03  0.36653118402E+03  0.39803825055E+03  0.10100000352E+00 0.  1.
</event>
<event>
 5   0  0.1526126E-03  0.1436814E+04  0.7818609E-02  0.8927593E-01
        2   -1    0    0  501    0  0.00000000000E+00  0.00000000000E+00  0.11199832377E+04  0.11199832377E+04  0.25500000920E-02 0.  1.
       -2   -1    0    0    0  501  0.00000000000E+00  0.00000000000E+00 -0.46081836345E+03  0.46081836346E+03  0.25500000920E-02 0. -1.
    10030    2    1    2    0    0  0.00000000000E+00  0.00000000000E+00  0.65916487429E+03  0.15808016012E+04  0.14368143133E+04 0.  0.
        2    1    3    3  502    0  0.14459389846E+03  0.70176858804E+03  0.38698673392E+03  0.81433732498E+03  0.25500000920E-02 0. -1.
       -2    1    3    3    0  502 -0.14459389846E+03 -0.70176858804E+03  0.27217814037E+03  0.76646427622E+03  0.25500000920E-02 0.  1.
</event>
<event>
 5   0  0.8191876E-04  0.1492635E+04  0.7818609E-02  0.8889365E-01
       -1   -1    0    0    0  501  0.00000000000E+00  0.00000000000E+00  0.63853527406E+03  0.63853527408E+03  0.50400001928E-02 0. -1.
        1   -1    0    0  501    0  0.00000000000E+00  0.00000000000E+00 -0.87229349483E+03  0.87229349485E+03  0.50400001928E-02 0.  1.
    10030    2    1    2    0    0  0.00000000000E+00  0.00000000000E+00 -0.23375822078E+03  0.15108287689E+04  0.14926354757E+04 0.  0.
        2    1    3    3  502    0 -0.11779168512E+02 -0.26578361552E+03  0.58890787771E+03  0.64621371660E+03  0.25500000920E-02 0. -1.
       -2    1    3    3    0  502  0.11779168512E+02  0.26578361552E+03 -0.82266609849E+03  0.86461505232E+03  0.25500000920E-02 0.  1.
</event>
<event>
 5   0  0.1484056E-03  0.1553990E+04  0.7818609E-02  0.8849323E-01
       -2   -1    0    0    0  501  0.00000000000E+00  0.00000000000E+00  0.28611304893E+03  0.28611304894E+03  0.25500000920E-02 0.  1.
        2   -1    0    0  501    0  0.00000000000E+00  0.00000000000E+00 -0.21100804360E+04  0.21100804360E+04  0.25500000920E-02 0. -1.
    10030    2    1    2    0    0  0.00000000000E+00  0.00000000000E+00 -0.18239673870E+04  0.23961934849E+04  0.15539904080E+04 0.  0.
        5    1    3    3  502    0 -0.38869892230E+03  0.34488910849E+03 -0.18026772187E+04  0.18760870433E+04  0.46999998093E+01 0. -1.
       -5    1    3    3    0  502  0.38869892230E+03 -0.34488910849E+03 -0.21290168384E+02  0.52010644163E+03  0.46999998093E+01 0.  1.
</event>
<event>
 5   0  0.1484056E-03  0.1525755E+04  0.7818609E-02  0.8867505E-01
        2   -1    0    0  501    0  0.00000000000E+00  0.00000000000E+00  0.14453534919E+04  0.14453534919E+04  0.25500000920E-02 0.  1.
       -2   -1    0    0    0  501  0.00000000000E+00  0.00000000000E+00 -0.40265726348E+03  0.40265726349E+03  0.25500000920E-02 0. -1.
    10030    2    1    2    0    0  0.00000000000E+00  0.00000000000E+00  0.10426962284E+04  0.18480107554E+04  0.15257550024E+04 0.  0.
        5    1    3    3  502    0 -0.23885524964E+03 -0.57197902831E+03 -0.17263742558E+02  0.62010641499E+03  0.46999998093E+01 0. -1.
       -5    1    3    3    0  502  0.23885524964E+03  0.57197902831E+03  0.10599599710E+04  0.12279043404E+04  0.46999998093E+01 0.  1.
</event>
<event>
 5   0  0.1552067E-03  0.1482428E+04  0.7818609E-02  0.8896223E-01
        2   -1    0    0  501    0  0.00000000000E+00  0.00000000000E+00  0.11936937457E+04  0.11936937457E+04  0.25500000920E-02 0.  1.
       -2   -1    0    0    0  501  0.00000000000E+00  0.00000000000E+00 -0.46025026113E+03  0.46025026114E+03  0.25500000920E-02 0. -1.
    10030    2    1    2    0    0  0.00000000000E+00  0.00000000000E+00  0.73344348458E+03  0.16539440068E+04  0.14824275472E+04 0.  0.
        3    1    3    3  502    0  0.27154436423E+03  0.26256584062E+03 -0.34481192879E+03  0.51144153023E+03  0.10100000352E+00 0. -1.
       -3    1    3    3    0  502 -0.27154436423E+03 -0.26256584062E+03  0.10782554134E+04  0.11425024766E+04  0.10100000352E+00 0.  1.
</event>
<event>
 5   0  0.1511546E-03  0.1507297E+04  0.7818609E-02  0.8879615E-01
        2   -1    0    0  501    0  0.00000000000E+00  0.00000000000E+00  0.54312445306E+03  0.54312445307E+03  0.25500000920E-02 0.  1.
       -2   -1    0    0    0  501  0.00000000000E+00  0.00000000000E+00 -0.10457749208E+04  0.10457749208E+04  0.25500000920E-02 0. -1.
    10030    2    1    2    0    0  0.00000000000E+00  0.00000000000E+00 -0.50265046778E+03  0.15888993739E+04  0.15072968280E+04 0.  0.
        1    1    3    3  502    0  0.19848539218E+03 -0.40609170420E+03  0.38438137443E+03  0.59334304088E+03  0.50400001928E-02 0.  1.
       -1    1    3    3    0  502 -0.19848539218E+03  0.40609170420E+03 -0.88703184220E+03  0.99555633303E+03  0.50400001928E-02 0. -1.
</event>
<event>
 5   0  0.8058234E-04  0.1491550E+04  0.7818609E-02  0.8890091E-01
       -1   -1    0    0    0  501  0.00000000000E+00  0.00000000000E+00  0.24612985758E+03  0.24612985763E+03  0.50400001928E-02 0.  1.
        1   -1    0    0  501    0  0.00000000000E+00  0.00000000000E+00 -0.22597042452E+04  0.22597042452E+04  0.50400001928E-02 0. -1.
    10030    2    1    2    0    0  0.00000000000E+00  0.00000000000E+00 -0.20135743877E+04  0.25058341029E+04  0.14915504472E+04 0.  0.
        5    1    3    3  502    0  0.20215112281E+03 -0.15401119796E+03  0.17111397105E+03  0.30640921435E+03  0.46999998093E+01 0.  1.
       -5    1    3    3    0  502 -0.20215112281E+03  0.15401119796E+03 -0.21846883587E+04  0.21994248885E+04  0.46999998093E+01 0. -1.
</event>
<event>
 5   0  0.7870317E-04  0.1504352E+04  0.7818609E-02  0.8881564E-01
        1   -1    0    0  501    0  0.00000000000E+00  0.00000000000E+00  0.22608539837E+04  0.22608539837E+04  0.50400001928E-02 0.  1.
       -1   -1    0    0    0  501  0.00000000000E+00  0.00000000000E+00 -0.25024554867E+03  0.25024554872E+03  0.50400001928E-02 0. -1.
    10030    2    1    2    0    0  0.00000000000E+00  0.00000000000E+00  0.20106084350E+04  0.25110995324E+04  0.15043518813E+04 0.  0.
        1    1    3    3  502    0  0.25185649086E+03 -0.69689732861E+03  0.78977994265E+03  0.10829819650E+04  0.50400001928E-02 0. -1.
       -1    1    3    3    0  502 -0.25185649086E+03  0.69689732861E+03  0.12208284923E+04  0.14281175674E+04  0.50400001928E-02 0.  1.
</event>
<event>
 5   0  0.1526126E-03  0.1441109E+04  0.7818609E-02  0.8924588E-01
       -2   -1    0    0    0  501  0.00000000000E+00  0.00000000000E+00  0.48905422821E+03  0.48905422821E+03  0.25500000920E-02 0.  1.
        2   -1    0    0  501    0  0.00000000000E+00  0.00000000000E+00 -0.10616384708E+04  0.10616384708E+04  0.25500000920E-02 0. -1.
    10030    2    1    2    0    0  0.00000000000E+00  0.00000000000E+00 -0.57258424256E+03  0.15506926990E+04  0.14411089937E+04 0.  0.
        2    1    3    3  502    0 -0.42196552903E+03  0.48280235183E+03  0.67406027395E+02  0.64474536924E+03  0.25500000920E-02 0.  1.
       -2    1    3    3    0  502  0.42196552903E+03 -0.48280235183E+03 -0.63999026995E+03  0.90594732974E+03  0.25500000920E-02 0. -1.
</event>
<event>
 5   0  0.8191876E-04  0.1512037E+04  0.7818609E-02  0.8876487E-01
        1   -1    0    0  501    0  0.00000000000E+00  0.00000000000E+00  0.14480154582E+04  0.14480154582E+04  0.50400001928E-02 0.  1.
       -1   -1    0    0    0  501  0.00000000000E+00  0.00000000000E+00 -0.39472248477E+03  0.39472248480E+03  0.50400001928E-02 0. -1.
    10030    2    1    2    0    0  0.00000000000E+00  0.00000000000E+00  0.10532929734E+04  0.18427379430E+04  0.15120373800E+04 0.  0.
        2    1    3    3  502    0 -0.70340834693E+03  0.60186841838E+01  0.86426428940E+03  0.11143483697E+04  0.25500000920E-02 0.  1.
       -2    1    3    3    0  502  0.70340834693E+03 -0.60186841838E+01  0.18902868399E+03  0.72838957328E+03  0.25500000920E-02 0. -1.
</event>
<event>
 5   0  0.1552067E-03  0.1516821E+04  0.7818609E-02  0.8873344E-01
       -2   -1    0    0    0  501  0.00000000000E+00  0.00000000000E+00  0.57981363693E+03  0.57981363694E+03  0.25500000920E-02 0. -1.
        2   -1    0    0  501    0  0.00000000000E+00  0.00000000000E+00 -0.99201947468E+03  0.99201947468E+03  0.25500000920E-02 0.  1.
    10030    2    1    2    0    0  0.00000000000E+00  0.00000000000E+00 -0.41220583775E+03  0.15718331116E+04  0.15168209117E+04 0.  0.
        3    1    3    3  502    0 -0.52796449626E+03  0.54105452003E+03 -0.26913584853E+03  0.80244664503E+03  0.10100000352E+00 0. -1.
       -3    1    3    3    0  502  0.52796449626E+03 -0.54105452003E+03 -0.14306998922E+03  0.76938646659E+03  0.10100000352E+00 0.  1.
</event>
<event>
 5   0  0.1484056E-03  0.1477701E+04  0.7818609E-02  0.8899418E-01
        2   -1    0    0  501    0  0.00000000000E+00  0.00000000000E+00  0.14752665214E+04  0.14752665214E+04  0.25500000920E-02 0.  1.
       -2   -1    0    0    0  501  0.00000000000E+00  0.00000000000E+00 -0.37003484087E+03  0.37003484088E+03  0.25500000920E-02 0. -1.
    10030    2    1    2    0    0  0.00000000000E+00  0.00000000000E+00  0.11052316806E+04  0.18453013623E+04  0.14777009339E+04 0.  0.
        5    1    3    3  502    0 -0.53069290167E+03 -0.83674616634E+02 -0.80745123028E+02  0.54330310347E+03  0.46999998093E+01 0. -1.
       -5    1    3    3    0  502  0.53069290167E+03  0.83674616634E+02  0.11859768036E+04  0.13019982588E+04  0.46999998093E+01 0.  1.
</event>
<event>
 5   0  0.8058234E-04  0.1493170E+04  0.7818609E-02  0.8889008E-01
       -1   -1    0    0    0  501  0.00000000000E+00  0.00000000000E+00  0.43813404309E+03  0.43813404311E+03  0.50400001928E-02 0. -1.
        1   -1    0    0  501    0  0.00000000000E+00  0.00000000000E+00 -0.12721884556E+04  0.12721884556E+04  0.50400001928E-02 0.  1.
    10030    2    1    2    0    0  0.00000000000E+00  0.00000000000E+00 -0.83405441253E+03  0.17103224987E+04  0.14931698787E+04 0.  0.
        5    1    3    3  502    0 -0.50101961240E+03 -0.28278808434E+03 -0.96201297057E+03  0.11209285429E+04  0.46999998093E+01 0.  1.
       -5    1    3    3    0  502  0.50101961240E+03  0.28278808434E+03  0.12795855803E+03  0.58939395588E+03  0.46999998093E+01 0. -1.
</event>
<event>
 5   0  0.8058234E-04  0.1475352E+04  0.7818609E-02  0.8901011E-01
       -1   -1    0    0    0  501  0.00000000000E+00  0.00000000000E+00  0.76062276125E+03  0.76062276127E+03  0.50400001928E-02 0. -1.
        1   -1    0    0  501    0  0.00000000000E+00  0.00000000000E+00 -0.71542135206E+03  0.71542135208E+03  0.50400001928E-02 0.  1.
    10030    2    1    2    0    0  0.00000000000E+00  0.00000000000E+00  0.45201409191E+02  0.14760441134E+04  0.14753518418E+04 0.  0.
        5    1    3    3  502    0 -0.23179317943E+03  0.57481724747E+03  0.42278930525E+03  0.75027717055E+03  0.46999998093E+01 0. -1.
       -5    1    3    3    0  502  0.23179317943E+03 -0.57481724747E+03 -0.37758789606E+03  0.72576694280E+03  0.46999998093E+01 0.  1.
</event>
<event>
 5   0  0.1511546E-03  0.1469881E+04  0.7818609E-02  0.8904733E-01
        2   -1    0    0  501    0  0.00000000000E+00  0.00000000000E+00  0.91251632337E+03  0.91251632338E+03  0.25500000920E-02 0. -1.
       -2   -1    0    0    0  501  0.00000000000E+00  0.00000000000E+00 -0.59192075435E+03  0.59192075436E+03  0.25500000920E-02 0.  1.
    10030    2    1    2    0    0  0.00000000000E+00  0.00000000000E+00  0.32059556902E+03  0.15044370777E+04  0.14698807441E+04 0.  0.
        1    1    3    3  502    0  0.75596397312E+02  0.32893026249E+03  0.82850724361E+03  0.89461398693E+03  0.50400001928E-02 0. -1.
       -1    1    3    3    0  502 -0.75596397312E+02 -0.32893026249E+03 -0.50791167459E+03  0.60982309081E+03  0.50400001928E-02 0.  1.
</event>
<event>
 5   0  0.1500956E-03  0.1500283E+04  0.7818609E-02  0.8884265E-01
        2   -1    0    0  501    0  0.00000000000E+00  0.00000000000E+00  0.75524226459E+03  0.75524226459E+03  0.25500000920E-02 0. -1.
       -2   -1    0    0    0  501  0.00000000000E+00  0.00000000000E+00 -0.74507487867E+03  0.74507487867E+03  0.25500000920E-02 0.  1.
    10030    2    1    2    0    0  0.00000000000E+00  0.00000000000E+00  0.10167385918E+02  0.15003171433E+04  0.15002826916E+04 0.  0.
        4    1    3    3  502    0 -0.65540593302E+03  0.33999827516E+03  0.13758074145E+03  0.75105648087E+03  0.12699999809E+01 0.  1.
       -4    1    3    3    0  502  0.65540593302E+03 -0.33999827516E+03 -0.12741335553E+03  0.74926066239E+03  0.12699999809E+01 0. -1.
</event>
<event>
 5   0  0.8191876E-04  0.1502235E+04  0.7818609E-02  0.8882968E-01
       -1   -1    0    0    0  501  0.00000000000E+00  0.00000000000E+00  0.53994986427E+03  0.53994986429E+03  0.50400001928E-02 0. -1.
        1   -1    0    0  501    0  0.00000000000E+00  0.00000000000E+00 -0.10448698430E+04  0.10448698430E+04  0.50400001928E-02 0.  1.
    10030    2    1    2    0    0  0.00000000000E+00  0.00000000000E+00 -0.50491997875E+03  0.15848197073E+04  0.15022347752E+04 0.  0.
        2    1    3    3  502    0 -0.39662443089E+02  0.69945919561E+03 -0.53820248514E+03  0.88344676734E+03  0.25500000920E-02 0.  1.
       -2    1    3    3    0  502  0.39662443089E+02 -0.69945919561E+03  0.33282506384E+02  0.70137293999E+03  0.25500000920E-02 0. -1.
</event>
<event>
 5   0  0.8306301E-04  0.1510373E+04  0.7818609E-02  0.8877584E-01
        1   -1    0    0  501    0  0.00000000000E+00  0.00000000000E+00  0.57002623106E+03  0.57002623108E+03  0.50400001928E-02 0.  1.
       -1   -1    0    0    0  501  0.00000000000E+00  0.00000000000E+00 -0.10004916908E+04  0.10004916908E+04  0.50400001928E-02 0. -1.
    10030    2    1    2    0    0  0.00000000000E+00  0.00000000000E+00 -0.43046545976E+03  0.15705179219E+04  0.15103728119E+04 0.  0.
        4    1    3    3  502    0  0.65220445521E+03  0.33524127598E+03 -0.27639242262E+02  0.73384119885E+03  0.12699999809E+01 0.  1.
       -4    1    3    3    0  502 -0.65220445521E+03 -0.33524127598E+03 -0.40282621749E+03  0.83667672306E+03  0.12699999809E+01 0. -1.
</event>
<event>
 5   0  0.1484056E-03  0.1517017E+04  0.7818609E-02  0.8873215E-01
       -2   -1    0    0    0  501  0.00000000000E+00  0.00000000000E+00  0.12677926885E+04  0.12677926885E+04  0.25500000920E-02 0.  1.
        2   -1    0    0  501    0  0.00000000000E+00  0.00000000000E+00 -0.45380865808E+03  0.45380865809E+03  0.25500000920E-02 0. -1.
    10030    2    1    2    0    0  0.00000000000E+00  0.00000000000E+00  0.81398403045E+03  0.17216013466E+04  0.15170172032E+04 0.  0.
        5    1    3    3  502    0 -0.63088261362E+03 -0.38751354175E+03  0.22005481705E+03  0.77241558096E+03  0.46999998093E+01 0.  1.
       -5    1    3    3    0  502  0.63088261362E+03  0.38751354175E+03  0.59392921340E+03  0.94918576566E+03  0.46999998093E+01 0. -1.
</event>
<event>
 5   0  0.7870317E-04  0.1514579E+04  0.7818609E-02  0.8874815E-01
       -1   -1    0    0    0  501  0.00000000000E+00  0.00000000000E+00  0.42640533618E+03  0.42640533621E+03  0.50400001928E-02 0. -1.
        1   -1    0    0  501    0  0.00000000000E+00  0.00000000000E+00 -0.13449351747E+04  0.13449351748E+04  0.50400001928E-02 0.  1.
    10030    2    1    2    0    0  0.00000000000E+00  0.00000000000E+00 -0.91852983857E+03  0.17713405110E+04  0.15145791962E+04 0.  0.
        1    1    3    3  502    0  0.37053716971E+03  0.58171234230E+03 -0.82501176368E+03  0.10753285328E+04  0.50400001928E-02 0.  1.
       -1    1    3    3    0  502 -0.37053716971E+03 -0.58171234230E+03 -0.93518074888E+02  0.69601197812E+03  0.50400001928E-02 0. -1.
</event>
<event>
 5   0  0.1484056E-03  0.1505082E+04  0.7818609E-02  0.8881081E-01
        2   -1    0    0  501    0  0.00000000000E+00  0.00000000000E+00  0.65514612369E+03  0.65514612370E+03  0.25500000920E-02 0. -1.
       -2   -1    0    0    0  501  0.00000000000E+00  0.00000000000E+00 -0.86441447810E+03  0.86441447811E+03  0.25500000920E-02 0.  1.
    10030    2    1    2    0    0  0.00000000000E+00  0.00000000000E+00 -0.20926835441E+03  0.15195606018E+04  0.15050817846E+04 0.  0.
        5    1    3    3  502    0  0.70069621598E+03  0.22194644417E+00  0.17245172557E+03  0.72162103905E+03  0.46999998093E+01 0. -1.
       -5    1    3    3    0  502 -0.70069621598E+03 -0.22194644417E+00 -0.38172007998E+03  0.79793956275E+03  0.46999998093E+01 0.  1.
</event>
<event>
 5   0  0.8191876E-04  0.1521168E+04  0.7818609E-02  0.8870497E-01
        1   -1    0    0  501    0  0.00000000000E+00  0.00000000000E+00  0.11267326911E+04  0.11267326911E+04  0.50400001928E-02 0.  1.
       -1   -1    0    0    0  501  0.00000000000E+00  0.00000000000E+00 -0.51342078378E+03  0.51342078380E+03  0.50400001928E-02 0. -1.
    10030    2    1    2    0    0  0.00000000000E+00  0.00000000000E+00  0.61331190732E+03  0.16401534749E+04  0.15211679479E+04 0.  0.
        2    1    3    3  502    0  0.32647128989E+03  0.19754455585E+03  0.10160563019E+04  0.10853468401E+04  0.25500000920E-02 0.  1.
       -2    1    3    3    0  502 -0.32647128989E+03 -0.19754455585E+03 -0.40274439458E+03  0.55480663482E+03  0.25500000920E-02 0. -1.
</event>
<event>
 5   0  0.1511546E-03  0.1578176E+04  0.7818609E-02  0.8834069E-01
       -2   -1    0    0    0  501  0.00000000000E+00  0.00000000000E+00  0.93815193352E+03  0.93815193353E+03  0.25500000920E-02 0. -1.
        2   -1    0    0  501    0  0.00000000000E+00  0.00000000000E+00 -0.66370864986E+03  0.66370864986E+03  0.25500000920E-02 0.  1.
    10030    2    1    2    0    0  0.00000000000E+00  0.00000000000E+00  0.27444328367E+03  0.16018605834E+04  0.15781755963E+04 0.  0.
        1    1    3    3  502    0 -0.24803046032E+03  0.44518516022E+03 -0.47427371110E+03  0.69616412518E+03  0.50400001928E-02 0.  1.
       -1    1    3    3    0  502  0.24803046032E+03 -0.44518516022E+03  0.74871699476E+03  0.90569645820E+03  0.50400001928E-02 0. -1.
</event>
<event>
 5   0  0.1526126E-03  0.1520311E+04  0.7818609E-02  0.8871057E-01
       -2   -1    0    0    0  501  0.00000000000E+00  0.00000000000E+00  0.38600639517E+03  0.38600639518E+03  0.25500000920E-02 0.  1.
        2   -1    0    0  501    0  0.00000000000E+00  0.00000000000E+00 -0.14969613606E+04  0.14969613606E+04  0.25500000920E-02 0. -1.
    10030    2    1    2    0    0  0.00000000000E+00  0.00000000000E+00 -0.11109549654E+04  0.18829677558E+04  0.15203113609E+04 0.  0.
        2    1    3    3  502    0 -0.41376084148E+02  0.16858384989E+03  0.36112992665E+03  0.40068356431E+03  0.25500000920E-02 0.  1.
       -2    1    3    3    0  502  0.41376084148E+02 -0.16858384989E+03 -0.14720848921E+04  0.14822841914E+04  0.25500000920E-02 0. -1.
</event>
<event>
 5   0  0.5603875E-04  0.1420100E+04  0.7818609E-02  0.8939396E-01
        3   -1    0    0  501    0  0.00000000000E+00  0.00000000000E+00  0.60635105957E+03  0.60635106798E+03  0.10100000352E+00 0. -1.
       -3   -1    0    0    0  501  0.00000000000E+00  0.00000000000E+00 -0.83148348415E+03  0.83148349029E+03  0.10100000352E+00 0.  1.
    10030    2    1    2    0    0  0.00000000000E+00  0.00000000000E+00 -0.22513242458E+03  0.14378345583E+04  0.14200998586E+04 0.  0.
        1    1    3    3  502    0 -0.38575908992E+03  0.43010648143E+03 -0.53047896897E+03  0.78435298009E+03  0.50400001928E-02 0.  1.
       -1    1    3    3    0  502  0.38575908992E+03 -0.43010648143E+03  0.30534654439E+03  0.65348157818E+03  0.50400001928E-02 0. -1.
</event>
<event>
 5   0  0.8306301E-04  0.1477162E+04  0.7818609E-02  0.8899784E-01
        1   -1    0    0  501    0  0.00000000000E+00  0.00000000000E+00  0.13570612188E+04  0.13570612188E+04  0.50400001928E-02 0. -1.
       -1   -1    0    0    0  501  0.00000000000E+00  0.00000000000E+00 -0.40197287379E+03  0.40197287382E+03  0.50400001928E-02 0.  1.
    10030    2    1    2    0    0  0.00000000000E+00  0.00000000000E+00  0.95508834499E+03  0.17590340926E+04  0.14771618707E+04 0.  0.
        4    1    3    3  502    0 -0.52436990155E+03  0.47126816561E+03  0.73964016012E+03  0.10218251597E+04  0.12699999809E+01 0. -1.
       -4    1    3    3    0  502  0.52436990155E+03 -0.47126816561E+03  0.21544818487E+03  0.73720893296E+03  0.12699999809E+01 0.  1.
</event>
<event>
 5   0  0.1500956E-03  0.1501591E+04  0.7818609E-02  0.8883395E-01
        2   -1    0    0  501    0  0.00000000000E+00  0.00000000000E+00  0.89087673928E+03  0.89087673929E+03  0.25500000920E-02 0. -1.
       -2   -1    0    0    0  501  0.00000000000E+00  0.00000000000E+00 -0.63274086051E+03  0.63274086052E+03  0.25500000920E-02 0.  1.
    10030    2    1    2    0    0  0.00000000000E+00  0.00000000000E+00  0.25813587877E+03  0.15236175998E+04  0.15015913088E+04 0.  0.
        4    1    3    3  502    0  0.16852354907E+03 -0.54748698617E+03  0.62152240448E+03  0.84524191732E+03  0.12699999809E+01 0. -1.
       -4    1    3    3    0  502 -0.16852354907E+03  0.54748698617E+03 -0.36338652571E+03  0.67837568248E+03  0.12699999809E+01 0.  1.
</event>
<event>
 5   0  0.1484056E-03  0.1431474E+04  0.7818609E-02  0.8931346E-01
       -2   -1    0    0    0  501  0.00000000000E+00  0.00000000000E+00  0.28792403237E+03  0.28792403238E+03  0.25500000920E-02 0.  1.
        2   -1    0    0  501    0  0.00000000000E+00  0.00000000000E+00 -0.17792177731E+04  0.17792177731E+04  0.25500000920E-02 0. -1.
    10030    2    1    2    0    0  0.00000000000E+00  0.00000000000E+00 -0.14912937408E+04  0.20671418055E+04  0.14314741433E+04 0.  0.
        5    1    3    3  502    0  0.65226309939E+02  0.57198489568E+03 -0.13156038926E+03  0.59055179148E+03  0.46999998093E+01 0.  1.
       -5    1    3    3    0  502 -0.65226309939E+02 -0.57198489568E+03 -0.13597333515E+04  0.14765900140E+04  0.46999998093E+01 0. -1.
</event>
<event>
 5   0  0.7870317E-04  0.1521651E+04  0.7818609E-02  0.8870181E-01
       -1   -1    0    0    0  501  0.00000000000E+00  0.00000000000E+00  0.38315044442E+03  0.38315044446E+03  0.50400001928E-02 0.  1.
        1   -1    0    0  501    0  0.00000000000E+00  0.00000000000E+00 -0.15107791887E+04  0.15107791887E+04  0.50400001928E-02 0. -1.
    10030    2    1    2    0    0  0.00000000000E+00  0.00000000000E+00 -0.11276287443E+04  0.18939296332E+04  0.15216513630E+04 0.  0.
        1    1    3    3  502    0 -0.19524640029E+03  0.46432286134E+03 -0.12735279380E+04  0.13695219185E+04  0.50400001928E-02 0. -1.
       -1    1    3    3    0  502  0.19524640029E+03 -0.46432286134E+03  0.14589919376E+03  0.52440771462E+03  0.50400001928E-02 0.  1.
</event>
<event>
 5   0  0.1500956E-03  0.1345015E+04  0.7818609E-02  0.8994611E-01
        2   -1    0    0  501    0  0.00000000000E+00  0.00000000000E+00  0.98179725138E+03  0.98179725138E+03  0.25500000920E-02 0.  1.
       -2   -1    0    0    0  501  0.00000000000E+00  0.00000000000E+00 -0.46065116269E+03  0.46065116270E+03  0.25500000920E-02 0. -1.
    10030    2    1    2    0    0  0.00000000000E+00  0.00000000000E+00  0.52114608869E+03  0.14424484141E+04  0.13450145655E+04 0.  0.
        4    1    3    3  502    0 -0.54328286874E+03  0.29382304783E+03  0.54588294514E+03  0.82430459273E+03  0.12699999809E+01 0.  1.
       -4    1    3    3    0  502  0.54328286874E+03 -0.29382304783E+03 -0.24736856452E+02  0.61814382135E+03  0.12699999809E+01 0. -1.
</event>
<event>
 5   0  0.5603875E-04  0.1438887E+04  0.7818609E-02  0.8926141E-01
       -3   -1    0    0    0  501  0.00000000000E+00  0.00000000000E+00  0.81002828432E+03  0.81002829062E+03  0.10100000352E+00 0. -1.
        3   -1    0    0  501    0  0.00000000000E+00  0.00000000000E+00 -0.63898906346E+03  0.63898907144E+03  0.10100000352E+00 0.  1.
    10030    2    1    2    0    0  0.00000000000E+00  0.00000000000E+00  0.17103922086E+03  0.14490173621E+04  0.14388873828E+04 0.  0.
        5    1    3    3  502    0 -0.17330592670E+03 -0.41129537357E+03 -0.48270301052E+03  0.65743677637E+03  0.46999998093E+01 0.  1.
       -5    1    3    3    0  502  0.17330592670E+03  0.41129537357E+03  0.65374223138E+03  0.79158058569E+03  0.46999998093E+01 0. -1.
</event>
<event>
 5   0  0.8365016E-04  0.1482273E+04  0.7818609E-02  0.8896327E-01
       -1   -1    0    0    0  501  0.00000000000E+00  0.00000000000E+00  0.74394084144E+03  0.74394084146E+03  0.50400001928E-02 0. -1.
        1   -1    0    0  501    0  0.00000000000E+00  0.00000000000E+00 -0.73834293745E+03  0.73834293747E+03  0.50400001928E-02 0.  1.
    10030    2    1    2    0    0  0.00000000000E+00  0.00000000000E+00  0.55979039867E+01  0.14822837789E+04  0.14822732085E+04 0.  0.
        3    1    3    3  502    0 -0.44901276094E+03 -0.47140628161E+03  0.35698661884E+03  0.74247949336E+03  0.10100000352E+00 0. -1.
       -3    1    3    3    0  502  0.44901276094E+03  0.47140628161E+03 -0.35138871485E+03  0.73980428557E+03  0.10100000352E+00 0.  1.
</event>
<event>
 5   0  0.8191876E-04  0.1590952E+04  0.7818609E-02  0.8826126E-01
       -1   -1    0    0    0  501  0.00000000000E+00  0.00000000000E+00  0.56202482823E+03  0.56202482825E+03  0.50400001928E-02 0. -1.
        1   -1    0    0  501    0  0.00000000000E+00  0.00000000000E+00 -0.11258972491E+04  0.11258972491E+04  0.50400001928E-02 0.  1.
    10030    2    1    2    0    0  0.00000000000E+00  0.00000000000E+00 -0.56387242083E+03  0.16879220773E+04  0.15909521778E+04 0.  0.
        2    1    3    3  502    0  0.29152169565E+03  0.26917701563E+03  0.44953615881E+03  0.59960313781E+03  0.25500000920E-02 0. -1.
       -2    1    3    3    0  502 -0.29152169565E+03 -0.26917701563E+03 -0.10134085796E+04  0.10883189395E+04  0.25500000920E-02 0.  1.
</event>
<event>
 5   0  0.8191876E-04  0.1465318E+04  0.7818609E-02  0.8907849E-01
       -1   -1    0    0    0  501  0.00000000000E+00  0.00000000000E+00  0.32232870770E+03  0.32232870774E+03  0.50400001928E-02 0.  1.
        1   -1    0    0  501    0  0.00000000000E+00  0.00000000000E+00 -0.16653479320E+04  0.16653479320E+04  0.50400001928E-02 0. -1.
    10030    2    1    2    0    0  0.00000000000E+00  0.00000000000E+00 -0.13430192243E+04  0.19876766398E+04  0.14653183229E+04 0.  0.
        2    1    3    3  502    0 -0.68577523956E+03 -0.25186622325E+03 -0.74660984203E+03  0.10445815094E+04  0.25500000920E-02 0.  1.
       -2    1    3    3    0  502  0.68577523956E+03  0.25186622325E+03 -0.59640938230E+03  0.94309513036E+03  0.25500000920E-02 0. -1.
</event>
<event>
 5   0  0.7870317E-04  0.1426959E+04  0.7818609E-02  0.8934532E-01
       -1   -1    0    0    0  501  0.00000000000E+00  0.00000000000E+00  0.12679286573E+04  0.12679286573E+04  0.50400001928E-02 0.  1.
        1   -1    0    0  501    0  0.00000000000E+00  0.00000000000E+00 -0.40148387156E+03  0.40148387159E+03  0.50400001928E-02 0. -1.
    10030    2    1    2    0    0  0.00000000000E+00  0.00000000000E+00  0.86644478576E+03  0.16694125289E+04  0.14269588729E+04 0.  0.
        1    1    3    3  502    0  0.67610952653E+03 -0.87304366366E+01  0.69962437713E+03  0.97297203531E+03  0.50400001928E-02 0.  1.
       -1    1    3    3    0  502 -0.67610952653E+03  0.87304366366E+01  0.16682040862E+03  0.69644049362E+03  0.50400001928E-02 0. -1.
</event>
<event>
 5   0  0.8058234E-04  0.1525057E+04  0.7818609E-02  0.8867959E-01
       -1   -1    0    0    0  501  0.00000000000E+00  0.00000000000E+00  0.58649438228E+03  0.58649438230E+03  0.50400001928E-02 0.  1.
        1   -1    0    0  501    0  0.00000000000E+00  0.00000000000E+00 -0.99139898546E+03  0.99139898547E+03  0.50400001928E-02 0. -1.
    10030    2    1    2    0    0  0.00000000000E+00  0.00000000000E+00 -0.40490460318E+03  0.15778933678E+04  0.15250572915E+04 0.  0.
        5    1    3    3  502    0  0.55619203761E+03  0.49564266547E+03 -0.37061514523E+03  0.83209909891E+03  0.46999998093E+01 0. -1.
       -5    1    3    3    0  502 -0.55619203761E+03 -0.49564266547E+03 -0.34289457944E+02  0.74579426886E+03  0.46999998093E+01 0.  1.
</event>
<event>
 5   0  0.8191876E-04  0.1602328E+04  0.7818609E-02  0.8819119E-01
       -1   -1    0    0    0  501  0.00000000000E+00  0.00000000000E+00  0.81195663194E+03  0.81195663196E+03  0.50400001928E-02 0.  1.
        1   -1    0    0  501    0  0.00000000000E+00  0.00000000000E+00 -0.79051489318E+03  0.79051489319E+03  0.50400001928E-02 0. -1.
    10030    2    1    2    0    0  0.00000000000E+00  0.00000000000E+00  0.21441738766E+02  0.16024715251E+04  0.16023280690E+04 0.  0.
        2    1    3    3  502    0  0.28957748862E+03  0.15323402404E+03 -0.72045882044E+03  0.79145227273E+03  0.25500000920E-02 0. -1.
       -2    1    3    3    0  502 -0.28957748862E+03 -0.15323402404E+03  0.74190055921E+03  0.81101925242E+03  0.25500000920E-02 0.  1.
</event>
<event>
 5   0  0.1500956E-03  0.1477141E+04  0.7818609E-02  0.8899798E-01
        2   -1    0    0  501    0  0.00000000000E+00  0.00000000000E+00  0.13631897202E+04  0.13631897202E+04  0.25500000920E-02 0. -1.
       -2   -1    0    0    0  501  0.00000000000E+00  0.00000000000E+00 -0.40015427377E+03  0.40015427378E+03  0.25500000920E-02 0.  1.
    10030    2    1    2    0    0  0.00000000000E+00  0.00000000000E+00  0.96303544640E+03  0.17633439940E+04  0.14771407414E+04 0.  0.
        4    1    3    3  502    0 -0.11684461515E+03 -0.98282758443E+02  0.13441428990E+04  0.13527874595E+04  0.12699999809E+01 0. -1.
       -4    1    3    3    0  502  0.11684461515E+03  0.98282758443E+02 -0.38110745259E+03  0.41055653449E+03  0.12699999809E+01 0.  1.
</event>
<event>
 5   0  0.1500956E-03  0.1468513E+04  0.7818609E-02  0.8905666E-01
       -2   -1    0    0    0  501  0.00000000000E+00  0.00000000000E+00  0.25868392516E+03  0.25868392517E+03  0.25500000920E-02 0.  1.
        2   -1    0    0  501    0  0.00000000000E+00  0.00000000000E+00 -0.20841358033E+04  0.20841358033E+04  0.25500000920E-02 0. -1.
    10030    2    1    2    0    0  0.00000000000E+00  0.00000000000E+00 -0.18254518782E+04  0.23428197285E+04  0.14685127581E+04 0.  0.
        4    1    3    3  502    0 -0.30969732550E+03  0.54217649570E+03 -0.29636192154E+03  0.69115829399E+03  0.12699999809E+01 0.  1.
       -4    1    3    3    0  502  0.30969732550E+03 -0.54217649570E+03 -0.15290899566E+04  0.16516614345E+04  0.12699999809E+01 0. -1.
</event>
<event>
 5   0  0.1511546E-03  0.1491058E+04  0.7818609E-02  0.8890421E-01
       -2   -1    0    0    0  501  0.00000000000E+00  0.00000000000E+00  0.36788177168E+03  0.36788177169E+03  0.25500000920E-02 0. -1.
        2   -1    0    0  501    0  0.00000000000E+00  0.00000000000E+00 -0.15108481730E+04  0.15108481730E+04  0.25500000920E-02 0.  1.
    10030    2    1    2    0    0  0.00000000000E+00  0.00000000000E+00 -0.11429664013E+04  0.18787299447E+04  0.14910580172E+04 0.  0.
        1    1    3    3  502    0 -0.58747269688E+03  0.45866600324E+03 -0.54912647414E+03  0.92576376940E+03  0.50400001928E-02 0.  1.
       -1    1    3    3    0  502  0.58747269688E+03 -0.45866600324E+03 -0.59383992719E+03  0.95296617529E+03  0.50400001928E-02 0. -1.
</event>
<event>
 5   0  0.8306301E-04  0.1373597E+04  0.7818609E-02  0.8973155E-01
        1   -1    0    0  501    0  0.00000000000E+00  0.00000000000E+00  0.53025931179E+03  0.53025931181E+03  0.50400001928E-02 0.  1.
       -1   -1    0    0    0  501  0.00000000000E+00  0.00000000000E+00 -0.88955027627E+03  0.88955027629E+03  0.50400001928E-02 0. -1.
    10030    2    1    2    0    0  0.00000000000E+00  0.00000000000E+00 -0.35929096448E+03  0.14198095881E+04  0.13735972005E+04 0.  0.
        4    1    3    3  502    0  0.30506432144E+03  0.30844134559E+03 -0.72999664252E+03  0.84917431360E+03  0.12699999809E+01 0. -1.
       -4    1    3    3    0  502 -0.30506432144E+03 -0.30844134559E+03  0.37070567803E+03  0.57063527451E+03  0.12699999809E+01 0.  1.
</event>
<event>
 5   0  0.8306301E-04  0.1495748E+04  0.7818609E-02  0.8887285E-01
        1   -1    0    0  501    0  0.00000000000E+00  0.00000000000E+00  0.71175995199E+03  0.71175995200E+03  0.50400001928E-02 0.  1.
       -1   -1    0    0    0  501  0.00000000000E+00  0.00000000000E+00 -0.78582076964E+03  0.78582076965E+03  0.50400001928E-02 0. -1.
    10030    2    1    2    0    0  0.00000000000E+00  0.00000000000E+00 -0.74060817651E+02  0.14975807217E+04  0.14957483121E+04 0.  0.
        4    1    3    3  502    0 -0.68561883322E+03  0.54978168775E+01 -0.33607797054E+03  0.76357935124E+03  0.12699999809E+01 0. -1.
       -4    1    3    3    0  502  0.68561883322E+03 -0.54978168775E+01  0.26201715289E+03  0.73400137041E+03  0.12699999809E+01 0.  1.
</event>
<event>
 5   0  0.1484056E-03  0.1384687E+04  0.7818609E-02  0.8964978E-01
        2   -1    0    0  501    0  0.00000000000E+00  0.00000000000E+00  0.53571846158E+03  0.53571846158E+03  0.25500000920E-02 0.  1.
       -2   -1    0    0    0  501  0.00000000000E+00  0.00000000000E+00 -0.89475973075E+03  0.89475973075E+03  0.25500000920E-02 0. -1.
    10030    2    1    2    0    0  0.00000000000E+00  0.00000000000E+00 -0.35904126917E+03  0.14304781923E+04  0.13846866887E+04 0.  0.
        5    1    3    3  502    0  0.48991223721E+03  0.40512657050E+02  0.32410699025E+03  0.58883164544E+03  0.46999998093E+01 0.  1.
       -5    1    3    3    0  502 -0.48991223721E+03 -0.40512657050E+02 -0.68314825942E+03  0.84164654689E+03  0.46999998093E+01 0. -1.
</event>
<event>
 5   0  0.8058234E-04  0.1507955E+04  0.7818609E-02  0.8879180E-01
       -1   -1    0    0    0  501  0.00000000000E+00  0.00000000000E+00  0.53397713005E+03  0.53397713007E+03  0.50400001928E-02 0.  1.
        1   -1    0    0  501    0  0.00000000000E+00  0.00000000000E+00 -0.10646181199E+04  0.10646181199E+04  0.50400001928E-02 0. -1.
    10030    2    1    2    0    0  0.00000000000E+00  0.00000000000E+00 -0.53064098984E+03  0.15985952500E+04  0.15079545461E+04 0.  0.
        5    1    3    3  502    0  0.72888569278E+03 -0.17051654045E+03 -0.36078556230E+03  0.83098649548E+03  0.46999998093E+01 0. -1.
       -5    1    3    3    0  502 -0.72888569278E+03  0.17051654045E+03 -0.16985542753E+03  0.76760875449E+03  0.46999998093E+01 0.  1.
</event>
<event>
 5   0  0.5603875E-04  0.1511368E+04  0.7818609E-02  0.8876928E-01
        3   -1    0    0  501    0  0.00000000000E+00  0.00000000000E+00  0.62964721204E+03  0.62964722014E+03  0.10100000352E+00 0.  1.
       -3   -1    0    0    0  501  0.00000000000E+00  0.00000000000E+00 -0.90695007964E+03  0.90695008526E+03  0.10100000352E+00 0. -1.
    10030    2    1    2    0    0  0.00000000000E+00  0.00000000000E+00 -0.27730286760E+03  0.15365973054E+04  0.15113683861E+04 0.  0.
        2    1    3    3  502    0  0.56521423385E+03 -0.42503941685E+03  0.13212682188E+03  0.71943250767E+03  0.25500000920E-02 0.  1.
       -2    1    3    3    0  502 -0.56521423385E+03  0.42503941685E+03 -0.40942968948E+03  0.81716479773E+03  0.25500000920E-02 0. -1.
</event>
<event>
 5   0  0.1526126E-03  0.1420342E+04  0.7818609E-02  0.8939224E-01
       -2   -1    0    0    0  501  0.00000000000E+00  0.00000000000E+00  0.70523098122E+03  0.70523098122E+03  0.25500000920E-02 0.  1.
        2   -1    0    0  501    0  0.00000000000E+00  0.00000000000E+00 -0.71514521107E+03  0.71514521108E+03  0.25500000920E-02 0. -1.
    10030    2    1    2    0    0  0.00000000000E+00  0.00000000000E+00 -0.99142298583E+01  0.14203761923E+04  0.14203415912E+04 0.  0.
        2    1    3    3  502    0  0.61660271966E+03 -0.35205333515E+03 -0.19173446282E+02  0.71028732618E+03  0.25500000920E-02 0.  1.
       -2    1    3    3    0  502 -0.61660271966E+03  0.35205333515E+03  0.92592164238E+01  0.71008886612E+03  0.25500000920E-02 0. -1.
</event>
<event>
 5   0  0.8365016E-04  0.1476526E+04  0.7818609E-02  0.8900214E-01
       -1   -1    0    0    0  501  0.00000000000E+00  0.00000000000E+00  0.87224382291E+03  0.87224382292E+03  0.50400001928E-02 0. -1.
        1   -1    0    0  501    0  0.00000000000E+00  0.00000000000E+00 -0.62486263244E+03  0.62486263246E+03  0.50400001928E-02 0.  1.
    10030    2    1    2    0    0  0.00000000000E+00  0.00000000000E+00  0.24738119047E+03  0.14971064554E+04  0.14765264255E+04 0.  0.
        3    1    3    3  502    0  0.54968998980E+03  0.28036787452E+03 -0.28725758313E+03  0.68064833741E+03  0.10100000352E+00 0.  1.
       -3    1    3    3    0  502 -0.54968998980E+03 -0.28036787452E+03  0.53463877360E+03  0.81645811797E+03  0.10100000352E+00 0. -1.
</event>
<event>
 5   0  0.1552067E-03  0.1468027E+04  0.7818609E-02  0.8905997E-01
        2   -1    0    0  501    0  0.00000000000E+00  0.00000000000E+00  0.89087006929E+03  0.89087006930E+03  0.25500000920E-02 0.  1.
       -2   -1    0    0    0  501  0.00000000000E+00  0.00000000000E+00 -0.60477509292E+03  0.60477509293E+03  0.25500000920E-02 0. -1.
    10030    2    1    2    0    0  0.00000000000E+00  0.00000000000E+00  0.28609497637E+03  0.14956451622E+04  0.14680272871E+04 0.  0.
        3    1    3    3  502    0 -0.50461054891E+03  0.53303236669E+03  0.14768378558E+03  0.74870943678E+03  0.10100000352E+00 0. -1.
       -3    1    3    3    0  502  0.50461054891E+03 -0.53303236669E+03  0.13841119079E+03  0.74693572544E+03  0.10100000352E+00 0.  1.
</event>
<event>
 5   0  0.1500956E-03  0.1475104E+04  0.7818609E-02  0.8901179E-01
        2   -1    0    0  501    0  0.00000000000E+00  0.00000000000E+00  0.21051334554E+04  0.21051334554E+04  0.25500000920E-02 0.  1.
       -2   -1    0    0    0  501  0.00000000000E+00  0.00000000000E+00 -0.25840786150E+03  0.25840786151E+03  0.25500000920E-02 0. -1.
    10030    2    1    2    0    0  0.00000000000E+00  0.00000000000E+00  0.18467255939E+04  0.23635413169E+04  0.14751041107E+04 0.  0.
        4    1    3    3  502    0  0.41869065769E+03 -0.53232375563E+02  0.18925096791E+04  0.19390023340E+04  0.12699999809E+01 0.  1.
       -4    1    3    3    0  502 -0.41869065769E+03  0.53232375563E+02 -0.45784085261E+02  0.42453898291E+03  0.12699999809E+01 0. -1.
</event>
<event>
 5   0  0.1500956E-03  0.1507999E+04  0.7818609E-02  0.8879151E-01
       -2   -1    0    0    0  501  0.00000000000E+00  0.00000000000E+00  0.23783188681E+03  0.23783188682E+03  0.25500000920E-02 0.  1.
        2   -1    0    0  501    0  0.00000000000E+00  0.00000000000E+00 -0.23904067024E+04  0.23904067024E+04  0.25500000920E-02 0. -1.
    10030    2    1    2    0    0  0.00000000000E+00  0.00000000000E+00 -0.21525748156E+04  0.26282385893E+04  0.15079985893E+04 0.  0.
        4    1    3    3  502    0 -0.44279228003E+03  0.44560759593E+03 -0.18030480562E+04  0.19093493758E+04  0.12699999809E+01 0. -1.
       -4    1    3    3    0  502  0.44279228003E+03 -0.44560759593E+03 -0.34952675937E+03  0.71888921346E+03  0.12699999809E+01 0.  1.
</event>
<event>
 5   0  0.8191876E-04  0.1492707E+04  0.7818609E-02  0.8889317E-01
       -1   -1    0    0    0  501  0.00000000000E+00  0.00000000000E+00  0.57946978970E+03  0.57946978972E+03  0.50400001928E-02 0. -1.
        1   -1    0    0  501    0  0.00000000000E+00  0.00000000000E+00 -0.96129928401E+03  0.96129928403E+03  0.50400001928E-02 0.  1.
    10030    2    1    2    0    0  0.00000000000E+00  0.00000000000E+00 -0.38182949431E+03  0.15407690738E+04  0.14927074649E+04 0.  0.
        2    1    3    3  502    0  0.35343660491E+03  0.60859220667E+03 -0.44739453538E+03  0.83394470920E+03  0.25500000920E-02 0. -1.
       -2    1    3    3    0  502 -0.35343660491E+03 -0.60859220667E+03  0.65565041072E+02  0.70682436455E+03  0.25500000920E-02 0.  1.
</event>
<event>
 5   0  0.1511546E-03  0.1494057E+04  0.7818609E-02  0.8888415E-01
        2   -1    0    0  501    0  0.00000000000E+00  0.00000000000E+00  0.18305590015E+04  0.18305590015E+04  0.25500000920E-02 0. -1.
       -2   -1    0    0    0  501  0.00000000000E+00  0.00000000000E+00 -0.30485308754E+03  0.30485308755E+03  0.25500000920E-02 0.  1.
    10030    2    1    2    0    0  0.00000000000E+00  0.00000000000E+00  0.15257059139E+04  0.21354120890E+04  0.14940569782E+04 0.  0.
        1    1    3    3  502    0 -0.24989404847E+03  0.69759664496E+03  0.89816987956E+03  0.11643870693E+04  0.50400001928E-02 0. -1.
       -1    1    3    3    0  502  0.24989404847E+03 -0.69759664496E+03  0.62753603435E+03  0.97102501974E+03  0.50400001928E-02 0.  1.
</event>
<event>
 5   0  0.7870317E-04  0.1018128E+04  0.7818609E-02  0.9288883E-01
        1   -1    0    0  501    0  0.00000000000E+00  0.00000000000E+00  0.14287776606E+04  0.14287776606E+04  0.50400001928E-02 0. -1.
       -1   -1    0    0    0  501  0.00000000000E+00  0.00000000000E+00 -0.18137603745E+03  0.18137603752E+03  0.50400001928E-02 0.  1.
    10030    2    1    2    0    0  0.00000000000E+00  0.00000000000E+00  0.12474016231E+04  0.16101536981E+04  0.10181277533E+04 0.  0.
        1    1    3    3  502    0 -0.48714765587E+03  0.42103288049E+02  0.39970701611E+03  0.63154669205E+03  0.50400001928E-02 0.  1.
       -1    1    3    3    0  502  0.48714765587E+03 -0.42103288049E+02  0.84769460702E+03  0.97860700605E+03  0.50400001928E-02 0. -1.
</event>
<event>
 5   0  0.8058234E-04  0.1516883E+04  0.7818609E-02  0.8873303E-01
        1   -1    0    0  501    0  0.00000000000E+00  0.00000000000E+00  0.10055584944E+04  0.10055584944E+04  0.50400001928E-02 0.  1.
       -1   -1    0    0    0  501  0.00000000000E+00  0.00000000000E+00 -0.57205341764E+03  0.57205341767E+03  0.50400001928E-02 0. -1.
    10030    2    1    2    0    0  0.00000000000E+00  0.00000000000E+00  0.43350507678E+03  0.15776119121E+04  0.15168825576E+04 0.  0.
        5    1    3    3  502    0  0.53322502508E+03 -0.30830235509E+03 -0.24349327074E+03  0.66233702329E+03  0.46999998093E+01 0. -1.
       -5    1    3    3    0  502 -0.53322502508E+03  0.30830235509E+03  0.67699834752E+03  0.91527488881E+03  0.46999998093E+01 0.  1.
</event>
<event>
 5   0  0.1511546E-03  0.1478790E+04  0.7818609E-02  0.8898681E-01
        2   -1    0    0  501    0  0.00000000000E+00  0.00000000000E+00  0.13582129440E+04  0.13582129440E+04  0.25500000920E-02 0. -1.
       -2   -1    0    0    0  501  0.00000000000E+00  0.00000000000E+00 -0.40251806584E+03  0.40251806585E+03  0.25500000920E-02 0.  1.
    10030    2    1    2    0    0  0.00000000000E+00  0.00000000000E+00  0.95569487815E+03  0.17607310098E+04  0.14787903803E+04 0.  0.
        1    1    3    3  502    0  0.30821683789E+03 -0.24257195128E+03 -0.26844472594E+03  0.47529079690E+03  0.50400001928E-02 0.  1.
       -1    1    3    3    0  502 -0.30821683789E+03  0.24257195128E+03  0.12241396041E+04  0.12854402129E+04  0.50400001928E-02 0. -1.
</event>
<event>
 5   0  0.8058234E-04  0.1469520E+04  0.7818609E-02  0.8904979E-01
       -1   -1    0    0    0  501  0.00000000000E+00  0.00000000000E+00  0.50452470901E+03  0.50452470903E+03  0.50400001928E-02 0.  1.
        1   -1    0    0  501    0  0.00000000000E+00  0.00000000000E+00 -0.10700606339E+04  0.10700606339E+04  0.50400001928E-02 0. -1.
    10030    2    1    2    0    0  0.00000000000E+00  0.00000000000E+00 -0.56553592488E+03  0.15745853429E+04  0.14695196902E+04 0.  0.
        5    1    3    3  502    0  0.62556077011E+03 -0.24157140268E+03  0.38978968535E+02  0.67173243905E+03  0.46999998093E+01 0.  1.
       -5    1    3    3    0  502 -0.62556077011E+03  0.24157140268E+03 -0.60451489341E+03  0.90285290388E+03  0.46999998093E+01 0. -1.
</event>
<event>
 5   0  0.8365016E-04  0.1496839E+04  0.7818609E-02  0.8886558E-01
       -1   -1    0    0    0  501  0.00000000000E+00  0.00000000000E+00  0.95695513838E+03  0.95695513839E+03  0.50400001928E-02 0.  1.
        1   -1    0    0  501    0  0.00000000000E+00  0.00000000000E+00 -0.58532707487E+03  0.58532707489E+03  0.50400001928E-02 0. -1.
    10030    2    1    2    0    0  0.00000000000E+00  0.00000000000E+00  0.37162806351E+03  0.15422822133E+04  0.14968390053E+04 0.  0.
        3    1    3    3  502    0  0.53664710902E+03 -0.49398445994E+03  0.13029862541E+02  0.72950706220E+03  0.10100000352E+00 0. -1.
       -3    1    3    3    0  502 -0.53664710902E+03  0.49398445994E+03  0.35859820097E+03  0.81277515108E+03  0.10100000352E+00 0.  1.
</event>
<event>
 5   0  0.8306301E-04  0.1469671E+04  0.7818609E-02  0.8904875E-01
        1   -1    0    0  501    0  0.00000000000E+00  0.00000000000E+00  0.11180790846E+04  0.11180790846E+04  0.50400001928E-02 0.  1.
       -1   -1    0    0    0  501  0.00000000000E+00  0.00000000000E+00 -0.48295641801E+03  0.48295641804E+03  0.50400001928E-02 0. -1.
    10030    2    1    2    0    0  0.00000000000E+00  0.00000000000E+00  0.63512266662E+03  0.16010355027E+04  0.14696713507E+04 0.  0.
        4    1    3    3  502    0  0.54156543648E+03  0.24340327397E+03  0.78920718675E+03  0.98761727015E+03  0.12699999809E+01 0.  1.
       -4    1    3    3    0  502 -0.54156543648E+03 -0.24340327397E+03 -0.15408452014E+03  0.61341823254E+03  0.12699999809E+01 0. -1.
</event>
<event>
 5   0  0.1484056E-03  0.1510977E+04  0.7818609E-02  0.8877186E-01
       -2   -1    0    0    0  501  0.00000000000E+00  0.00000000000E+00  0.33911482862E+03  0.33911482863E+03  0.25500000920E-02 0.  1.
        2   -1    0    0  501    0  0.00000000000E+00  0.00000000000E+00 -0.16830961814E+04  0.16830961814E+04  0.25500000920E-02 0. -1.
    10030    2    1    2    0    0  0.00000000000E+00  0.00000000000E+00 -0.13439813528E+04  0.20222110100E+04  0.15109769993E+04 0.  0.
        5    1    3    3  502    0 -0.51040330770E+03  0.48908953003E+03 -0.31532524004E+03  0.77406214343E+03  0.46999998093E+01 0.  1.
       -5    1    3    3    0  502  0.51040330770E+03 -0.48908953003E+03 -0.10286561127E+04  0.12481488666E+04  0.46999998093E+01 0. -1.
</event>
<event>
 5   0  0.1511546E-03  0.1473154E+04  0.7818609E-02  0.8902504E-01
       -2   -1    0    0    0  501  0.00000000000E+00  0.00000000000E+00  0.48169000545E+03  0.48169000546E+03  0.25500000920E-02 0. -1.
        2   -1    0    0  501    0  0.00000000000E+00  0.00000000000E+00 -0.11263370742E+04  0.11263370742E+04  0.25500000920E-02 0.  1.
    10030    2    1    2    0    0  0.00000000000E+00  0.00000000000E+00 -0.64464706874E+03  0.16080270796E+04  0.14731535038E+04 0.  0.
        1    1    3    3  502    0 -0.68635548607E+02  0.11147318823E+03  0.46889012971E+03  0.48682138818E+03  0.50400001928E-02 0. -1.
       -1    1    3    3    0  502  0.68635548607E+02 -0.11147318823E+03 -0.11135371984E+04  0.11212056915E+04  0.50400001928E-02 0.  1.
</event>
<event>
 5   0  0.8191876E-04  0.1549463E+04  0.7818609E-02  0.8852211E-01
        1   -1    0    0  501    0  0.00000000000E+00  0.00000000000E+00  0.83198909045E+03  0.83198909047E+03  0.50400001928E-02 0. -1.
       -1   -1    0    0    0  501  0.00000000000E+00  0.00000000000E+00 -0.72141451505E+03  0.72141451506E+03  0.50400001928E-02 0.  1.
    10030    2    1    2    0    0  0.00000000000E+00  0.00000000000E+00  0.11057457540E+03  0.15534036055E+04  0.15494631409E+04 0.  0.
        2    1    3    3  502    0  0.23417929513E+03  0.99829430909E+02 -0.67828601886E+03  0.72448449323E+03  0.25500000920E-02 0.  1.
       -2    1    3    3    0  502 -0.23417929513E+03 -0.99829430909E+02  0.78886059427E+03  0.82891911230E+03  0.25500000920E-02 0. -1.
</event>
<event>
 5   0  0.8058234E-04  0.1560943E+04  0.7818609E-02  0.8844908E-01
        1   -1    0    0  501    0  0.00000000000E+00  0.00000000000E+00  0.10387338495E+04  0.10387338495E+04  0.50400001928E-02 0. -1.
       -1   -1    0    0    0  501  0.00000000000E+00  0.00000000000E+00 -0.58642119276E+03  0.58642119279E+03  0.50400001928E-02 0.  1.
    10030    2    1    2    0    0  0.00000000000E+00  0.00000000000E+00  0.45231265676E+03  0.16251550423E+04  0.15609427190E+04 0.  0.
        5    1    3    3  502    0  0.33472007568E+03 -0.58779968630E+03  0.63148825155E+03  0.92538937865E+03  0.46999998093E+01 0. -1.
       -5    1    3    3    0  502 -0.33472007568E+03  0.58779968630E+03 -0.17917559479E+03  0.69976566367E+03  0.46999998093E+01 0.  1.
</event>
<event>
 5   0  0.1552067E-03  0.1494993E+04  0.7818609E-02  0.8887789E-01
        2   -1    0    0  501    0  0.00000000000E+00  0.00000000000E+00  0.72032369819E+03  0.72032369819E+03  0.25500000920E-02 0.  1.
       -2   -1    0    0    0  501  0.00000000000E+00  0.00000000000E+00 -0.77569438272E+03  0.77569438273E+03  0.25500000920E-02 0. -1.
    10030    2    1    2    0    0  0.00000000000E+00  0.00000000000E+00 -0.55370684534E+02  0.14960180809E+04  0.14949930387E+04 0.  0.
        3    1    3    3  502    0 -0.67871032198E+03 -0.25807121217E+03 -0.20529671252E+03  0.75458280001E+03  0.10100000352E+00 0.  1.
       -3    1    3    3    0  502  0.67871032198E+03  0.25807121217E+03  0.14992602798E+03  0.74143528091E+03  0.10100000352E+00 0. -1.
</event>
<event>
 5   0  0.1511546E-03  0.1518483E+04  0.7818609E-02  0.8872254E-01
        2   -1    0    0  501    0  0.00000000000E+00  0.00000000000E+00  0.99055526123E+03  0.99055526123E+03  0.25500000920E-02 0. -1.
       -2   -1    0    0    0  501  0.00000000000E+00  0.00000000000E+00 -0.58194401773E+03  0.58194401773E+03  0.25500000920E-02 0.  1.
    10030    2    1    2    0    0  0.00000000000E+00  0.00000000000E+00  0.40861124350E+03  0.15724992790E+04  0.15184830701E+04 0.  0.
        1    1    3    3  502    0 -0.52908954873E+03  0.45888861873E+03 -0.99265864283E+02  0.70736710894E+03  0.50400001928E-02 0.  1.
       -1    1    3    3    0  502  0.52908954873E+03 -0.45888861873E+03  0.50787710778E+03  0.86513217002E+03  0.50400001928E-02 0. -1.
</event>
<event>
 5   0  0.5603875E-04  0.1176358E+04  0.7818609E-02  0.9133805E-01
       -3   -1    0    0    0  501  0.00000000000E+00  0.00000000000E+00  0.42807492559E+03  0.42807493751E+03  0.10100000352E+00 0.  1.
        3   -1    0    0  501    0  0.00000000000E+00  0.00000000000E+00 -0.80816406823E+03  0.80816407454E+03  0.10100000352E+00 0. -1.
    10030    2    1    2    0    0  0.00000000000E+00  0.00000000000E+00 -0.38008914264E+03  0.12362390120E+04  0.11763584227E+04 0.  0.
        4    1    3    3  502    0  0.44690152379E+03  0.36690946564E+03 -0.30327736585E+03  0.65293361185E+03  0.12699999809E+01 0.  1.
       -4    1    3    3    0  502 -0.44690152379E+03 -0.36690946564E+03 -0.76811776789E+02  0.58330540020E+03  0.12699999809E+01 0. -1.
</event>
<event>
 5   0  0.8191876E-04  0.1519235E+04  0.7818609E-02  0.8871762E-01
       -1   -1    0    0    0  501  0.00000000000E+00  0.00000000000E+00  0.93485118635E+03  0.93485118636E+03  0.50400001928E-02 0. -1.
        1   -1    0    0  501    0  0.00000000000E+00  0.00000000000E+00 -0.61723039981E+03  0.61723039983E+03  0.50400001928E-02 0.  1.
    10030    2    1    2    0    0  0.00000000000E+00  0.00000000000E+00  0.31762078654E+03  0.15520815862E+04  0.15192347699E+04 0.  0.
        2    1    3    3  502    0 -0.36913687428E+03 -0.63057770688E+03  0.37097395652E+03  0.81945832890E+03  0.25500000920E-02 0. -1.
       -2    1    3    3    0  502  0.36913687428E+03  0.63057770688E+03 -0.53353169983E+02  0.73262325729E+03  0.25500000920E-02 0.  1.
</event>
<event>
 5   0  0.8058234E-04  0.1451390E+04  0.7818609E-02  0.8917437E-01
       -1   -1    0    0    0  501  0.00000000000E+00  0.00000000000E+00  0.41107390791E+03  0.41107390794E+03  0.50400001928E-02 0. -1.
        1   -1    0    0  501    0  0.00000000000E+00  0.00000000000E+00 -0.12811156694E+04  0.12811156694E+04  0.50400001928E-02 0.  1.
    10030    2    1    2    0    0  0.00000000000E+00  0.00000000000E+00 -0.87004176145E+03  0.16921895773E+04  0.14513899886E+04 0.  0.
        5    1    3    3  502    0  0.62926640599E+02 -0.14464429270E+03  0.39082625786E+03  0.42148426701E+03  0.46999998093E+01 0. -1.
       -5    1    3    3    0  502 -0.62926640599E+02  0.14464429270E+03 -0.12608680193E+04  0.12707053103E+04  0.46999998093E+01 0.  1.
</event>
<event>
 5   0  0.8191876E-04  0.1515074E+04  0.7818609E-02  0.8874490E-01
        1   -1    0    0  501    0  0.00000000000E+00  0.00000000000E+00  0.18708142235E+04  0.18708142235E+04  0.50400001928E-02 0. -1.
       -1   -1    0    0    0  501  0.00000000000E+00  0.00000000000E+00 -0.30674481143E+03  0.30674481148E+03  0.50400001928E-02 0.  1.
    10030    2    1    2    0    0  0.00000000000E+00  0.00000000000E+00  0.15640694121E+04  0.21775590350E+04  0.15150743299E+04 0.  0.
        2    1    3    3  502    0 -0.12185672150E+03 -0.74239401277E+03  0.90949503095E+03  0.11803300988E+04  0.25500000920E-02 0. -1.
       -2    1    3    3    0  502  0.12185672150E+03  0.74239401277E+03  0.65457438112E+03  0.99722893620E+03  0.25500000920E-02 0.  1.
</event>
<event>
 5   0  0.8058234E-04  0.1508336E+04  0.7818609E-02  0.8878928E-01
        1   -1    0    0  501    0  0.00000000000E+00  0.00000000000E+00  0.30008373763E+03  0.30008373767E+03  0.50400001928E-02 0. -1.
       -1   -1    0    0    0  501  0.00000000000E+00  0.00000000000E+00 -0.18953700900E+04  0.18953700900E+04  0.50400001928E-02 0.  1.
    10030    2    1    2    0    0  0.00000000000E+00  0.00000000000E+00 -0.15952863524E+04  0.21954538277E+04  0.15083364888E+04 0.  0.
        5    1    3    3  502    0  0.31315276654E+03 -0.65586377541E+03 -0.50462716412E+03  0.88481219016E+03  0.46999998093E+01 0.  1.
       -5    1    3    3    0  502 -0.31315276654E+03  0.65586377541E+03 -0.10906591882E+04  0.13106416375E+04  0.46999998093E+01 0. -1.
</event>
<event>
 5   0  0.8191876E-04  0.1502616E+04  0.7818609E-02  0.8882715E-01
       -1   -1    0    0    0  501  0.00000000000E+00  0.00000000000E+00  0.46135478248E+03  0.46135478251E+03  0.50400001928E-02 0. -1.
        1   -1    0    0  501    0  0.00000000000E+00  0.00000000000E+00 -0.12234917194E+04  0.12234917194E+04  0.50400001928E-02 0.  1.
    10030    2    1    2    0    0  0.00000000000E+00  0.00000000000E+00 -0.76213693693E+03  0.16848465019E+04  0.15026160602E+04 0.  0.
        2    1    3    3  502    0 -0.16449207565E+03 -0.62522445220E+03 -0.81024094676E+03  0.10365585610E+04  0.25500000920E-02 0.  1.
       -2    1    3    3    0  502  0.16449207565E+03  0.62522445220E+03  0.48104009827E+02  0.64828794092E+03  0.25500000920E-02 0. -1.
</event>
<event>
 5   0  0.1552067E-03  0.1493244E+04  0.7818609E-02  0.8888958E-01
       -2   -1    0    0    0  501  0.00000000000E+00  0.00000000000E+00  0.10200535950E+04  0.10200535950E+04  0.25500000920E-02 0.  1.
        2   -1    0    0  501    0  0.00000000000E+00  0.00000000000E+00 -0.54648537826E+03  0.54648537826E+03  0.25500000920E-02 0. -1.
    10030    2    1    2    0    0  0.00000000000E+00  0.00000000000E+00  0.47356821678E+03  0.15665389733E+04  0.14932439516E+04 0.  0.
        3    1    3    3  502    0 -0.24290354262E+03 -0.94398548422E+02  0.97079178956E+03  0.10051616417E+04  0.10100000352E+00 0.  1.
       -3    1    3    3    0  502  0.24290354262E+03  0.94398548422E+02 -0.49722357278E+03  0.56137733165E+03  0.10100000352E+00 0. -1.
</event>
<event>
 5   0  0.1526126E-03  0.1510603E+04  0.7818609E-02  0.8877432E-01
       -2   -1    0    0    0  501  0.00000000000E+00  0.00000000000E+00  0.35139173845E+03  0.35139173846E+03  0.25500000920E-02 0.  1.
        2   -1    0    0  501    0  0.00000000000E+00  0.00000000000E+00 -0.16234884321E+04  0.16234884321E+04  0.25500000920E-02 0. -1.
    10030    2    1    2    0    0  0.00000000000E+00  0.00000000000E+00 -0.12720966936E+04  0.19748801705E+04  0.15106030882E+04 0.  0.
        2    1    3    3  502    0 -0.11274833896E+03  0.15885838667E+03  0.31798452042E+03  0.37291061957E+03  0.25500000920E-02 0.  1.
       -2    1    3    3    0  502  0.11274833896E+03 -0.15885838667E+03 -0.15900812141E+04  0.16019695510E+04  0.25500000920E-02 0. -1.
</event>
<event>
 5   0  0.1511546E-03  0.1479276E+04  0.7818609E-02  0.8898352E-01
        2   -1    0    0  501    0  0.00000000000E+00  0.00000000000E+00  0.11269070530E+04  0.11269070530E+04  0.25500000920E-02 0. -1.
       -2   -1    0    0    0  501  0.00000000000E+00  0.00000000000E+00 -0.48545682712E+03  0.48545682713E+03  0.25500000920E-02 0.  1.
    10030    2    1    2    0    0  0.00000000000E+00  0.00000000000E+00  0.64145022592E+03  0.16123638802E+04  0.14792764751E+04 0.  0.
        1    1    3    3  502    0 -0.59807287599E+03  0.32886053532E+03  0.63136463821E+03  0.92976433740E+03  0.50400001928E-02 0. -1.
       -1    1    3    3    0  502  0.59807287599E+03 -0.32886053532E+03  0.10085587712E+02  0.68259954277E+03  0.50400001928E-02 0.  1.
</event>
<event>
 5   0  0.8191876E-04  0.1496678E+04  0.7818609E-02  0.8886665E-01
        1   -1    0    0  501    0  0.00000000000E+00  0.00000000000E+00  0.41220874939E+03  0.41220874942E+03  0.50400001928E-02 0. -1.
       -1   -1    0    0    0  501  0.00000000000E+00  0.00000000000E+00 -0.13585626489E+04  0.13585626489E+04  0.50400001928E-02 0.  1.
    10030    2    1    2    0    0  0.00000000000E+00  0.00000000000E+00 -0.94635389951E+03  0.17707713983E+04  0.14966782026E+04 0.  0.
        2    1    3    3  502    0  0.74043242334E+03  0.79318106754E+01 -0.60119800968E+03  0.95380403334E+03  0.25500000920E-02 0.  1.
       -2    1    3    3    0  502 -0.74043242334E+03 -0.79318106754E+01 -0.34515588983E+03  0.81696736498E+03  0.25500000920E-02 0. -1.
</event>
<event>
 5   0  0.1500956E-03  0.1498680E+04  0.7818609E-02  0.8885331E-01
        2   -1    0    0  501    0  0.00000000000E+00  0.00000000000E+00  0.17457053859E+04  0.17457053859E+04  0.25500000920E-02 0. -1.
       -2   -1    0    0    0  501  0.00000000000E+00  0.00000000000E+00 -0.32165251670E+03  0.32165251671E+03  0.25500000920E-02 0.  1.
    10030    2    1    2    0    0  0.00000000000E+00  0.00000000000E+00  0.14240528692E+04  0.20673579026E+04  0.14986801270E+04 0.  0.
        4    1    3    3  502    0  0.56460231505E+03 -0.45469575559E+03  0.45034859103E+03  0.85342806999E+03  0.12699999809E+01 0.  1.
       -4    1    3    3    0  502 -0.56460231505E+03  0.45469575559E+03  0.97370427812E+03  0.12139298326E+04  0.12699999809E+01 0. -1.
</event>
<event>
 5   0  0.7870317E-04  0.1479716E+04  0.7818609E-02  0.8898055E-01
       -1   -1    0    0    0  501  0.00000000000E+00  0.00000000000E+00  0.29672241530E+03  0.29672241534E+03  0.50400001928E-02 0.  1.
        1   -1    0    0  501    0  0.00000000000E+00  0.00000000000E+00 -0.18447864597E+04  0.18447864597E+04  0.50400001928E-02 0. -1.
    10030    2    1    2    0    0  0.00000000000E+00  0.00000000000E+00 -0.15480640444E+04  0.21415088750E+04  0.14797155052E+04 0.  0.
        1    1    3    3  502    0 -0.51224450287E+03 -0.11824180621E+03 -0.15274525829E+04  0.16153906489E+04  0.50400001928E-02 0. -1.
       -1    1    3    3    0  502  0.51224450287E+03  0.11824180621E+03 -0.20611461423E+02  0.52611822609E+03  0.50400001928E-02 0.  1.
</event>
<event>
 5   0  0.8306301E-04  0.1493077E+04  0.7818609E-02  0.8889070E-01
       -1   -1    0    0    0  501  0.00000000000E+00  0.00000000000E+00  0.55170167113E+03  0.55170167116E+03  0.50400001928E-02 0. -1.
        1   -1    0    0  501    0  0.00000000000E+00  0.00000000000E+00 -0.10101828769E+04  0.10101828769E+04  0.50400001928E-02 0.  1.
    10030    2    1    2    0    0  0.00000000000E+00  0.00000000000E+00 -0.45848120573E+03  0.15618845480E+04  0.14930767982E+04 0.  0.
        4    1    3    3  502    0  0.56654941021E+03 -0.91740732577E+02  0.27017397193E+03  0.63434232417E+03  0.12699999809E+01 0. -1.
       -4    1    3    3    0  502 -0.56654941021E+03  0.91740732577E+02 -0.72865517766E+03  0.92754222386E+03  0.12699999809E+01 0.  1.
</event>
<event>
 5   0  0.1552067E-03  0.1517822E+04  0.7818609E-02  0.8872687E-01
        2   -1    0    0  501    0  0.00000000000E+00  0.00000000000E+00  0.57036165315E+03  0.57036165315E+03  0.25500000920E-02 0.  1.
       -2   -1    0    0    0  501  0.00000000000E+00  0.00000000000E+00 -0.10097902493E+04  0.10097902493E+04  0.25500000920E-02 0. -1.
    10030    2    1    2    0    0  0.00000000000E+00  0.00000000000E+00 -0.43942859611E+03  0.15801519024E+04  0.15178216442E+04 0.  0.
        3    1    3    3  502    0  0.10892622549E+03  0.46827858796E+03  0.39159235523E+03  0.62007607712E+03  0.10100000352E+00 0.  1.
       -3    1    3    3    0  502 -0.10892622549E+03 -0.46827858796E+03 -0.83102095134E+03  0.96007582529E+03  0.10100000352E+00 0. -1.
</event>
<event>
 5   0  0.8058234E-04  0.1511164E+04  0.7818609E-02  0.8877063E-01
        1   -1    0    0  501    0  0.00000000000E+00  0.00000000000E+00  0.97392958275E+03  0.97392958277E+03  0.50400001928E-02 0.  1.
       -1   -1    0    0    0  501  0.00000000000E+00  0.00000000000E+00 -0.58618604832E+03  0.58618604834E+03  0.50400001928E-02 0. -1.
    10030    2    1    2    0    0  0.00000000000E+00  0.00000000000E+00  0.38774353443E+03  0.15601156311E+04  0.15111637019E+04 0.  0.
        5    1    3    3  502    0 -0.24521249470E+03 -0.69087446950E+03  0.38267603438E+03  0.82698230782E+03  0.46999998093E+01 0.  1.
       -5    1    3    3    0  502  0.24521249470E+03  0.69087446950E+03  0.50675000581E+01  0.73313332329E+03  0.46999998093E+01 0. -1.
</event>
<event>
 5   0  0.1552067E-03  0.1492999E+04  0.7818609E-02  0.8889122E-01
        2   -1    0    0  501    0  0.00000000000E+00  0.00000000000E+00  0.12293930202E+04  0.12293930203E+04  0.25500000920E-02 0. -1.
       -2   -1    0    0    0  501  0.00000000000E+00  0.00000000000E+00 -0.45328196395E+03  0.45328196396E+03  0.25500000920E-02 0.  1.
    10030    2    1    2    0    0  0.00000000000E+00  0.00000000000E+00  0.77611105630E+03  0.16826749842E+04  0.14929992400E+04 0.  0.
        3    1    3    3  502    0 -0.52380664370E+03  0.45930187596E+03  0.85784961191E+02  0.70191928525E+03  0.10100000352E+00 0.  1.
       -3    1    3    3    0  502  0.52380664370E+03 -0.45930187596E+03  0.69032609511E+03  0.98075569895E+03  0.10100000352E+00 0. -1.
</event>
<event>
 5   0  0.8306301E-04  0.1572978E+04  0.7818609E-02  0.8837323E-01
       -1   -1    0    0    0  501  0.00000000000E+00  0.00000000000E+00  0.70042260386E+03  0.70042260388E+03  0.50400001928E-02 0.  1.
        1   -1    0    0  501    0  0.00000000000E+00  0.00000000000E+00 -0.88313141155E+03  0.88313141157E+03  0.50400001928E-02 0. -1.
    10030    2    1    2    0    0  0.00000000000E+00  0.00000000000E+00 -0.18270880769E+03  0.15835540154E+04  0.15729783252E+04 0.  0.
        4    1    3    3  502    0  0.67449487662E+03 -0.16310476370E+03 -0.46400130089E+03  0.83477261734E+03  0.12699999809E+01 0. -1.
       -4    1    3    3    0  502 -0.67449487662E+03  0.16310476370E+03  0.28129249319E+03  0.74878139811E+03  0.12699999809E+01 0.  1.
</event>
<event>
 5   0  0.8058234E-04  0.1508602E+04  0.7818609E-02  0.8878753E-01
       -1   -1    0    0    0  501  0.00000000000E+00  0.00000000000E+00  0.17350076934E+04  0.17350076935E+04  0.50400001928E-02 0. -1.
        1   -1    0    0  501    0  0.00000000000E+00  0.00000000000E+00 -0.32793512243E+03  0.32793512247E+03  0.50400001928E-02 0.  1.
    10030    2    1    2    0    0  0.00000000000E+00  0.00000000000E+00  0.14070725710E+04  0.20629428159E+04  0.15086019494E+04 0.  0.
        5    1    3    3  502    0 -0.63010552993E+03  0.41408628802E+03  0.73246164626E+03  0.10512005451E+04  0.46999998093E+01 0.  1.
       -5    1    3    3    0  502  0.63010552993E+03 -0.41408628802E+03  0.67461092475E+03  0.10117422708E+04  0.46999998093E+01 0. -1.
</event>
<event>
 5   0  0.1484056E-03  0.1506153E+04  0.7818609E-02  0.8880372E-01
        2   -1    0    0  501    0  0.00000000000E+00  0.00000000000E+00  0.65401345346E+03  0.65401345347E+03  0.25500000920E-02 0.  1.
       -2   -1    0    0    0  501  0.00000000000E+00  0.00000000000E+00 -0.86714456835E+03  0.86714456836E+03  0.25500000920E-02 0. -1.
    10030    2    1    2    0    0  0.00000000000E+00  0.00000000000E+00 -0.21313111489E+03  0.15211580218E+04  0.15061529986E+04 0.  0.
        5    1    3    3  502    0 -0.49375623420E+03 -0.42963541033E+03 -0.48272786933E+03  0.81328352403E+03  0.46999998093E+01 0. -1.
       -5    1    3    3    0  502  0.49375623420E+03  0.42963541033E+03  0.26959675444E+03  0.70787449780E+03  0.46999998093E+01 0.  1.
</event>
<event>
 5   0  0.7870317E-04  0.1477736E+04  0.7818609E-02  0.8899395E-01
       -1   -1    0    0    0  501  0.00000000000E+00  0.00000000000E+00  0.39142306472E+03  0.39142306476E+03  0.50400001928E-02 0.  1.
        1   -1    0    0  501    0  0.00000000000E+00  0.00000000000E+00 -0.13947205184E+04  0.13947205184E+04  0.50400001928E-02 0. -1.
    10030    2    1    2    0    0  0.00000000000E+00  0.00000000000E+00 -0.10032974536E+04  0.17861435831E+04  0.14777358083E+04 0.  0.
        1    1    3    3  502    0 -0.52422612742E+03 -0.19771205237E+03 -0.10838656175E+04  0.12201097349E+04  0.50400001928E-02 0. -1.
       -1    1    3    3    0  502  0.52422612742E+03  0.19771205237E+03  0.80568163856E+02  0.56603384826E+03  0.50400001928E-02 0.  1.
</event>
<event>
 5   0  0.1484056E-03  0.1483807E+04  0.7818609E-02  0.8895293E-01
       -2   -1    0    0    0  501  0.00000000000E+00  0.00000000000E+00  0.41940249916E+03  0.41940249917E+03  0.25500000920E-02 0.  1.
        2   -1    0    0  501    0  0.00000000000E+00  0.00000000000E+00 -0.13123924161E+04  0.13123924161E+04  0.25500000920E-02 0. -1.
    10030    2    1    2    0    0  0.00000000000E+00  0.00000000000E+00 -0.89298991698E+03  0.17317949153E+04  0.14838068058E+04 0.  0.
        5    1    3    3  502    0 -0.24809954672E+03  0.58149500936E+03  0.65990490276E+01  0.63226218331E+03  0.46999998093E+01 0.  1.
       -5    1    3    3    0  502  0.24809954672E+03 -0.58149500936E+03 -0.89958896601E+03  0.10995327320E+04  0.46999998093E+01 0. -1.
</event>
<event>
 5   0  0.8191876E-04  0.1478693E+04  0.7818609E-02  0.8898747E-01
       -1   -1    0    0    0  501  0.00000000000E+00  0.00000000000E+00  0.11444920432E+04  0.11444920432E+04  0.50400001928E-02 0.  1.
        1   -1    0    0  501    0  0.00000000000E+00  0.00000000000E+00 -0.47762062042E+03  0.47762062045E+03  0.50400001928E-02 0. -1.
    10030    2    1    2    0    0  0.00000000000E+00  0.00000000000E+00  0.66687142275E+03  0.16221126636E+04  0.14786926655E+04 0.  0.
        2    1    3    3  502    0  0.81256194433E+02 -0.16922443820E+03  0.11179135990E+04  0.11335653022E+04  0.25500000920E-02 0.  1.
       -2    1    3    3    0  502 -0.81256194433E+02  0.16922443820E+03 -0.45104217622E+03  0.48854736142E+03  0.25500000920E-02 0. -1.
</event>
<event>
 5   0  0.8365016E-04  0.1520406E+04  0.7818609E-02  0.8870996E-01
       -1   -1    0    0    0  501  0.00000000000E+00  0.00000000000E+00  0.10057147052E+04  0.10057147052E+04  0.50400001928E-02 0. -1.
        1   -1    0    0  501    0  0.00000000000E+00  0.00000000000E+00 -0.57462465365E+03  0.57462465367E+03  0.50400001928E-02 0.  1.
    10030    2    1    2    0    0  0.00000000000E+00  0.00000000000E+00  0.43109005156E+03  0.15803393589E+04  0.15204058197E+04 0.  0.
        3    1    3    3  502    0 -0.23987199459E+03 -0.49189269477E+03 -0.33290162001E+03  0.64056264000E+03  0.10100000352E+00 0.  1.
       -3    1    3    3    0  502  0.23987199459E+03  0.49189269477E+03  0.76399167156E+03  0.93977671890E+03  0.10100000352E+00 0. -1.
</event>
<event>
 5   0  0.8058234E-04  0.1475813E+04  0.7818609E-02  0.8900698E-01
       -1   -1    0    0    0  501  0.00000000000E+00  0.00000000000E+00  0.84116276669E+03  0.84116276671E+03  0.50400001928E-02 0.  1.
        1   -1    0    0  501    0  0.00000000000E+00  0.00000000000E+00 -0.64732546085E+03  0.64732546086E+03  0.50400001928E-02 0. -1.
    10030    2    1    2    0    0  0.00000000000E+00  0.00000000000E+00  0.19383730584E+03  0.14884882276E+04  0.14758130988E+04 0.  0.
        5    1    3    3  502    0 -0.45860712508E+03  0.75112956761E+02  0.67500932884E+03  0.81952555510E+03  0.46999998093E+01 0.  1.
       -5    1    3    3    0  502  0.45860712508E+03 -0.75112956761E+02 -0.48117202300E+03  0.66896267247E+03  0.46999998093E+01 0. -1.
</event>
<event>
 5   0  0.1526126E-03  0.1539337E+04  0.7818609E-02  0.8858707E-01
       -2   -1    0    0    0  501  0.00000000000E+00  0.00000000000E+00  0.59174882961E+03  0.59174882962E+03  0.25500000920E-02 0.  1.
        2   -1    0    0  501    0  0.00000000000E+00  0.00000000000E+00 -0.10010833322E+04  0.10010833322E+04  0.25500000920E-02 0. -1.
    10030    2    1    2    0    0  0.00000000000E+00  0.00000000000E+00 -0.40933450263E+03  0.15928321619E+04  0.15393373772E+04 0.  0.
        2    1    3    3  502    0 -0.49791748358E+03 -0.11373476877E+02  0.40252906464E+03  0.64037553382E+03  0.25500000920E-02 0.  1.
       -2    1    3    3    0  502  0.49791748358E+03  0.11373476877E+02 -0.81186356727E+03  0.95245662804E+03  0.25500000920E-02 0. -1.
</event>
<event>
 5   0  0.1511546E-03  0.1471453E+04  0.7818609E-02  0.8903661E-01
       -2   -1    0    0    0  501  0.00000000000E+00  0.00000000000E+00  0.63937872902E+03  0.63937872902E+03  0.25500000920E-02 0.  1.
        2   -1    0    0  501    0  0.00000000000E+00  0.00000000000E+00 -0.84659303177E+03  0.84659303177E+03  0.25500000920E-02 0. -1.
    10030    2    1    2    0    0  0.00000000000E+00  0.00000000000E+00 -0.20721430275E+03  0.14859717608E+04  0.14714531276E+04 0.  0.
        1    1    3    3  502    0 -0.69941776269E+03 -0.13333547642E+03 -0.29071894237E+03  0.76907805814E+03  0.50400001928E-02 0.  1.
       -1    1    3    3    0  502  0.69941776269E+03  0.13333547642E+03  0.83504639621E+02  0.71689370265E+03  0.50400001928E-02 0. -1.
</event>
<event>
 5   0  0.7870317E-04  0.1449674E+04  0.7818609E-02  0.8918627E-01
       -1   -1    0    0    0  501  0.00000000000E+00  0.00000000000E+00  0.21479308814E+03  0.21479308820E+03  0.50400001928E-02 0. -1.
        1   -1    0    0  501    0  0.00000000000E+00  0.00000000000E+00 -0.24460215080E+04  0.24460215080E+04  0.50400001928E-02 0.  1.
    10030    2    1    2    0    0  0.00000000000E+00  0.00000000000E+00 -0.22312284198E+04  0.26608145962E+04  0.14496737749E+04 0.  0.
        1    1    3    3  502    0  0.57937238563E+03 -0.41527598101E+03 -0.87446267185E+03  0.11281894638E+04  0.50400001928E-02 0.  1.
       -1    1    3    3    0  502 -0.57937238563E+03  0.41527598101E+03 -0.13567657480E+04  0.15326251324E+04  0.50400001928E-02 0. -1.
</event>
<event>
 5   0  0.8365016E-04  0.1219801E+04  0.7818609E-02  0.9095699E-01
        1   -1    0    0  501    0  0.00000000000E+00  0.00000000000E+00  0.61074390907E+03  0.61074390909E+03  0.50400001928E-02 0. -1.
       -1   -1    0    0    0  501  0.00000000000E+00  0.00000000000E+00 -0.60905850198E+03  0.60905850200E+03  0.50400001928E-02 0.  1.
    10030    2    1    2    0    0  0.00000000000E+00  0.00000000000E+00  0.16854070858E+01  0.12198024111E+04  0.12198012467E+04 0.  0.
        3    1    3    3  502    0 -0.17140772602E+03  0.41112140622E+02  0.58471648645E+03  0.61070794687E+03  0.10100000352E+00 0. -1.
       -3    1    3    3    0  502  0.17140772602E+03 -0.41112140622E+02 -0.58303107936E+03  0.60909446422E+03  0.10100000352E+00 0.  1.
</event>
<event>
 5   0  0.8365016E-04  0.1511368E+04  0.7818609E-02  0.8876928E-01
        1   -1    0    0  501    0  0.00000000000E+00  0.00000000000E+00  0.15178010022E+04  0.15178010022E+04  0.50400001928E-02 0.  1.
       -1   -1    0    0    0  501  0.00000000000E+00  0.00000000000E+00 -0.37624073339E+03  0.37624073343E+03  0.50400001928E-02 0. -1.
    10030    2    1    2    0    0  0.00000000000E+00  0.00000000000E+00  0.11415602688E+04  0.18940417356E+04  0.15113683366E+04 0.  0.
        3    1    3    3  502    0  0.50967429658E+03 -0.33425002394E+03  0.11306205222E+04  0.12844429698E+04  0.10100000352E+00 0.  1.
       -3    1    3    3    0  502 -0.50967429658E+03  0.33425002394E+03  0.10939746590E+02  0.60959876588E+03  0.10100000352E+00 0. -1.
</event>
<event>
 5   0  0.8191876E-04  0.1453067E+04  0.7818609E-02  0.8916277E-01
        1   -1    0    0  501    0  0.00000000000E+00  0.00000000000E+00  0.19646516814E+04  0.19646516814E+04  0.50400001928E-02 0.  1.
       -1   -1    0    0    0  501  0.00000000000E+00  0.00000000000E+00 -0.26867419331E+03  0.26867419336E+03  0.50400001928E-02 0. -1.
    10030    2    1    2    0    0  0.00000000000E+00  0.00000000000E+00  0.16959774881E+04  0.22333258747E+04  0.14530673841E+04 0.  0.
        2    1    3    3  502    0  0.16480756795E+03 -0.56414947162E+03  0.19152828232E+03  0.61814985539E+03  0.25500000920E-02 0. -1.
       -2    1    3    3    0  502 -0.16480756795E+03  0.56414947162E+03  0.15044492057E+04  0.16151760193E+04  0.25500000920E-02 0.  1.
</event>
<event>
 5   0  0.1511546E-03  0.1326239E+04  0.7818609E-02  0.9009012E-01
       -2   -1    0    0    0  501  0.00000000000E+00  0.00000000000E+00  0.36730436796E+03  0.36730436797E+03  0.25500000920E-02 0.  1.
        2   -1    0    0  501    0  0.00000000000E+00  0.00000000000E+00 -0.11971748489E+04  0.11971748489E+04  0.25500000920E-02 0. -1.
    10030    2    1    2    0    0  0.00000000000E+00  0.00000000000E+00 -0.82987048092E+03  0.15644792169E+04  0.13262391205E+04 0.  0.
        1    1    3    3  502    0  0.18180145756E+03  0.63771099248E+03 -0.41574507056E+03  0.78266917891E+03  0.50400001928E-02 0. -1.
       -1    1    3    3    0  502 -0.18180145756E+03 -0.63771099248E+03 -0.41412541035E+03  0.78181003794E+03  0.50400001928E-02 0.  1.
</event>
<event>
 5   0  0.1552067E-03  0.1493504E+04  0.7818609E-02  0.8888784E-01
        2   -1    0    0  501    0  0.00000000000E+00  0.00000000000E+00  0.59491463618E+03  0.59491463618E+03  0.25500000920E-02 0.  1.
       -2   -1    0    0    0  501  0.00000000000E+00  0.00000000000E+00 -0.93734221088E+03  0.93734221088E+03  0.25500000920E-02 0. -1.
    10030    2    1    2    0    0  0.00000000000E+00  0.00000000000E+00 -0.34242757470E+03  0.15322568471E+04  0.14935040681E+04 0.  0.
        3    1    3    3  502    0  0.18500008574E+03  0.30571584096E+03 -0.84393455641E+03  0.91646754053E+03  0.10100000352E+00 0. -1.
       -3    1    3    3    0  502 -0.18500008574E+03 -0.30571584096E+03  0.50150698171E+03  0.61578930654E+03  0.10100000352E+00 0.  1.
</event>
<event>
 5   0  0.8365016E-04  0.1521943E+04  0.7818609E-02  0.8869991E-01
        1   -1    0    0  501    0  0.00000000000E+00  0.00000000000E+00  0.12470497176E+04  0.12470497177E+04  0.50400001928E-02 0. -1.
       -1   -1    0    0    0  501  0.00000000000E+00  0.00000000000E+00 -0.46435816317E+03  0.46435816319E+03  0.50400001928E-02 0.  1.
    10030    2    1    2    0    0  0.00000000000E+00  0.00000000000E+00  0.78269155448E+03  0.17114078809E+04  0.15219431215E+04 0.  0.
        3    1    3    3  502    0 -0.60959101102E+03  0.45458499176E+03  0.35896927558E+03  0.84089694164E+03  0.10100000352E+00 0.  1.
       -3    1    3    3    0  502  0.60959101102E+03 -0.45458499176E+03  0.42372227890E+03  0.87051093921E+03  0.10100000352E+00 0. -1.
</event>
<event>
 5   0  0.1500956E-03  0.1483365E+04  0.7818609E-02  0.8895591E-01
       -2   -1    0    0    0  501  0.00000000000E+00  0.00000000000E+00  0.97516175471E+03  0.97516175471E+03  0.25500000920E-02 0.  1.
        2   -1    0    0  501    0  0.00000000000E+00  0.00000000000E+00 -0.56410437904E+03  0.56410437905E+03  0.25500000920E-02 0. -1.
    10030    2    1    2    0    0  0.00000000000E+00  0.00000000000E+00  0.41105737567E+03  0.15392661338E+04  0.14833651150E+04 0.  0.
        4    1    3    3  502    0 -0.59637270039E+03  0.36664634292E+03 -0.48654357710E+02  0.70175408653E+03  0.12699999809E+01 0. -1.
       -4    1    3    3    0  502  0.59637270039E+03 -0.36664634292E+03  0.45971173338E+03  0.83751204722E+03  0.12699999809E+01 0.  1.
</event>
<event>
 5   0  0.8365016E-04  0.1489824E+04  0.7818609E-02  0.8891248E-01
       -1   -1    0    0    0  501  0.00000000000E+00  0.00000000000E+00  0.48802303589E+03  0.48802303591E+03  0.50400001928E-02 0. -1.
        1   -1    0    0  501    0  0.00000000000E+00  0.00000000000E+00 -0.11370238413E+04  0.11370238413E+04  0.50400001928E-02 0.  1.
    10030    2    1    2    0    0  0.00000000000E+00  0.00000000000E+00 -0.64900080543E+03  0.16250468772E+04  0.14898239184E+04 0.  0.
        3    1    3    3  502    0  0.43018834096E+03  0.33009746469E+03 -0.88161035362E+03  0.10350184398E+04  0.10100000352E+00 0.  1.
       -3    1    3    3    0  502 -0.43018834096E+03 -0.33009746469E+03  0.23260954819E+03  0.59002843745E+03  0.10100000352E+00 0. -1.
</event>
<event>
 5   0  0.8365016E-04  0.1486725E+04  0.7818609E-02  0.8893329E-01
       -1   -1    0    0    0  501  0.00000000000E+00  0.00000000000E+00  0.44955742457E+03  0.44955742460E+03  0.50400001928E-02 0.  1.
        1   -1    0    0  501    0  0.00000000000E+00  0.00000000000E+00 -0.12291824013E+04  0.12291824013E+04  0.50400001928E-02 0. -1.
    10030    2    1    2    0    0  0.00000000000E+00  0.00000000000E+00 -0.77962497676E+03  0.16787398259E+04  0.14867253609E+04 0.  0.
        3    1    3    3  502    0  0.47904383358E+03 -0.47713116105E+03 -0.73866569147E+03  0.10013811229E+04  0.10100000352E+00 0. -1.
       -3    1    3    3    0  502 -0.47904383358E+03  0.47713116105E+03 -0.40959285287E+02  0.67735870304E+03  0.10100000352E+00 0.  1.
</event>
<event>
 5   0  0.1484056E-03  0.1546385E+04  0.7818609E-02  0.8854180E-01
        2   -1    0    0  501    0  0.00000000000E+00  0.00000000000E+00  0.10880179890E+04  0.10880179890E+04  0.25500000920E-02 0.  1.
       -2   -1    0    0    0  501  0.00000000000E+00  0.00000000000E+00 -0.54946428037E+03  0.54946428038E+03  0.25500000920E-02 0. -1.
    10030    2    1    2    0    0  0.00000000000E+00  0.00000000000E+00  0.53855370865E+03  0.16374822694E+04  0.15463854906E+04 0.  0.
        5    1    3    3  502    0  0.30264441649E+03  0.53505408207E+03  0.76586862115E+03  0.98206585748E+03  0.46999998093E+01 0.  1.
       -5    1    3    3    0  502 -0.30264441649E+03 -0.53505408207E+03 -0.22731491250E+03  0.65541641192E+03  0.46999998093E+01 0. -1.
</event>
<event>
 5   0  0.8306301E-04  0.1472250E+04  0.7818609E-02  0.8903119E-01
        1   -1    0    0  501    0  0.00000000000E+00  0.00000000000E+00  0.76080398942E+03  0.76080398944E+03  0.50400001928E-02 0.  1.
       -1   -1    0    0    0  501  0.00000000000E+00  0.00000000000E+00 -0.71224695419E+03  0.71224695421E+03  0.50400001928E-02 0. -1.
    10030    2    1    2    0    0  0.00000000000E+00  0.00000000000E+00  0.48557035231E+02  0.14730509436E+04  0.14722504192E+04 0.  0.
        4    1    3    3  502    0  0.65454946586E+02  0.12791123609E+03 -0.69807877883E+03  0.71271398801E+03  0.12699999809E+01 0. -1.
       -4    1    3    3    0  502 -0.65454946586E+02 -0.12791123609E+03  0.74663581407E+03  0.76033695563E+03  0.12699999809E+01 0.  1.
</event>
<event>
 5   0  0.8365016E-04  0.1468013E+04  0.7818609E-02  0.8906007E-01
        1   -1    0    0  501    0  0.00000000000E+00  0.00000000000E+00  0.55833108642E+03  0.55833108645E+03  0.50400001928E-02 0.  1.
       -1   -1    0    0    0  501  0.00000000000E+00  0.00000000000E+00 -0.96495741051E+03  0.96495741053E+03  0.50400001928E-02 0. -1.
    10030    2    1    2    0    0  0.00000000000E+00  0.00000000000E+00 -0.40662632409E+03  0.15232884970E+04  0.14680132416E+04 0.  0.
        3    1    3    3  502    0  0.66486887103E+03  0.59534093884E+01  0.11932796443E+03  0.67551849127E+03  0.10100000352E+00 0. -1.
       -3    1    3    3    0  502 -0.66486887103E+03 -0.59534093884E+01 -0.52595428852E+03  0.84777000570E+03  0.10100000352E+00 0.  1.
</event>
<event>
 5   0  0.1526126E-03  0.1305413E+04  0.7818609E-02  0.9025284E-01
       -2   -1    0    0    0  501  0.00000000000E+00  0.00000000000E+00  0.45048058382E+03  0.45048058382E+03  0.25500000920E-02 0.  1.
        2   -1    0    0  501    0  0.00000000000E+00  0.00000000000E+00 -0.94571405285E+03  0.94571405285E+03  0.25500000920E-02 0. -1.
    10030    2    1    2    0    0  0.00000000000E+00  0.00000000000E+00 -0.49523346903E+03  0.13961946367E+04  0.13054130667E+04 0.  0.
        2    1    3    3  502    0  0.15459236300E+03 -0.54688663985E+03  0.95708083371E+02  0.57631921083E+03  0.25500000920E-02 0.  1.
       -2    1    3    3    0  502 -0.15459236300E+03  0.54688663985E+03 -0.59094155240E+03  0.81987542584E+03  0.25500000920E-02 0. -1.
</event>
<event>
 5   0  0.8306301E-04  0.1505818E+04  0.7818609E-02  0.8880593E-01
       -1   -1    0    0    0  501  0.00000000000E+00  0.00000000000E+00  0.62676386366E+03  0.62676386368E+03  0.50400001928E-02 0.  1.
        1   -1    0    0  501    0  0.00000000000E+00  0.00000000000E+00 -0.90444307592E+03  0.90444307594E+03  0.50400001928E-02 0. -1.
    10030    2    1    2    0    0  0.00000000000E+00  0.00000000000E+00 -0.27767921227E+03  0.15312069396E+04  0.15058183645E+04 0.  0.
        4    1    3    3  502    0  0.85578039258E+02 -0.22071249585E+03 -0.86561594391E+03  0.89740190655E+03  0.12699999809E+01 0. -1.
       -4    1    3    3    0  502 -0.85578039258E+02  0.22071249585E+03  0.58793673164E+03  0.63380503307E+03  0.12699999809E+01 0.  1.
</event>
<event>
 5   0  0.1511546E-03  0.1475262E+04  0.7818609E-02  0.8901072E-01
        2   -1    0    0  501    0  0.00000000000E+00  0.00000000000E+00  0.13155748145E+04  0.13155748145E+04  0.25500000920E-02 0.  1.
       -2   -1    0    0    0  501  0.00000000000E+00  0.00000000000E+00 -0.41358292382E+03  0.41358292383E+03  0.25500000920E-02 0. -1.
    10030    2    1    2    0    0  0.00000000000E+00  0.00000000000E+00  0.90199189071E+03  0.17291577384E+04  0.14752617101E+04 0.  0.
        1    1    3    3  502    0 -0.11841445179E+03  0.62106642511E+03  0.56683172128E+01  0.63227969810E+03  0.50400001928E-02 0. -1.
       -1    1    3    3    0  502  0.11841445179E+03 -0.62106642511E+03  0.89632357350E+03  0.10968780403E+04  0.50400001928E-02 0.  1.
</event>
<event>
 5   0  0.8191876E-04  0.1324219E+04  0.7818609E-02  0.9010577E-01
        1   -1    0    0  501    0  0.00000000000E+00  0.00000000000E+00  0.69652633243E+03  0.69652633245E+03  0.50400001928E-02 0. -1.
       -1   -1    0    0    0  501  0.00000000000E+00  0.00000000000E+00 -0.62939328934E+03  0.62939328936E+03  0.50400001928E-02 0.  1.
    10030    2    1    2    0    0  0.00000000000E+00  0.00000000000E+00  0.67133043096E+02  0.13259196218E+04  0.13242190144E+04 0.  0.
        2    1    3    3  502    0 -0.22907127169E+03 -0.50512662058E+03 -0.32850878011E+03  0.64462746524E+03  0.25500000920E-02 0.  1.
       -2    1    3    3    0  502  0.22907127169E+03  0.50512662058E+03  0.39564182320E+03  0.68129215657E+03  0.25500000920E-02 0. -1.
</event>
<event>
 5   0  0.8306301E-04  0.1506300E+04  0.7818609E-02  0.8880274E-01
       -1   -1    0    0    0  501  0.00000000000E+00  0.00000000000E+00  0.68208447217E+03  0.68208447219E+03  0.50400001928E-02 0.  1.
        1   -1    0    0  501    0  0.00000000000E+00  0.00000000000E+00 -0.83161968405E+03  0.83161968407E+03  0.50400001928E-02 0. -1.
    10030    2    1    2    0    0  0.00000000000E+00  0.00000000000E+00 -0.14953521188E+03  0.15137041563E+04  0.15062999346E+04 0.  0.
        4    1    3    3  502    0 -0.24313512066E+03 -0.15132189453E+03  0.62523395463E+03  0.68770059879E+03  0.12699999809E+01 0.  1.
       -4    1    3    3    0  502  0.24313512066E+03  0.15132189453E+03 -0.77476916651E+03  0.82600355746E+03  0.12699999809E+01 0. -1.
</event>
<event>
 5   0  0.1552067E-03  0.1545248E+04  0.7818609E-02  0.8854909E-01
        2   -1    0    0  501    0  0.00000000000E+00  0.00000000000E+00  0.10298128753E+04  0.10298128753E+04  0.25500000920E-02 0.  1.
       -2   -1    0    0    0  501  0.00000000000E+00  0.00000000000E+00 -0.57966635096E+03  0.57966635097E+03  0.25500000920E-02 0. -1.
    10030    2    1    2    0    0  0.00000000000E+00  0.00000000000E+00  0.45014652438E+03  0.16094792263E+04  0.15452480340E+04 0.  0.
        3    1    3    3  502    0 -0.39209569787E+03 -0.52639636391E+03 -0.19944121671E+03  0.68600945864E+03  0.10100000352E+00 0. -1.
       -3    1    3    3    0  502  0.39209569787E+03  0.52639636391E+03  0.64958774109E+03  0.92346976767E+03  0.10100000352E+00 0.  1.
</event>
<event>
 5   0  0.8365016E-04  0.1506886E+04  0.7818609E-02  0.8879887E-01
        1   -1    0    0  501    0  0.00000000000E+00  0.00000000000E+00  0.14135397822E+04  0.14135397822E+04  0.50400001928E-02 0. -1.
       -1   -1    0    0    0  501  0.00000000000E+00  0.00000000000E+00 -0.40159909086E+03  0.40159909089E+03  0.50400001928E-02 0.  1.
    10030    2    1    2    0    0  0.00000000000E+00  0.00000000000E+00  0.10119406913E+04  0.18151388731E+04  0.15068859167E+04 0.  0.
        3    1    3    3  502    0 -0.25064068537E+03  0.34916188398E+00 -0.34990987381E+03  0.43041585132E+03  0.10100000352E+00 0.  1.
       -3    1    3    3    0  502  0.25064068537E+03 -0.34916188398E+00  0.13618505651E+04  0.13847230218E+04  0.10100000352E+00 0. -1.
</event>
<event>
 5   0  0.1526126E-03  0.1530380E+04  0.7818609E-02  0.8864498E-01
        2   -1    0    0  501    0  0.00000000000E+00  0.00000000000E+00  0.38556333518E+03  0.38556333519E+03  0.25500000920E-02 0. -1.
       -2   -1    0    0    0  501  0.00000000000E+00  0.00000000000E+00 -0.15185979693E+04  0.15185979693E+04  0.25500000920E-02 0.  1.
    10030    2    1    2    0    0  0.00000000000E+00  0.00000000000E+00 -0.11330346341E+04  0.19041613045E+04  0.15303799500E+04 0.  0.
        2    1    3    3  502    0  0.71273959996E+03  0.27111111269E+03 -0.64537436626E+03  0.99900302573E+03  0.25500000920E-02 0.  1.
       -2    1    3    3    0  502 -0.71273959996E+03 -0.27111111269E+03 -0.48766026789E+03  0.90515827879E+03  0.25500000920E-02 0. -1.
</event>
<event>
 5   0  0.1552067E-03  0.1552712E+04  0.7818609E-02  0.8850137E-01
       -2   -1    0    0    0  501  0.00000000000E+00  0.00000000000E+00  0.47466519145E+03  0.47466519146E+03  0.25500000920E-02 0.  1.
        2   -1    0    0  501    0  0.00000000000E+00  0.00000000000E+00 -0.12697973372E+04  0.12697973372E+04  0.25500000920E-02 0. -1.
    10030    2    1    2    0    0  0.00000000000E+00  0.00000000000E+00 -0.79513214572E+03  0.17444625286E+04  0.15527119452E+04 0.  0.
        3    1    3    3  502    0 -0.50332065096E+03  0.54705523561E+02  0.26367882542E+03  0.57083351791E+03  0.10100000352E+00 0.  1.
       -3    1    3    3    0  502  0.50332065096E+03 -0.54705523561E+02 -0.10588109711E+04  0.11736290107E+04  0.10100000352E+00 0. -1.
</event>
<event>
 5   0  0.1526126E-03  0.1484691E+04  0.7818609E-02  0.8894698E-01
       -2   -1    0    0    0  501  0.00000000000E+00  0.00000000000E+00  0.32450517445E+03  0.32450517446E+03  0.25500000920E-02 0. -1.
        2   -1    0    0  501    0  0.00000000000E+00  0.00000000000E+00 -0.16982063776E+04  0.16982063776E+04  0.25500000920E-02 0.  1.
    10030    2    1    2    0    0  0.00000000000E+00  0.00000000000E+00 -0.13737012032E+04  0.20227115521E+04  0.14846908861E+04 0.  0.
        2    1    3    3  502    0  0.96027254351E+02  0.14015383895E+03 -0.16713637315E+04  0.16799765044E+04  0.25500000920E-02 0.  1.
       -2    1    3    3    0  502 -0.96027254351E+02 -0.14015383895E+03  0.29766252835E+03  0.34273504773E+03  0.25500000920E-02 0. -1.
</event>
<event>
 5   0  0.1526126E-03  0.1533640E+04  0.7818609E-02  0.8862386E-01
        2   -1    0    0  501    0  0.00000000000E+00  0.00000000000E+00  0.56381075833E+03  0.56381075834E+03  0.25500000920E-02 0.  1.
       -2   -1    0    0    0  501  0.00000000000E+00  0.00000000000E+00 -0.10429257891E+04  0.10429257891E+04  0.25500000920E-02 0. -1.
    10030    2    1    2    0    0  0.00000000000E+00  0.00000000000E+00 -0.47911503076E+03  0.16067365474E+04  0.15336398274E+04 0.  0.
        2    1    3    3  502    0 -0.36379597176E+03  0.53206918440E+03 -0.67476964573E+03  0.93314479094E+03  0.25500000920E-02 0. -1.
       -2    1    3    3    0  502  0.36379597176E+03 -0.53206918440E+03  0.19565461497E+03  0.67359175649E+03  0.25500000920E-02 0.  1.
</event>
<event>
 5   0  0.8058234E-04  0.1411272E+04  0.7818609E-02  0.8945700E-01
        1   -1    0    0  501    0  0.00000000000E+00  0.00000000000E+00  0.11258519881E+04  0.11258519882E+04  0.50400001928E-02 0.  1.
       -1   -1    0    0    0  501  0.00000000000E+00  0.00000000000E+00 -0.44226252199E+03  0.44226252202E+03  0.50400001928E-02 0. -1.
    10030    2    1    2    0    0  0.00000000000E+00  0.00000000000E+00  0.68358946615E+03  0.15681145102E+04  0.14112719649E+04 0.  0.
        5    1    3    3  502    0  0.33796885493E+02 -0.27860256303E+03 -0.37756446557E+03  0.47046639971E+03  0.46999998093E+01 0. -1.
       -5    1    3    3    0  502 -0.33796885493E+02  0.27860256303E+03  0.10611539317E+04  0.10976481105E+04  0.46999998093E+01 0.  1.
</event>
<event>
 5   0  0.8306301E-04  0.1496163E+04  0.7818609E-02  0.8887009E-01
        1   -1    0    0  501    0  0.00000000000E+00  0.00000000000E+00  0.85447825216E+03  0.85447825217E+03  0.50400001928E-02 0.  1.
       -1   -1    0    0    0  501  0.00000000000E+00  0.00000000000E+00 -0.65493262036E+03  0.65493262038E+03  0.50400001928E-02 0. -1.
    10030    2    1    2    0    0  0.00000000000E+00  0.00000000000E+00  0.19954563180E+03  0.15094108725E+04  0.14961626660E+04 0.  0.
        4    1    3    3  502    0  0.37788136364E+03 -0.16427229135E+03  0.72967670050E+03  0.83797936183E+03  0.12699999809E+01 0.  1.
       -4    1    3    3    0  502 -0.37788136364E+03  0.16427229135E+03 -0.53013106870E+03  0.67143151072E+03  0.12699999809E+01 0. -1.
</event>
<event>
 5   0  0.1526126E-03  0.1514356E+04  0.7818609E-02  0.8874962E-01
       -2   -1    0    0    0  501  0.00000000000E+00  0.00000000000E+00  0.47524797006E+03  0.47524797006E+03  0.25500000920E-02 0.  1.
        2   -1    0    0  501    0  0.00000000000E+00  0.00000000000E+00 -0.12063561169E+04  0.12063561169E+04  0.25500000920E-02 0. -1.
    10030    2    1    2    0    0  0.00000000000E+00  0.00000000000E+00 -0.73110814684E+03  0.16816040870E+04  0.15143556989E+04 0.  0.
        2    1    3    3  502    0  0.58672819918E+02 -0.19440212548E+02 -0.12035500076E+04  0.12051361095E+04  0.25500000920E-02 0. -1.
       -2    1    3    3    0  502 -0.58672819918E+02  0.19440212548E+02  0.47244186079E+03  0.47646797741E+03  0.25500000920E-02 0.  1.
</event>
<event>
 5   0  0.1526126E-03  0.1489392E+04  0.7818609E-02  0.8891538E-01
        2   -1    0    0  501    0  0.00000000000E+00  0.00000000000E+00  0.14963665242E+04  0.14963665242E+04  0.25500000920E-02 0.  1.
       -2   -1    0    0    0  501  0.00000000000E+00  0.00000000000E+00 -0.37061250302E+03  0.37061250303E+03  0.25500000920E-02 0. -1.
    10030    2    1    2    0    0  0.00000000000E+00  0.00000000000E+00  0.11257540212E+04  0.18669790273E+04  0.14893920142E+04 0.  0.
        2    1    3    3  502    0 -0.27293321593E+02 -0.51090212154E+03 -0.11542106060E+03  0.52448825004E+03  0.25500000920E-02 0. -1.
       -2    1    3    3    0  502  0.27293321593E+02  0.51090212154E+03  0.12411750818E+04  0.13424907772E+04  0.25500000920E-02 0.  1.
</event>
<event>
 5   0  0.5603875E-04  0.1501406E+04  0.7818609E-02  0.8883518E-01
       -3   -1    0    0    0  501  0.00000000000E+00  0.00000000000E+00  0.13665998817E+04  0.13665998854E+04  0.10100000352E+00 0.  1.
        3   -1    0    0  501    0  0.00000000000E+00  0.00000000000E+00 -0.41237755871E+03  0.41237757108E+03  0.10100000352E+00 0. -1.
    10030    2    1    2    0    0  0.00000000000E+00  0.00000000000E+00  0.95422232298E+03  0.17789774565E+04  0.15014061906E+04 0.  0.
        3    1    3    3  502    0 -0.44201204766E+03  0.74551346750E+02  0.11906204979E+04  0.12722066396E+04  0.10100000352E+00 0.  1.
       -3    1    3    3    0  502  0.44201204766E+03 -0.74551346750E+02 -0.23639817492E+03  0.50677081692E+03  0.10100000352E+00 0. -1.
</event>
<event>
 5   0  0.1552067E-03  0.1540835E+04  0.7818609E-02  0.8857743E-01
       -2   -1    0    0    0  501  0.00000000000E+00  0.00000000000E+00  0.26563525378E+03  0.26563525379E+03  0.25500000920E-02 0.  1.
        2   -1    0    0  501    0  0.00000000000E+00  0.00000000000E+00 -0.22344300894E+04  0.22344300894E+04  0.25500000920E-02 0. -1.
    10030    2    1    2    0    0  0.00000000000E+00  0.00000000000E+00 -0.19687948357E+04  0.25000653432E+04  0.15408353629E+04 0.  0.
        3    1    3    3  502    0  0.26080031104E+03 -0.61428341100E+03 -0.16089853022E+04  0.17418939762E+04  0.10100000352E+00 0. -1.
       -3    1    3    3    0  502 -0.26080031104E+03  0.61428341100E+03 -0.35980953344E+03  0.75817136705E+03  0.10100000352E+00 0.  1.
</event>
<event>
 5   0  0.8191876E-04  0.1499903E+04  0.7818609E-02  0.8884518E-01
       -1   -1    0    0    0  501  0.00000000000E+00  0.00000000000E+00  0.26223627455E+03  0.26223627459E+03  0.50400001928E-02 0.  1.
        1   -1    0    0  501    0  0.00000000000E+00  0.00000000000E+00 -0.21447339694E+04  0.21447339694E+04  0.50400001928E-02 0. -1.
    10030    2    1    2    0    0  0.00000000000E+00  0.00000000000E+00 -0.18824976949E+04  0.24069702440E+04  0.14999027250E+04 0.  0.
        2    1    3    3  502    0  0.51704103742E+03 -0.10382259674E+03 -0.85574240208E+02  0.53425978378E+03  0.25500000920E-02 0.  1.
       -2    1    3    3    0  502 -0.51704103742E+03  0.10382259674E+03 -0.17969234547E+04  0.18727104602E+04  0.25500000920E-02 0. -1.
</event>
<event>
 5   0  0.7870317E-04  0.1495874E+04  0.7818609E-02  0.8887202E-01
       -1   -1    0    0    0  501  0.00000000000E+00  0.00000000000E+00  0.65442003259E+03  0.65442003261E+03  0.50400001928E-02 0.  1.
        1   -1    0    0  501    0  0.00000000000E+00  0.00000000000E+00 -0.85481714992E+03  0.85481714994E+03  0.50400001928E-02 0. -1.
    10030    2    1    2    0    0  0.00000000000E+00  0.00000000000E+00 -0.20039711733E+03  0.15092371826E+04  0.14958736138E+04 0.  0.
        1    1    3    3  502    0 -0.50397109260E+03 -0.23913618718E+03  0.40248583760E+03  0.68787195589E+03  0.50400001928E-02 0.  1.
       -1    1    3    3    0  502  0.50397109260E+03  0.23913618718E+03 -0.60288295493E+03  0.82136522666E+03  0.50400001928E-02 0. -1.
</event>
<event>
 5   0  0.1526126E-03  0.1479903E+04  0.7818609E-02  0.8897928E-01
       -2   -1    0    0    0  501  0.00000000000E+00  0.00000000000E+00  0.75072101305E+03  0.75072101305E+03  0.25500000920E-02 0. -1.
        2   -1    0    0  501    0  0.00000000000E+00  0.00000000000E+00 -0.72933647706E+03  0.72933647706E+03  0.25500000920E-02 0.  1.
    10030    2    1    2    0    0  0.00000000000E+00  0.00000000000E+00  0.21384535990E+02  0.14800574901E+04  0.14799029954E+04 0.  0.
        2    1    3    3  502    0 -0.64170737499E+03 -0.35614223794E+03  0.10505555016E+03  0.74139214818E+03  0.25500000920E-02 0. -1.
       -2    1    3    3    0  502  0.64170737499E+03  0.35614223794E+03 -0.83671014172E+02  0.73866534193E+03  0.25500000920E-02 0.  1.
</event>
<event>
 5   0  0.1484056E-03  0.1495662E+04  0.7818609E-02  0.8887343E-01
       -2   -1    0    0    0  501  0.00000000000E+00  0.00000000000E+00  0.40557858749E+03  0.40557858750E+03  0.25500000920E-02 0.  1.
        2   -1    0    0  501    0  0.00000000000E+00  0.00000000000E+00 -0.13788966928E+04  0.13788966928E+04  0.25500000920E-02 0. -1.
    10030    2    1    2    0    0  0.00000000000E+00  0.00000000000E+00 -0.97331810531E+03  0.17844752803E+04  0.14956616903E+04 0.  0.
        5    1    3    3  502    0 -0.33461719985E+03  0.25021152396E+03  0.25330823675E+03  0.48863240781E+03  0.46999998093E+01 0.  1.
       -5    1    3    3    0  502  0.33461719985E+03 -0.25021152396E+03 -0.12266263421E+04  0.12958428725E+04  0.46999998093E+01 0. -1.
</event>
<event>
 5   0  0.5603875E-04  0.1488992E+04  0.7818609E-02  0.8891806E-01
        4   -1    0    0  501    0  0.00000000000E+00  0.00000000000E+00  0.61799782834E+03  0.61799913328E+03  0.12699999809E+01 0. -1.
       -4   -1    0    0    0  501  0.00000000000E+00  0.00000000000E+00 -0.89688462296E+03  0.89688552213E+03  0.12699999809E+01 0.  1.
    10030    2    1    2    0    0  0.00000000000E+00  0.00000000000E+00 -0.27888679462E+03  0.15148846554E+04  0.14889921675E+04 0.  0.
        5    1    3    3  502    0  0.23685812507E+02  0.40369346335E+03  0.49650457274E+03  0.64036576330E+03  0.46999998093E+01 0. -1.
       -5    1    3    3    0  502 -0.23685812507E+02 -0.40369346335E+03 -0.77539136736E+03  0.87451889210E+03  0.46999998093E+01 0.  1.
</event>
<event>
 5   0  0.8058234E-04  0.1488993E+04  0.7818609E-02  0.8891806E-01
       -1   -1    0    0    0  501  0.00000000000E+00  0.00000000000E+00  0.99815708962E+03  0.99815708963E+03  0.50400001928E-02 0. -1.
        1   -1    0    0  501    0  0.00000000000E+00  0.00000000000E+00 -0.55529838894E+03  0.55529838896E+03  0.50400001928E-02 0.  1.
    10030    2    1    2    0    0  0.00000000000E+00  0.00000000000E+00  0.44285870068E+03  0.15534554786E+04  0.14889929802E+04 0.  0.
        5    1    3    3  502    0  0.68282846448E+03 -0.25161978944E+03  0.38534820639E+03  0.82345768593E+03  0.46999998093E+01 0. -1.
       -5    1    3    3    0  502 -0.68282846448E+03  0.25161978944E+03  0.57510494286E+02  0.72999779267E+03  0.46999998093E+01 0.  1.
</event>
<event>
 5   0  0.1500956E-03  0.1519710E+04  0.7818609E-02  0.8871451E-01
        2   -1    0    0  501    0  0.00000000000E+00  0.00000000000E+00  0.14426660390E+04  0.14426660390E+04  0.25500000920E-02 0. -1.
       -2   -1    0    0    0  501  0.00000000000E+00  0.00000000000E+00 -0.40021688644E+03  0.40021688644E+03  0.25500000920E-02 0.  1.
    10030    2    1    2    0    0  0.00000000000E+00  0.00000000000E+00  0.10424491526E+04  0.18428829255E+04  0.15197095911E+04 0.  0.
        4    1    3    3  502    0 -0.68579616430E+03 -0.29811725053E+03  0.68476410063E+03  0.10139495848E+04  0.12699999809E+01 0. -1.
       -4    1    3    3    0  502  0.68579616430E+03  0.29811725053E+03  0.35768505196E+03  0.82893334070E+03  0.12699999809E+01 0.  1.
</event>
<event>
 5   0  0.8365016E-04  0.1446323E+04  0.7818609E-02  0.8920954E-01
        1   -1    0    0  501    0  0.00000000000E+00  0.00000000000E+00  0.11834657446E+04  0.11834657446E+04  0.50400001928E-02 0.  1.
       -1   -1    0    0    0  501  0.00000000000E+00  0.00000000000E+00 -0.44189065862E+03  0.44189065865E+03  0.50400001928E-02 0. -1.
    10030    2    1    2    0    0  0.00000000000E+00  0.00000000000E+00  0.74157508597E+03  0.16253564032E+04  0.14463228649E+04 0.  0.
        3    1    3    3  502    0  0.71805857738E+03 -0.85705609238E+02  0.37413543549E+03  0.81420569041E+03  0.10100000352E+00 0. -1.
       -3    1    3    3    0  502 -0.71805857738E+03  0.85705609238E+02  0.36743965047E+03  0.81115071284E+03  0.10100000352E+00 0.  1.
</event>
<event>
 5   0  0.8191876E-04  0.1511056E+04  0.7818609E-02  0.8877134E-01
       -1   -1    0    0    0  501  0.00000000000E+00  0.00000000000E+00  0.37756574214E+03  0.37756574217E+03  0.50400001928E-02 0. -1.
        1   -1    0    0  501    0  0.00000000000E+00  0.00000000000E+00 -0.15118496037E+04  0.15118496037E+04  0.50400001928E-02 0.  1.
    10030    2    1    2    0    0  0.00000000000E+00  0.00000000000E+00 -0.11342838615E+04  0.18894153459E+04  0.15110560779E+04 0.  0.
        2    1    3    3  502    0  0.71626281341E+03  0.19469129840E+03 -0.39081644327E+03  0.83885315275E+03  0.25500000920E-02 0.  1.
       -2    1    3    3    0  502 -0.71626281341E+03 -0.19469129840E+03 -0.74346741828E+03  0.10505621931E+04  0.25500000920E-02 0. -1.
</event>
<event>
 5   0  0.1526126E-03  0.1508823E+04  0.7818609E-02  0.8878607E-01
       -2   -1    0    0    0  501  0.00000000000E+00  0.00000000000E+00  0.11532522727E+04  0.11532522727E+04  0.25500000920E-02 0. -1.
        2   -1    0    0  501    0  0.00000000000E+00  0.00000000000E+00 -0.49350554148E+03  0.49350554149E+03  0.25500000920E-02 0.  1.
    10030    2    1    2    0    0  0.00000000000E+00  0.00000000000E+00  0.65974673125E+03  0.16467578142E+04  0.15088225705E+04 0.  0.
        2    1    3    3  502    0  0.35850912117E+03  0.62476963112E+03  0.57458137634E+03  0.92141719106E+03  0.25500000920E-02 0.  1.
       -2    1    3    3    0  502 -0.35850912117E+03 -0.62476963112E+03  0.85165354904E+02  0.72534062317E+03  0.25500000920E-02 0. -1.
</event>
<event>
 5   0  0.1484056E-03  0.1493070E+04  0.7818609E-02  0.8889074E-01
        2   -1    0    0  501    0  0.00000000000E+00  0.00000000000E+00  0.11900446401E+04  0.11900446401E+04  0.25500000920E-02 0. -1.
       -2   -1    0    0    0  501  0.00000000000E+00  0.00000000000E+00 -0.46831398042E+03  0.46831398042E+03  0.25500000920E-02 0.  1.
    10030    2    1    2    0    0  0.00000000000E+00  0.00000000000E+00  0.72173065966E+03  0.16583586205E+04  0.14930700483E+04 0.  0.
        5    1    3    3  502    0  0.47158831987E+03  0.40701775198E+03 -0.96055949512E+02  0.63032359094E+03  0.46999998093E+01 0.  1.
       -5    1    3    3    0  502 -0.47158831987E+03 -0.40701775198E+03  0.81778660917E+03  0.10280350296E+04  0.46999998093E+01 0. -1.
</event>
<event>
 5   0  0.8306301E-04  0.1402910E+04  0.7818609E-02  0.8951715E-01
        1   -1    0    0  501    0  0.00000000000E+00  0.00000000000E+00  0.15629585891E+04  0.15629585891E+04  0.50400001928E-02 0.  1.
       -1   -1    0    0    0  501  0.00000000000E+00  0.00000000000E+00 -0.31481241796E+03  0.31481241800E+03  0.50400001928E-02 0. -1.
    10030    2    1    2    0    0  0.00000000000E+00  0.00000000000E+00  0.12481461711E+04  0.18777710071E+04  0.14029095090E+04 0.  0.
        4    1    3    3  502    0  0.43249770500E+03  0.31674599870E+02  0.13620371266E+04  0.14294069722E+04  0.12699999809E+01 0.  1.
       -4    1    3    3    0  502 -0.43249770500E+03 -0.31674599870E+02 -0.11389095549E+03  0.44836403485E+03  0.12699999809E+01 0. -1.
</event>
<event>
 5   0  0.1484056E-03  0.1504522E+04  0.7818609E-02  0.8881451E-01
        2   -1    0    0  501    0  0.00000000000E+00  0.00000000000E+00  0.64201468105E+03  0.64201468105E+03  0.25500000920E-02 0. -1.
       -2   -1    0    0    0  501  0.00000000000E+00  0.00000000000E+00 -0.88143896744E+03  0.88143896744E+03  0.25500000920E-02 0.  1.
    10030    2    1    2    0    0  0.00000000000E+00  0.00000000000E+00 -0.23942428639E+03  0.15234536485E+04  0.15045221933E+04 0.  0.
        5    1    3    3  502    0 -0.59800309871E+03  0.44434523900E+03 -0.22506103137E+03  0.77828333872E+03  0.46999998093E+01 0.  1.
       -5    1    3    3    0  502  0.59800309871E+03 -0.44434523900E+03 -0.14363255020E+02  0.74517030978E+03  0.46999998093E+01 0. -1.
</event>
<event>
 5   0  0.8365016E-04  0.1555562E+04  0.7818609E-02  0.8848323E-01
       -1   -1    0    0    0  501  0.00000000000E+00  0.00000000000E+00  0.38075176593E+03  0.38075176597E+03  0.50400001928E-02 0. -1.
        1   -1    0    0  501    0  0.00000000000E+00  0.00000000000E+00 -0.15888132377E+04  0.15888132377E+04  0.50400001928E-02 0.  1.
    10030    2    1    2    0    0  0.00000000000E+00  0.00000000000E+00 -0.12080614717E+04  0.19695650037E+04  0.15555622084E+04 0.  0.
        3    1    3    3  502    0  0.64375670229E+03 -0.30511249585E+03 -0.99923611124E+03  0.12271874930E+04  0.10100000352E+00 0.  1.
       -3    1    3    3    0  502 -0.64375670229E+03  0.30511249585E+03 -0.20882536050E+03  0.74237751061E+03  0.10100000352E+00 0. -1.
</event>
<event>
 5   0  0.1526126E-03  0.1430682E+04  0.7818609E-02  0.8931904E-01
       -2   -1    0    0    0  501  0.00000000000E+00  0.00000000000E+00  0.51671795057E+03  0.51671795057E+03  0.25500000920E-02 0. -1.
        2   -1    0    0  501    0  0.00000000000E+00  0.00000000000E+00 -0.99031315229E+03  0.99031315229E+03  0.25500000920E-02 0.  1.
    10030    2    1    2    0    0  0.00000000000E+00  0.00000000000E+00 -0.47359520172E+03  0.15070311029E+04  0.14306817710E+04 0.  0.
        2    1    3    3  502    0 -0.22564566268E+03  0.23110090087E+03  0.43553445194E+03  0.54223044022E+03  0.25500000920E-02 0. -1.
       -2    1    3    3    0  502  0.22564566268E+03 -0.23110090087E+03 -0.90912965366E+03  0.96480066264E+03  0.25500000920E-02 0.  1.
</event>
<event>
 5   0  0.1552067E-03  0.1548560E+04  0.7818609E-02  0.8852788E-01
        2   -1    0    0  501    0  0.00000000000E+00  0.00000000000E+00  0.73741600601E+03  0.73741600601E+03  0.25500000920E-02 0. -1.
       -2   -1    0    0    0  501  0.00000000000E+00  0.00000000000E+00 -0.81298686835E+03  0.81298686836E+03  0.25500000920E-02 0.  1.
    10030    2    1    2    0    0  0.00000000000E+00  0.00000000000E+00 -0.75570862348E+02  0.15504028744E+04  0.15485600142E+04 0.  0.
        3    1    3    3  502    0 -0.44114473648E+03 -0.37548959944E+03 -0.55211694126E+03  0.80027135701E+03  0.10100000352E+00 0.  1.
       -3    1    3    3    0  502  0.44114473648E+03  0.37548959944E+03  0.47654607891E+03  0.75013151736E+03  0.10100000352E+00 0. -1.
</event>
<event>
 5   0  0.1511546E-03  0.1579167E+04  0.7818609E-02  0.8833450E-01
       -2   -1    0    0    0  501  0.00000000000E+00  0.00000000000E+00  0.31211891698E+03  0.31211891699E+03  0.25500000920E-02 0.  1.
        2   -1    0    0  501    0  0.00000000000E+00  0.00000000000E+00 -0.19974501407E+04  0.19974501407E+04  0.25500000920E-02 0. -1.
    10030    2    1    2    0    0  0.00000000000E+00  0.00000000000E+00 -0.16853312237E+04  0.23095690577E+04  0.15791668369E+04 0.  0.
        1    1    3    3  502    0 -0.10811691016E+03 -0.56676353982E+03 -0.16309805813E+04  0.17300311653E+04  0.50400001928E-02 0. -1.
       -1    1    3    3    0  502  0.10811691016E+03  0.56676353982E+03 -0.54350642390E+02  0.57953789236E+03  0.50400001928E-02 0.  1.
</event>
<event>
 5   0  0.7870317E-04  0.1504541E+04  0.7818609E-02  0.8881439E-01
        1   -1    0    0  501    0  0.00000000000E+00  0.00000000000E+00  0.43976553406E+03  0.43976553409E+03  0.50400001928E-02 0. -1.
       -1   -1    0    0    0  501  0.00000000000E+00  0.00000000000E+00 -0.12868460676E+04  0.12868460676E+04  0.50400001928E-02 0.  1.
    10030    2    1    2    0    0  0.00000000000E+00  0.00000000000E+00 -0.84708053351E+03  0.17266116017E+04  0.15045405255E+04 0.  0.
        1    1    3    3  502    0  0.32825952417E+03 -0.54407673374E+03 -0.88563549509E+03  0.10900110264E+04  0.50400001928E-02 0.  1.
       -1    1    3    3    0  502 -0.32825952417E+03  0.54407673374E+03  0.38554961584E+02  0.63660057531E+03  0.50400001928E-02 0. -1.
</event>
<event>
 5   0  0.1552067E-03  0.1489311E+04  0.7818609E-02  0.8891593E-01
       -2   -1    0    0    0  501  0.00000000000E+00  0.00000000000E+00  0.27437825472E+03  0.27437825473E+03  0.25500000920E-02 0. -1.
        2   -1    0    0  501    0  0.00000000000E+00  0.00000000000E+00 -0.20209745448E+04  0.20209745448E+04  0.25500000920E-02 0.  1.
    10030    2    1    2    0    0  0.00000000000E+00  0.00000000000E+00 -0.17465962901E+04  0.22953527996E+04  0.14893105364E+04 0.  0.
        3    1    3    3  502    0  0.36973083174E+03 -0.16042098718E+02  0.12261187993E+03  0.38986141149E+03  0.10100000352E+00 0. -1.
       -3    1    3    3    0  502 -0.36973083174E+03  0.16042098718E+02 -0.18692081701E+04  0.19054913881E+04  0.10100000352E+00 0.  1.
</event>
<event>
 5   0  0.8306301E-04  0.9801418E+03  0.7818609E-02  0.9330597E-01
        1   -1    0    0  501    0  0.00000000000E+00  0.00000000000E+00  0.14790927293E+04  0.14790927293E+04  0.50400001928E-02 0.  1.
       -1   -1    0    0    0  501  0.00000000000E+00  0.00000000000E+00 -0.16237621739E+03  0.16237621746E+03  0.50400001928E-02 0. -1.
    10030    2    1    2    0    0  0.00000000000E+00  0.00000000000E+00  0.13167165119E+04  0.16414689468E+04  0.98014179100E+03 0.  0.
        4    1    3    3  502    0 -0.39885566734E+03  0.67424553000E+02  0.11216734256E+04  0.11923861792E+04  0.12699999809E+01 0.  1.
       -4    1    3    3    0  502  0.39885566734E+03 -0.67424553000E+02  0.19504308630E+03  0.44908276757E+03  0.12699999809E+01 0. -1.
</event>
<event>
 5   0  0.1484056E-03  0.1496439E+04  0.7818609E-02  0.8886825E-01
        2   -1    0    0  501    0  0.00000000000E+00  0.00000000000E+00  0.44120642713E+03  0.44120642713E+03  0.25500000920E-02 0. -1.
       -2   -1    0    0    0  501  0.00000000000E+00  0.00000000000E+00 -0.12688668964E+04  0.12688668964E+04  0.25500000920E-02 0.  1.
    10030    2    1    2    0    0  0.00000000000E+00  0.00000000000E+00 -0.82766046923E+03  0.17100733235E+04  0.14964387456E+04 0.  0.
        5    1    3    3  502    0 -0.68598921506E+03 -0.24890539743E+03 -0.60255916751E+03  0.94637980769E+03  0.46999998093E+01 0.  1.
       -5    1    3    3    0  502  0.68598921506E+03  0.24890539743E+03 -0.22510130172E+03  0.76369351581E+03  0.46999998093E+01 0. -1.
</event>
<event>
 5   0  0.8306301E-04  0.1679581E+04  0.7818609E-02  0.8773097E-01
       -1   -1    0    0    0  501  0.00000000000E+00  0.00000000000E+00  0.37585508311E+03  0.37585508315E+03  0.50400001928E-02 0.  1.
        1   -1    0    0  501    0  0.00000000000E+00  0.00000000000E+00 -0.18763829520E+04  0.18763829520E+04  0.50400001928E-02 0. -1.
    10030    2    1    2    0    0  0.00000000000E+00  0.00000000000E+00 -0.15005278689E+04  0.22522380352E+04  0.16795809840E+04 0.  0.
        4    1    3    3  502    0 -0.39251703355E+03  0.39838293358E+03  0.89805911140E+02  0.56643207711E+03  0.12699999809E+01 0.  1.
       -4    1    3    3    0  502  0.39251703355E+03 -0.39838293358E+03 -0.15903337800E+04  0.16858059581E+04  0.12699999809E+01 0. -1.
</event>
<event>
 5   0  0.8365016E-04  0.1519065E+04  0.7818609E-02  0.8871873E-01
        1   -1    0    0  501    0  0.00000000000E+00  0.00000000000E+00  0.48537542763E+03  0.48537542765E+03  0.50400001928E-02 0.  1.
       -1   -1    0    0    0  501  0.00000000000E+00  0.00000000000E+00 -0.11885434531E+04  0.11885434531E+04  0.50400001928E-02 0. -1.
    10030    2    1    2    0    0  0.00000000000E+00  0.00000000000E+00 -0.70316802551E+03  0.16739188808E+04  0.15190652216E+04 0.  0.
        3    1    3    3  502    0  0.30019545855E+03 -0.51714367983E+03  0.16448981598E+03  0.62017078993E+03  0.10100000352E+00 0.  1.
       -3    1    3    3    0  502 -0.30019545855E+03  0.51714367983E+03 -0.86765784148E+03  0.10537480909E+04  0.10100000352E+00 0. -1.
</event>
<event>
 5   0  0.1511546E-03  0.1484224E+04  0.7818609E-02  0.8895012E-01
        2   -1    0    0  501    0  0.00000000000E+00  0.00000000000E+00  0.14001315124E+04  0.14001315124E+04  0.25500000920E-02 0. -1.
       -2   -1    0    0    0  501  0.00000000000E+00  0.00000000000E+00 -0.39334179971E+03  0.39334179971E+03  0.25500000920E-02 0.  1.
    10030    2    1    2    0    0  0.00000000000E+00  0.00000000000E+00  0.10067897127E+04  0.17934733121E+04  0.14842240382E+04 0.  0.
        1    1    3    3  502    0  0.33846817790E+03 -0.10656848840E+03  0.12909739924E+04  0.13388545102E+04  0.50400001928E-02 0. -1.
       -1    1    3    3    0  502 -0.33846817790E+03  0.10656848840E+03 -0.28418427978E+03  0.45461880193E+03  0.50400001928E-02 0.  1.
</event>
<event>
 5   0  0.1500956E-03  0.1524441E+04  0.7818609E-02  0.8868361E-01
       -2   -1    0    0    0  501  0.00000000000E+00  0.00000000000E+00  0.41049865175E+03  0.41049865176E+03  0.25500000920E-02 0.  1.
        2   -1    0    0  501    0  0.00000000000E+00  0.00000000000E+00 -0.14153031904E+04  0.14153031904E+04  0.25500000920E-02 0. -1.
    10030    2    1    2    0    0  0.00000000000E+00  0.00000000000E+00 -0.10048045386E+04  0.18258018421E+04  0.15244409486E+04 0.  0.
        4    1    3    3  502    0  0.11028004563E+03  0.53304279715E+03 -0.11414350480E+04  0.12645836840E+04  0.12699999809E+01 0. -1.
       -4    1    3    3    0  502 -0.11028004563E+03 -0.53304279715E+03  0.13663050937E+03  0.56121815816E+03  0.12699999809E+01 0.  1.
</event>
<event>
 5   0  0.1552067E-03  0.1475009E+04  0.7818609E-02  0.8901244E-01
        2   -1    0    0  501    0  0.00000000000E+00  0.00000000000E+00  0.34037548022E+03  0.34037548023E+03  0.25500000920E-02 0.  1.
       -2   -1    0    0    0  501  0.00000000000E+00  0.00000000000E+00 -0.15979782036E+04  0.15979782036E+04  0.25500000920E-02 0. -1.
    10030    2    1    2    0    0  0.00000000000E+00  0.00000000000E+00 -0.12576027234E+04  0.19383536839E+04  0.14750086081E+04 0.  0.
        3    1    3    3  502    0 -0.25227309285E+03  0.52574159256E+03 -0.35450516544E+02  0.58421116460E+03  0.10100000352E+00 0.  1.
       -3    1    3    3    0  502  0.25227309285E+03 -0.52574159256E+03 -0.12221522069E+04  0.13541425193E+04  0.10100000352E+00 0. -1.
</event>
<event>
 5   0  0.8306301E-04  0.1485601E+04  0.7818609E-02  0.8894085E-01
        1   -1    0    0  501    0  0.00000000000E+00  0.00000000000E+00  0.67477468421E+03  0.67477468423E+03  0.50400001928E-02 0. -1.
       -1   -1    0    0    0  501  0.00000000000E+00  0.00000000000E+00 -0.81768437819E+03  0.81768437820E+03  0.50400001928E-02 0.  1.
    10030    2    1    2    0    0  0.00000000000E+00  0.00000000000E+00 -0.14290969398E+03  0.14924590624E+04  0.14856011821E+04 0.  0.
        4    1    3    3  502    0 -0.16689252847E+03  0.66113118808E+03  0.22452961488E+03  0.71788768256E+03  0.12699999809E+01 0. -1.
       -4    1    3    3    0  502  0.16689252847E+03 -0.66113118808E+03 -0.36743930886E+03  0.77457137987E+03  0.12699999809E+01 0.  1.
</event>
<event>
 5   0  0.8191876E-04  0.1503141E+04  0.7818609E-02  0.8882367E-01
        1   -1    0    0  501    0  0.00000000000E+00  0.00000000000E+00  0.14515497115E+04  0.14515497115E+04  0.50400001928E-02 0.  1.
       -1   -1    0    0    0  501  0.00000000000E+00  0.00000000000E+00 -0.38914167542E+03  0.38914167545E+03  0.50400001928E-02 0. -1.
    10030    2    1    2    0    0  0.00000000000E+00  0.00000000000E+00  0.10624080361E+04  0.18406913870E+04  0.15031413596E+04 0.  0.
        2    1    3    3  502    0 -0.46377333411E+03  0.24874314991E+03 -0.12585095433E+03  0.54110749650E+03  0.25500000920E-02 0. -1.
       -2    1    3    3    0  502  0.46377333411E+03 -0.24874314991E+03  0.11882589905E+04  0.12995838905E+04  0.25500000920E-02 0.  1.
</event>
<event>
 5   0  0.1484056E-03  0.1492566E+04  0.7818609E-02  0.8889412E-01
       -2   -1    0    0    0  501  0.00000000000E+00  0.00000000000E+00  0.45879957962E+03  0.45879957963E+03  0.25500000920E-02 0.  1.
        2   -1    0    0  501    0  0.00000000000E+00  0.00000000000E+00 -0.12139031983E+04  0.12139031983E+04  0.25500000920E-02 0. -1.
    10030    2    1    2    0    0  0.00000000000E+00  0.00000000000E+00 -0.75510361871E+03  0.16727027780E+04  0.14925659478E+04 0.  0.
        5    1    3    3  502    0 -0.38944346439E+03 -0.34667541696E+03  0.22080199863E+03  0.56623817363E+03  0.46999998093E+01 0.  1.
       -5    1    3    3    0  502  0.38944346439E+03  0.34667541696E+03 -0.97590561734E+03  0.11064646043E+04  0.46999998093E+01 0. -1.
</event>
<event>
 5   0  0.7870317E-04  0.1537967E+04  0.7818609E-02  0.8859591E-01
        1   -1    0    0  501    0  0.00000000000E+00  0.00000000000E+00  0.16159010790E+04  0.16159010790E+04  0.50400001928E-02 0. -1.
       -1   -1    0    0    0  501  0.00000000000E+00  0.00000000000E+00 -0.36594773037E+03  0.36594773041E+03  0.50400001928E-02 0.  1.
    10030    2    1    2    0    0  0.00000000000E+00  0.00000000000E+00  0.12499533486E+04  0.19818488094E+04  0.15379666218E+04 0.  0.
        1    1    3    3  502    0 -0.16828440410E+03 -0.11796305158E+03  0.15798582066E+04  0.15931688157E+04  0.50400001928E-02 0. -1.
       -1    1    3    3    0  502  0.16828440410E+03  0.11796305158E+03 -0.32990485798E+03  0.38867999375E+03  0.50400001928E-02 0.  1.
</event>
<event>
 5   0  0.1552067E-03  0.1504538E+04  0.7818609E-02  0.8881441E-01
        2   -1    0    0  501    0  0.00000000000E+00  0.00000000000E+00  0.11425840268E+04  0.11425840268E+04  0.25500000920E-02 0. -1.
       -2   -1    0    0    0  501  0.00000000000E+00  0.00000000000E+00 -0.49528812391E+03  0.49528812392E+03  0.25500000920E-02 0.  1.
    10030    2    1    2    0    0  0.00000000000E+00  0.00000000000E+00  0.64729590292E+03  0.16378721508E+04  0.15045375357E+04 0.  0.
        3    1    3    3  502    0  0.57552782792E+03 -0.38445073545E+03  0.64451194258E+03  0.94574325429E+03  0.10100000352E+00 0.  1.
       -3    1    3    3    0  502 -0.57552782792E+03  0.38445073545E+03  0.27839603411E+01  0.69212889647E+03  0.10100000352E+00 0. -1.
</event>
<event>
 5   0  0.8191876E-04  0.1540223E+04  0.7818609E-02  0.8858137E-01
        1   -1    0    0  501    0  0.00000000000E+00  0.00000000000E+00  0.17270943438E+04  0.17270943439E+04  0.50400001928E-02 0. -1.
       -1   -1    0    0    0  501  0.00000000000E+00  0.00000000000E+00 -0.34339257586E+03  0.34339257590E+03  0.50400001928E-02 0.  1.
    10030    2    1    2    0    0  0.00000000000E+00  0.00000000000E+00  0.13837017680E+04  0.20704869198E+04  0.15402225495E+04 0.  0.
        2    1    3    3  502    0 -0.56358536356E+02 -0.69454316639E+03  0.25108993944E+03  0.74068390849E+03  0.25500000920E-02 0.  1.
       -2    1    3    3    0  502  0.56358536356E+02  0.69454316639E+03  0.11326118285E+04  0.13298030113E+04  0.25500000920E-02 0. -1.
</event>
<event>
 5   0  0.8306301E-04  0.1449085E+04  0.7818609E-02  0.8919035E-01
        1   -1    0    0  501    0  0.00000000000E+00  0.00000000000E+00  0.23431711515E+04  0.23431711515E+04  0.50400001928E-02 0.  1.
       -1   -1    0    0    0  501  0.00000000000E+00  0.00000000000E+00 -0.22403900713E+03  0.22403900718E+03  0.50400001928E-02 0. -1.
    10030    2    1    2    0    0  0.00000000000E+00  0.00000000000E+00  0.21191321443E+04  0.25672101587E+04  0.14490848676E+04 0.  0.
        4    1    3    3  502    0 -0.58687069328E+03  0.28138621873E+03  0.49552465628E+03  0.81801082670E+03  0.12699999809E+01 0. -1.
       -4    1    3    3    0  502  0.58687069328E+03 -0.28138621873E+03  0.16236074881E+04  0.17491993319E+04  0.12699999809E+01 0.  1.
</event>
<event>
 5   0  0.5603875E-04  0.1509793E+04  0.7818609E-02  0.8877967E-01
        3   -1    0    0  501    0  0.00000000000E+00  0.00000000000E+00  0.12279891961E+04  0.12279892003E+04  0.10100000352E+00 0.  1.
       -3   -1    0    0    0  501  0.00000000000E+00  0.00000000000E+00 -0.46406656970E+03  0.46406658069E+03  0.10100000352E+00 0. -1.
    10030    2    1    2    0    0  0.00000000000E+00  0.00000000000E+00  0.76392262643E+03  0.16920557810E+04  0.15097930278E+04 0.  0.
        4    1    3    3  502    0 -0.44738589849E+03 -0.58699779069E+03  0.55968150402E+03  0.92626429666E+03  0.12699999809E+01 0.  1.
       -4    1    3    3    0  502  0.44738589849E+03  0.58699779069E+03  0.20424112241E+03  0.76579148430E+03  0.12699999809E+01 0. -1.
</event>
<event>
 5   0  0.1500956E-03  0.1512702E+04  0.7818609E-02  0.8876050E-01
       -2   -1    0    0    0  501  0.00000000000E+00  0.00000000000E+00  0.33969906215E+03  0.33969906216E+03  0.25500000920E-02 0.  1.
        2   -1    0    0  501    0  0.00000000000E+00  0.00000000000E+00 -0.16840390098E+04  0.16840390098E+04  0.25500000920E-02 0. -1.
    10030    2    1    2    0    0  0.00000000000E+00  0.00000000000E+00 -0.13443399477E+04  0.20237380720E+04  0.15127015202E+04 0.  0.
        4    1    3    3  502    0  0.71910554786E+02 -0.61365301930E+03 -0.88526681607E+02  0.62416323365E+03  0.12699999809E+01 0.  1.
       -4    1    3    3    0  502 -0.71910554786E+02  0.61365301930E+03 -0.12558132661E+04  0.13995748383E+04  0.12699999809E+01 0. -1.
</event>
<event>
 5   0  0.8058234E-04  0.1479307E+04  0.7818609E-02  0.8898332E-01
        1   -1    0    0  501    0  0.00000000000E+00  0.00000000000E+00  0.77322713432E+03  0.77322713433E+03  0.50400001928E-02 0. -1.
       -1   -1    0    0    0  501  0.00000000000E+00  0.00000000000E+00 -0.70753731011E+03  0.70753731013E+03  0.50400001928E-02 0.  1.
    10030    2    1    2    0    0  0.00000000000E+00  0.00000000000E+00  0.65689824206E+02  0.14807644445E+04  0.14793066575E+04 0.  0.
        5    1    3    3  502    0  0.36978182364E+03  0.28165197688E+02 -0.60773344381E+03  0.71196481948E+03  0.46999998093E+01 0.  1.
       -5    1    3    3    0  502 -0.36978182364E+03 -0.28165197688E+02  0.67342326802E+03  0.76879962498E+03  0.46999998093E+01 0. -1.
</event>
<event>
 5   0  0.1526126E-03  0.1498267E+04  0.7818609E-02  0.8885606E-01
        2   -1    0    0  501    0  0.00000000000E+00  0.00000000000E+00  0.70066702387E+03  0.70066702387E+03  0.25500000920E-02 0. -1.
       -2   -1    0    0    0  501  0.00000000000E+00  0.00000000000E+00 -0.80095272282E+03  0.80095272282E+03  0.25500000920E-02 0.  1.
    10030    2    1    2    0    0  0.00000000000E+00  0.00000000000E+00 -0.10028569895E+03  0.15016197467E+04  0.14982672132E+04 0.  0.
        2    1    3    3  502    0 -0.69990394988E+03 -0.26693216709E+03 -0.59264845211E+02  0.75141908598E+03  0.25500000920E-02 0.  1.
       -2    1    3    3    0  502  0.69990394988E+03  0.26693216709E+03 -0.41020853743E+02  0.75020066072E+03  0.25500000920E-02 0. -1.
</event>
<event>
 5   0  0.8306301E-04  0.1498636E+04  0.7818609E-02  0.8885360E-01
        1   -1    0    0  501    0  0.00000000000E+00  0.00000000000E+00  0.14124004332E+04  0.14124004332E+04  0.50400001928E-02 0. -1.
       -1   -1    0    0    0  501  0.00000000000E+00  0.00000000000E+00 -0.39753441629E+03  0.39753441632E+03  0.50400001928E-02 0.  1.
    10030    2    1    2    0    0  0.00000000000E+00  0.00000000000E+00  0.10148660169E+04  0.18099348496E+04  0.14986364227E+04 0.  0.
        4    1    3    3  502    0  0.35104810196E+03 -0.59408201154E+03  0.15468753960E+03  0.70717611252E+03  0.12699999809E+01 0. -1.
       -4    1    3    3    0  502 -0.35104810196E+03  0.59408201154E+03  0.86017847734E+03  0.11027587370E+04  0.12699999809E+01 0.  1.
</event>
<event>
 5   0  0.7870317E-04  0.1509811E+04  0.7818609E-02  0.8877955E-01
       -1   -1    0    0    0  501  0.00000000000E+00  0.00000000000E+00  0.40391176991E+03  0.40391176994E+03  0.50400001928E-02 0.  1.
        1   -1    0    0  501    0  0.00000000000E+00  0.00000000000E+00 -0.14109085046E+04  0.14109085047E+04  0.50400001928E-02 0. -1.
    10030    2    1    2    0    0  0.00000000000E+00  0.00000000000E+00 -0.10069967347E+04  0.18148202746E+04  0.15098113145E+04 0.  0.
        1    1    3    3  502    0  0.65970772710E+02 -0.23982665827E+03  0.35324077401E+03  0.43202779230E+03  0.50400001928E-02 0.  1.
       -1    1    3    3    0  502 -0.65970772710E+02  0.23982665827E+03 -0.13602375087E+04  0.13827924823E+04  0.50400001928E-02 0. -1.
</event>
<event>
 5   0  0.1526126E-03  0.1496443E+04  0.7818609E-02  0.8886822E-01
       -2   -1    0    0    0  501  0.00000000000E+00  0.00000000000E+00  0.46584780228E+03  0.46584780229E+03  0.25500000920E-02 0. -1.
        2   -1    0    0  501    0  0.00000000000E+00  0.00000000000E+00 -0.12017561371E+04  0.12017561371E+04  0.25500000920E-02 0.  1.
    10030    2    1    2    0    0  0.00000000000E+00  0.00000000000E+00 -0.73590833483E+03  0.16676039394E+04  0.14964430565E+04 0.  0.
        2    1    3    3  502    0 -0.55469992350E+03 -0.32943080322E+03  0.54362632224E+02  0.64743490409E+03  0.25500000920E-02 0. -1.
       -2    1    3    3    0  502  0.55469992350E+03  0.32943080322E+03 -0.79027096705E+03  0.10201690353E+04  0.25500000920E-02 0.  1.
</event>
<event>
 5   0  0.1511546E-03  0.1411071E+04  0.7818609E-02  0.8945843E-01
        2   -1    0    0  501    0  0.00000000000E+00  0.00000000000E+00  0.13934358563E+04  0.13934358563E+04  0.25500000920E-02 0.  1.
       -2   -1    0    0    0  501  0.00000000000E+00  0.00000000000E+00 -0.35723243686E+03  0.35723243687E+03  0.25500000920E-02 0. -1.
    10030    2    1    2    0    0  0.00000000000E+00  0.00000000000E+00  0.10362034194E+04  0.17506682931E+04  0.14110712052E+04 0.  0.
        1    1    3    3  502    0 -0.70435352501E+03  0.37164151563E+02  0.53906214544E+03  0.88774042323E+03  0.50400001928E-02 0.  1.
       -1    1    3    3    0  502  0.70435352501E+03 -0.37164151563E+02  0.49714127396E+03  0.86292786990E+03  0.50400001928E-02 0. -1.
</event>
<event>
 5   0  0.8191876E-04  0.1498094E+04  0.7818609E-02  0.8885722E-01
        1   -1    0    0  501    0  0.00000000000E+00  0.00000000000E+00  0.86626468726E+03  0.86626468727E+03  0.50400001928E-02 0.  1.
       -1   -1    0    0    0  501  0.00000000000E+00  0.00000000000E+00 -0.64769014778E+03  0.64769014780E+03  0.50400001928E-02 0. -1.
    10030    2    1    2    0    0  0.00000000000E+00  0.00000000000E+00  0.21857453948E+03  0.15139548351E+04  0.14980935930E+04 0.  0.
        2    1    3    3  502    0 -0.47964783338E+03 -0.38479786164E+03 -0.32295567407E+03  0.69457311048E+03  0.25500000920E-02 0. -1.
       -2    1    3    3    0  502  0.47964783338E+03  0.38479786164E+03  0.54153021355E+03  0.81938172458E+03  0.25500000920E-02 0.  1.
</event>
<event>
 5   0  0.7870317E-04  0.1514974E+04  0.7818609E-02  0.8874556E-01
        1   -1    0    0  501    0  0.00000000000E+00  0.00000000000E+00  0.97372906234E+03  0.97372906235E+03  0.50400001928E-02 0.  1.
       -1   -1    0    0    0  501  0.00000000000E+00  0.00000000000E+00 -0.58926737978E+03  0.58926737981E+03  0.50400001928E-02 0. -1.
    10030    2    1    2    0    0  0.00000000000E+00  0.00000000000E+00  0.38446168256E+03  0.15629964422E+04  0.15149742879E+04 0.  0.
        1    1    3    3  502    0 -0.59328101500E+03 -0.41650213856E+03  0.41904116988E+03  0.83728841881E+03  0.50400001928E-02 0.  1.
       -1    1    3    3    0  502  0.59328101500E+03  0.41650213856E+03 -0.34579487320E+02  0.72570802335E+03  0.50400001928E-02 0. -1.
</event>
<event>
 5   0  0.8306301E-04  0.1516493E+04  0.7818609E-02  0.8873559E-01
        1   -1    0    0  501    0  0.00000000000E+00  0.00000000000E+00  0.71615032494E+03  0.71615032495E+03  0.50400001928E-02 0. -1.
       -1   -1    0    0    0  501  0.00000000000E+00  0.00000000000E+00 -0.80281734418E+03  0.80281734420E+03  0.50400001928E-02 0.  1.
    10030    2    1    2    0    0  0.00000000000E+00  0.00000000000E+00 -0.86667019244E+02  0.15189676692E+04  0.15164931941E+04 0.  0.
        4    1    3    3  502    0 -0.65308506664E+03  0.30877636507E+03 -0.27408593734E+03  0.77264976661E+03  0.12699999809E+01 0.  1.
       -4    1    3    3    0  502  0.65308506664E+03 -0.30877636507E+03  0.18741891809E+03  0.74631790254E+03  0.12699999809E+01 0. -1.
</event>
<event>
 5   0  0.1500956E-03  0.1457306E+04  0.7818609E-02  0.8913351E-01
       -2   -1    0    0    0  501  0.00000000000E+00  0.00000000000E+00  0.57509453660E+03  0.57509453661E+03  0.25500000920E-02 0. -1.
        2   -1    0    0  501    0  0.00000000000E+00  0.00000000000E+00 -0.92321404988E+03  0.92321404989E+03  0.25500000920E-02 0.  1.
    10030    2    1    2    0    0  0.00000000000E+00  0.00000000000E+00 -0.34811951328E+03  0.14983085865E+04  0.14573062221E+04 0.  0.
        4    1    3    3  502    0 -0.56574063221E+03 -0.43100285192E+03 -0.33697246730E+03  0.78700570387E+03  0.12699999809E+01 0.  1.
       -4    1    3    3    0  502  0.56574063221E+03  0.43100285192E+03 -0.11147045986E+02  0.71130288263E+03  0.12699999809E+01 0. -1.
</event>
<event>
 5   0  0.8365016E-04  0.1506143E+04  0.7818609E-02  0.8880378E-01
        1   -1    0    0  501    0  0.00000000000E+00  0.00000000000E+00  0.80134672779E+03  0.80134672780E+03  0.50400001928E-02 0. -1.
       -1   -1    0    0    0  501  0.00000000000E+00  0.00000000000E+00 -0.70770430940E+03  0.70770430942E+03  0.50400001928E-02 0.  1.
    10030    2    1    2    0    0  0.00000000000E+00  0.00000000000E+00  0.93642418384E+02  0.15090510372E+04  0.15061427988E+04 0.  0.
        3    1    3    3  502    0  0.43986538079E+03  0.48103902555E+03  0.42469188705E+03  0.77797384689E+03  0.10100000352E+00 0. -1.
       -3    1    3    3    0  502 -0.43986538079E+03 -0.48103902555E+03 -0.33104946867E+03  0.73107719033E+03  0.10100000352E+00 0.  1.
</event>
<event>
 5   0  0.7870317E-04  0.1556014E+04  0.7818609E-02  0.8848036E-01
       -1   -1    0    0    0  501  0.00000000000E+00  0.00000000000E+00  0.30005521623E+03  0.30005521628E+03  0.50400001928E-02 0. -1.
        1   -1    0    0  501    0  0.00000000000E+00  0.00000000000E+00 -0.20172777371E+04  0.20172777371E+04  0.50400001928E-02 0.  1.
    10030    2    1    2    0    0  0.00000000000E+00  0.00000000000E+00 -0.17172225208E+04  0.23173329533E+04  0.15560137630E+04 0.  0.
        1    1    3    3  502    0 -0.55349013838E+02  0.72767248905E+03 -0.12602297628E+04  0.14562794442E+04  0.50400001928E-02 0.  1.
       -1    1    3    3    0  502  0.55349013838E+02 -0.72767248905E+03 -0.45699275807E+03  0.86105350914E+03  0.50400001928E-02 0. -1.
</event>
<event>
 5   0  0.7870317E-04  0.1474849E+04  0.7818609E-02  0.8901352E-01
       -1   -1    0    0    0  501  0.00000000000E+00  0.00000000000E+00  0.36206518621E+03  0.36206518625E+03  0.50400001928E-02 0.  1.
        1   -1    0    0  501    0  0.00000000000E+00  0.00000000000E+00 -0.15019262266E+04  0.15019262266E+04  0.50400001928E-02 0. -1.
    10030    2    1    2    0    0  0.00000000000E+00  0.00000000000E+00 -0.11398610404E+04  0.18639914129E+04  0.14748494146E+04 0.  0.
        1    1    3    3  502    0  0.29782074676E+03 -0.30314084789E+03  0.19174731211E+03  0.46621733407E+03  0.50400001928E-02 0.  1.
       -1    1    3    3    0  502 -0.29782074676E+03  0.30314084789E+03 -0.13316083525E+04  0.13977740788E+04  0.50400001928E-02 0. -1.
</event>
<event>
 5   0  0.1500956E-03  0.1496637E+04  0.7818609E-02  0.8886692E-01
       -2   -1    0    0    0  501  0.00000000000E+00  0.00000000000E+00  0.41449463800E+03  0.41449463801E+03  0.25500000920E-02 0. -1.
        2   -1    0    0  501    0  0.00000000000E+00  0.00000000000E+00 -0.13509967267E+04  0.13509967267E+04  0.25500000920E-02 0.  1.
    10030    2    1    2    0    0  0.00000000000E+00  0.00000000000E+00 -0.93650208867E+03  0.17654913647E+04  0.14966374299E+04 0.  0.
        4    1    3    3  502    0 -0.60978860491E+03 -0.21334025641E+03 -0.91374713627E+03  0.11190583763E+04  0.12699999809E+01 0.  1.
       -4    1    3    3    0  502  0.60978860491E+03  0.21334025641E+03 -0.22754952403E+02  0.64643298836E+03  0.12699999809E+01 0. -1.
</event>
<event>
 5   0  0.1552067E-03  0.1519268E+04  0.7818609E-02  0.8871740E-01
       -2   -1    0    0    0  501  0.00000000000E+00  0.00000000000E+00  0.34616319113E+03  0.34616319114E+03  0.25500000920E-02 0.  1.
        2   -1    0    0  501    0  0.00000000000E+00  0.00000000000E+00 -0.16669710118E+04  0.16669710118E+04  0.25500000920E-02 0. -1.
    10030    2    1    2    0    0  0.00000000000E+00  0.00000000000E+00 -0.13208078206E+04  0.20131342029E+04  0.15192682515E+04 0.  0.
        3    1    3    3  502    0  0.59635311376E+03  0.39283257392E+03 -0.31718940733E+03  0.78138569078E+03  0.10100000352E+00 0.  1.
       -3    1    3    3    0  502 -0.59635311376E+03 -0.39283257392E+03 -0.10036184133E+04  0.12317485121E+04  0.10100000352E+00 0. -1.
</event>
<event>
 5   0  0.1484056E-03  0.1538528E+04  0.7818609E-02  0.8859229E-01
       -2   -1    0    0    0  501  0.00000000000E+00  0.00000000000E+00  0.89510327059E+03  0.89510327059E+03  0.25500000920E-02 0. -1.
        2   -1    0    0  501    0  0.00000000000E+00  0.00000000000E+00 -0.66111613266E+03  0.66111613266E+03  0.25500000920E-02 0.  1.
    10030    2    1    2    0    0  0.00000000000E+00  0.00000000000E+00  0.23398713793E+03  0.15562194033E+04  0.15385281442E+04 0.  0.
        5    1    3    3  502    0  0.95300297112E+02  0.40251836006E+03 -0.53903336402E+03  0.67947202616E+03  0.46999998093E+01 0.  1.
       -5    1    3    3    0  502 -0.95300297112E+02 -0.40251836006E+03  0.77302050195E+03  0.87674737710E+03  0.46999998093E+01 0. -1.
</event>
<event>
 5   0  0.1552067E-03  0.1519149E+04  0.7818609E-02  0.8871818E-01
       -2   -1    0    0    0  501  0.00000000000E+00  0.00000000000E+00  0.37450479712E+03  0.37450479712E+03  0.25500000920E-02 0. -1.
        2   -1    0    0  501    0  0.00000000000E+00  0.00000000000E+00 -0.15405769408E+04  0.15405769408E+04  0.25500000920E-02 0.  1.
    10030    2    1    2    0    0  0.00000000000E+00  0.00000000000E+00 -0.11660721437E+04  0.19150817380E+04  0.15191490443E+04 0.  0.
        3    1    3    3  502    0 -0.56452425684E+03  0.50816829569E+03 -0.57604087399E+03  0.95328157017E+03  0.10100000352E+00 0.  1.
       -3    1    3    3    0  502  0.56452425684E+03 -0.50816829569E+03 -0.59003126971E+03  0.96180016778E+03  0.10100000352E+00 0. -1.
</event>
<event>
 5   0  0.8058234E-04  0.1399621E+04  0.7818609E-02  0.8954093E-01
       -1   -1    0    0    0  501  0.00000000000E+00  0.00000000000E+00  0.42572556456E+03  0.42572556459E+03  0.50400001928E-02 0.  1.
        1   -1    0    0  501    0  0.00000000000E+00  0.00000000000E+00 -0.11503531180E+04  0.11503531180E+04  0.50400001928E-02 0. -1.
    10030    2    1    2    0    0  0.00000000000E+00  0.00000000000E+00 -0.72462755342E+03  0.15760786826E+04  0.13996209924E+04 0.  0.
        5    1    3    3  502    0 -0.44252288530E+03  0.49983248758E+03 -0.12596233667E+03  0.67937296083E+03  0.46999998093E+01 0.  1.
       -5    1    3    3    0  502  0.44252288530E+03 -0.49983248758E+03 -0.59866521675E+03  0.89670572174E+03  0.46999998093E+01 0. -1.
</event>
<event>
 5   0  0.1484056E-03  0.1560675E+04  0.7818609E-02  0.8845078E-01
        2   -1    0    0  501    0  0.00000000000E+00  0.00000000000E+00  0.82456799804E+03  0.82456799805E+03  0.25500000920E-02 0. -1.
       -2   -1    0    0    0  501  0.00000000000E+00  0.00000000000E+00 -0.73847967978E+03  0.73847967978E+03  0.25500000920E-02 0.  1.
    10030    2    1    2    0    0  0.00000000000E+00  0.00000000000E+00  0.86088318263E+02  0.15630476778E+04  0.15606751246E+04 0.  0.
        5    1    3    3  502    0 -0.98972201149E+02 -0.73314026780E+03 -0.20555581773E+03  0.76783164371E+03  0.46999998093E+01 0.  1.
       -5    1    3    3    0  502  0.98972201149E+02  0.73314026780E+03  0.29164413599E+03  0.79521603413E+03  0.46999998093E+01 0. -1.
</event>
<event>
 5   0  0.1526126E-03  0.1518290E+04  0.7818609E-02  0.8872380E-01
       -2   -1    0    0    0  501  0.00000000000E+00  0.00000000000E+00  0.66006672623E+03  0.66006672623E+03  0.25500000920E-02 0. -1.
        2   -1    0    0  501    0  0.00000000000E+00  0.00000000000E+00 -0.87309566253E+03  0.87309566253E+03  0.25500000920E-02 0.  1.
    10030    2    1    2    0    0  0.00000000000E+00  0.00000000000E+00 -0.21302893630E+03  0.15331623888E+04  0.15182903486E+04 0.  0.
        2    1    3    3  502    0  0.14852771531E+03  0.56104919894E+03  0.38763016778E+03  0.69792107922E+03  0.25500000920E-02 0. -1.
       -2    1    3    3    0  502 -0.14852771531E+03 -0.56104919894E+03 -0.60065910408E+03  0.83524130954E+03  0.25500000920E-02 0.  1.
</event>
<event>
 5   0  0.1484056E-03  0.1473026E+04  0.7818609E-02  0.8902591E-01
       -2   -1    0    0    0  501  0.00000000000E+00  0.00000000000E+00  0.23578645105E+03  0.23578645107E+03  0.25500000920E-02 0. -1.
        2   -1    0    0  501    0  0.00000000000E+00  0.00000000000E+00 -0.23006041871E+04  0.23006041871E+04  0.25500000920E-02 0.  1.
    10030    2    1    2    0    0  0.00000000000E+00  0.00000000000E+00 -0.20648177361E+04  0.25363906382E+04  0.14730258607E+04 0.  0.
        5    1    3    3  502    0 -0.82862703957E+02  0.71675489552E+03 -0.77802658402E+03  0.10611085069E+04  0.46999998093E+01 0. -1.
       -5    1    3    3    0  502  0.82862703957E+02 -0.71675489552E+03 -0.12867911521E+04  0.14752821313E+04  0.46999998093E+01 0.  1.
</event>
<event>
 5   0  0.7870317E-04  0.1505007E+04  0.7818609E-02  0.8881130E-01
        1   -1    0    0  501    0  0.00000000000E+00  0.00000000000E+00  0.14472092487E+04  0.14472092487E+04  0.50400001928E-02 0.  1.
       -1   -1    0    0    0  501  0.00000000000E+00  0.00000000000E+00 -0.39127810085E+03  0.39127810088E+03  0.50400001928E-02 0. -1.
    10030    2    1    2    0    0  0.00000000000E+00  0.00000000000E+00  0.10559311478E+04  0.18384873496E+04  0.15050066929E+04 0.  0.
        1    1    3    3  502    0  0.68316198415E+03 -0.30308659789E+03  0.63508577436E+03  0.98076792526E+03  0.50400001928E-02 0.  1.
       -1    1    3    3    0  502 -0.68316198415E+03  0.30308659789E+03  0.42084537346E+03  0.85771942429E+03  0.50400001928E-02 0. -1.
</event>
<event>
 5   0  0.1526126E-03  0.1505896E+04  0.7818609E-02  0.8880542E-01
        2   -1    0    0  501    0  0.00000000000E+00  0.00000000000E+00  0.47978262417E+03  0.47978262417E+03  0.25500000920E-02 0. -1.
       -2   -1    0    0    0  501  0.00000000000E+00  0.00000000000E+00 -0.11816400562E+04  0.11816400562E+04  0.25500000920E-02 0.  1.
    10030    2    1    2    0    0  0.00000000000E+00  0.00000000000E+00 -0.70185743200E+03  0.16614226803E+04  0.15058955701E+04 0.  0.
        2    1    3    3  502    0 -0.13571901302E+03 -0.62970101282E+03  0.79190654799E+02  0.64901015082E+03  0.25500000920E-02 0. -1.
       -2    1    3    3    0  502  0.13571901302E+03  0.62970101282E+03 -0.78104808680E+03  0.10124125295E+04  0.25500000920E-02 0.  1.
</event>
<event>
 5   0  0.8058234E-04  0.1536128E+04  0.7818609E-02  0.8860777E-01
       -1   -1    0    0    0  501  0.00000000000E+00  0.00000000000E+00  0.59609388475E+03  0.59609388477E+03  0.50400001928E-02 0.  1.
        1   -1    0    0  501    0  0.00000000000E+00  0.00000000000E+00 -0.98964699403E+03  0.98964699404E+03  0.50400001928E-02 0. -1.
    10030    2    1    2    0    0  0.00000000000E+00  0.00000000000E+00 -0.39355310928E+03  0.15857408788E+04  0.15361282775E+04 0.  0.
        5    1    3    3  502    0  0.94163642334E+02 -0.76068865958E+03 -0.14634798853E+03  0.78035495263E+03  0.46999998093E+01 0.  1.
       -5    1    3    3    0  502 -0.94163642334E+02  0.76068865958E+03 -0.24720512075E+03  0.80538592618E+03  0.46999998093E+01 0. -1.
</event>
<event>
 5   0  0.8365016E-04  0.1318900E+04  0.7818609E-02  0.9014710E-01
        1   -1    0    0  501    0  0.00000000000E+00  0.00000000000E+00  0.84651780379E+03  0.84651780381E+03  0.50400001928E-02 0.  1.
       -1   -1    0    0    0  501  0.00000000000E+00  0.00000000000E+00 -0.51372148449E+03  0.51372148451E+03  0.50400001928E-02 0. -1.
    10030    2    1    2    0    0  0.00000000000E+00  0.00000000000E+00  0.33279631931E+03  0.13602392883E+04  0.13189001218E+04 0.  0.
        3    1    3    3  502    0 -0.36721642915E+03  0.45824215586E+03  0.47587102818E+03  0.75583531599E+03  0.10100000352E+00 0. -1.
       -3    1    3    3    0  502  0.36721642915E+03 -0.45824215586E+03 -0.14307470887E+03  0.60440397232E+03  0.10100000352E+00 0.  1.
</event>
<event>
 5   0  0.1500956E-03  0.1500214E+04  0.7818609E-02  0.8884310E-01
       -2   -1    0    0    0  501  0.00000000000E+00  0.00000000000E+00  0.66877128095E+03  0.66877128095E+03  0.25500000920E-02 0.  1.
        2   -1    0    0  501    0  0.00000000000E+00  0.00000000000E+00 -0.84133503402E+03  0.84133503402E+03  0.25500000920E-02 0. -1.
    10030    2    1    2    0    0  0.00000000000E+00  0.00000000000E+00 -0.17256375307E+03  0.15101063150E+04  0.15002142626E+04 0.  0.
        4    1    3    3  502    0  0.14576722695E+03 -0.22346767423E+03 -0.79195594454E+03  0.83569235780E+03  0.12699999809E+01 0. -1.
       -4    1    3    3    0  502 -0.14576722695E+03  0.22346767423E+03  0.61939219147E+03  0.67441395718E+03  0.12699999809E+01 0.  1.
</event>
<event>
 5   0  0.8058234E-04  0.1493378E+04  0.7818609E-02  0.8888869E-01
        1   -1    0    0  501    0  0.00000000000E+00  0.00000000000E+00  0.12350404060E+04  0.12350404060E+04  0.50400001928E-02 0. -1.
       -1   -1    0    0    0  501  0.00000000000E+00  0.00000000000E+00 -0.45143800782E+03  0.45143800784E+03  0.50400001928E-02 0.  1.
    10030    2    1    2    0    0  0.00000000000E+00  0.00000000000E+00  0.78360239815E+03  0.16864784138E+04  0.14933776220E+04 0.  0.
        5    1    3    3  502    0  0.28132799879E+03 -0.53204751943E+03 -0.10727238930E+03  0.61135052248E+03  0.46999998093E+01 0.  1.
       -5    1    3    3    0  502 -0.28132799879E+03  0.53204751943E+03  0.89087478745E+03  0.10751278913E+04  0.46999998093E+01 0. -1.
</event>
<event>
 5   0  0.7870317E-04  0.1531531E+04  0.7818609E-02  0.8863752E-01
       -1   -1    0    0    0  501  0.00000000000E+00  0.00000000000E+00  0.78460918976E+03  0.78460918978E+03  0.50400001928E-02 0.  1.
        1   -1    0    0  501    0  0.00000000000E+00  0.00000000000E+00 -0.74737472463E+03  0.74737472464E+03  0.50400001928E-02 0. -1.
    10030    2    1    2    0    0  0.00000000000E+00  0.00000000000E+00  0.37234465134E+02  0.15319839144E+04  0.15315313606E+04 0.  0.
        1    1    3    3  502    0 -0.25157698003E+03  0.72325988612E+03  0.17504526097E+02  0.76596491317E+03  0.50400001928E-02 0. -1.
       -1    1    3    3    0  502  0.25157698003E+03 -0.72325988612E+03  0.19729939038E+02  0.76601900125E+03  0.50400001928E-02 0.  1.
</event>
<event>
 5   0  0.8058234E-04  0.1387058E+04  0.7818609E-02  0.8963240E-01
        1   -1    0    0  501    0  0.00000000000E+00  0.00000000000E+00  0.17930229901E+04  0.17930229901E+04  0.50400001928E-02 0. -1.
       -1   -1    0    0    0  501  0.00000000000E+00  0.00000000000E+00 -0.26825237767E+03  0.26825237772E+03  0.50400001928E-02 0.  1.
    10030    2    1    2    0    0  0.00000000000E+00  0.00000000000E+00  0.15247706124E+04  0.20612753678E+04  0.13870582978E+04 0.  0.
        5    1    3    3  502    0 -0.18851929030E+03  0.49960426730E+03  0.14199918102E+04  0.15170836423E+04  0.46999998093E+01 0. -1.
       -5    1    3    3    0  502  0.18851929030E+03 -0.49960426730E+03  0.10477880222E+03  0.54419172550E+03  0.46999998093E+01 0.  1.
</event>
<event>
 5   0  0.1484056E-03  0.1351927E+04  0.7818609E-02  0.8989371E-01
        2   -1    0    0  501    0  0.00000000000E+00  0.00000000000E+00  0.20412072766E+04  0.20412072766E+04  0.25500000920E-02 0.  1.
       -2   -1    0    0    0  501  0.00000000000E+00  0.00000000000E+00 -0.22385118844E+03  0.22385118845E+03  0.25500000920E-02 0. -1.
    10030    2    1    2    0    0  0.00000000000E+00  0.00000000000E+00  0.18173560881E+04  0.22650584650E+04  0.13519270316E+04 0.  0.
        5    1    3    3  502    0  0.48700535797E+03 -0.27495069802E+03  0.15447512384E+04  0.16428787489E+04  0.46999998093E+01 0.  1.
       -5    1    3    3    0  502 -0.48700535797E+03  0.27495069802E+03  0.27260484968E+03  0.62217971608E+03  0.46999998093E+01 0. -1.
</event>
<event>
 5   0  0.8306301E-04  0.1397235E+04  0.7818609E-02  0.8955823E-01
        1   -1    0    0  501    0  0.00000000000E+00  0.00000000000E+00  0.43038009126E+03  0.43038009129E+03  0.50400001928E-02 0.  1.
       -1   -1    0    0    0  501  0.00000000000E+00  0.00000000000E+00 -0.11340355864E+04  0.11340355864E+04  0.50400001928E-02 0. -1.
    10030    2    1    2    0    0  0.00000000000E+00  0.00000000000E+00 -0.70365549510E+03  0.15644156777E+04  0.13972348968E+04 0.  0.
        4    1    3    3  502    0 -0.21053827047E+03  0.37296338926E+03  0.26615140961E+03  0.50424819166E+03  0.12699999809E+01 0.  1.
       -4    1    3    3    0  502  0.21053827047E+03 -0.37296338926E+03 -0.96980690471E+03  0.10601674860E+04  0.12699999809E+01 0. -1.
</event>
<event>
 5   0  0.5603875E-04  0.1492413E+04  0.7818609E-02  0.8889514E-01
       -3   -1    0    0    0  501  0.00000000000E+00  0.00000000000E+00  0.11658708440E+04  0.11658708484E+04  0.10100000352E+00 0.  1.
        3   -1    0    0  501    0  0.00000000000E+00  0.00000000000E+00 -0.47760385967E+03  0.47760387035E+03  0.10100000352E+00 0. -1.
    10030    2    1    2    0    0  0.00000000000E+00  0.00000000000E+00  0.68826698434E+03  0.16434747187E+04  0.14924133842E+04 0.  0.
        2    1    3    3  502    0 -0.45863743312E+03  0.48639368440E+03 -0.20929186064E+02  0.66885360291E+03  0.25500000920E-02 0.  1.
       -2    1    3    3    0  502  0.45863743312E+03 -0.48639368440E+03  0.70919617040E+03  0.97462111582E+03  0.25500000920E-02 0. -1.
</event>
<event>
 5   0  0.1484056E-03  0.1555592E+04  0.7818609E-02  0.8848304E-01
       -2   -1    0    0    0  501  0.00000000000E+00  0.00000000000E+00  0.41056927549E+03  0.41056927550E+03  0.25500000920E-02 0.  1.
        2   -1    0    0  501    0  0.00000000000E+00  0.00000000000E+00 -0.14734820213E+04  0.14734820213E+04  0.25500000920E-02 0. -1.
    10030    2    1    2    0    0  0.00000000000E+00  0.00000000000E+00 -0.10629127458E+04  0.18840512968E+04  0.15555917793E+04 0.  0.
        5    1    3    3  502    0 -0.11312401887E+03  0.40868998318E+03 -0.13211393117E+04  0.13875358435E+04  0.46999998093E+01 0. -1.
       -5    1    3    3    0  502  0.11312401887E+03 -0.40868998318E+03  0.25822656594E+03  0.49651545329E+03  0.46999998093E+01 0.  1.
</event>
<event>
 5   0  0.8058234E-04  0.1432021E+04  0.7818609E-02  0.8930961E-01
       -1   -1    0    0    0  501  0.00000000000E+00  0.00000000000E+00  0.43745832703E+03  0.43745832705E+03  0.50400001928E-02 0.  1.
        1   -1    0    0  501    0  0.00000000000E+00  0.00000000000E+00 -0.11719314276E+04  0.11719314276E+04  0.50400001928E-02 0. -1.
    10030    2    1    2    0    0  0.00000000000E+00  0.00000000000E+00 -0.73447310060E+03  0.16093897547E+04  0.14320211755E+04 0.  0.
        5    1    3    3  502    0 -0.47853398596E+03  0.50143426121E+01  0.23129524481E+03  0.53154444745E+03  0.46999998093E+01 0.  1.
       -5    1    3    3    0  502  0.47853398596E+03 -0.50143426121E+01 -0.96576834541E+03  0.10778453072E+04  0.46999998093E+01 0. -1.
</event>
<event>
 5   0  0.1500956E-03  0.1513032E+04  0.7818609E-02  0.8875832E-01
       -2   -1    0    0    0  501  0.00000000000E+00  0.00000000000E+00  0.24751233061E+03  0.24751233062E+03  0.25500000920E-02 0.  1.
        2   -1    0    0  501    0  0.00000000000E+00  0.00000000000E+00 -0.23122757564E+04  0.23122757564E+04  0.25500000920E-02 0. -1.
    10030    2    1    2    0    0  0.00000000000E+00  0.00000000000E+00 -0.20647634258E+04  0.25597880871E+04  0.15130324009E+04 0.  0.
        4    1    3    3  502    0  0.53582883976E+03  0.29960948276E+03 -0.17803081996E+04  0.18831827543E+04  0.12699999809E+01 0. -1.
       -4    1    3    3    0  502 -0.53582883976E+03 -0.29960948276E+03 -0.28445522622E+03  0.67660533275E+03  0.12699999809E+01 0.  1.
</event>
<event>
 5   0  0.8306301E-04  0.1474862E+04  0.7818609E-02  0.8901343E-01
        1   -1    0    0  501    0  0.00000000000E+00  0.00000000000E+00  0.48862966104E+03  0.48862966107E+03  0.50400001928E-02 0.  1.
       -1   -1    0    0    0  501  0.00000000000E+00  0.00000000000E+00 -0.11129178818E+04  0.11129178818E+04  0.50400001928E-02 0. -1.
    10030    2    1    2    0    0  0.00000000000E+00  0.00000000000E+00 -0.62428822076E+03  0.16015475429E+04  0.14748622815E+04 0.  0.
        4    1    3    3  502    0 -0.17520086137E+02  0.60974100738E+03  0.13783123749E+03  0.62537197924E+03  0.12699999809E+01 0.  1.
       -4    1    3    3    0  502  0.17520086137E+02 -0.60974100738E+03 -0.76211945825E+03  0.97617556363E+03  0.12699999809E+01 0. -1.
</event>
<event>
 5   0  0.8191876E-04  0.1407787E+04  0.7818609E-02  0.8948201E-01
       -1   -1    0    0    0  501  0.00000000000E+00  0.00000000000E+00  0.55384223095E+03  0.55384223098E+03  0.50400001928E-02 0. -1.
        1   -1    0    0  501    0  0.00000000000E+00  0.00000000000E+00 -0.89459753669E+03  0.89459753670E+03  0.50400001928E-02 0.  1.
    10030    2    1    2    0    0  0.00000000000E+00  0.00000000000E+00 -0.34075530574E+03  0.14484397677E+04  0.14077867673E+04 0.  0.
        2    1    3    3  502    0 -0.27297835680E+03  0.47643579674E+03 -0.62350159636E+03  0.83082037310E+03  0.25500000920E-02 0.  1.
       -2    1    3    3    0  502  0.27297835680E+03 -0.47643579674E+03  0.28274629062E+03  0.61761939458E+03  0.25500000920E-02 0. -1.
</event>
<event>
 5   0  0.8365016E-04  0.1550080E+04  0.7818609E-02  0.8851817E-01
       -1   -1    0    0    0  501  0.00000000000E+00  0.00000000000E+00  0.49323144676E+03  0.49323144678E+03  0.50400001928E-02 0.  1.
        1   -1    0    0  501    0  0.00000000000E+00  0.00000000000E+00 -0.12178604522E+04  0.12178604522E+04  0.50400001928E-02 0. -1.
    10030    2    1    2    0    0  0.00000000000E+00  0.00000000000E+00 -0.72462900548E+03  0.17110918990E+04  0.15500800919E+04 0.  0.
        3    1    3    3  502    0 -0.39177771167E+03  0.30389011343E+02 -0.10997429546E+04  0.11678389631E+04  0.10100000352E+00 0. -1.
       -3    1    3    3    0  502  0.39177771167E+03 -0.30389011343E+02  0.37511394911E+03  0.54325293593E+03  0.10100000352E+00 0.  1.
</event>
<event>
 5   0  0.1552067E-03  0.1452514E+04  0.7818609E-02  0.8916659E-01
       -2   -1    0    0    0  501  0.00000000000E+00  0.00000000000E+00  0.72946774333E+03  0.72946774333E+03  0.25500000920E-02 0.  1.
        2   -1    0    0  501    0  0.00000000000E+00  0.00000000000E+00 -0.72306031734E+03  0.72306031735E+03  0.25500000920E-02 0. -1.
    10030    2    1    2    0    0  0.00000000000E+00  0.00000000000E+00  0.64074259841E+01  0.14525280607E+04  0.14525139283E+04 0.  0.
        3    1    3    3  502    0 -0.14380474325E+03 -0.73505794841E+02  0.71128281730E+03  0.72938752556E+03  0.10100000352E+00 0.  1.
       -3    1    3    3    0  502  0.14380474325E+03  0.73505794841E+02 -0.70487539132E+03  0.72314053512E+03  0.10100000352E+00 0. -1.
</event>
<event>
 5   0  0.8191876E-04  0.1432986E+04  0.7818609E-02  0.8930282E-01
       -1   -1    0    0    0  501  0.00000000000E+00  0.00000000000E+00  0.28725249049E+03  0.28725249054E+03  0.50400001928E-02 0. -1.
        1   -1    0    0  501    0  0.00000000000E+00  0.00000000000E+00 -0.17871470117E+04  0.17871470117E+04  0.50400001928E-02 0.  1.
    10030    2    1    2    0    0  0.00000000000E+00  0.00000000000E+00 -0.14998945212E+04  0.20743995023E+04  0.14329862945E+04 0.  0.
        2    1    3    3  502    0  0.20489780464E+03 -0.55203442607E+03 -0.13408778732E+04  0.14644721195E+04  0.25500000920E-02 0.  1.
       -2    1    3    3    0  502 -0.20489780464E+03  0.55203442607E+03 -0.15901664805E+03  0.60992738279E+03  0.25500000920E-02 0. -1.
</event>
<event>
 5   0  0.8191876E-04  0.1513548E+04  0.7818609E-02  0.8875494E-01
        1   -1    0    0  501    0  0.00000000000E+00  0.00000000000E+00  0.12429046039E+04  0.12429046039E+04  0.50400001928E-02 0.  1.
       -1   -1    0    0    0  501  0.00000000000E+00  0.00000000000E+00 -0.46078088037E+03  0.46078088040E+03  0.50400001928E-02 0. -1.
    10030    2    1    2    0    0  0.00000000000E+00  0.00000000000E+00  0.78212372354E+03  0.17036854843E+04  0.15135477232E+04 0.  0.
        2    1    3    3  502    0 -0.73767789737E+03 -0.10347216521E+03  0.54137167846E+03  0.92084660150E+03  0.25500000920E-02 0. -1.
       -2    1    3    3    0  502  0.73767789737E+03  0.10347216521E+03  0.24075204508E+03  0.78283888282E+03  0.25500000920E-02 0.  1.
</event>
<event>
 5   0  0.1484056E-03  0.1600491E+04  0.7818609E-02  0.8820246E-01
        2   -1    0    0  501    0  0.00000000000E+00  0.00000000000E+00  0.45234499139E+03  0.45234499140E+03  0.25500000920E-02 0. -1.
       -2   -1    0    0    0  501  0.00000000000E+00  0.00000000000E+00 -0.14157183104E+04  0.14157183104E+04  0.25500000920E-02 0.  1.
    10030    2    1    2    0    0  0.00000000000E+00  0.00000000000E+00 -0.96337331897E+03  0.18680633018E+04  0.16004912832E+04 0.  0.
        5    1    3    3  502    0 -0.10934878548E+02  0.63872350806E+03  0.80845879140E+02  0.64392968365E+03  0.46999998093E+01 0. -1.
       -5    1    3    3    0  502  0.10934878548E+02 -0.63872350806E+03 -0.10442191981E+04  0.12241336181E+04  0.46999998093E+01 0.  1.
</event>
<event>
 5   0  0.1500956E-03  0.1489891E+04  0.7818609E-02  0.8891203E-01
       -2   -1    0    0    0  501  0.00000000000E+00  0.00000000000E+00  0.74836262589E+03  0.74836262589E+03  0.25500000920E-02 0.  1.
        2   -1    0    0  501    0  0.00000000000E+00  0.00000000000E+00 -0.74154427467E+03  0.74154427468E+03  0.25500000920E-02 0. -1.
    10030    2    1    2    0    0  0.00000000000E+00  0.00000000000E+00  0.68183512168E+01  0.14899069006E+04  0.14898912989E+04 0.  0.
        4    1    3    3  502    0 -0.63728288565E+03 -0.25675592479E+03  0.29131725546E+03  0.74627102147E+03  0.12699999809E+01 0. -1.
       -4    1    3    3    0  502  0.63728288565E+03  0.25675592479E+03 -0.28449890424E+03  0.74363587910E+03  0.12699999809E+01 0.  1.
</event>
<event>
 5   0  0.8191876E-04  0.1527498E+04  0.7818609E-02  0.8866370E-01
        1   -1    0    0  501    0  0.00000000000E+00  0.00000000000E+00  0.10859180108E+04  0.10859180108E+04  0.50400001928E-02 0.  1.
       -1   -1    0    0    0  501  0.00000000000E+00  0.00000000000E+00 -0.53716068854E+03  0.53716068857E+03  0.50400001928E-02 0. -1.
    10030    2    1    2    0    0  0.00000000000E+00  0.00000000000E+00  0.54875732223E+03  0.16230786994E+04  0.15274979102E+04 0.  0.
        2    1    3    3  502    0  0.51996433863E+03 -0.22309109403E+03  0.81949013833E+03  0.99583966405E+03  0.25500000920E-02 0.  1.
       -2    1    3    3    0  502 -0.51996433863E+03  0.22309109403E+03 -0.27073281610E+03  0.62723903530E+03  0.25500000920E-02 0. -1.
</event>
<event>
 5   0  0.8365016E-04  0.1656307E+04  0.7818609E-02  0.8786684E-01
       -1   -1    0    0    0  501  0.00000000000E+00  0.00000000000E+00  0.86360363687E+03  0.86360363688E+03  0.50400001928E-02 0.  1.
        1   -1    0    0  501    0  0.00000000000E+00  0.00000000000E+00 -0.79415812265E+03  0.79415812266E+03  0.50400001928E-02 0. -1.
    10030    2    1    2    0    0  0.00000000000E+00  0.00000000000E+00  0.69445514221E+02  0.16577617595E+04  0.16563065453E+04 0.  0.
        3    1    3    3  502    0 -0.33647021010E+03 -0.56101443405E+03  0.54299609965E+03  0.85017302470E+03  0.10100000352E+00 0.  1.
       -3    1    3    3    0  502  0.33647021010E+03  0.56101443405E+03 -0.47355058543E+03  0.80758873485E+03  0.10100000352E+00 0. -1.
</event>
<event>
 5   0  0.8365016E-04  0.1494211E+04  0.7818609E-02  0.8888311E-01
       -1   -1    0    0    0  501  0.00000000000E+00  0.00000000000E+00  0.41244871292E+03  0.41244871295E+03  0.50400001928E-02 0. -1.
        1   -1    0    0  501    0  0.00000000000E+00  0.00000000000E+00 -0.13533000001E+04  0.13533000001E+04  0.50400001928E-02 0.  1.
    10030    2    1    2    0    0  0.00000000000E+00  0.00000000000E+00 -0.94085128714E+03  0.17657487130E+04  0.14942112879E+04 0.  0.
        3    1    3    3  502    0  0.69523773414E+03  0.23060516562E+03 -0.29661711556E+03  0.79026323009E+03  0.10100000352E+00 0.  1.
       -3    1    3    3    0  502 -0.69523773414E+03 -0.23060516562E+03 -0.64423417158E+03  0.97548548293E+03  0.10100000352E+00 0. -1.
</event>
<event>
 5   0  0.1526126E-03  0.1276491E+04  0.7818609E-02  0.9048418E-01
       -2   -1    0    0    0  501  0.00000000000E+00  0.00000000000E+00  0.25269147970E+03  0.25269147972E+03  0.25500000920E-02 0. -1.
        2   -1    0    0  501    0  0.00000000000E+00  0.00000000000E+00 -0.16120749544E+04  0.16120749544E+04  0.25500000920E-02 0.  1.
    10030    2    1    2    0    0  0.00000000000E+00  0.00000000000E+00 -0.13593834747E+04  0.18647664341E+04  0.12764914502E+04 0.  0.
        2    1    3    3  502    0  0.37279054650E+03 -0.51431599524E+03 -0.58888504683E+03  0.86618666170E+03  0.25500000920E-02 0. -1.
       -2    1    3    3    0  502 -0.37279054650E+03  0.51431599524E+03 -0.77049842783E+03  0.99857977239E+03  0.25500000920E-02 0.  1.
</event>
<event>
 5   0  0.7870317E-04  0.1552702E+04  0.7818609E-02  0.8850144E-01
        1   -1    0    0  501    0  0.00000000000E+00  0.00000000000E+00  0.89502189552E+03  0.89502189554E+03  0.50400001928E-02 0.  1.
       -1   -1    0    0    0  501  0.00000000000E+00  0.00000000000E+00 -0.67341440093E+03  0.67341440094E+03  0.50400001928E-02 0. -1.
    10030    2    1    2    0    0  0.00000000000E+00  0.00000000000E+00  0.22160749460E+03  0.15684362965E+04  0.15527016888E+04 0.  0.
        1    1    3    3  502    0 -0.75468847532E+03  0.11558607767E+03  0.25296296518E+03  0.80430410786E+03  0.50400001928E-02 0.  1.
       -1    1    3    3    0  502  0.75468847532E+03 -0.11558607767E+03 -0.31355470582E+02  0.76413218863E+03  0.50400001928E-02 0. -1.
</event>
<event>
 5   0  0.1484056E-03  0.1488200E+04  0.7818609E-02  0.8892338E-01
       -2   -1    0    0    0  501  0.00000000000E+00  0.00000000000E+00  0.39921833042E+03  0.39921833042E+03  0.25500000920E-02 0. -1.
        2   -1    0    0  501    0  0.00000000000E+00  0.00000000000E+00 -0.13869214521E+04  0.13869214521E+04  0.25500000920E-02 0.  1.
    10030    2    1    2    0    0  0.00000000000E+00  0.00000000000E+00 -0.98770312165E+03  0.17861397825E+04  0.14881995384E+04 0.  0.
        5    1    3    3  502    0  0.45912106226E+03 -0.12292969976E+03 -0.11809694730E+04  0.12730337180E+04  0.46999998093E+01 0.  1.
       -5    1    3    3    0  502 -0.45912106226E+03  0.12292969976E+03  0.19326635136E+03  0.51310606453E+03  0.46999998093E+01 0. -1.
</event>
<event>
 5   0  0.8365016E-04  0.1495601E+04  0.7818609E-02  0.8887383E-01
        1   -1    0    0  501    0  0.00000000000E+00  0.00000000000E+00  0.10721011026E+04  0.10721011026E+04  0.50400001928E-02 0. -1.
       -1   -1    0    0    0  501  0.00000000000E+00  0.00000000000E+00 -0.52159803173E+03  0.52159803176E+03  0.50400001928E-02 0.  1.
    10030    2    1    2    0    0  0.00000000000E+00  0.00000000000E+00  0.55050307089E+03  0.15936991344E+04  0.14956013172E+04 0.  0.
        3    1    3    3  502    0  0.20844508526E+03  0.54987592119E+03  0.76749562887E+03  0.96688284337E+03  0.10100000352E+00 0. -1.
       -3    1    3    3    0  502 -0.20844508526E+03 -0.54987592119E+03 -0.21699255798E+03  0.62681629102E+03  0.10100000352E+00 0.  1.
</event>
<event>
 5   0  0.1526126E-03  0.1425170E+04  0.7818609E-02  0.8935798E-01
        2   -1    0    0  501    0  0.00000000000E+00  0.00000000000E+00  0.69684420876E+03  0.69684420876E+03  0.25500000920E-02 0.  1.
       -2   -1    0    0    0  501  0.00000000000E+00  0.00000000000E+00 -0.72868128933E+03  0.72868128933E+03  0.25500000920E-02 0. -1.
    10030    2    1    2    0    0  0.00000000000E+00  0.00000000000E+00 -0.31837080571E+02  0.14255254981E+04  0.14251699358E+04 0.  0.
        2    1    3    3  502    0 -0.57224265985E+03 -0.18946631943E+03 -0.39603728309E+03  0.72125215948E+03  0.25500000920E-02 0. -1.
       -2    1    3    3    0  502  0.57224265985E+03  0.18946631943E+03  0.36420020252E+03  0.70427333861E+03  0.25500000920E-02 0.  1.
</event>
<event>
 5   0  0.5603875E-04  0.1130790E+04  0.7818609E-02  0.9175691E-01
        3   -1    0    0  501    0  0.00000000000E+00  0.00000000000E+00  0.44199818750E+03  0.44199819904E+03  0.10100000352E+00 0.  1.
       -3   -1    0    0    0  501  0.00000000000E+00  0.00000000000E+00 -0.72324123506E+03  0.72324124211E+03  0.10100000352E+00 0. -1.
    10030    2    1    2    0    0  0.00000000000E+00  0.00000000000E+00 -0.28124304755E+03  0.11652394412E+04  0.11307896813E+04 0.  0.
        3    1    3    3  502    0 -0.36505703608E+03  0.83586151601E+02 -0.57710356833E+03  0.68796934751E+03  0.10100000352E+00 0. -1.
       -3    1    3    3    0  502  0.36505703608E+03 -0.83586151601E+02  0.29586052078E+03  0.47727009364E+03  0.10100000352E+00 0.  1.
</event>
<event>
 5   0  0.1484056E-03  0.1501201E+04  0.7818609E-02  0.8883655E-01
       -2   -1    0    0    0  501  0.00000000000E+00  0.00000000000E+00  0.33680609023E+03  0.33680609024E+03  0.25500000920E-02 0.  1.
        2   -1    0    0  501    0  0.00000000000E+00  0.00000000000E+00 -0.16727748747E+04  0.16727748747E+04  0.25500000920E-02 0. -1.
    10030    2    1    2    0    0  0.00000000000E+00  0.00000000000E+00 -0.13359687845E+04  0.20095809650E+04  0.15012005401E+04 0.  0.
        5    1    3    3  502    0 -0.40520160994E+03  0.61829776097E+03 -0.84199957470E+03  0.11204757203E+04  0.46999998093E+01 0.  1.
       -5    1    3    3    0  502  0.40520160994E+03 -0.61829776097E+03 -0.49396920978E+03  0.88910524469E+03  0.46999998093E+01 0. -1.
</event>
<event>
 5   0  0.7870317E-04  0.1506484E+04  0.7818609E-02  0.8880153E-01
       -1   -1    0    0    0  501  0.00000000000E+00  0.00000000000E+00  0.38787910356E+03  0.38787910360E+03  0.50400001928E-02 0. -1.
        1   -1    0    0  501    0  0.00000000000E+00  0.00000000000E+00 -0.14627587117E+04  0.14627587117E+04  0.50400001928E-02 0.  1.
    10030    2    1    2    0    0  0.00000000000E+00  0.00000000000E+00 -0.10748796081E+04  0.18506378153E+04  0.15064840362E+04 0.  0.
        1    1    3    3  502    0 -0.72199632003E+03  0.19339372279E+03 -0.42289913535E+03  0.85879188216E+03  0.50400001928E-02 0. -1.
       -1    1    3    3    0  502  0.72199632003E+03 -0.19339372279E+03 -0.65198047274E+03  0.99184593311E+03  0.50400001928E-02 0.  1.
</event>
<event>
 5   0  0.8306301E-04  0.1516878E+04  0.7818609E-02  0.8873307E-01
       -1   -1    0    0    0  501  0.00000000000E+00  0.00000000000E+00  0.12148297320E+04  0.12148297320E+04  0.50400001928E-02 0.  1.
        1   -1    0    0  501    0  0.00000000000E+00  0.00000000000E+00 -0.47350614616E+03  0.47350614619E+03  0.50400001928E-02 0. -1.
    10030    2    1    2    0    0  0.00000000000E+00  0.00000000000E+00  0.74132358584E+03  0.16883358782E+04  0.15168775095E+04 0.  0.
        4    1    3    3  502    0  0.37503225817E+03 -0.44825965666E+03  0.90866346479E+03  0.10803966029E+04  0.12699999809E+01 0.  1.
       -4    1    3    3    0  502 -0.37503225817E+03  0.44825965666E+03 -0.16733987894E+03  0.60793927529E+03  0.12699999809E+01 0. -1.
</event>
<event>
 5   0  0.1552067E-03  0.1397030E+04  0.7818609E-02  0.8955971E-01
       -2   -1    0    0    0  501  0.00000000000E+00  0.00000000000E+00  0.76097992667E+03  0.76097992667E+03  0.25500000920E-02 0.  1.
        2   -1    0    0  501    0  0.00000000000E+00  0.00000000000E+00 -0.64117789108E+03  0.64117789109E+03  0.25500000920E-02 0. -1.
    10030    2    1    2    0    0  0.00000000000E+00  0.00000000000E+00  0.11980203559E+03  0.14021578178E+04  0.13970304285E+04 0.  0.
        3    1    3    3  502    0 -0.22258592230E+03  0.57185646608E+03  0.39483101951E+03  0.72969572753E+03  0.10100000352E+00 0.  1.
       -3    1    3    3    0  502  0.22258592230E+03 -0.57185646608E+03 -0.27502898392E+03  0.67246209024E+03  0.10100000352E+00 0. -1.
</event>
<event>
 5   0  0.8058234E-04  0.1398248E+04  0.7818609E-02  0.8955088E-01
       -1   -1    0    0    0  501  0.00000000000E+00  0.00000000000E+00  0.67387653211E+03  0.67387653213E+03  0.50400001928E-02 0. -1.
        1   -1    0    0  501    0  0.00000000000E+00  0.00000000000E+00 -0.72531718951E+03  0.72531718953E+03  0.50400001928E-02 0.  1.
    10030    2    1    2    0    0  0.00000000000E+00  0.00000000000E+00 -0.51440657397E+02  0.13991937217E+04  0.13982478069E+04 0.  0.
        5    1    3    3  502    0  0.50866179242E+03 -0.47959681708E+03 -0.24230579115E+02  0.69954209093E+03  0.46999998093E+01 0. -1.
       -5    1    3    3    0  502 -0.50866179242E+03  0.47959681708E+03 -0.27210078281E+02  0.69965163073E+03  0.46999998093E+01 0.  1.
</event>
<event>
 5   0  0.1511546E-03  0.1413070E+04  0.7818609E-02  0.8944412E-01
        2   -1    0    0  501    0  0.00000000000E+00  0.00000000000E+00  0.10632394558E+04  0.10632394558E+04  0.25500000920E-02 0.  1.
       -2   -1    0    0    0  501  0.00000000000E+00  0.00000000000E+00 -0.46950068035E+03  0.46950068036E+03  0.25500000920E-02 0. -1.
    10030    2    1    2    0    0  0.00000000000E+00  0.00000000000E+00  0.59373877542E+03  0.15327401361E+04  0.14130699174E+04 0.  0.
        1    1    3    3  502    0 -0.29218021259E+03  0.52459117953E+03 -0.10698792800E+03  0.60992753589E+03  0.50400001928E-02 0. -1.
       -1    1    3    3    0  502  0.29218021259E+03 -0.52459117953E+03  0.70072670343E+03  0.92281260025E+03  0.50400001928E-02 0.  1.
</event>
<event>
 5   0  0.7870317E-04  0.1333394E+04  0.7818609E-02  0.9003495E-01
       -1   -1    0    0    0  501  0.00000000000E+00  0.00000000000E+00  0.38218496823E+03  0.38218496826E+03  0.50400001928E-02 0.  1.
        1   -1    0    0  501    0  0.00000000000E+00  0.00000000000E+00 -0.11630093409E+04  0.11630093409E+04  0.50400001928E-02 0. -1.
    10030    2    1    2    0    0  0.00000000000E+00  0.00000000000E+00 -0.78082437267E+03  0.15451943092E+04  0.13333936974E+04 0.  0.
        1    1    3    3  502    0 -0.59075238011E+03 -0.28271740292E+03 -0.24582502733E+03  0.69953373657E+03  0.50400001928E-02 0.  1.
       -1    1    3    3    0  502  0.59075238011E+03  0.28271740292E+03 -0.53499934533E+03  0.84566057260E+03  0.50400001928E-02 0. -1.
</event>
<event>
 5   0  0.1526126E-03  0.1502722E+04  0.7818609E-02  0.8882645E-01
        2   -1    0    0  501    0  0.00000000000E+00  0.00000000000E+00  0.14341824400E+04  0.14341824400E+04  0.25500000920E-02 0. -1.
       -2   -1    0    0    0  501  0.00000000000E+00  0.00000000000E+00 -0.39363418359E+03  0.39363418360E+03  0.25500000920E-02 0.  1.
    10030    2    1    2    0    0  0.00000000000E+00  0.00000000000E+00  0.10405482564E+04  0.18278166236E+04  0.15027218424E+04 0.  0.
        2    1    3    3  502    0  0.44012903849E+03  0.23630307789E+03 -0.16238321254E+03  0.52528185088E+03  0.25500000920E-02 0.  1.
       -2    1    3    3    0  502 -0.44012903849E+03 -0.23630307789E+03  0.12029314690E+04  0.13025347727E+04  0.25500000920E-02 0. -1.
</event>
<event>
 5   0  0.8365016E-04  0.1512416E+04  0.7818609E-02  0.8876238E-01
        1   -1    0    0  501    0  0.00000000000E+00  0.00000000000E+00  0.79578839024E+03  0.79578839026E+03  0.50400001928E-02 0. -1.
       -1   -1    0    0    0  501  0.00000000000E+00  0.00000000000E+00 -0.71859608969E+03  0.71859608971E+03  0.50400001928E-02 0.  1.
    10030    2    1    2    0    0  0.00000000000E+00  0.00000000000E+00  0.77192300549E+02  0.15143844800E+04  0.15124158495E+04 0.  0.
        3    1    3    3  502    0  0.46503458527E+03 -0.53176053309E+03 -0.23161430611E+03  0.74341887725E+03  0.10100000352E+00 0.  1.
       -3    1    3    3    0  502 -0.46503458527E+03  0.53176053309E+03  0.30880660666E+03  0.77096560272E+03  0.10100000352E+00 0. -1.
</event>
<event>
 5   0  0.1500956E-03  0.1508131E+04  0.7818609E-02  0.8879064E-01
        2   -1    0    0  501    0  0.00000000000E+00  0.00000000000E+00  0.20004819534E+04  0.20004819534E+04  0.25500000920E-02 0. -1.
       -2   -1    0    0    0  501  0.00000000000E+00  0.00000000000E+00 -0.28423906346E+03  0.28423906347E+03  0.25500000920E-02 0.  1.
    10030    2    1    2    0    0  0.00000000000E+00  0.00000000000E+00  0.17162428900E+04  0.22847210169E+04  0.15081314491E+04 0.  0.
        4    1    3    3  502    0 -0.58747331743E+03 -0.24658116989E+03  0.14691612664E+04  0.16013630480E+04  0.12699999809E+01 0. -1.
       -4    1    3    3    0  502  0.58747331743E+03  0.24658116989E+03  0.24708162361E+03  0.68335796890E+03  0.12699999809E+01 0.  1.
</event>
<event>
 5   0  0.1511546E-03  0.1480202E+04  0.7818609E-02  0.8897726E-01
       -2   -1    0    0    0  501  0.00000000000E+00  0.00000000000E+00  0.22420036368E+03  0.22420036370E+03  0.25500000920E-02 0. -1.
        2   -1    0    0  501    0  0.00000000000E+00  0.00000000000E+00 -0.24431239909E+04  0.24431239909E+04  0.25500000920E-02 0.  1.
    10030    2    1    2    0    0  0.00000000000E+00  0.00000000000E+00 -0.22189236273E+04  0.26673243546E+04  0.14802017259E+04 0.  0.
        1    1    3    3  502    0  0.32354373678E+03 -0.18789614867E+03  0.41230586527E+02  0.37641130906E+03  0.50400001928E-02 0. -1.
       -1    1    3    3    0  502 -0.32354373678E+03  0.18789614867E+03 -0.22601542138E+04  0.22909130456E+04  0.50400001928E-02 0.  1.
</event>
<event>
 5   0  0.8365016E-04  0.1464068E+04  0.7818609E-02  0.8908705E-01
        1   -1    0    0  501    0  0.00000000000E+00  0.00000000000E+00  0.72196862719E+03  0.72196862721E+03  0.50400001928E-02 0. -1.
       -1   -1    0    0    0  501  0.00000000000E+00  0.00000000000E+00 -0.74223963237E+03  0.74223963238E+03  0.50400001928E-02 0.  1.
    10030    2    1    2    0    0  0.00000000000E+00  0.00000000000E+00 -0.20271005178E+02  0.14642082596E+04  0.14640679335E+04 0.  0.
        3    1    3    3  502    0 -0.50521163500E+03 -0.49271132565E+03 -0.20475752485E+03  0.73479854433E+03  0.10100000352E+00 0.  1.
       -3    1    3    3    0  502  0.50521163500E+03  0.49271132565E+03  0.18448651968E+03  0.72940971526E+03  0.10100000352E+00 0. -1.
</event>
<event>
 5   0  0.8058234E-04  0.1480846E+04  0.7818609E-02  0.8897291E-01
       -1   -1    0    0    0  501  0.00000000000E+00  0.00000000000E+00  0.66655921949E+03  0.66655921950E+03  0.50400001928E-02 0. -1.
        1   -1    0    0  501    0  0.00000000000E+00  0.00000000000E+00 -0.82247220495E+03  0.82247220497E+03  0.50400001928E-02 0.  1.
    10030    2    1    2    0    0  0.00000000000E+00  0.00000000000E+00 -0.15591298547E+03  0.14890314245E+04  0.14808462864E+04 0.  0.
        5    1    3    3  502    0  0.12556200896E+03  0.39197237825E+03 -0.69682256826E+03  0.80931572643E+03  0.46999998093E+01 0.  1.
       -5    1    3    3    0  502 -0.12556200896E+03 -0.39197237825E+03  0.54090958280E+03  0.67971569804E+03  0.46999998093E+01 0. -1.
</event>
<event>
 5   0  0.8365016E-04  0.1481733E+04  0.7818609E-02  0.8896692E-01
       -1   -1    0    0    0  501  0.00000000000E+00  0.00000000000E+00  0.88743008051E+03  0.88743008053E+03  0.50400001928E-02 0. -1.
        1   -1    0    0  501    0  0.00000000000E+00  0.00000000000E+00 -0.61850896759E+03  0.61850896761E+03  0.50400001928E-02 0.  1.
    10030    2    1    2    0    0  0.00000000000E+00  0.00000000000E+00  0.26892111292E+03  0.15059390481E+04  0.14817333943E+04 0.  0.
        3    1    3    3  502    0  0.73113630096E+03  0.80436009997E+01  0.13101084955E+02  0.73129791380E+03  0.10100000352E+00 0. -1.
       -3    1    3    3    0  502 -0.73113630096E+03 -0.80436009997E+01  0.25582002797E+03  0.77464113434E+03  0.10100000352E+00 0.  1.
</event>
<event>
 5   0  0.5603875E-04  0.1472702E+04  0.7818609E-02  0.8902812E-01
        3   -1    0    0  501    0  0.00000000000E+00  0.00000000000E+00  0.12808570770E+04  0.12808570810E+04  0.10100000352E+00 0. -1.
       -3   -1    0    0    0  501  0.00000000000E+00  0.00000000000E+00 -0.42332000982E+03  0.42332002187E+03  0.10100000352E+00 0.  1.
    10030    2    1    2    0    0  0.00000000000E+00  0.00000000000E+00  0.85753706719E+03  0.17041771029E+04  0.14727015232E+04 0.  0.
        2    1    3    3  502    0 -0.43662780770E+03 -0.58218892635E+03  0.29874865372E+03  0.78666291799E+03  0.25500000920E-02 0. -1.
       -2    1    3    3    0  502  0.43662780770E+03  0.58218892635E+03  0.55878841347E+03  0.91751418488E+03  0.25500000920E-02 0.  1.
</event>
<event>
 5   0  0.1526126E-03  0.1487656E+04  0.7818609E-02  0.8892703E-01
        2   -1    0    0  501    0  0.00000000000E+00  0.00000000000E+00  0.20512541790E+04  0.20512541790E+04  0.25500000920E-02 0.  1.
       -2   -1    0    0    0  501  0.00000000000E+00  0.00000000000E+00 -0.26972776545E+03  0.26972776547E+03  0.25500000920E-02 0. -1.
    10030    2    1    2    0    0  0.00000000000E+00  0.00000000000E+00  0.17815264136E+04  0.23209819445E+04  0.14876561513E+04 0.  0.
        2    1    3    3  502    0 -0.43944242289E+02 -0.50583726286E+03  0.42693386920E+02  0.50953425618E+03  0.25500000920E-02 0. -1.
       -2    1    3    3    0  502  0.43944242289E+02  0.50583726286E+03  0.17388330267E+04  0.18114476883E+04  0.25500000920E-02 0.  1.
</event>
<event>
 5   0  0.8365016E-04  0.1374253E+04  0.7818609E-02  0.8972670E-01
        1   -1    0    0  501    0  0.00000000000E+00  0.00000000000E+00  0.63965244350E+03  0.63965244352E+03  0.50400001928E-02 0. -1.
       -1   -1    0    0    0  501  0.00000000000E+00  0.00000000000E+00 -0.73812368023E+03  0.73812368025E+03  0.50400001928E-02 0.  1.
    10030    2    1    2    0    0  0.00000000000E+00  0.00000000000E+00 -0.98471236728E+02  0.13777761238E+04  0.13742526925E+04 0.  0.
        3    1    3    3  502    0 -0.51696333178E+03  0.13747257228E+03 -0.48161018215E+03  0.71979036691E+03  0.10100000352E+00 0.  1.
       -3    1    3    3    0  502  0.51696333178E+03 -0.13747257228E+03  0.38313894543E+03  0.65798575687E+03  0.10100000352E+00 0. -1.
</event>
<event>
 5   0  0.1511546E-03  0.1482283E+04  0.7818609E-02  0.8896321E-01
        2   -1    0    0  501    0  0.00000000000E+00  0.00000000000E+00  0.74254702860E+03  0.74254702860E+03  0.25500000920E-02 0.  1.
       -2   -1    0    0    0  501  0.00000000000E+00  0.00000000000E+00 -0.73973823928E+03  0.73973823929E+03  0.25500000920E-02 0. -1.
    10030    2    1    2    0    0  0.00000000000E+00  0.00000000000E+00  0.28087893135E+01  0.14822852679E+04  0.14822826067E+04 0.  0.
        1    1    3    3  502    0 -0.59227004601E+03 -0.24450497264E+03  0.37386169499E+03  0.74184840503E+03  0.50400001928E-02 0.  1.
       -1    1    3    3    0  502  0.59227004601E+03  0.24450497264E+03 -0.37105290567E+03  0.74043686286E+03  0.50400001928E-02 0. -1.
</event>
<event>
 5   0  0.1500956E-03  0.1461911E+04  0.7818609E-02  0.8910184E-01
       -2   -1    0    0    0  501  0.00000000000E+00  0.00000000000E+00  0.58049882347E+03  0.58049882348E+03  0.25500000920E-02 0. -1.
        2   -1    0    0  501    0  0.00000000000E+00  0.00000000000E+00 -0.92040890752E+03  0.92040890752E+03  0.25500000920E-02 0.  1.
    10030    2    1    2    0    0  0.00000000000E+00  0.00000000000E+00 -0.33991008405E+03  0.15009077310E+04  0.14619114719E+04 0.  0.
        4    1    3    3  502    0  0.30330630720E+03  0.66388682577E+03 -0.21043053872E+03  0.75962033803E+03  0.12699999809E+01 0. -1.
       -4    1    3    3    0  502 -0.30330630720E+03 -0.66388682577E+03 -0.12947954532E+03  0.74128739297E+03  0.12699999809E+01 0.  1.
</event>
<event>
 5   0  0.8058234E-04  0.1517018E+04  0.7818609E-02  0.8873214E-01
       -1   -1    0    0    0  501  0.00000000000E+00  0.00000000000E+00  0.66933960312E+03  0.66933960314E+03  0.50400001928E-02 0.  1.
        1   -1    0    0  501    0  0.00000000000E+00  0.00000000000E+00 -0.85955772481E+03  0.85955772482E+03  0.50400001928E-02 0. -1.
    10030    2    1    2    0    0  0.00000000000E+00  0.00000000000E+00 -0.19021812168E+03  0.15288973280E+04  0.15170181626E+04 0.  0.
        5    1    3    3  502    0  0.23950257879E+03 -0.20815174943E+03  0.59921622834E+03  0.67806401936E+03  0.46999998093E+01 0.  1.
       -5    1    3    3    0  502 -0.23950257879E+03  0.20815174943E+03 -0.78943435002E+03  0.85083330861E+03  0.46999998093E+01 0. -1.
</event>
<event>
 5   0  0.1552067E-03  0.1464364E+04  0.7818609E-02  0.8908502E-01
       -2   -1    0    0    0  501  0.00000000000E+00  0.00000000000E+00  0.40474830828E+03  0.40474830828E+03  0.25500000920E-02 0. -1.
        2   -1    0    0  501    0  0.00000000000E+00  0.00000000000E+00 -0.13245040322E+04  0.13245040322E+04  0.25500000920E-02 0.  1.
    10030    2    1    2    0    0  0.00000000000E+00  0.00000000000E+00 -0.91975572395E+03  0.17292523405E+04  0.14643643896E+04 0.  0.
        3    1    3    3  502    0 -0.41246293183E+02 -0.11583953233E+03  0.39246801226E+03  0.41127995915E+03  0.10100000352E+00 0. -1.
       -3    1    3    3    0  502  0.41246293183E+02  0.11583953233E+03 -0.13122237362E+04  0.13179723814E+04  0.10100000352E+00 0.  1.
</event>
<event>
 5   0  0.1552067E-03  0.1493886E+04  0.7818609E-02  0.8888529E-01
       -2   -1    0    0    0  501  0.00000000000E+00  0.00000000000E+00  0.82707362921E+03  0.82707362921E+03  0.25500000920E-02 0.  1.
        2   -1    0    0  501    0  0.00000000000E+00  0.00000000000E+00 -0.67457541215E+03  0.67457541215E+03  0.25500000920E-02 0. -1.
    10030    2    1    2    0    0  0.00000000000E+00  0.00000000000E+00  0.15249821706E+03  0.15016490414E+04  0.14938855837E+04 0.  0.
        3    1    3    3  502    0 -0.68034737885E+03 -0.22704504393E+03  0.28590318160E+03  0.77211569556E+03  0.10100000352E+00 0. -1.
       -3    1    3    3    0  502  0.68034737885E+03  0.22704504393E+03 -0.13340496454E+03  0.72953334580E+03  0.10100000352E+00 0.  1.
</event>
<event>
 5   0  0.8191876E-04  0.1505403E+04  0.7818609E-02  0.8880868E-01
       -1   -1    0    0    0  501  0.00000000000E+00  0.00000000000E+00  0.30708507540E+03  0.30708507544E+03  0.50400001928E-02 0. -1.
        1   -1    0    0  501    0  0.00000000000E+00  0.00000000000E+00 -0.18449599500E+04  0.18449599500E+04  0.50400001928E-02 0.  1.
    10030    2    1    2    0    0  0.00000000000E+00  0.00000000000E+00 -0.15378748746E+04  0.21520450254E+04  0.15054031558E+04 0.  0.
        2    1    3    3  502    0 -0.29108663734E+02 -0.47737140339E+03  0.61959058205E+02  0.48225480400E+03  0.25500000920E-02 0. -1.
       -2    1    3    3    0  502  0.29108663734E+02  0.47737140339E+03 -0.15998339328E+04  0.16697902214E+04  0.25500000920E-02 0.  1.
</event>
<event>
 5   0  0.8058234E-04  0.1504514E+04  0.7818609E-02  0.8881456E-01
       -1   -1    0    0    0  501  0.00000000000E+00  0.00000000000E+00  0.14954045860E+04  0.14954045860E+04  0.50400001928E-02 0.  1.
        1   -1    0    0  501    0  0.00000000000E+00  0.00000000000E+00 -0.37841997446E+03  0.37841997449E+03  0.50400001928E-02 0. -1.
    10030    2    1    2    0    0  0.00000000000E+00  0.00000000000E+00  0.11169846115E+04  0.18738245605E+04  0.15045144935E+04 0.  0.
        5    1    3    3  502    0  0.42609254051E+03 -0.61889985409E+03  0.60299914732E+03  0.96344275603E+03  0.46999998093E+01 0.  1.
       -5    1    3    3    0  502 -0.42609254051E+03  0.61889985409E+03  0.51398546421E+03  0.91038180446E+03  0.46999998093E+01 0. -1.
</event>
<event>
 5   0  0.7870317E-04  0.1508736E+04  0.7818609E-02  0.8878664E-01
        1   -1    0    0  501    0  0.00000000000E+00  0.00000000000E+00  0.10777471805E+04  0.10777471805E+04  0.50400001928E-02 0. -1.
       -1   -1    0    0    0  501  0.00000000000E+00  0.00000000000E+00 -0.52801906262E+03  0.52801906264E+03  0.50400001928E-02 0.  1.
    10030    2    1    2    0    0  0.00000000000E+00  0.00000000000E+00  0.54972811789E+03  0.16057662432E+04  0.15087359690E+04 0.  0.
        1    1    3    3  502    0  0.20156684771E+03  0.40008751278E+03  0.92083397650E+03  0.10240285271E+04  0.50400001928E-02 0. -1.
       -1    1    3    3    0  502 -0.20156684771E+03 -0.40008751278E+03 -0.37110585862E+03  0.58173771608E+03  0.50400001928E-02 0.  1.
</event>
<event>
 5   0  0.1484056E-03  0.1524189E+04  0.7818609E-02  0.8868525E-01
        2   -1    0    0  501    0  0.00000000000E+00  0.00000000000E+00  0.95790089442E+03  0.95790089442E+03  0.25500000920E-02 0.  1.
       -2   -1    0    0    0  501  0.00000000000E+00  0.00000000000E+00 -0.60631309253E+03  0.60631309254E+03  0.25500000920E-02 0. -1.
    10030    2    1    2    0    0  0.00000000000E+00  0.00000000000E+00  0.35158780189E+03  0.15642139870E+04  0.15241887726E+04 0.  0.
        5    1    3    3  502    0  0.65585119461E+03 -0.38722856104E+03  0.14905168989E+03  0.77609615655E+03  0.46999998093E+01 0.  1.
       -5    1    3    3    0  502 -0.65585119461E+03  0.38722856104E+03  0.20253611199E+03  0.78811783041E+03  0.46999998093E+01 0. -1.
</event>
<event>
 5   0  0.1552067E-03  0.1456367E+04  0.7818609E-02  0.8913998E-01
       -2   -1    0    0    0  501  0.00000000000E+00  0.00000000000E+00  0.47319961308E+03  0.47319961309E+03  0.25500000920E-02 0.  1.
        2   -1    0    0  501    0  0.00000000000E+00  0.00000000000E+00 -0.11205663172E+04  0.11205663172E+04  0.25500000920E-02 0. -1.
    10030    2    1    2    0    0  0.00000000000E+00  0.00000000000E+00 -0.64736670414E+03  0.15937659303E+04  0.14563674643E+04 0.  0.
        3    1    3    3  502    0  0.16765456553E+03 -0.69269733127E+03 -0.16021216032E+03  0.73048312274E+03  0.10100000352E+00 0.  1.
       -3    1    3    3    0  502 -0.16765456553E+03  0.69269733127E+03 -0.48715454382E+03  0.86328280758E+03  0.10100000352E+00 0. -1.
</event>
<event>
 5   0  0.1500956E-03  0.1310740E+04  0.7818609E-02  0.9021091E-01
        2   -1    0    0  501    0  0.00000000000E+00  0.00000000000E+00  0.94424764739E+03  0.94424764740E+03  0.25500000920E-02 0. -1.
       -2   -1    0    0    0  501  0.00000000000E+00  0.00000000000E+00 -0.45487020560E+03  0.45487020561E+03  0.25500000920E-02 0.  1.
    10030    2    1    2    0    0  0.00000000000E+00  0.00000000000E+00  0.48937744179E+03  0.13991178530E+04  0.13107404343E+04 0.  0.
        4    1    3    3  502    0 -0.65066958708E+03 -0.73361270367E+02  0.27403265699E+03  0.70982272261E+03  0.12699999809E+01 0.  1.
       -4    1    3    3    0  502  0.65066958708E+03  0.73361270367E+02  0.21534478480E+03  0.68929513039E+03  0.12699999809E+01 0. -1.
</event>
<event>
 5   0  0.1552067E-03  0.1524452E+04  0.7818609E-02  0.8868353E-01
        2   -1    0    0  501    0  0.00000000000E+00  0.00000000000E+00  0.13501515460E+04  0.13501515460E+04  0.25500000920E-02 0.  1.
       -2   -1    0    0    0  501  0.00000000000E+00  0.00000000000E+00 -0.43031360740E+03  0.43031360741E+03  0.25500000920E-02 0. -1.
    10030    2    1    2    0    0  0.00000000000E+00  0.00000000000E+00  0.91983793861E+03  0.17804651534E+04  0.15244521407E+04 0.  0.
        3    1    3    3  502    0 -0.64204986470E+03 -0.96128951628E+02 -0.65544894503E+01  0.64923938238E+03  0.10100000352E+00 0. -1.
       -3    1    3    3    0  502  0.64204986470E+03  0.96128951628E+02  0.92639242806E+03  0.11312257710E+04  0.10100000352E+00 0.  1.
</event>
<event>
 5   0  0.8058234E-04  0.1503291E+04  0.7818609E-02  0.8882267E-01
        1   -1    0    0  501    0  0.00000000000E+00  0.00000000000E+00  0.16194996396E+04  0.16194996396E+04  0.50400001928E-02 0.  1.
       -1   -1    0    0    0  501  0.00000000000E+00  0.00000000000E+00 -0.34885536798E+03  0.34885536801E+03  0.50400001928E-02 0. -1.
    10030    2    1    2    0    0  0.00000000000E+00  0.00000000000E+00  0.12706442716E+04  0.19683550076E+04  0.15032912462E+04 0.  0.
        5    1    3    3  502    0  0.30851555389E+03  0.35544574751E+03  0.14026422578E+04  0.14795103649E+04  0.46999998093E+01 0.  1.
       -5    1    3    3    0  502 -0.30851555389E+03 -0.35544574751E+03 -0.13199798615E+03  0.48884464277E+03  0.46999998093E+01 0. -1.
</event>
<event>
 5   0  0.8306301E-04  0.1425016E+04  0.7818609E-02  0.8935907E-01
        1   -1    0    0  501    0  0.00000000000E+00  0.00000000000E+00  0.16988730728E+04  0.16988730728E+04  0.50400001928E-02 0. -1.
       -1   -1    0    0    0  501  0.00000000000E+00  0.00000000000E+00 -0.29882619535E+03  0.29882619540E+03  0.50400001928E-02 0.  1.
    10030    2    1    2    0    0  0.00000000000E+00  0.00000000000E+00  0.14000468774E+04  0.19976992682E+04  0.14250161778E+04 0.  0.
        4    1    3    3  502    0  0.40877137582E+03  0.23507146881E+03 -0.48786327207E+02  0.47406154849E+03  0.12699999809E+01 0.  1.
       -4    1    3    3    0  502 -0.40877137582E+03 -0.23507146881E+03  0.14488332046E+04  0.15236377197E+04  0.12699999809E+01 0. -1.
</event>
<event>
 5   0  0.8058234E-04  0.1510626E+04  0.7818609E-02  0.8877417E-01
        1   -1    0    0  501    0  0.00000000000E+00  0.00000000000E+00  0.28872375355E+04  0.28872375355E+04  0.50400001928E-02 0.  1.
       -1   -1    0    0    0  501  0.00000000000E+00  0.00000000000E+00 -0.19759296295E+03  0.19759296302E+03  0.50400001928E-02 0. -1.
    10030    2    1    2    0    0  0.00000000000E+00  0.00000000000E+00  0.26896445725E+04  0.30848304985E+04  0.15106261212E+04 0.  0.
        5    1    3    3  502    0 -0.36097065215E+03 -0.27433925284E+03  0.25784085206E+04  0.26179714334E+04  0.46999998093E+01 0.  1.
       -5    1    3    3    0  502  0.36097065215E+03  0.27433925284E+03  0.11123605194E+03  0.46685906504E+03  0.46999998093E+01 0. -1.
</event>
<event>
 5   0  0.8306301E-04  0.1860193E+04  0.7818609E-02  0.8674928E-01
        1   -1    0    0  501    0  0.00000000000E+00  0.00000000000E+00  0.14360548315E+04  0.14360548315E+04  0.50400001928E-02 0.  1.
       -1   -1    0    0    0  501  0.00000000000E+00  0.00000000000E+00 -0.60240033776E+03  0.60240033778E+03  0.50400001928E-02 0. -1.
    10030    2    1    2    0    0  0.00000000000E+00  0.00000000000E+00  0.83365449372E+03  0.20384551693E+04  0.18601934475E+04 0.  0.
        4    1    3    3  502    0  0.87734832065E+03 -0.27068686308E+03  0.25404268435E+03  0.95265458166E+03  0.12699999809E+01 0.  1.
       -4    1    3    3    0  502 -0.87734832065E+03  0.27068686308E+03  0.57961180938E+03  0.10858005876E+04  0.12699999809E+01 0. -1.
</event>
<event>
 5   0  0.1552067E-03  0.1463848E+04  0.7818609E-02  0.8908856E-01
        2   -1    0    0  501    0  0.00000000000E+00  0.00000000000E+00  0.91639674237E+03  0.91639674238E+03  0.25500000920E-02 0. -1.
       -2   -1    0    0    0  501  0.00000000000E+00  0.00000000000E+00 -0.58458617227E+03  0.58458617227E+03  0.25500000920E-02 0.  1.
    10030    2    1    2    0    0  0.00000000000E+00  0.00000000000E+00  0.33181057011E+03  0.15009829146E+04  0.14638481669E+04 0.  0.
        3    1    3    3  502    0  0.46233102108E+03  0.56111471579E+03  0.79426238259E+02  0.73137420986E+03  0.10100000352E+00 0.  1.
       -3    1    3    3    0  502 -0.46233102108E+03 -0.56111471579E+03  0.25238433185E+03  0.76960870479E+03  0.10100000352E+00 0. -1.
</event>
<event>
 5   0  0.8365016E-04  0.1437662E+04  0.7818609E-02  0.8926999E-01
        1   -1    0    0  501    0  0.00000000000E+00  0.00000000000E+00  0.12060079118E+04  0.12060079118E+04  0.50400001928E-02 0. -1.
       -1   -1    0    0    0  501  0.00000000000E+00  0.00000000000E+00 -0.42845322401E+03  0.42845322404E+03  0.50400001928E-02 0.  1.
    10030    2    1    2    0    0  0.00000000000E+00  0.00000000000E+00  0.77755468777E+03  0.16344611358E+04  0.14376619603E+04 0.  0.
        3    1    3    3  502    0  0.26861384103E+03 -0.33901883434E+03  0.10415045434E+04  0.11277494800E+04  0.10100000352E+00 0. -1.
       -3    1    3    3    0  502 -0.26861384103E+03  0.33901883434E+03 -0.26394985561E+03  0.50671165579E+03  0.10100000352E+00 0.  1.
</event>
<event>
 5   0  0.5603875E-04  0.1432519E+04  0.7818609E-02  0.8930610E-01
        4   -1    0    0  501    0  0.00000000000E+00  0.00000000000E+00  0.46678747338E+03  0.46678920103E+03  0.12699999809E+01 0. -1.
       -4   -1    0    0    0  501  0.00000000000E+00  0.00000000000E+00 -0.10990569057E+04  0.10990576394E+04  0.12699999809E+01 0.  1.
    10030    2    1    2    0    0  0.00000000000E+00  0.00000000000E+00 -0.63226943229E+03  0.15658468405E+04  0.14325193516E+04 0.  0.
        4    1    3    3  502    0 -0.68259366525E+03 -0.20295891709E+03 -0.23217513940E+03  0.74902158989E+03  0.12699999809E+01 0. -1.
       -4    1    3    3    0  502  0.68259366525E+03  0.20295891709E+03 -0.40009429289E+03  0.81682525057E+03  0.12699999809E+01 0.  1.
</event>
<event>
 5   0  0.1552067E-03  0.1493513E+04  0.7818609E-02  0.8888778E-01
        2   -1    0    0  501    0  0.00000000000E+00  0.00000000000E+00  0.76512034642E+03  0.76512034642E+03  0.25500000920E-02 0. -1.
       -2   -1    0    0    0  501  0.00000000000E+00  0.00000000000E+00 -0.72883326759E+03  0.72883326759E+03  0.25500000920E-02 0.  1.
    10030    2    1    2    0    0  0.00000000000E+00  0.00000000000E+00  0.36287078830E+02  0.14939536140E+04  0.14935128552E+04 0.  0.
        3    1    3    3  502    0  0.38311709296E+03  0.50943494185E+03 -0.37099888348E+03  0.73752481222E+03  0.10100000352E+00 0.  1.
       -3    1    3    3    0  502 -0.38311709296E+03 -0.50943494185E+03  0.40728596231E+03  0.75642880180E+03  0.10100000352E+00 0. -1.
</event>
<event>
 5   0  0.8365016E-04  0.1499916E+04  0.7818609E-02  0.8884509E-01
        1   -1    0    0  501    0  0.00000000000E+00  0.00000000000E+00  0.10989705894E+04  0.10989705894E+04  0.50400001928E-02 0. -1.
       -1   -1    0    0    0  501  0.00000000000E+00  0.00000000000E+00 -0.51178550843E+03  0.51178550845E+03  0.50400001928E-02 0.  1.
    10030    2    1    2    0    0  0.00000000000E+00  0.00000000000E+00  0.58718508101E+03  0.16107560979E+04  0.14999162935E+04 0.  0.
        3    1    3    3  502    0  0.38979335846E+03 -0.51384554346E+02 -0.39223866484E+03  0.55536511875E+03  0.10100000352E+00 0.  1.
       -3    1    3    3    0  502 -0.38979335846E+03  0.51384554346E+02  0.97942374585E+03  0.10553909791E+04  0.10100000352E+00 0. -1.
</event>
<event>
 5   0  0.1500956E-03  0.1494773E+04  0.7818609E-02  0.8887936E-01
       -2   -1    0    0    0  501  0.00000000000E+00  0.00000000000E+00  0.59266654628E+03  0.59266654629E+03  0.25500000920E-02 0. -1.
        2   -1    0    0  501    0  0.00000000000E+00  0.00000000000E+00 -0.94249729601E+03  0.94249729601E+03  0.25500000920E-02 0.  1.
    10030    2    1    2    0    0  0.00000000000E+00  0.00000000000E+00 -0.34983074973E+03  0.15351638423E+04  0.14947730494E+04 0.  0.
        4    1    3    3  502    0 -0.40268912951E+03  0.54831493287E+03  0.14292608790E+03  0.69515270275E+03  0.12699999809E+01 0. -1.
       -4    1    3    3    0  502  0.40268912951E+03 -0.54831493287E+03 -0.49275683763E+03  0.84001113955E+03  0.12699999809E+01 0.  1.
</event>
<event>
 5   0  0.5603875E-04  0.1430708E+04  0.7818609E-02  0.8931886E-01
       -4   -1    0    0    0  501  0.00000000000E+00  0.00000000000E+00  0.13291858614E+04  0.13291864681E+04  0.12699999809E+01 0. -1.
        4   -1    0    0  501    0  0.00000000000E+00  0.00000000000E+00 -0.38499427497E+03  0.38499636967E+03  0.12699999809E+01 0.  1.
    10030    2    1    2    0    0  0.00000000000E+00  0.00000000000E+00  0.94419158643E+03  0.17141828378E+04  0.14307078841E+04 0.  0.
        1    1    3    3  502    0  0.41030639606E+03 -0.47262877889E+03  0.57045864168E+02  0.62847715307E+03  0.50400001928E-02 0.  1.
       -1    1    3    3    0  502 -0.41030639606E+03  0.47262877889E+03  0.88714572226E+03  0.10857056847E+04  0.50400001928E-02 0. -1.
</event>
<event>
 5   0  0.8191876E-04  0.1637928E+04  0.7818609E-02  0.8797580E-01
       -1   -1    0    0    0  501  0.00000000000E+00  0.00000000000E+00  0.83417489184E+03  0.83417489185E+03  0.50400001928E-02 0. -1.
        1   -1    0    0  501    0  0.00000000000E+00  0.00000000000E+00 -0.80403041125E+03  0.80403041126E+03  0.50400001928E-02 0.  1.
    10030    2    1    2    0    0  0.00000000000E+00  0.00000000000E+00  0.30144480592E+02  0.16382053031E+04  0.16379279366E+04 0.  0.
        2    1    3    3  502    0 -0.10291748578E+02  0.14399651581E+03  0.82134835810E+03  0.83393887186E+03  0.25500000920E-02 0. -1.
       -2    1    3    3    0  502  0.10291748578E+02 -0.14399651581E+03 -0.79120387750E+03  0.80426643125E+03  0.25500000920E-02 0.  1.
</event>
<event>
 5   0  0.8306301E-04  0.1468407E+04  0.7818609E-02  0.8905738E-01
        1   -1    0    0  501    0  0.00000000000E+00  0.00000000000E+00  0.11310906308E+04  0.11310906309E+04  0.50400001928E-02 0. -1.
       -1   -1    0    0    0  501  0.00000000000E+00  0.00000000000E+00 -0.47657967106E+03  0.47657967109E+03  0.50400001928E-02 0.  1.
    10030    2    1    2    0    0  0.00000000000E+00  0.00000000000E+00  0.65451095978E+03  0.16076703019E+04  0.14684070291E+04 0.  0.
        4    1    3    3  502    0 -0.33136822447E+03  0.10338532182E+03  0.10355751015E+04  0.10922045727E+04  0.12699999809E+01 0. -1.
       -4    1    3    3    0  502  0.33136822447E+03 -0.10338532182E+03 -0.38106414173E+03  0.51546572919E+03  0.12699999809E+01 0.  1.
</event>
<event>
 5   0  0.8365016E-04  0.1447527E+04  0.7818609E-02  0.8920117E-01
        1   -1    0    0  501    0  0.00000000000E+00  0.00000000000E+00  0.17765842633E+04  0.17765842633E+04  0.50400001928E-02 0. -1.
       -1   -1    0    0    0  501  0.00000000000E+00  0.00000000000E+00 -0.29485418926E+03  0.29485418930E+03  0.50400001928E-02 0.  1.
    10030    2    1    2    0    0  0.00000000000E+00  0.00000000000E+00  0.14817300740E+04  0.20714384526E+04  0.14475265975E+04 0.  0.
        3    1    3    3  502    0 -0.25264018505E+03 -0.14295970620E+03 -0.20790048081E+03  0.35705344253E+03  0.10100000352E+00 0.  1.
       -3    1    3    3    0  502  0.25264018505E+03  0.14295970620E+03  0.16896305548E+04  0.17143850101E+04  0.10100000352E+00 0. -1.
</event>
<event>
 5   0  0.8058234E-04  0.1117168E+04  0.7818609E-02  0.9188619E-01
       -1   -1    0    0    0  501  0.00000000000E+00  0.00000000000E+00  0.39965966691E+03  0.39965966694E+03  0.50400001928E-02 0. -1.
        1   -1    0    0  501    0  0.00000000000E+00  0.00000000000E+00 -0.78070406493E+03  0.78070406495E+03  0.50400001928E-02 0.  1.
    10030    2    1    2    0    0  0.00000000000E+00  0.00000000000E+00 -0.38104439803E+03  0.11803637319E+04  0.11171677163E+04 0.  0.
        5    1    3    3  502    0 -0.28073333704E+03 -0.26634337416E+03  0.23505816747E+03  0.45279623627E+03  0.46999998093E+01 0. -1.
       -5    1    3    3    0  502  0.28073333704E+03  0.26634337416E+03 -0.61610256549E+03  0.72756749563E+03  0.46999998093E+01 0.  1.
</event>
<event>
 5   0  0.1552067E-03  0.1163201E+04  0.7818609E-02  0.9145691E-01
        2   -1    0    0  501    0  0.00000000000E+00  0.00000000000E+00  0.60117146272E+03  0.60117146272E+03  0.25500000920E-02 0. -1.
       -2   -1    0    0    0  501  0.00000000000E+00  0.00000000000E+00 -0.56266640013E+03  0.56266640014E+03  0.25500000920E-02 0.  1.
    10030    2    1    2    0    0  0.00000000000E+00  0.00000000000E+00  0.38505062583E+02  0.11638378629E+04  0.11632007270E+04 0.  0.
        3    1    3    3  502    0  0.24233247772E+03  0.41477516776E+03  0.34729718567E+03  0.59277214419E+03  0.10100000352E+00 0. -1.
       -3    1    3    3    0  502 -0.24233247772E+03 -0.41477516776E+03 -0.30879212309E+03  0.57106571867E+03  0.10100000352E+00 0.  1.
</event>
<event>
 5   0  0.7870317E-04  0.1519562E+04  0.7818609E-02  0.8871548E-01
       -1   -1    0    0    0  501  0.00000000000E+00  0.00000000000E+00  0.40721703328E+03  0.40721703331E+03  0.50400001928E-02 0. -1.
        1   -1    0    0  501    0  0.00000000000E+00  0.00000000000E+00 -0.14175901226E+04  0.14175901226E+04  0.50400001928E-02 0.  1.
    10030    2    1    2    0    0  0.00000000000E+00  0.00000000000E+00 -0.10103730893E+04  0.18248071559E+04  0.15195615738E+04 0.  0.
        1    1    3    3  502    0 -0.53235673605E+03  0.49747783334E+03 -0.76380478491E+03  0.10555972900E+04  0.50400001928E-02 0. -1.
       -1    1    3    3    0  502  0.53235673605E+03 -0.49747783334E+03 -0.24656830438E+03  0.76920986592E+03  0.50400001928E-02 0.  1.
</event>
<event>
 5   0  0.1511546E-03  0.1497017E+04  0.7818609E-02  0.8886439E-01
       -2   -1    0    0    0  501  0.00000000000E+00  0.00000000000E+00  0.64785371381E+03  0.64785371382E+03  0.25500000920E-02 0. -1.
        2   -1    0    0  501    0  0.00000000000E+00  0.00000000000E+00 -0.86480210346E+03  0.86480210346E+03  0.25500000920E-02 0.  1.
    10030    2    1    2    0    0  0.00000000000E+00  0.00000000000E+00 -0.21694838965E+03  0.15126558173E+04  0.14970173739E+04 0.  0.
        1    1    3    3  502    0 -0.13972915228E+03  0.10439840565E+03 -0.84398061564E+03  0.86181584036E+03  0.50400001928E-02 0.  1.
       -1    1    3    3    0  502  0.13972915228E+03 -0.10439840565E+03  0.62703222599E+03  0.65083997692E+03  0.50400001928E-02 0. -1.
</event>
<event>
 5   0  0.8365016E-04  0.1422143E+04  0.7818609E-02  0.8937944E-01
       -1   -1    0    0    0  501  0.00000000000E+00  0.00000000000E+00  0.99833969927E+03  0.99833969928E+03  0.50400001928E-02 0. -1.
        1   -1    0    0  501    0  0.00000000000E+00  0.00000000000E+00 -0.50646369513E+03  0.50646369515E+03  0.50400001928E-02 0.  1.
    10030    2    1    2    0    0  0.00000000000E+00  0.00000000000E+00  0.49187600414E+03  0.15048033944E+04  0.14221431899E+04 0.  0.
        3    1    3    3  502    0 -0.15227951840E+03  0.68965236633E+03  0.15859718354E+03  0.72385255055E+03  0.10100000352E+00 0.  1.
       -3    1    3    3    0  502  0.15227951840E+03 -0.68965236633E+03  0.33327882059E+03  0.78095084388E+03  0.10100000352E+00 0. -1.
</event>
<event>
 5   0  0.8191876E-04  0.1500901E+04  0.7818609E-02  0.8883854E-01
        1   -1    0    0  501    0  0.00000000000E+00  0.00000000000E+00  0.15328173079E+04  0.15328173079E+04  0.50400001928E-02 0. -1.
       -1   -1    0    0    0  501  0.00000000000E+00  0.00000000000E+00 -0.36741247127E+03  0.36741247131E+03  0.50400001928E-02 0.  1.
    10030    2    1    2    0    0  0.00000000000E+00  0.00000000000E+00  0.11654048366E+04  0.19002297792E+04  0.15009013227E+04 0.  0.
        2    1    3    3  502    0  0.64111026894E+03  0.33040824398E+03  0.84518981563E+03  0.11110975696E+04  0.25500000920E-02 0. -1.
       -2    1    3    3    0  502 -0.64111026894E+03 -0.33040824398E+03  0.32021502100E+03  0.78913220966E+03  0.25500000920E-02 0.  1.
</event>
<event>
 5   0  0.8058234E-04  0.1498256E+04  0.7818609E-02  0.8885613E-01
        1   -1    0    0  501    0  0.00000000000E+00  0.00000000000E+00  0.11140499074E+04  0.11140499075E+04  0.50400001928E-02 0.  1.
       -1   -1    0    0    0  501  0.00000000000E+00  0.00000000000E+00 -0.50374136480E+03  0.50374136483E+03  0.50400001928E-02 0. -1.
    10030    2    1    2    0    0  0.00000000000E+00  0.00000000000E+00  0.61030854264E+03  0.16177912723E+04  0.14982563477E+04 0.  0.
        5    1    3    3  502    0 -0.64645329554E+03 -0.35633636913E+03  0.16732450634E+03  0.75689963119E+03  0.46999998093E+01 0. -1.
       -5    1    3    3    0  502  0.64645329554E+03  0.35633636913E+03  0.44298403630E+03  0.86089164108E+03  0.46999998093E+01 0.  1.
</event>
<event>
 5   0  0.1484056E-03  0.1502227E+04  0.7818609E-02  0.8882973E-01
       -2   -1    0    0    0  501  0.00000000000E+00  0.00000000000E+00  0.31001428948E+03  0.31001428949E+03  0.25500000920E-02 0.  1.
        2   -1    0    0  501    0  0.00000000000E+00  0.00000000000E+00 -0.18198252363E+04  0.18198252363E+04  0.25500000920E-02 0. -1.
    10030    2    1    2    0    0  0.00000000000E+00  0.00000000000E+00 -0.15098109468E+04  0.21298395258E+04  0.15022274497E+04 0.  0.
        5    1    3    3  502    0  0.65810064660E+02 -0.34730149144E+03 -0.16945045381E+04  0.17309872935E+04  0.46999998093E+01 0. -1.
       -5    1    3    3    0  502 -0.65810064660E+02  0.34730149144E+03  0.18469359128E+03  0.39885223231E+03  0.46999998093E+01 0.  1.
</event>
<event>
 5   0  0.1484056E-03  0.1484266E+04  0.7818609E-02  0.8894984E-01
       -2   -1    0    0    0  501  0.00000000000E+00  0.00000000000E+00  0.64626533259E+03  0.64626533260E+03  0.25500000920E-02 0. -1.
        2   -1    0    0  501    0  0.00000000000E+00  0.00000000000E+00 -0.85222129644E+03  0.85222129644E+03  0.25500000920E-02 0.  1.
    10030    2    1    2    0    0  0.00000000000E+00  0.00000000000E+00 -0.20595596385E+03  0.14984866290E+04  0.14842655822E+04 0.  0.
        5    1    3    3  502    0 -0.51309562487E+03  0.44468627016E+03  0.19943496880E+03  0.70767887908E+03  0.46999998093E+01 0. -1.
       -5    1    3    3    0  502  0.51309562487E+03 -0.44468627016E+03 -0.40539093265E+03  0.79080774996E+03  0.46999998093E+01 0.  1.
</event>
<event>
 5   0  0.1484056E-03  0.1530709E+04  0.7818609E-02  0.8864285E-01
        2   -1    0    0  501    0  0.00000000000E+00  0.00000000000E+00  0.18015945033E+04  0.18015945033E+04  0.25500000920E-02 0. -1.
       -2   -1    0    0    0  501  0.00000000000E+00  0.00000000000E+00 -0.32513822790E+03  0.32513822791E+03  0.25500000920E-02 0.  1.
    10030    2    1    2    0    0  0.00000000000E+00  0.00000000000E+00  0.14764562754E+04  0.21267327312E+04  0.15307086518E+04 0.  0.
        5    1    3    3  502    0 -0.72612836315E+03 -0.17302573585E+03  0.50348967590E+03  0.90040227053E+03  0.46999998093E+01 0. -1.
       -5    1    3    3    0  502  0.72612836315E+03  0.17302573585E+03  0.97296659949E+03  0.12263304607E+04  0.46999998093E+01 0.  1.
</event>
<event>
 5   0  0.8306301E-04  0.1514774E+04  0.7818609E-02  0.8874688E-01
       -1   -1    0    0    0  501  0.00000000000E+00  0.00000000000E+00  0.41362206225E+03  0.41362206228E+03  0.50400001928E-02 0.  1.
        1   -1    0    0  501    0  0.00000000000E+00  0.00000000000E+00 -0.13868573117E+04  0.13868573117E+04  0.50400001928E-02 0. -1.
    10030    2    1    2    0    0  0.00000000000E+00  0.00000000000E+00 -0.97323524942E+03  0.18004793740E+04  0.15147736218E+04 0.  0.
        4    1    3    3  502    0  0.61947132943E+03  0.43529754769E+03 -0.46271245375E+03  0.88731793105E+03  0.12699999809E+01 0. -1.
       -4    1    3    3    0  502 -0.61947132943E+03 -0.43529754769E+03 -0.51052279567E+03  0.91316144290E+03  0.12699999809E+01 0.  1.
</event>
<event>
 5   0  0.1526126E-03  0.1377781E+04  0.7818609E-02  0.8970060E-01
       -2   -1    0    0    0  501  0.00000000000E+00  0.00000000000E+00  0.38511045239E+03  0.38511045240E+03  0.25500000920E-02 0. -1.
        2   -1    0    0  501    0  0.00000000000E+00  0.00000000000E+00 -0.12322968128E+04  0.12322968129E+04  0.25500000920E-02 0.  1.
    10030    2    1    2    0    0  0.00000000000E+00  0.00000000000E+00 -0.84718636045E+03  0.16174072653E+04  0.13777813805E+04 0.  0.
        2    1    3    3  502    0  0.36179044326E+02  0.24862097635E+03 -0.11765968985E+04  0.12031215960E+04  0.25500000920E-02 0.  1.
       -2    1    3    3    0  502 -0.36179044326E+02 -0.24862097635E+03  0.32941053809E+03  0.41428566924E+03  0.25500000920E-02 0. -1.
</event>
<event>
 5   0  0.1552067E-03  0.1532899E+04  0.7818609E-02  0.8862865E-01
       -2   -1    0    0    0  501  0.00000000000E+00  0.00000000000E+00  0.44651892544E+03  0.44651892545E+03  0.25500000920E-02 0.  1.
        2   -1    0    0  501    0  0.00000000000E+00  0.00000000000E+00 -0.13156102919E+04  0.13156102919E+04  0.25500000920E-02 0. -1.
    10030    2    1    2    0    0  0.00000000000E+00  0.00000000000E+00 -0.86909136643E+03  0.17621292173E+04  0.15328990754E+04 0.  0.
        3    1    3    3  502    0  0.49967337521E+03  0.55595827292E+03 -0.23986296774E+03  0.78504607293E+03  0.10100000352E+00 0.  1.
       -3    1    3    3    0  502 -0.49967337521E+03 -0.55595827292E+03 -0.62922839868E+03  0.97708314439E+03  0.10100000352E+00 0. -1.
</event>
<event>
 5   0  0.7870317E-04  0.1107813E+04  0.7818609E-02  0.9197610E-01
        1   -1    0    0  501    0  0.00000000000E+00  0.00000000000E+00  0.13322605668E+04  0.13322605669E+04  0.50400001928E-02 0.  1.
       -1   -1    0    0    0  501  0.00000000000E+00  0.00000000000E+00 -0.23029466765E+03  0.23029466771E+03  0.50400001928E-02 0. -1.
    10030    2    1    2    0    0  0.00000000000E+00  0.00000000000E+00  0.11019658992E+04  0.15625552346E+04  0.11078131693E+04 0.  0.
        1    1    3    3  502    0 -0.90500616452E+02 -0.23177324110E+03  0.12490002389E+04  0.12735426156E+04  0.50400001928E-02 0.  1.
       -1    1    3    3    0  502  0.90500616452E+02  0.23177324110E+03 -0.14703433970E+03  0.28901261900E+03  0.50400001928E-02 0. -1.
</event>
<event>
 5   0  0.1552067E-03  0.1502844E+04  0.7818609E-02  0.8882564E-01
       -2   -1    0    0    0  501  0.00000000000E+00  0.00000000000E+00  0.10806285893E+04  0.10806285893E+04  0.25500000920E-02 0.  1.
        2   -1    0    0  501    0  0.00000000000E+00  0.00000000000E+00 -0.52250619971E+03  0.52250619972E+03  0.25500000920E-02 0. -1.
    10030    2    1    2    0    0  0.00000000000E+00  0.00000000000E+00  0.55812238957E+03  0.16031347890E+04  0.15028441536E+04 0.  0.
        3    1    3    3  502    0 -0.73163712431E+03  0.48448647834E+02  0.45432714446E+03  0.86258525234E+03  0.10100000352E+00 0.  1.
       -3    1    3    3    0  502  0.73163712431E+03 -0.48448647834E+02  0.10379524511E+03  0.74054953667E+03  0.10100000352E+00 0. -1.
</event>
<event>
 5   0  0.8306301E-04  0.1525835E+04  0.7818609E-02  0.8867452E-01
       -1   -1    0    0    0  501  0.00000000000E+00  0.00000000000E+00  0.40058392477E+03  0.40058392480E+03  0.50400001928E-02 0.  1.
        1   -1    0    0  501    0  0.00000000000E+00  0.00000000000E+00 -0.14529867130E+04  0.14529867130E+04  0.50400001928E-02 0. -1.
    10030    2    1    2    0    0  0.00000000000E+00  0.00000000000E+00 -0.10524027882E+04  0.18535706378E+04  0.15258350109E+04 0.  0.
        4    1    3    3  502    0 -0.27063471301E+03  0.39660666313E+03  0.19401858648E+03  0.51786563694E+03  0.12699999809E+01 0.  1.
       -4    1    3    3    0  502  0.27063471301E+03 -0.39660666313E+03 -0.12464213747E+04  0.13357050008E+04  0.12699999809E+01 0. -1.
</event>
<event>
 5   0  0.1484056E-03  0.1493496E+04  0.7818609E-02  0.8888790E-01
       -2   -1    0    0    0  501  0.00000000000E+00  0.00000000000E+00  0.45178802510E+03  0.45178802511E+03  0.25500000920E-02 0. -1.
        2   -1    0    0  501    0  0.00000000000E+00  0.00000000000E+00 -0.12342788164E+04  0.12342788164E+04  0.25500000920E-02 0.  1.
    10030    2    1    2    0    0  0.00000000000E+00  0.00000000000E+00 -0.78249079129E+03  0.16860668415E+04  0.14934957501E+04 0.  0.
        5    1    3    3  502    0 -0.38782021283E+03 -0.13593443463E+03  0.31262628299E+03  0.51637193070E+03  0.46999998093E+01 0. -1.
       -5    1    3    3    0  502  0.38782021283E+03  0.13593443463E+03 -0.10951170743E+04  0.11696949108E+04  0.46999998093E+01 0.  1.
</event>
<event>
 5   0  0.8365016E-04  0.1051927E+04  0.7818609E-02  0.9253357E-01
       -1   -1    0    0    0  501  0.00000000000E+00  0.00000000000E+00  0.12693083969E+03  0.12693083979E+03  0.50400001928E-02 0.  1.
        1   -1    0    0  501    0  0.00000000000E+00  0.00000000000E+00 -0.21794366431E+04  0.21794366431E+04  0.50400001928E-02 0. -1.
    10030    2    1    2    0    0  0.00000000000E+00  0.00000000000E+00 -0.20525058034E+04  0.23063674829E+04  0.10519272280E+04 0.  0.
        3    1    3    3  502    0 -0.41757236178E+03  0.19222759642E+03 -0.46589625892E+03  0.65450550832E+03  0.10100000352E+00 0. -1.
       -3    1    3    3    0  502  0.41757236178E+03 -0.19222759642E+03 -0.15866095445E+04  0.16518619746E+04  0.10100000352E+00 0.  1.
</event>
<event>
 5   0  0.1526126E-03  0.1501612E+04  0.7818609E-02  0.8883382E-01
       -2   -1    0    0    0  501  0.00000000000E+00  0.00000000000E+00  0.54214040742E+03  0.54214040742E+03  0.25500000920E-02 0.  1.
        2   -1    0    0  501    0  0.00000000000E+00  0.00000000000E+00 -0.10397851281E+04  0.10397851281E+04  0.25500000920E-02 0. -1.
    10030    2    1    2    0    0  0.00000000000E+00  0.00000000000E+00 -0.49764472064E+03  0.15819255355E+04  0.15016118446E+04 0.  0.
        2    1    3    3  502    0  0.71280048726E+03  0.18900638647E+02 -0.49648716793E+03  0.86887356773E+03  0.25500000920E-02 0.  1.
       -2    1    3    3    0  502 -0.71280048726E+03 -0.18900638647E+02 -0.11575527103E+01  0.71305196775E+03  0.25500000920E-02 0. -1.
</event>
<event>
 5   0  0.8058234E-04  0.1428371E+04  0.7818609E-02  0.8933535E-01
        1   -1    0    0  501    0  0.00000000000E+00  0.00000000000E+00  0.12748376887E+04  0.12748376887E+04  0.50400001928E-02 0. -1.
       -1   -1    0    0    0  501  0.00000000000E+00  0.00000000000E+00 -0.40009847574E+03  0.40009847577E+03  0.50400001928E-02 0.  1.
    10030    2    1    2    0    0  0.00000000000E+00  0.00000000000E+00  0.87473921292E+03  0.16749361644E+04  0.14283705627E+04 0.  0.
        5    1    3    3  502    0  0.15995462321E+03  0.52114322375E+03  0.97838203039E+03  0.11200130484E+04  0.46999998093E+01 0. -1.
       -5    1    3    3    0  502 -0.15995462321E+03 -0.52114322375E+03 -0.10364281747E+03  0.55492311607E+03  0.46999998093E+01 0.  1.
</event>
<event>
 5   0  0.8191876E-04  0.1507238E+04  0.7818609E-02  0.8879654E-01
        1   -1    0    0  501    0  0.00000000000E+00  0.00000000000E+00  0.52087058235E+03  0.52087058237E+03  0.50400001928E-02 0.  1.
       -1   -1    0    0    0  501  0.00000000000E+00  0.00000000000E+00 -0.10903699846E+04  0.10903699846E+04  0.50400001928E-02 0. -1.
    10030    2    1    2    0    0  0.00000000000E+00  0.00000000000E+00 -0.56949940224E+03  0.16112405670E+04  0.15072380686E+04 0.  0.
        2    1    3    3  502    0  0.57074932968E+03 -0.47817877683E+03 -0.16039618594E+03  0.76166703776E+03  0.25500000920E-02 0.  1.
       -2    1    3    3    0  502 -0.57074932968E+03  0.47817877683E+03 -0.40910321630E+03  0.84957352921E+03  0.25500000920E-02 0. -1.
</event>
<event>
 5   0  0.8058234E-04  0.1500043E+04  0.7818609E-02  0.8884425E-01
       -1   -1    0    0    0  501  0.00000000000E+00  0.00000000000E+00  0.52797364874E+03  0.52797364877E+03  0.50400001928E-02 0.  1.
        1   -1    0    0  501    0  0.00000000000E+00  0.00000000000E+00 -0.10654547760E+04  0.10654547760E+04  0.50400001928E-02 0. -1.
    10030    2    1    2    0    0  0.00000000000E+00  0.00000000000E+00 -0.53748112728E+03  0.15934284248E+04  0.15000427270E+04 0.  0.
        5    1    3    3  502    0  0.81157486893E+02  0.66573175015E+03  0.87906282357E+02  0.67641326518E+03  0.46999998093E+01 0.  1.
       -5    1    3    3    0  502 -0.81157486893E+02 -0.66573175015E+03 -0.62538740963E+03  0.91701515962E+03  0.46999998093E+01 0. -1.
</event>
<event>
 5   0  0.1484056E-03  0.1458209E+04  0.7818609E-02  0.8912729E-01
        2   -1    0    0  501    0  0.00000000000E+00  0.00000000000E+00  0.76968616779E+03  0.76968616779E+03  0.25500000920E-02 0.  1.
       -2   -1    0    0    0  501  0.00000000000E+00  0.00000000000E+00 -0.69066290153E+03  0.69066290153E+03  0.25500000920E-02 0. -1.
    10030    2    1    2    0    0  0.00000000000E+00  0.00000000000E+00  0.79023266257E+02  0.14603490693E+04  0.14582094252E+04 0.  0.
        5    1    3    3  502    0 -0.12714498908E+03 -0.45249925231E+03 -0.51866618700E+03  0.69997008874E+03  0.46999998093E+01 0. -1.
       -5    1    3    3    0  502  0.12714498908E+03  0.45249925231E+03  0.59768945325E+03  0.76037898059E+03  0.46999998093E+01 0.  1.
</event>
<event>
 5   0  0.8058234E-04  0.1494425E+04  0.7818609E-02  0.8888168E-01
        1   -1    0    0  501    0  0.00000000000E+00  0.00000000000E+00  0.13441748639E+04  0.13441748639E+04  0.50400001928E-02 0. -1.
       -1   -1    0    0    0  501  0.00000000000E+00  0.00000000000E+00 -0.41536768796E+03  0.41536768799E+03  0.50400001928E-02 0.  1.
    10030    2    1    2    0    0  0.00000000000E+00  0.00000000000E+00  0.92880717591E+03  0.17595425519E+04  0.14944253818E+04 0.  0.
        5    1    3    3  502    0 -0.47673245524E+02 -0.56445694184E+03  0.10381031235E+04  0.11826092180E+04  0.46999998093E+01 0. -1.
       -5    1    3    3    0  502  0.47673245524E+02  0.56445694184E+03 -0.10929594760E+03  0.57693333384E+03  0.46999998093E+01 0.  1.
</event>
<event>
 5   0  0.1511546E-03  0.1541955E+04  0.7818609E-02  0.8857023E-01
       -2   -1    0    0    0  501  0.00000000000E+00  0.00000000000E+00  0.69821259217E+03  0.69821259218E+03  0.25500000920E-02 0.  1.
        2   -1    0    0  501    0  0.00000000000E+00  0.00000000000E+00 -0.85132610889E+03  0.85132610890E+03  0.25500000920E-02 0. -1.
    10030    2    1    2    0    0  0.00000000000E+00  0.00000000000E+00 -0.15311351672E+03  0.15495387011E+04  0.15419553940E+04 0.  0.
        1    1    3    3  502    0 -0.44887457611E+02  0.67685282058E+03  0.29166305064E+03  0.73838469629E+03  0.50400001928E-02 0.  1.
       -1    1    3    3    0  502  0.44887457611E+02 -0.67685282058E+03 -0.44477656737E+03  0.81115400479E+03  0.50400001928E-02 0. -1.
</event>
<event>
 5   0  0.1484056E-03  0.1505412E+04  0.7818609E-02  0.8880862E-01
        2   -1    0    0  501    0  0.00000000000E+00  0.00000000000E+00  0.14864077027E+04  0.14864077027E+04  0.25500000920E-02 0. -1.
       -2   -1    0    0    0  501  0.00000000000E+00  0.00000000000E+00 -0.38116484252E+03  0.38116484253E+03  0.25500000920E-02 0.  1.
    10030    2    1    2    0    0  0.00000000000E+00  0.00000000000E+00  0.11052428601E+04  0.18675725452E+04  0.15054120471E+04 0.  0.
        5    1    3    3  502    0  0.64582721465E+03 -0.14706294155E+03  0.10908607795E+03  0.67129886218E+03  0.46999998093E+01 0.  1.
       -5    1    3    3    0  502 -0.64582721465E+03  0.14706294155E+03  0.99615678219E+03  0.11962736830E+04  0.46999998093E+01 0. -1.
</event>
<event>
 5   0  0.1484056E-03  0.1492921E+04  0.7818609E-02  0.8889174E-01
       -2   -1    0    0    0  501  0.00000000000E+00  0.00000000000E+00  0.36481981930E+03  0.36481981931E+03  0.25500000920E-02 0. -1.
        2   -1    0    0  501    0  0.00000000000E+00  0.00000000000E+00 -0.15273378680E+04  0.15273378680E+04  0.25500000920E-02 0.  1.
    10030    2    1    2    0    0  0.00000000000E+00  0.00000000000E+00 -0.11625180487E+04  0.18921576873E+04  0.14929207950E+04 0.  0.
        5    1    3    3  502    0 -0.25340040682E+03  0.48049554057E+02 -0.14690507882E+04  0.14915270142E+04  0.46999998093E+01 0.  1.
       -5    1    3    3    0  502  0.25340040682E+03 -0.48049554057E+02  0.30653273952E+03  0.40063067308E+03  0.46999998093E+01 0. -1.
</event>
<event>
 5   0  0.8058234E-04  0.1434773E+04  0.7818609E-02  0.8929026E-01
       -1   -1    0    0    0  501  0.00000000000E+00  0.00000000000E+00  0.10668523506E+04  0.10668523506E+04  0.50400001928E-02 0. -1.
        1   -1    0    0  501    0  0.00000000000E+00  0.00000000000E+00 -0.48239390876E+03  0.48239390878E+03  0.50400001928E-02 0.  1.
    10030    2    1    2    0    0  0.00000000000E+00  0.00000000000E+00  0.58445844185E+03  0.15492462594E+04  0.14347725611E+04 0.  0.
        5    1    3    3  502    0  0.38033410728E+02  0.69975146468E+03  0.12662264062E+03  0.71214748175E+03  0.46999998093E+01 0. -1.
       -5    1    3    3    0  502 -0.38033410728E+02 -0.69975146468E+03  0.45783580123E+03  0.83709877765E+03  0.46999998093E+01 0.  1.
</event>
<event>
 5   0  0.8058234E-04  0.1632368E+04  0.7818609E-02  0.8800906E-01
        1   -1    0    0  501    0  0.00000000000E+00  0.00000000000E+00  0.10254448874E+04  0.10254448874E+04  0.50400001928E-02 0. -1.
       -1   -1    0    0    0  501  0.00000000000E+00  0.00000000000E+00 -0.64962641294E+03  0.64962641296E+03  0.50400001928E-02 0.  1.
    10030    2    1    2    0    0  0.00000000000E+00  0.00000000000E+00  0.37581847446E+03  0.16750713004E+04  0.16323677084E+04 0.  0.
        5    1    3    3  502    0 -0.17266279361E+03 -0.76104230833E+03 -0.57375667482E+02  0.78250360547E+03  0.46999998093E+01 0.  1.
       -5    1    3    3    0  502  0.17266279361E+03  0.76104230833E+03  0.43319414195E+03  0.89256769490E+03  0.46999998093E+01 0. -1.
</event>
<event>
 5   0  0.1484056E-03  0.1487583E+04  0.7818609E-02  0.8892752E-01
        2   -1    0    0  501    0  0.00000000000E+00  0.00000000000E+00  0.23353992982E+04  0.23353992982E+04  0.25500000920E-02 0. -1.
       -2   -1    0    0    0  501  0.00000000000E+00  0.00000000000E+00 -0.23688696918E+03  0.23688696920E+03  0.25500000920E-02 0.  1.
    10030    2    1    2    0    0  0.00000000000E+00  0.00000000000E+00  0.20985123290E+04  0.25722862674E+04  0.14875828200E+04 0.  0.
        5    1    3    3  502    0 -0.17980250650E+03  0.57119091986E+03  0.18120846972E+04  0.19084708664E+04  0.46999998093E+01 0.  1.
       -5    1    3    3    0  502  0.17980250650E+03 -0.57119091986E+03  0.28642763184E+03  0.66381540096E+03  0.46999998093E+01 0. -1.
</event>
<event>
 5   0  0.8306301E-04  0.1537783E+04  0.7818609E-02  0.8859709E-01
        1   -1    0    0  501    0  0.00000000000E+00  0.00000000000E+00  0.88834072214E+03  0.88834072216E+03  0.50400001928E-02 0.  1.
       -1   -1    0    0    0  501  0.00000000000E+00  0.00000000000E+00 -0.66550413028E+03  0.66550413030E+03  0.50400001928E-02 0. -1.
    10030    2    1    2    0    0  0.00000000000E+00  0.00000000000E+00  0.22283659186E+03  0.15538448525E+04  0.15377833654E+04 0.  0.
        4    1    3    3  502    0 -0.69548863323E+03  0.20582425265E+02 -0.21920672057E+03  0.72950755612E+03  0.12699999809E+01 0. -1.
       -4    1    3    3    0  502  0.69548863323E+03 -0.20582425265E+02  0.44204331243E+03  0.82433729635E+03  0.12699999809E+01 0.  1.
</event>
<event>
 5   0  0.1511546E-03  0.1513921E+04  0.7818609E-02  0.8875248E-01
        2   -1    0    0  501    0  0.00000000000E+00  0.00000000000E+00  0.11567260741E+04  0.11567260741E+04  0.25500000920E-02 0.  1.
       -2   -1    0    0    0  501  0.00000000000E+00  0.00000000000E+00 -0.49535411589E+03  0.49535411590E+03  0.25500000920E-02 0. -1.
    10030    2    1    2    0    0  0.00000000000E+00  0.00000000000E+00  0.66137195824E+03  0.16520801900E+04  0.15139207665E+04 0.  0.
        1    1    3    3  502    0 -0.71277287926E+03  0.24770177855E+03  0.39604934656E+03  0.85220680204E+03  0.50400001928E-02 0.  1.
       -1    1    3    3    0  502  0.71277287926E+03 -0.24770177855E+03  0.26532261168E+03  0.79987338798E+03  0.50400001928E-02 0. -1.
</event>
<event>
 5   0  0.8058234E-04  0.1549244E+04  0.7818609E-02  0.8852351E-01
       -1   -1    0    0    0  501  0.00000000000E+00  0.00000000000E+00  0.56008226057E+03  0.56008226060E+03  0.50400001928E-02 0.  1.
        1   -1    0    0  501    0  0.00000000000E+00  0.00000000000E+00 -0.10713407282E+04  0.10713407283E+04  0.50400001928E-02 0. -1.
    10030    2    1    2    0    0  0.00000000000E+00  0.00000000000E+00 -0.51125846767E+03  0.16314229888E+04  0.15492436050E+04 0.  0.
        5    1    3    3  502    0 -0.51590212748E+02  0.15985735682E+02 -0.10693404671E+04  0.10707138826E+04  0.46999998093E+01 0. -1.
       -5    1    3    3    0  502  0.51590212748E+02 -0.15985735682E+02  0.55808199941E+03  0.56070910628E+03  0.46999998093E+01 0.  1.
</event>
<event>
 5   0  0.7870317E-04  0.1523898E+04  0.7818609E-02  0.8868715E-01
        1   -1    0    0  501    0  0.00000000000E+00  0.00000000000E+00  0.81033653503E+03  0.81033653505E+03  0.50400001928E-02 0. -1.
       -1   -1    0    0    0  501  0.00000000000E+00  0.00000000000E+00 -0.71645069570E+03  0.71645069572E+03  0.50400001928E-02 0.  1.
    10030    2    1    2    0    0  0.00000000000E+00  0.00000000000E+00  0.93885839336E+02  0.15267872308E+04  0.15238978631E+04 0.  0.
        1    1    3    3  502    0 -0.40089065335E+03  0.17820816997E+03  0.67109657542E+03  0.80177433318E+03  0.50400001928E-02 0. -1.
       -1    1    3    3    0  502  0.40089065335E+03 -0.17820816997E+03 -0.57721073608E+03  0.72501289758E+03  0.50400001928E-02 0.  1.
</event>
<event>
 5   0  0.7870317E-04  0.1499932E+04  0.7818609E-02  0.8884498E-01
        1   -1    0    0  501    0  0.00000000000E+00  0.00000000000E+00  0.11514893075E+04  0.11514893075E+04  0.50400001928E-02 0. -1.
       -1   -1    0    0    0  501  0.00000000000E+00  0.00000000000E+00 -0.48845359250E+03  0.48845359253E+03  0.50400001928E-02 0.  1.
    10030    2    1    2    0    0  0.00000000000E+00  0.00000000000E+00  0.66303571502E+03  0.16399429001E+04  0.14999321172E+04 0.  0.
        1    1    3    3  502    0  0.22051513500E+03 -0.52858653194E+02 -0.45007309707E+03  0.50397098599E+03  0.50400001928E-02 0.  1.
       -1    1    3    3    0  502 -0.22051513500E+03  0.52858653194E+02  0.11131088121E+04  0.11359719141E+04  0.50400001928E-02 0. -1.
</event>
<event>
 5   0  0.8306301E-04  0.1506752E+04  0.7818609E-02  0.8879975E-01
        1   -1    0    0  501    0  0.00000000000E+00  0.00000000000E+00  0.10023434732E+04  0.10023434732E+04  0.50400001928E-02 0.  1.
       -1   -1    0    0    0  501  0.00000000000E+00  0.00000000000E+00 -0.56624824407E+03  0.56624824409E+03  0.50400001928E-02 0. -1.
    10030    2    1    2    0    0  0.00000000000E+00  0.00000000000E+00  0.43609522915E+03  0.15685917173E+04  0.15067517801E+04 0.  0.
        4    1    3    3  502    0 -0.75086322848E+03 -0.12183929776E+02  0.15532898551E+03  0.76685901094E+03  0.12699999809E+01 0.  1.
       -4    1    3    3    0  502  0.75086322848E+03  0.12183929776E+02  0.28076624364E+03  0.80173270639E+03  0.12699999809E+01 0. -1.
</event>
<event>
 5   0  0.1500956E-03  0.1419385E+04  0.7818609E-02  0.8939905E-01
        2   -1    0    0  501    0  0.00000000000E+00  0.00000000000E+00  0.10228409811E+04  0.10228409811E+04  0.25500000920E-02 0. -1.
       -2   -1    0    0    0  501  0.00000000000E+00  0.00000000000E+00 -0.49241591120E+03  0.49241591121E+03  0.25500000920E-02 0.  1.
    10030    2    1    2    0    0  0.00000000000E+00  0.00000000000E+00  0.53042506993E+03  0.15152568923E+04  0.14193846184E+04 0.  0.
        4    1    3    3  502    0 -0.52572284910E+03 -0.46417107455E+03  0.38128693107E+03  0.79826100820E+03  0.12699999809E+01 0.  1.
       -4    1    3    3    0  502  0.52572284910E+03  0.46417107455E+03  0.14913813887E+03  0.71699588414E+03  0.12699999809E+01 0. -1.
</event>
<event>
 5   0  0.1552067E-03  0.1519663E+04  0.7818609E-02  0.8871482E-01
       -2   -1    0    0    0  501  0.00000000000E+00  0.00000000000E+00  0.26591754005E+03  0.26591754006E+03  0.25500000920E-02 0. -1.
        2   -1    0    0  501    0  0.00000000000E+00  0.00000000000E+00 -0.21711380013E+04  0.21711380013E+04  0.25500000920E-02 0.  1.
    10030    2    1    2    0    0  0.00000000000E+00  0.00000000000E+00 -0.19052204612E+04  0.24370555413E+04  0.15196626947E+04 0.  0.
        3    1    3    3  502    0 -0.55474402238E+03  0.39232588243E+03 -0.40716235491E+03  0.79211219018E+03  0.10100000352E+00 0. -1.
       -3    1    3    3    0  502  0.55474402238E+03 -0.39232588243E+03 -0.14980581063E+04  0.16449433512E+04  0.10100000352E+00 0.  1.
</event>
<event>
 5   0  0.8306301E-04  0.1526220E+04  0.7818609E-02  0.8867202E-01
        1   -1    0    0  501    0  0.00000000000E+00  0.00000000000E+00  0.16156022035E+04  0.16156022035E+04  0.50400001928E-02 0.  1.
       -1   -1    0    0    0  501  0.00000000000E+00  0.00000000000E+00 -0.36044565043E+03  0.36044565047E+03  0.50400001928E-02 0. -1.
    10030    2    1    2    0    0  0.00000000000E+00  0.00000000000E+00  0.12551565531E+04  0.19760478540E+04  0.15262198887E+04 0.  0.
        4    1    3    3  502    0 -0.70037973529E+03  0.19146735074E+03  0.32354009934E+03  0.79490334557E+03  0.12699999809E+01 0.  1.
       -4    1    3    3    0  502  0.70037973529E+03 -0.19146735074E+03  0.93161645377E+03  0.11811445084E+04  0.12699999809E+01 0. -1.
</event>
<event>
 5   0  0.1484056E-03  0.1371970E+04  0.7818609E-02  0.8974362E-01
       -2   -1    0    0    0  501  0.00000000000E+00  0.00000000000E+00  0.79934166622E+03  0.79934166622E+03  0.25500000920E-02 0.  1.
        2   -1    0    0  501    0  0.00000000000E+00  0.00000000000E+00 -0.58870357398E+03  0.58870357399E+03  0.25500000920E-02 0. -1.
    10030    2    1    2    0    0  0.00000000000E+00  0.00000000000E+00  0.21063809224E+03  0.13880452402E+04  0.13719698185E+04 0.  0.
        5    1    3    3  502    0  0.19672334824E+03 -0.41738186521E+03 -0.40821631255E+03  0.61609280549E+03  0.46999998093E+01 0. -1.
       -5    1    3    3    0  502 -0.19672334824E+03  0.41738186521E+03  0.61885440479E+03  0.77195243472E+03  0.46999998093E+01 0.  1.
</event>
<event>
 5   0  0.1552067E-03  0.1113137E+04  0.7818609E-02  0.9192482E-01
        2   -1    0    0  501    0  0.00000000000E+00  0.00000000000E+00  0.85716306258E+03  0.85716306258E+03  0.25500000920E-02 0. -1.
       -2   -1    0    0    0  501  0.00000000000E+00  0.00000000000E+00 -0.36138783836E+03  0.36138783837E+03  0.25500000920E-02 0.  1.
    10030    2    1    2    0    0  0.00000000000E+00  0.00000000000E+00  0.49577522421E+03  0.12185509010E+04  0.11131366606E+04 0.  0.
        3    1    3    3  502    0 -0.18242695551E+03 -0.21844530181E+03  0.77148209191E+03  0.82230321191E+03  0.10100000352E+00 0. -1.
       -3    1    3    3    0  502  0.18242695551E+03  0.21844530181E+03 -0.27570686770E+03  0.39624768904E+03  0.10100000352E+00 0.  1.
</event>
<event>
 5   0  0.1500956E-03  0.1475932E+04  0.7818609E-02  0.8900618E-01
        2   -1    0    0  501    0  0.00000000000E+00  0.00000000000E+00  0.52436129946E+03  0.52436129946E+03  0.25500000920E-02 0.  1.
       -2   -1    0    0    0  501  0.00000000000E+00  0.00000000000E+00 -0.10385844909E+04  0.10385844909E+04  0.25500000920E-02 0. -1.
    10030    2    1    2    0    0  0.00000000000E+00  0.00000000000E+00 -0.51422319146E+03  0.15629457904E+04  0.14759315882E+04 0.  0.
        4    1    3    3  502    0 -0.45834476237E+03  0.19127336467E+03 -0.83511745312E+03  0.97164200950E+03  0.12699999809E+01 0. -1.
       -4    1    3    3    0  502  0.45834476237E+03 -0.19127336467E+03  0.32089426166E+03  0.59130378089E+03  0.12699999809E+01 0.  1.
</event>
<event>
 5   0  0.1526126E-03  0.1503588E+04  0.7818609E-02  0.8882070E-01
        2   -1    0    0  501    0  0.00000000000E+00  0.00000000000E+00  0.39726330042E+03  0.39726330043E+03  0.25500000920E-02 0.  1.
       -2   -1    0    0    0  501  0.00000000000E+00  0.00000000000E+00 -0.14227197552E+04  0.14227197552E+04  0.25500000920E-02 0. -1.
    10030    2    1    2    0    0  0.00000000000E+00  0.00000000000E+00 -0.10254564548E+04  0.18199830556E+04  0.15035881691E+04 0.  0.
        2    1    3    3  502    0 -0.16942437671E+02 -0.65833282851E+03 -0.95167300379E+03  0.11573118272E+04  0.25500000920E-02 0. -1.
       -2    1    3    3    0  502  0.16942437671E+02  0.65833282851E+03 -0.73783450978E+02  0.66267122839E+03  0.25500000920E-02 0.  1.
</event>
<event>
 5   0  0.1526126E-03  0.1488320E+04  0.7818609E-02  0.8892258E-01
       -2   -1    0    0    0  501  0.00000000000E+00  0.00000000000E+00  0.42153246414E+03  0.42153246415E+03  0.25500000920E-02 0. -1.
        2   -1    0    0  501    0  0.00000000000E+00  0.00000000000E+00 -0.13137156895E+04  0.13137156895E+04  0.25500000920E-02 0.  1.
    10030    2    1    2    0    0  0.00000000000E+00  0.00000000000E+00 -0.89218322535E+03  0.17352481536E+04  0.14883196052E+04 0.  0.
        2    1    3    3  502    0  0.25167870421E+03 -0.68246352885E+03 -0.26294643196E+03  0.77345941358E+03  0.25500000920E-02 0.  1.
       -2    1    3    3    0  502 -0.25167870421E+03  0.68246352885E+03 -0.62923679339E+03  0.96178874007E+03  0.25500000920E-02 0. -1.
</event>
<event>
 5   0  0.1526126E-03  0.1476694E+04  0.7818609E-02  0.8900101E-01
       -2   -1    0    0    0  501  0.00000000000E+00  0.00000000000E+00  0.22753175992E+04  0.22753175992E+04  0.25500000920E-02 0. -1.
        2   -1    0    0  501    0  0.00000000000E+00  0.00000000000E+00 -0.23959570567E+03  0.23959570569E+03  0.25500000920E-02 0.  1.
    10030    2    1    2    0    0  0.00000000000E+00  0.00000000000E+00  0.20357218935E+04  0.25149133049E+04  0.14766940453E+04 0.  0.
        2    1    3    3  502    0 -0.28356305073E+03 -0.42515985335E+03  0.11028694451E+03  0.52281173932E+03  0.25500000920E-02 0.  1.
       -2    1    3    3    0  502  0.28356305073E+03  0.42515985335E+03  0.19254349490E+04  0.19921015655E+04  0.25500000920E-02 0. -1.
</event>
<event>
 5   0  0.1552067E-03  0.1019178E+04  0.7818609E-02  0.9287757E-01
       -2   -1    0    0    0  501  0.00000000000E+00  0.00000000000E+00  0.41461427372E+03  0.41461427373E+03  0.25500000920E-02 0. -1.
        2   -1    0    0  501    0  0.00000000000E+00  0.00000000000E+00 -0.62631962712E+03  0.62631962712E+03  0.25500000920E-02 0.  1.
    10030    2    1    2    0    0  0.00000000000E+00  0.00000000000E+00 -0.21170535339E+03  0.10409339009E+04  0.10191782127E+04 0.  0.
        3    1    3    3  502    0  0.10080712196E+03  0.39549597673E+03 -0.41749203562E+03  0.58384822810E+03  0.10100000352E+00 0.  1.
       -3    1    3    3    0  502 -0.10080712196E+03 -0.39549597673E+03  0.20578668223E+03  0.45708567275E+03  0.10100000352E+00 0. -1.
</event>
<event>
 5   0  0.1500956E-03  0.1513749E+04  0.7818609E-02  0.8875361E-01
       -2   -1    0    0    0  501  0.00000000000E+00  0.00000000000E+00  0.75296898271E+03  0.75296898272E+03  0.25500000920E-02 0. -1.
        2   -1    0    0  501    0  0.00000000000E+00  0.00000000000E+00 -0.76080019716E+03  0.76080019716E+03  0.25500000920E-02 0.  1.
    10030    2    1    2    0    0  0.00000000000E+00  0.00000000000E+00 -0.78312144463E+01  0.15137691799E+04  0.15137489231E+04 0.  0.
        4    1    3    3  502    0  0.52169959035E+02 -0.15764510934E+03  0.73452751614E+03  0.75306438635E+03  0.12699999809E+01 0. -1.
       -4    1    3    3    0  502 -0.52169959035E+02  0.15764510934E+03 -0.74235873059E+03  0.76070479353E+03  0.12699999809E+01 0.  1.
</event>
<event>
 5   0  0.1511546E-03  0.1510804E+04  0.7818609E-02  0.8877300E-01
       -2   -1    0    0    0  501  0.00000000000E+00  0.00000000000E+00  0.81349742174E+03  0.81349742174E+03  0.25500000920E-02 0.  1.
        2   -1    0    0  501    0  0.00000000000E+00  0.00000000000E+00 -0.70145553674E+03  0.70145553674E+03  0.25500000920E-02 0. -1.
    10030    2    1    2    0    0  0.00000000000E+00  0.00000000000E+00  0.11204188500E+03  0.15149529585E+04  0.15108041178E+04 0.  0.
        1    1    3    3  502    0 -0.58420416937E+02 -0.69048817844E+03 -0.24554634644E+03  0.73517336592E+03  0.50400001928E-02 0. -1.
       -1    1    3    3    0  502  0.58420416937E+02  0.69048817844E+03  0.35758823144E+03  0.77977959256E+03  0.50400001928E-02 0.  1.
</event>
<event>
 5   0  0.7870317E-04  0.9465396E+03  0.7818609E-02  0.9369204E-01
        1   -1    0    0  501    0  0.00000000000E+00  0.00000000000E+00  0.10218685439E+04  0.10218685439E+04  0.50400001928E-02 0. -1.
       -1   -1    0    0    0  501  0.00000000000E+00  0.00000000000E+00 -0.21919090547E+03  0.21919090553E+03  0.50400001928E-02 0.  1.
    10030    2    1    2    0    0  0.00000000000E+00  0.00000000000E+00  0.80267763842E+03  0.12410594494E+04  0.94653957434E+03 0.  0.
        1    1    3    3  502    0  0.15129583360E+03  0.11953100406E+03  0.96803391445E+03  0.98705002393E+03  0.50400001928E-02 0. -1.
       -1    1    3    3    0  502 -0.15129583360E+03 -0.11953100406E+03 -0.16535627602E+03  0.25400942550E+03  0.50400001928E-02 0.  1.
</event>
<event>
 5   0  0.8365016E-04  0.1542616E+04  0.7818609E-02  0.8856598E-01
       -1   -1    0    0    0  501  0.00000000000E+00  0.00000000000E+00  0.24809465295E+03  0.24809465300E+03  0.50400001928E-02 0. -1.
        1   -1    0    0  501    0  0.00000000000E+00  0.00000000000E+00 -0.23979396744E+04  0.23979396744E+04  0.50400001928E-02 0.  1.
    10030    2    1    2    0    0  0.00000000000E+00  0.00000000000E+00 -0.21498450214E+04  0.26460343274E+04  0.15426159748E+04 0.  0.
        3    1    3    3  502    0  0.24500323363E+03 -0.72422964813E+03 -0.90015779230E+03  0.11810246521E+04  0.10100000352E+00 0. -1.
       -3    1    3    3    0  502 -0.24500323363E+03  0.72422964813E+03 -0.12496872291E+04  0.14650096753E+04  0.10100000352E+00 0.  1.
</event>
<event>
 5   0  0.7870317E-04  0.1484227E+04  0.7818609E-02  0.8895010E-01
        1   -1    0    0  501    0  0.00000000000E+00  0.00000000000E+00  0.65537242149E+03  0.65537242151E+03  0.50400001928E-02 0.  1.
       -1   -1    0    0    0  501  0.00000000000E+00  0.00000000000E+00 -0.84033516319E+03  0.84033516320E+03  0.50400001928E-02 0. -1.
    10030    2    1    2    0    0  0.00000000000E+00  0.00000000000E+00 -0.18496274170E+03  0.14957075847E+04  0.14842270592E+04 0.  0.
        1    1    3    3  502    0  0.37941133854E+03 -0.53500997206E+01  0.55022205376E+03  0.66837556497E+03  0.50400001928E-02 0.  1.
       -1    1    3    3    0  502 -0.37941133854E+03  0.53500997206E+01 -0.73518479547E+03  0.82733201974E+03  0.50400001928E-02 0. -1.
</event>
<event>
 5   0  0.1500956E-03  0.1486183E+04  0.7818609E-02  0.8893694E-01
        2   -1    0    0  501    0  0.00000000000E+00  0.00000000000E+00  0.11540034750E+04  0.11540034750E+04  0.25500000920E-02 0.  1.
       -2   -1    0    0    0  501  0.00000000000E+00  0.00000000000E+00 -0.47849483979E+03  0.47849483979E+03  0.25500000920E-02 0. -1.
    10030    2    1    2    0    0  0.00000000000E+00  0.00000000000E+00  0.67550863522E+03  0.16324983148E+04  0.14861826374E+04 0.  0.
        4    1    3    3  502    0  0.48930531778E+03 -0.46772850330E+03  0.67452117907E+03  0.95559933064E+03  0.12699999809E+01 0. -1.
       -4    1    3    3    0  502 -0.48930531778E+03  0.46772850330E+03  0.98745614924E+00  0.67689898417E+03  0.12699999809E+01 0.  1.
</event>
<event>
 5   0  0.1526126E-03  0.1047957E+04  0.7818609E-02  0.9257456E-01
        2   -1    0    0  501    0  0.00000000000E+00  0.00000000000E+00  0.73374675606E+03  0.73374675606E+03  0.25500000920E-02 0. -1.
       -2   -1    0    0    0  501  0.00000000000E+00  0.00000000000E+00 -0.37417990905E+03  0.37417990905E+03  0.25500000920E-02 0.  1.
    10030    2    1    2    0    0  0.00000000000E+00  0.00000000000E+00  0.35956684701E+03  0.11079266651E+04  0.10479566679E+04 0.  0.
        2    1    3    3  502    0 -0.20798216455E+03 -0.36174241517E+03 -0.15527394987E+03  0.44522371368E+03  0.25500000920E-02 0.  1.
       -2    1    3    3    0  502  0.20798216455E+03  0.36174241517E+03  0.51484079689E+03  0.66270295144E+03  0.25500000920E-02 0. -1.
</event>
<event>
 5   0  0.1526126E-03  0.1475974E+04  0.7818609E-02  0.8900589E-01
       -2   -1    0    0    0  501  0.00000000000E+00  0.00000000000E+00  0.11026262615E+04  0.11026262615E+04  0.25500000920E-02 0.  1.
        2   -1    0    0  501    0  0.00000000000E+00  0.00000000000E+00 -0.49393422599E+03  0.49393422600E+03  0.25500000920E-02 0. -1.
    10030    2    1    2    0    0  0.00000000000E+00  0.00000000000E+00  0.60869203549E+03  0.15965604875E+04  0.14759740499E+04 0.  0.
        2    1    3    3  502    0  0.56906188239E+03 -0.14383852364E+03  0.78822240992E+03  0.98275913345E+03  0.25500000920E-02 0.  1.
       -2    1    3    3    0  502 -0.56906188239E+03  0.14383852364E+03 -0.17953037443E+03  0.61380135404E+03  0.25500000920E-02 0. -1.
</event>
<event>
 5   0  0.1511546E-03  0.1721129E+04  0.7818609E-02  0.8749405E-01
       -2   -1    0    0    0  501  0.00000000000E+00  0.00000000000E+00  0.48898109081E+03  0.48898109082E+03  0.25500000920E-02 0. -1.
        2   -1    0    0  501    0  0.00000000000E+00  0.00000000000E+00 -0.15145194656E+04  0.15145194656E+04  0.25500000920E-02 0.  1.
    10030    2    1    2    0    0  0.00000000000E+00  0.00000000000E+00 -0.10255383748E+04  0.20035005564E+04  0.17211291414E+04 0.  0.
        1    1    3    3  502    0 -0.43003589515E+03  0.45534328704E+03  0.17422745910E+03  0.65009506051E+03  0.50400001928E-02 0. -1.
       -1    1    3    3    0  502  0.43003589515E+03 -0.45534328704E+03 -0.11997658339E+04  0.13534054959E+04  0.50400001928E-02 0.  1.
</event>
<event>
 5   0  0.1484056E-03  0.1450487E+04  0.7818609E-02  0.8918063E-01
        2   -1    0    0  501    0  0.00000000000E+00  0.00000000000E+00  0.27405081650E+04  0.27405081650E+04  0.25500000920E-02 0. -1.
       -2   -1    0    0    0  501  0.00000000000E+00  0.00000000000E+00 -0.19192726513E+03  0.19192726515E+03  0.25500000920E-02 0.  1.
    10030    2    1    2    0    0  0.00000000000E+00  0.00000000000E+00  0.25485808998E+04  0.29324354301E+04  0.14504871419E+04 0.  0.
        5    1    3    3  502    0 -0.33642609822E+03 -0.46110954333E+03  0.36982053427E+03  0.68014252042E+03  0.46999998093E+01 0.  1.
       -5    1    3    3    0  502  0.33642609822E+03  0.46110954333E+03  0.21787603656E+04  0.22522929097E+04  0.46999998093E+01 0. -1.
</event>
<event>
 5   0  0.8191876E-04  0.1500198E+04  0.7818609E-02  0.8884321E-01
        1   -1    0    0  501    0  0.00000000000E+00  0.00000000000E+00  0.16163978380E+04  0.16163978380E+04  0.50400001928E-02 0.  1.
       -1   -1    0    0    0  501  0.00000000000E+00  0.00000000000E+00 -0.34808783396E+03  0.34808783400E+03  0.50400001928E-02 0. -1.
    10030    2    1    2    0    0  0.00000000000E+00  0.00000000000E+00  0.12683100041E+04  0.19644856720E+04  0.15001978834E+04 0.  0.
        2    1    3    3  502    0  0.87049005766E+02 -0.44119905410E+03 -0.15198757262E+03  0.47469396139E+03  0.25500000920E-02 0. -1.
       -2    1    3    3    0  502 -0.87049005766E+02  0.44119905410E+03  0.14202975767E+04  0.14897917107E+04  0.25500000920E-02 0.  1.
</event>
<event>
 5   0  0.8365016E-04  0.1446541E+04  0.7818609E-02  0.8920802E-01
        1   -1    0    0  501    0  0.00000000000E+00  0.00000000000E+00  0.12616606801E+04  0.12616606801E+04  0.50400001928E-02 0.  1.
       -1   -1    0    0    0  501  0.00000000000E+00  0.00000000000E+00 -0.41462800993E+03  0.41462800996E+03  0.50400001928E-02 0. -1.
    10030    2    1    2    0    0  0.00000000000E+00  0.00000000000E+00  0.84703267017E+03  0.16762886901E+04  0.14465405034E+04 0.  0.
        3    1    3    3  502    0  0.73224122047E+02  0.65359865392E+03  0.74775417274E+02  0.66192472811E+03  0.10100000352E+00 0. -1.
       -3    1    3    3    0  502 -0.73224122047E+02 -0.65359865392E+03  0.77225725290E+03  0.10143639620E+04  0.10100000352E+00 0.  1.
</event>
<event>
 5   0  0.7870317E-04  0.1499489E+04  0.7818609E-02  0.8884793E-01
        1   -1    0    0  501    0  0.00000000000E+00  0.00000000000E+00  0.99493826680E+03  0.99493826682E+03  0.50400001928E-02 0.  1.
       -1   -1    0    0    0  501  0.00000000000E+00  0.00000000000E+00 -0.56497656676E+03  0.56497656678E+03  0.50400001928E-02 0. -1.
    10030    2    1    2    0    0  0.00000000000E+00  0.00000000000E+00  0.42996170004E+03  0.15599148336E+04  0.14994889878E+04 0.  0.
        1    1    3    3  502    0  0.68172951258E+03 -0.26832230504E+03  0.38066214713E+03  0.82562440492E+03  0.50400001928E-02 0. -1.
       -1    1    3    3    0  502 -0.68172951258E+03  0.26832230504E+03  0.49299552913E+02  0.73429042868E+03  0.50400001928E-02 0.  1.
</event>
<event>
 5   0  0.8191876E-04  0.1512407E+04  0.7818609E-02  0.8876244E-01
       -1   -1    0    0    0  501  0.00000000000E+00  0.00000000000E+00  0.75399372299E+03  0.75399372300E+03  0.50400001928E-02 0.  1.
        1   -1    0    0  501    0  0.00000000000E+00  0.00000000000E+00 -0.75841926106E+03  0.75841926108E+03  0.50400001928E-02 0. -1.
    10030    2    1    2    0    0  0.00000000000E+00  0.00000000000E+00 -0.44255380732E+01  0.15124129841E+04  0.15124065092E+04 0.  0.
        2    1    3    3  502    0  0.67087345148E+03 -0.75156184229E+02 -0.34298353748E+03  0.75720363636E+03  0.25500000920E-02 0. -1.
       -2    1    3    3    0  502 -0.67087345148E+03  0.75156184229E+02  0.33855799940E+03  0.75520934772E+03  0.25500000920E-02 0.  1.
</event>
<event>
 5   0  0.1552067E-03  0.1500644E+04  0.7818609E-02  0.8884025E-01
       -2   -1    0    0    0  501  0.00000000000E+00  0.00000000000E+00  0.36521987980E+03  0.36521987981E+03  0.25500000920E-02 0. -1.
        2   -1    0    0  501    0  0.00000000000E+00  0.00000000000E+00 -0.15414916606E+04  0.15414916606E+04  0.25500000920E-02 0.  1.
    10030    2    1    2    0    0  0.00000000000E+00  0.00000000000E+00 -0.11762717808E+04  0.19067115404E+04  0.15006443936E+04 0.  0.
        3    1    3    3  502    0  0.50696836722E+03 -0.19631226144E+03  0.68932553427E+02  0.54800286174E+03  0.10100000352E+00 0. -1.
       -3    1    3    3    0  502 -0.50696836722E+03  0.19631226144E+03 -0.12452043343E+04  0.13587086787E+04  0.10100000352E+00 0.  1.
</event>
<event>
 5   0  0.8191876E-04  0.1529985E+04  0.7818609E-02  0.8864755E-01
        1   -1    0    0  501    0  0.00000000000E+00  0.00000000000E+00  0.50523743645E+03  0.50523743648E+03  0.50400001928E-02 0. -1.
       -1   -1    0    0    0  501  0.00000000000E+00  0.00000000000E+00 -0.11582936062E+04  0.11582936062E+04  0.50400001928E-02 0.  1.
    10030    2    1    2    0    0  0.00000000000E+00  0.00000000000E+00 -0.65305616971E+03  0.16635310427E+04  0.15299846957E+04 0.  0.
        2    1    3    3  502    0  0.63868583210E+03  0.37333708223E+03 -0.53823673532E+03  0.91487646836E+03  0.25500000920E-02 0.  1.
       -2    1    3    3    0  502 -0.63868583210E+03 -0.37333708223E+03 -0.11481943439E+03  0.74865457430E+03  0.25500000920E-02 0. -1.
</event>
<event>
 5   0  0.1484056E-03  0.1279933E+04  0.7818609E-02  0.9045632E-01
       -2   -1    0    0    0  501  0.00000000000E+00  0.00000000000E+00  0.23163774054E+03  0.23163774055E+03  0.25500000920E-02 0.  1.
        2   -1    0    0  501    0  0.00000000000E+00  0.00000000000E+00 -0.17680930262E+04  0.17680930262E+04  0.25500000920E-02 0. -1.
    10030    2    1    2    0    0  0.00000000000E+00  0.00000000000E+00 -0.15364552857E+04  0.19997307668E+04  0.12799329259E+04 0.  0.
        5    1    3    3  502    0  0.28542130290E+03 -0.16768957767E+03  0.87446986763E+02  0.34242397711E+03  0.46999998093E+01 0.  1.
       -5    1    3    3    0  502 -0.28542130290E+03  0.16768957767E+03 -0.16239022724E+04  0.16573067897E+04  0.46999998093E+01 0. -1.
</event>
<event>
 5   0  0.1511546E-03  0.1485066E+04  0.7818609E-02  0.8894445E-01
       -2   -1    0    0    0  501  0.00000000000E+00  0.00000000000E+00  0.41734597687E+03  0.41734597687E+03  0.25500000920E-02 0. -1.
        2   -1    0    0  501    0  0.00000000000E+00  0.00000000000E+00 -0.13210981898E+04  0.13210981898E+04  0.25500000920E-02 0.  1.
    10030    2    1    2    0    0  0.00000000000E+00  0.00000000000E+00 -0.90375221290E+03  0.17384441666E+04  0.14850656747E+04 0.  0.
        1    1    3    3  502    0 -0.68088593988E+02  0.40956198825E+03 -0.11725222218E+04  0.12438590915E+04  0.50400001928E-02 0.  1.
       -1    1    3    3    0  502  0.68088593988E+02 -0.40956198825E+03  0.26877000890E+03  0.49458507515E+03  0.50400001928E-02 0. -1.
</event>
<event>
 5   0  0.8058234E-04  0.1508968E+04  0.7818609E-02  0.8878511E-01
        1   -1    0    0  501    0  0.00000000000E+00  0.00000000000E+00  0.19976939242E+04  0.19976939243E+04  0.50400001928E-02 0. -1.
       -1   -1    0    0    0  501  0.00000000000E+00  0.00000000000E+00 -0.28495159534E+03  0.28495159539E+03  0.50400001928E-02 0.  1.
    10030    2    1    2    0    0  0.00000000000E+00  0.00000000000E+00  0.17127423289E+04  0.22826455196E+04  0.15089679530E+04 0.  0.
        5    1    3    3  502    0  0.12558515788E+03 -0.34648609575E+03  0.18522414575E+04  0.18885562616E+04  0.46999998093E+01 0. -1.
       -5    1    3    3    0  502 -0.12558515788E+03  0.34648609575E+03 -0.13949912858E+03  0.39408925804E+03  0.46999998093E+01 0.  1.
</event>
<event>
 5   0  0.8365016E-04  0.1509817E+04  0.7818609E-02  0.8877951E-01
        1   -1    0    0  501    0  0.00000000000E+00  0.00000000000E+00  0.88383517053E+03  0.88383517054E+03  0.50400001928E-02 0. -1.
       -1   -1    0    0    0  501  0.00000000000E+00  0.00000000000E+00 -0.64478871374E+03  0.64478871376E+03  0.50400001928E-02 0.  1.
    10030    2    1    2    0    0  0.00000000000E+00  0.00000000000E+00  0.23904645679E+03  0.15286238843E+04  0.15098171317E+04 0.  0.
        3    1    3    3  502    0  0.64877337117E+03  0.95013465308E+02  0.49828540365E+03  0.82354283399E+03  0.10100000352E+00 0. -1.
       -3    1    3    3    0  502 -0.64877337117E+03 -0.95013465308E+02 -0.25923894686E+03  0.70508105031E+03  0.10100000352E+00 0.  1.
</event>
<event>
 5   0  0.7870317E-04  0.1518319E+04  0.7818609E-02  0.8872362E-01
        1   -1    0    0  501    0  0.00000000000E+00  0.00000000000E+00  0.12264380027E+04  0.12264380028E+04  0.50400001928E-02 0.  1.
       -1   -1    0    0    0  501  0.00000000000E+00  0.00000000000E+00 -0.46991627988E+03  0.46991627991E+03  0.50400001928E-02 0. -1.
    10030    2    1    2    0    0  0.00000000000E+00  0.00000000000E+00  0.75652172287E+03  0.16963542827E+04  0.15183190492E+04 0.  0.
        1    1    3    3  502    0  0.16404034099E+03  0.24630331985E+03 -0.40282053315E+03  0.49983891484E+03  0.50400001928E-02 0. -1.
       -1    1    3    3    0  502 -0.16404034099E+03 -0.24630331985E+03  0.11593422560E+04  0.11965153678E+04  0.50400001928E-02 0.  1.
</event>
<event>
 5   0  0.8058234E-04  0.1470831E+04  0.7818609E-02  0.8904085E-01
        1   -1    0    0  501    0  0.00000000000E+00  0.00000000000E+00  0.11978077923E+04  0.11978077923E+04  0.50400001928E-02 0. -1.
       -1   -1    0    0    0  501  0.00000000000E+00  0.00000000000E+00 -0.45152172974E+03  0.45152172977E+03  0.50400001928E-02 0.  1.
    10030    2    1    2    0    0  0.00000000000E+00  0.00000000000E+00  0.74628606252E+03  0.16493295220E+04  0.14708313925E+04 0.  0.
        5    1    3    3  502    0  0.63865529430E+03  0.30114773417E+03  0.60361869409E+03  0.92895003126E+03  0.46999998093E+01 0. -1.
       -5    1    3    3    0  502 -0.63865529430E+03 -0.30114773417E+03  0.14266736843E+03  0.72037949078E+03  0.46999998093E+01 0.  1.
</event>
<event>
 5   0  0.1526126E-03  0.1483336E+04  0.7818609E-02  0.8895610E-01
       -2   -1    0    0    0  501  0.00000000000E+00  0.00000000000E+00  0.71544874098E+03  0.71544874099E+03  0.25500000920E-02 0.  1.
        2   -1    0    0  501    0  0.00000000000E+00  0.00000000000E+00 -0.76884824418E+03  0.76884824419E+03  0.25500000920E-02 0. -1.
    10030    2    1    2    0    0  0.00000000000E+00  0.00000000000E+00 -0.53399503201E+02  0.14842969852E+04  0.14833361161E+04 0.  0.
        2    1    3    3  502    0 -0.80920565637E+02 -0.71066973024E+03  0.16956986744E+03  0.73508743927E+03  0.25500000920E-02 0. -1.
       -2    1    3    3    0  502  0.80920565637E+02  0.71066973024E+03 -0.22296937064E+03  0.74920954590E+03  0.25500000920E-02 0.  1.
</event>
<event>
 5   0  0.8191876E-04  0.1199185E+04  0.7818609E-02  0.9113570E-01
       -1   -1    0    0    0  501  0.00000000000E+00  0.00000000000E+00  0.32532005575E+03  0.32532005579E+03  0.50400001928E-02 0.  1.
        1   -1    0    0  501    0  0.00000000000E+00  0.00000000000E+00 -0.11051001102E+04  0.11051001102E+04  0.50400001928E-02 0. -1.
    10030    2    1    2    0    0  0.00000000000E+00  0.00000000000E+00 -0.77978005443E+03  0.14304201660E+04  0.11991851058E+04 0.  0.
        2    1    3    3  502    0 -0.47312207893E+03  0.23346752452E+03 -0.72970887429E+03  0.90045912056E+03  0.25500000920E-02 0. -1.
       -2    1    3    3    0  502  0.47312207893E+03 -0.23346752452E+03 -0.50071180140E+02  0.52996104542E+03  0.25500000920E-02 0.  1.
</event>
<event>
 5   0  0.1484056E-03  0.1412550E+04  0.7818609E-02  0.8944784E-01
       -2   -1    0    0    0  501  0.00000000000E+00  0.00000000000E+00  0.34473885049E+03  0.34473885050E+03  0.25500000920E-02 0.  1.
        2   -1    0    0  501    0  0.00000000000E+00  0.00000000000E+00 -0.14469622498E+04  0.14469622498E+04  0.25500000920E-02 0. -1.
    10030    2    1    2    0    0  0.00000000000E+00  0.00000000000E+00 -0.11022233993E+04  0.17917011003E+04  0.14125496136E+04 0.  0.
        5    1    3    3  502    0 -0.42633184135E+03  0.29323071525E+03 -0.11608215628E+04  0.12709334688E+04  0.46999998093E+01 0. -1.
       -5    1    3    3    0  502  0.42633184135E+03 -0.29323071525E+03  0.58598163494E+02  0.52076763156E+03  0.46999998093E+01 0.  1.
</event>
<event>
 5   0  0.7870317E-04  0.1599067E+04  0.7818609E-02  0.8821121E-01
       -1   -1    0    0    0  501  0.00000000000E+00  0.00000000000E+00  0.91442314596E+03  0.91442314597E+03  0.50400001928E-02 0. -1.
        1   -1    0    0  501    0  0.00000000000E+00  0.00000000000E+00 -0.69907897960E+03  0.69907897962E+03  0.50400001928E-02 0.  1.
    10030    2    1    2    0    0  0.00000000000E+00  0.00000000000E+00  0.21534416636E+03  0.16135021256E+04  0.15990672279E+04 0.  0.
        1    1    3    3  502    0  0.28046405603E+03  0.34470201402E+03  0.77833317099E+03  0.89626005728E+03  0.50400001928E-02 0. -1.
       -1    1    3    3    0  502 -0.28046405603E+03 -0.34470201402E+03 -0.56298900463E+03  0.71724206831E+03  0.50400001928E-02 0.  1.
</event>
<event>
 5   0  0.1552067E-03  0.1481444E+04  0.7818609E-02  0.8896887E-01
       -2   -1    0    0    0  501  0.00000000000E+00  0.00000000000E+00  0.33615079201E+03  0.33615079202E+03  0.25500000920E-02 0. -1.
        2   -1    0    0  501    0  0.00000000000E+00  0.00000000000E+00 -0.16322117528E+04  0.16322117528E+04  0.25500000920E-02 0.  1.
    10030    2    1    2    0    0  0.00000000000E+00  0.00000000000E+00 -0.12960609608E+04  0.19683625448E+04  0.14814442594E+04 0.  0.
        3    1    3    3  502    0  0.72805195434E+03  0.13641705865E+03 -0.64798600501E+03  0.98415198775E+03  0.10100000352E+00 0.  1.
       -3    1    3    3    0  502 -0.72805195434E+03 -0.13641705865E+03 -0.64807495575E+03  0.98421055704E+03  0.10100000352E+00 0. -1.
</event>
<event>
 5   0  0.1484056E-03  0.1515374E+04  0.7818609E-02  0.8874293E-01
        2   -1    0    0  501    0  0.00000000000E+00  0.00000000000E+00  0.74139301299E+03  0.74139301299E+03  0.25500000920E-02 0. -1.
       -2   -1    0    0    0  501  0.00000000000E+00  0.00000000000E+00 -0.77433911732E+03  0.77433911733E+03  0.25500000920E-02 0.  1.
    10030    2    1    2    0    0  0.00000000000E+00  0.00000000000E+00 -0.32946104336E+02  0.15157321303E+04  0.15153740281E+04 0.  0.
        5    1    3    3  502    0 -0.11819953346E+03 -0.71783331138E+03 -0.22821088606E+03  0.76246841977E+03  0.46999998093E+01 0.  1.
       -5    1    3    3    0  502  0.11819953346E+03  0.71783331138E+03  0.19526478172E+03  0.75326371054E+03  0.46999998093E+01 0. -1.
</event>
<event>
 5   0  0.1484056E-03  0.1485856E+04  0.7818609E-02  0.8893913E-01
       -2   -1    0    0    0  501  0.00000000000E+00  0.00000000000E+00  0.15295205498E+04  0.15295205498E+04  0.25500000920E-02 0. -1.
        2   -1    0    0  501    0  0.00000000000E+00  0.00000000000E+00 -0.36085954755E+03  0.36085954755E+03  0.25500000920E-02 0.  1.
    10030    2    1    2    0    0  0.00000000000E+00  0.00000000000E+00  0.11686610023E+04  0.18903800974E+04  0.14858561082E+04 0.  0.
        5    1    3    3  502    0 -0.11610694842E+03 -0.27287045207E+03 -0.28227697660E+03  0.40944045795E+03  0.46999998093E+01 0.  1.
       -5    1    3    3    0  502  0.11610694842E+03  0.27287045207E+03  0.14509379789E+04  0.14809396394E+04  0.46999998093E+01 0. -1.
</event>
<event>
 5   0  0.1552067E-03  0.1442170E+04  0.7818609E-02  0.8923847E-01
       -2   -1    0    0    0  501  0.00000000000E+00  0.00000000000E+00  0.68235899544E+03  0.68235899544E+03  0.25500000920E-02 0. -1.
        2   -1    0    0  501    0  0.00000000000E+00  0.00000000000E+00 -0.76200934948E+03  0.76200934949E+03  0.25500000920E-02 0.  1.
    10030    2    1    2    0    0  0.00000000000E+00  0.00000000000E+00 -0.79650354046E+02  0.14443683449E+04  0.14421704951E+04 0.  0.
        3    1    3    3  502    0  0.49306973163E+03 -0.40969118135E+03 -0.37047874196E+03  0.74041821477E+03  0.10100000352E+00 0.  1.
       -3    1    3    3    0  502 -0.49306973163E+03  0.40969118135E+03  0.29082838791E+03  0.70395013015E+03  0.10100000352E+00 0. -1.
</event>
<event>
 5   0  0.7870317E-04  0.1508276E+04  0.7818609E-02  0.8878968E-01
        1   -1    0    0  501    0  0.00000000000E+00  0.00000000000E+00  0.18278796683E+04  0.18278796683E+04  0.50400001928E-02 0.  1.
       -1   -1    0    0    0  501  0.00000000000E+00  0.00000000000E+00 -0.31113888574E+03  0.31113888579E+03  0.50400001928E-02 0. -1.
    10030    2    1    2    0    0  0.00000000000E+00  0.00000000000E+00  0.15167407825E+04  0.21390185541E+04  0.15082764247E+04 0.  0.
        1    1    3    3  502    0  0.33837064269E+03 -0.22324180842E+03  0.16602225333E+04  0.17089969154E+04  0.50400001928E-02 0.  1.
       -1    1    3    3    0  502 -0.33837064269E+03  0.22324180842E+03 -0.14348175077E+03  0.43002163863E+03  0.50400001928E-02 0. -1.
</event>
<event>
 5   0  0.8306301E-04  0.1502170E+04  0.7818609E-02  0.8883011E-01
        1   -1    0    0  501    0  0.00000000000E+00  0.00000000000E+00  0.57849965438E+03  0.57849965440E+03  0.50400001928E-02 0. -1.
       -1   -1    0    0    0  501  0.00000000000E+00  0.00000000000E+00 -0.97515878063E+03  0.97515878064E+03  0.50400001928E-02 0.  1.
    10030    2    1    2    0    0  0.00000000000E+00  0.00000000000E+00 -0.39665912625E+03  0.15536584350E+04  0.15021704532E+04 0.  0.
        4    1    3    3  502    0 -0.63691579723E+02 -0.29286005544E+03 -0.91063231565E+03  0.95868475350E+03  0.12699999809E+01 0.  1.
       -4    1    3    3    0  502  0.63691579723E+02  0.29286005544E+03  0.51397318940E+03  0.59497368153E+03  0.12699999809E+01 0. -1.
</event>
<event>
 5   0  0.8058234E-04  0.1482683E+04  0.7818609E-02  0.8896051E-01
       -1   -1    0    0    0  501  0.00000000000E+00  0.00000000000E+00  0.59462939864E+03  0.59462939866E+03  0.50400001928E-02 0. -1.
        1   -1    0    0  501    0  0.00000000000E+00  0.00000000000E+00 -0.92425144396E+03  0.92425144397E+03  0.50400001928E-02 0.  1.
    10030    2    1    2    0    0  0.00000000000E+00  0.00000000000E+00 -0.32962204532E+03  0.15188808426E+04  0.14826828121E+04 0.  0.
        5    1    3    3  502    0  0.68740835521E+03 -0.27667344151E+03 -0.18740742620E+03  0.76434421136E+03  0.46999998093E+01 0. -1.
       -5    1    3    3    0  502 -0.68740835521E+03  0.27667344151E+03 -0.14221461912E+03  0.75453663127E+03  0.46999998093E+01 0.  1.
</event>
<event>
 5   0  0.1526126E-03  0.1472455E+04  0.7818609E-02  0.8902980E-01
       -2   -1    0    0    0  501  0.00000000000E+00  0.00000000000E+00  0.30544540529E+03  0.30544540530E+03  0.25500000920E-02 0.  1.
        2   -1    0    0  501    0  0.00000000000E+00  0.00000000000E+00 -0.17745588805E+04  0.17745588805E+04  0.25500000920E-02 0. -1.
    10030    2    1    2    0    0  0.00000000000E+00  0.00000000000E+00 -0.14691134752E+04  0.20800042858E+04  0.14724548977E+04 0.  0.
        2    1    3    3  502    0  0.39412735342E+03  0.49411728409E+03 -0.12678849523E+04  0.14166935143E+04  0.25500000920E-02 0. -1.
       -2    1    3    3    0  502 -0.39412735342E+03 -0.49411728409E+03 -0.20122852288E+03  0.66331077149E+03  0.25500000920E-02 0.  1.
</event>
<event>
 5   0  0.8365016E-04  0.1496531E+04  0.7818609E-02  0.8886763E-01
        1   -1    0    0  501    0  0.00000000000E+00  0.00000000000E+00  0.66858225312E+03  0.66858225314E+03  0.50400001928E-02 0. -1.
       -1   -1    0    0    0  501  0.00000000000E+00  0.00000000000E+00 -0.83744518272E+03  0.83744518274E+03  0.50400001928E-02 0.  1.
    10030    2    1    2    0    0  0.00000000000E+00  0.00000000000E+00 -0.16886292960E+03  0.15060274359E+04  0.14965306374E+04 0.  0.
        3    1    3    3  502    0  0.13733833547E+03  0.37583314442E+03  0.55186934759E+03  0.68166865693E+03  0.10100000352E+00 0. -1.
       -3    1    3    3    0  502 -0.13733833547E+03 -0.37583314442E+03 -0.72073227719E+03  0.82435877894E+03  0.10100000352E+00 0.  1.
</event>
<event>
 5   0  0.8306301E-04  0.1449547E+04  0.7818609E-02  0.8918715E-01
        1   -1    0    0  501    0  0.00000000000E+00  0.00000000000E+00  0.59077107279E+03  0.59077107281E+03  0.50400001928E-02 0.  1.
       -1   -1    0    0    0  501  0.00000000000E+00  0.00000000000E+00 -0.88917137994E+03  0.88917137996E+03  0.50400001928E-02 0. -1.
    10030    2    1    2    0    0  0.00000000000E+00  0.00000000000E+00 -0.29840030715E+03  0.14799424528E+04  0.14495471431E+04 0.  0.
        4    1    3    3  502    0 -0.51243348898E+03  0.28040608452E+03  0.28884124290E+03  0.65164908453E+03  0.12699999809E+01 0.  1.
       -4    1    3    3    0  502  0.51243348898E+03 -0.28040608452E+03 -0.58724155005E+03  0.82829336824E+03  0.12699999809E+01 0. -1.
</event>
<event>
 5   0  0.1500956E-03  0.1494199E+04  0.7818609E-02  0.8888320E-01
       -2   -1    0    0    0  501  0.00000000000E+00  0.00000000000E+00  0.62605555099E+03  0.62605555099E+03  0.25500000920E-02 0. -1.
        2   -1    0    0  501    0  0.00000000000E+00  0.00000000000E+00 -0.89154624300E+03  0.89154624300E+03  0.25500000920E-02 0.  1.
    10030    2    1    2    0    0  0.00000000000E+00  0.00000000000E+00 -0.26549069201E+03  0.15176017940E+04  0.14941987477E+04 0.  0.
        4    1    3    3  502    0  0.75480072204E+02  0.23549980662E+02 -0.88728356279E+03  0.89080052570E+03  0.12699999809E+01 0.  1.
       -4    1    3    3    0  502 -0.75480072204E+02 -0.23549980662E+02  0.62179287077E+03  0.62680126829E+03  0.12699999809E+01 0. -1.
</event>
<event>
 5   0  0.8306301E-04  0.1515692E+04  0.7818609E-02  0.8874084E-01
       -1   -1    0    0    0  501  0.00000000000E+00  0.00000000000E+00  0.12362861405E+04  0.12362861405E+04  0.50400001928E-02 0. -1.
        1   -1    0    0  501    0  0.00000000000E+00  0.00000000000E+00 -0.46456120846E+03  0.46456120849E+03  0.50400001928E-02 0.  1.
    10030    2    1    2    0    0  0.00000000000E+00  0.00000000000E+00  0.77172493203E+03  0.17008473490E+04  0.15156920313E+04 0.  0.
        4    1    3    3  502    0 -0.68402561152E+03  0.11982987879E+03  0.72637573395E+03  0.10049246523E+04  0.12699999809E+01 0. -1.
       -4    1    3    3    0  502  0.68402561152E+03 -0.11982987879E+03  0.45349198078E+02  0.69592269667E+03  0.12699999809E+01 0.  1.
</event>
<event>
 5   0  0.8306301E-04  0.1515091E+04  0.7818609E-02  0.8874479E-01
        1   -1    0    0  501    0  0.00000000000E+00  0.00000000000E+00  0.12999711998E+04  0.12999711998E+04  0.50400001928E-02 0.  1.
       -1   -1    0    0    0  501  0.00000000000E+00  0.00000000000E+00 -0.44145232038E+03  0.44145232041E+03  0.50400001928E-02 0. -1.
    10030    2    1    2    0    0  0.00000000000E+00  0.00000000000E+00  0.85851887940E+03  0.17414235202E+04  0.15150911558E+04 0.  0.
        4    1    3    3  502    0  0.13352982303E+03 -0.72843174361E+03  0.61255187955E+03  0.96107462602E+03  0.12699999809E+01 0.  1.
       -4    1    3    3    0  502 -0.13352982303E+03  0.72843174361E+03  0.24596699985E+03  0.78034889419E+03  0.12699999809E+01 0. -1.
</event>
<event>
 5   0  0.7870317E-04  0.1528681E+04  0.7818609E-02  0.8865601E-01
        1   -1    0    0  501    0  0.00000000000E+00  0.00000000000E+00  0.90407919382E+03  0.90407919384E+03  0.50400001928E-02 0.  1.
       -1   -1    0    0    0  501  0.00000000000E+00  0.00000000000E+00 -0.64620061516E+03  0.64620061518E+03  0.50400001928E-02 0. -1.
    10030    2    1    2    0    0  0.00000000000E+00  0.00000000000E+00  0.25787857867E+03  0.15502798090E+04  0.15286811718E+04 0.  0.
        1    1    3    3  502    0  0.71198201197E+03 -0.26889695734E+03  0.57282829240E+02  0.76322033620E+03  0.50400001928E-02 0. -1.
       -1    1    3    3    0  502 -0.71198201197E+03  0.26889695734E+03  0.20059574942E+03  0.78705947281E+03  0.50400001928E-02 0.  1.
</event>
<event>
 5   0  0.1511546E-03  0.1244343E+04  0.7818609E-02  0.9074905E-01
        2   -1    0    0  501    0  0.00000000000E+00  0.00000000000E+00  0.12678387231E+04  0.12678387231E+04  0.25500000920E-02 0.  1.
       -2   -1    0    0    0  501  0.00000000000E+00  0.00000000000E+00 -0.30532064194E+03  0.30532064195E+03  0.25500000920E-02 0. -1.
    10030    2    1    2    0    0  0.00000000000E+00  0.00000000000E+00  0.96251808121E+03  0.15731593651E+04  0.12443429316E+04 0.  0.
        1    1    3    3  502    0 -0.26199851342E+03  0.52603036270E+03  0.73956888028E+03  0.94462335998E+03  0.50400001928E-02 0.  1.
       -1    1    3    3    0  502  0.26199851342E+03 -0.52603036270E+03  0.22294920093E+03  0.62853600512E+03  0.50400001928E-02 0. -1.
</event>
<event>
 5   0  0.8365016E-04  0.1637239E+04  0.7818609E-02  0.8797992E-01
       -1   -1    0    0    0  501  0.00000000000E+00  0.00000000000E+00  0.47978084191E+03  0.47978084193E+03  0.50400001928E-02 0. -1.
        1   -1    0    0  501    0  0.00000000000E+00  0.00000000000E+00 -0.13967583639E+04  0.13967583639E+04  0.50400001928E-02 0.  1.
    10030    2    1    2    0    0  0.00000000000E+00  0.00000000000E+00 -0.91697752201E+03  0.18765392059E+04  0.16372390220E+04 0.  0.
        3    1    3    3  502    0  0.33972846107E+03 -0.27255335121E+03  0.33595624710E+03  0.55006123903E+03  0.10100000352E+00 0. -1.
       -3    1    3    3    0  502 -0.33972846107E+03  0.27255335121E+03 -0.12529337691E+04  0.13264779668E+04  0.10100000352E+00 0.  1.
</event>
<event>
 5   0  0.1526126E-03  0.1500686E+04  0.7818609E-02  0.8883997E-01
       -2   -1    0    0    0  501  0.00000000000E+00  0.00000000000E+00  0.45629740357E+03  0.45629740358E+03  0.25500000920E-02 0.  1.
        2   -1    0    0  501    0  0.00000000000E+00  0.00000000000E+00 -0.12338761124E+04  0.12338761124E+04  0.25500000920E-02 0. -1.
    10030    2    1    2    0    0  0.00000000000E+00  0.00000000000E+00 -0.77757870885E+03  0.16901735160E+04  0.15006857985E+04 0.  0.
        2    1    3    3  502    0 -0.53852209852E+02  0.33794358233E+03  0.36329129579E+03  0.49908565492E+03  0.25500000920E-02 0.  1.
       -2    1    3    3    0  502  0.53852209852E+02 -0.33794358233E+03 -0.11408700046E+04  0.11910878611E+04  0.25500000920E-02 0. -1.
</event>
<event>
 5   0  0.1552067E-03  0.1509271E+04  0.7818609E-02  0.8878311E-01
       -2   -1    0    0    0  501  0.00000000000E+00  0.00000000000E+00  0.36887764145E+03  0.36887764146E+03  0.25500000920E-02 0.  1.
        2   -1    0    0  501    0  0.00000000000E+00  0.00000000000E+00 -0.15438037079E+04  0.15438037079E+04  0.25500000920E-02 0. -1.
    10030    2    1    2    0    0  0.00000000000E+00  0.00000000000E+00 -0.11749260665E+04  0.19126813494E+04  0.15092709110E+04 0.  0.
        3    1    3    3  502    0  0.28116281753E+03  0.50535600230E+03 -0.12018527622E+04  0.13337493360E+04  0.10100000352E+00 0. -1.
       -3    1    3    3    0  502 -0.28116281753E+03 -0.50535600230E+03  0.26926695712E+02  0.57893201342E+03  0.10100000352E+00 0.  1.
</event>
<event>
 5   0  0.5603875E-04  0.1537105E+04  0.7818609E-02  0.8860146E-01
        3   -1    0    0  501    0  0.00000000000E+00  0.00000000000E+00  0.22646215775E+04  0.22646215798E+04  0.10100000352E+00 0.  1.
       -3   -1    0    0    0  501  0.00000000000E+00  0.00000000000E+00 -0.26082644880E+03  0.26082646835E+03  0.10100000352E+00 0. -1.
    10030    2    1    2    0    0  0.00000000000E+00  0.00000000000E+00  0.20037951287E+04  0.25254480481E+04  0.15371053724E+04 0.  0.
        5    1    3    3  502    0  0.44624480317E+03 -0.20810131325E+03  0.32379807696E+02  0.49346846189E+03  0.46999998093E+01 0. -1.
       -5    1    3    3    0  502 -0.44624480317E+03  0.20810131325E+03  0.19714153210E+04  0.20319795863E+04  0.46999998093E+01 0.  1.
</event>
<event>
 5   0  0.8058234E-04  0.1454176E+04  0.7818609E-02  0.8915511E-01
       -1   -1    0    0    0  501  0.00000000000E+00  0.00000000000E+00  0.28208890552E+03  0.28208890557E+03  0.50400001928E-02 0. -1.
        1   -1    0    0  501    0  0.00000000000E+00  0.00000000000E+00 -0.18740780467E+04  0.18740780467E+04  0.50400001928E-02 0.  1.
    10030    2    1    2    0    0  0.00000000000E+00  0.00000000000E+00 -0.15919891412E+04  0.21561669523E+04  0.14541755398E+04 0.  0.
        5    1    3    3  502    0 -0.14866904090E+03  0.15600830767E+03  0.23362362199E+03  0.31787287166E+03  0.46999998093E+01 0. -1.
       -5    1    3    3    0  502  0.14866904090E+03 -0.15600830767E+03 -0.18256127632E+04  0.18382940806E+04  0.46999998093E+01 0.  1.
</event>
<event>
 5   0  0.1500956E-03  0.1471219E+04  0.7818609E-02  0.8903821E-01
       -2   -1    0    0    0  501  0.00000000000E+00  0.00000000000E+00  0.10356470655E+04  0.10356470655E+04  0.25500000920E-02 0.  1.
        2   -1    0    0  501    0  0.00000000000E+00  0.00000000000E+00 -0.52249564163E+03  0.52249564163E+03  0.25500000920E-02 0. -1.
    10030    2    1    2    0    0  0.00000000000E+00  0.00000000000E+00  0.51315142392E+03  0.15581427072E+04  0.14712186486E+04 0.  0.
        4    1    3    3  502    0 -0.46036514799E+03 -0.23208461215E+03 -0.29913528593E+03  0.59605609540E+03  0.12699999809E+01 0. -1.
       -4    1    3    3    0  502  0.46036514799E+03  0.23208461215E+03  0.81228670984E+03  0.96208661178E+03  0.12699999809E+01 0.  1.
</event>
<event>
 5   0  0.1500956E-03  0.1391464E+04  0.7818609E-02  0.8960020E-01
        2   -1    0    0  501    0  0.00000000000E+00  0.00000000000E+00  0.12784370753E+04  0.12784370753E+04  0.25500000920E-02 0. -1.
       -2   -1    0    0    0  501  0.00000000000E+00  0.00000000000E+00 -0.37862116119E+03  0.37862116120E+03  0.25500000920E-02 0.  1.
    10030    2    1    2    0    0  0.00000000000E+00  0.00000000000E+00  0.89981591413E+03  0.16570582365E+04  0.13914644516E+04 0.  0.
        4    1    3    3  502    0 -0.48250573002E+03  0.15044240589E+01  0.10468049556E+04  0.11526561806E+04  0.12699999809E+01 0. -1.
       -4    1    3    3    0  502  0.48250573002E+03 -0.15044240589E+01 -0.14698904146E+03  0.50440205590E+03  0.12699999809E+01 0.  1.
</event>
<event>
 5   0  0.1526126E-03  0.1503313E+04  0.7818609E-02  0.8882253E-01
       -2   -1    0    0    0  501  0.00000000000E+00  0.00000000000E+00  0.23155291804E+04  0.23155291804E+04  0.25500000920E-02 0. -1.
        2   -1    0    0  501    0  0.00000000000E+00  0.00000000000E+00 -0.24399915631E+03  0.24399915632E+03  0.25500000920E-02 0.  1.
    10030    2    1    2    0    0  0.00000000000E+00  0.00000000000E+00  0.20715300241E+04  0.25595283367E+04  0.15033125642E+04 0.  0.
        2    1    3    3  502    0 -0.47027179467E+03 -0.25227861145E+03  0.19369931215E+04  0.20091646053E+04  0.25500000920E-02 0. -1.
       -2    1    3    3    0  502  0.47027179467E+03  0.25227861145E+03  0.13453690261E+03  0.55036373139E+03  0.25500000920E-02 0.  1.
</event>
<event>
 5   0  0.8058234E-04  0.1419472E+04  0.7818609E-02  0.8939843E-01
        1   -1    0    0  501    0  0.00000000000E+00  0.00000000000E+00  0.16484435300E+04  0.16484435300E+04  0.50400001928E-02 0. -1.
       -1   -1    0    0    0  501  0.00000000000E+00  0.00000000000E+00 -0.30557641757E+03  0.30557641761E+03  0.50400001928E-02 0.  1.
    10030    2    1    2    0    0  0.00000000000E+00  0.00000000000E+00  0.13428671124E+04  0.19540199476E+04  0.14194723928E+04 0.  0.
        5    1    3    3  502    0 -0.24987474329E+03  0.35061260589E+03  0.14481195260E+04  0.15107742513E+04  0.46999998093E+01 0. -1.
       -5    1    3    3    0  502  0.24987474329E+03 -0.35061260589E+03 -0.10525241359E+03  0.44324569632E+03  0.46999998093E+01 0.  1.
</event>
<event>
 5   0  0.1552067E-03  0.1548774E+04  0.7818609E-02  0.8852651E-01
        2   -1    0    0  501    0  0.00000000000E+00  0.00000000000E+00  0.11831189011E+04  0.11831189011E+04  0.25500000920E-02 0. -1.
       -2   -1    0    0    0  501  0.00000000000E+00  0.00000000000E+00 -0.50685941605E+03  0.50685941606E+03  0.25500000920E-02 0.  1.
    10030    2    1    2    0    0  0.00000000000E+00  0.00000000000E+00  0.67625948501E+03  0.16899783171E+04  0.15487736508E+04 0.  0.
        3    1    3    3  502    0  0.64143800010E+03 -0.37185799969E+03  0.58201060933E+03  0.94258020321E+03  0.10100000352E+00 0. -1.
       -3    1    3    3    0  502 -0.64143800010E+03  0.37185799969E+03  0.94248875678E+02  0.74739811391E+03  0.10100000352E+00 0.  1.
</event>
<event>
 5   0  0.5603875E-04  0.1348174E+04  0.7818609E-02  0.8992211E-01
       -3   -1    0    0    0  501  0.00000000000E+00  0.00000000000E+00  0.11897633926E+04  0.11897633969E+04  0.10100000352E+00 0. -1.
        3   -1    0    0  501    0  0.00000000000E+00  0.00000000000E+00 -0.38191912596E+03  0.38191913931E+03  0.10100000352E+00 0.  1.
    10030    2    1    2    0    0  0.00000000000E+00  0.00000000000E+00  0.80784426668E+03  0.15716825362E+04  0.13481741859E+04 0.  0.
        1    1    3    3  502    0  0.53511830878E+01 -0.42460368701E+03 -0.20639379756E+03  0.47213909591E+03  0.50400001928E-02 0.  1.
       -1    1    3    3    0  502 -0.53511830878E+01  0.42460368701E+03  0.10142380642E+04  0.10995434403E+04  0.50400001928E-02 0. -1.
</event>
<event>
 5   0  0.8365016E-04  0.1446973E+04  0.7818609E-02  0.8920502E-01
        1   -1    0    0  501    0  0.00000000000E+00  0.00000000000E+00  0.13613937706E+04  0.13613937706E+04  0.50400001928E-02 0. -1.
       -1   -1    0    0    0  501  0.00000000000E+00  0.00000000000E+00 -0.38448277574E+03  0.38448277578E+03  0.50400001928E-02 0.  1.
    10030    2    1    2    0    0  0.00000000000E+00  0.00000000000E+00  0.97691099485E+03  0.17458765464E+04  0.14469726408E+04 0.  0.
        3    1    3    3  502    0  0.48278758781E+03  0.32517141371E+03 -0.29966406065E+02  0.58285358276E+03  0.10100000352E+00 0.  1.
       -3    1    3    3    0  502 -0.48278758781E+03 -0.32517141371E+03  0.10068774009E+04  0.11630229636E+04  0.10100000352E+00 0. -1.
</event>
<event>
 5   0  0.5603875E-04  0.1500636E+04  0.7818609E-02  0.8884030E-01
        3   -1    0    0  501    0  0.00000000000E+00  0.00000000000E+00  0.72594145086E+03  0.72594145789E+03  0.10100000352E+00 0. -1.
       -3   -1    0    0    0  501  0.00000000000E+00  0.00000000000E+00 -0.77551293170E+03  0.77551293828E+03  0.10100000352E+00 0.  1.
    10030    2    1    2    0    0  0.00000000000E+00  0.00000000000E+00 -0.49571480835E+02  0.15014543962E+04  0.15006358559E+04 0.  0.
        1    1    3    3  502    0 -0.16427345946E+03  0.17084135145E+03  0.68750457424E+03  0.72721047605E+03  0.50400001928E-02 0. -1.
       -1    1    3    3    0  502  0.16427345946E+03 -0.17084135145E+03 -0.73707605508E+03  0.77424392012E+03  0.50400001928E-02 0.  1.
</event>
<event>
 5   0  0.1500956E-03  0.1557792E+04  0.7818609E-02  0.8846906E-01
        2   -1    0    0  501    0  0.00000000000E+00  0.00000000000E+00  0.15291691775E+04  0.15291691775E+04  0.25500000920E-02 0.  1.
       -2   -1    0    0    0  501  0.00000000000E+00  0.00000000000E+00 -0.39673777544E+03  0.39673777545E+03  0.25500000920E-02 0. -1.
    10030    2    1    2    0    0  0.00000000000E+00  0.00000000000E+00  0.11324314021E+04  0.19259069530E+04  0.15577922554E+04 0.  0.
        4    1    3    3  502    0  0.69799068346E+03 -0.11222681757E+03  0.97041706743E+03  0.12006234840E+04  0.12699999809E+01 0.  1.
       -4    1    3    3    0  502 -0.69799068346E+03  0.11222681757E+03  0.16201433467E+03  0.72528346894E+03  0.12699999809E+01 0. -1.
</event>
<event>
 5   0  0.8306301E-04  0.1519628E+04  0.7818609E-02  0.8871505E-01
       -1   -1    0    0    0  501  0.00000000000E+00  0.00000000000E+00  0.49637167072E+03  0.49637167075E+03  0.50400001928E-02 0.  1.
        1   -1    0    0  501    0  0.00000000000E+00  0.00000000000E+00 -0.11630739696E+04  0.11630739697E+04  0.50400001928E-02 0. -1.
    10030    2    1    2    0    0  0.00000000000E+00  0.00000000000E+00 -0.66670229892E+03  0.16594456404E+04  0.15196275458E+04 0.  0.
        4    1    3    3  502    0  0.28292507153E+03 -0.58631765677E+03  0.94488057620E+02  0.65783325902E+03  0.12699999809E+01 0.  1.
       -4    1    3    3    0  502 -0.28292507153E+03  0.58631765677E+03 -0.76119035654E+03  0.10016123814E+04  0.12699999809E+01 0. -1.
</event>
<event>
 5   0  0.8365016E-04  0.1492263E+04  0.7818609E-02  0.8889614E-01
       -1   -1    0    0    0  501  0.00000000000E+00  0.00000000000E+00  0.36531958313E+03  0.36531958316E+03  0.50400001928E-02 0.  1.
        1   -1    0    0  501    0  0.00000000000E+00  0.00000000000E+00 -0.15239049426E+04  0.15239049426E+04  0.50400001928E-02 0. -1.
    10030    2    1    2    0    0  0.00000000000E+00  0.00000000000E+00 -0.11585853595E+04  0.18892245258E+04  0.14922631382E+04 0.  0.
        3    1    3    3  502    0 -0.46574212575E+03 -0.56439100321E+03 -0.39470044808E+03  0.83140927714E+03  0.10100000352E+00 0.  1.
       -3    1    3    3    0  502  0.46574212575E+03  0.56439100321E+03 -0.76388491142E+03  0.10578152487E+04  0.10100000352E+00 0. -1.
</event>
<event>
 5   0  0.1526126E-03  0.1444488E+04  0.7818609E-02  0.8922231E-01
       -2   -1    0    0    0  501  0.00000000000E+00  0.00000000000E+00  0.46064273879E+03  0.46064273879E+03  0.25500000920E-02 0.  1.
        2   -1    0    0  501    0  0.00000000000E+00  0.00000000000E+00 -0.11324096951E+04  0.11324096951E+04  0.25500000920E-02 0. -1.
    10030    2    1    2    0    0  0.00000000000E+00  0.00000000000E+00 -0.67176695636E+03  0.15930524339E+04  0.14444878724E+04 0.  0.
        2    1    3    3  502    0  0.28426491826E+03 -0.43204626494E+02 -0.10665684706E+04  0.11046454119E+04  0.25500000920E-02 0. -1.
       -2    1    3    3    0  502 -0.28426491826E+03  0.43204626494E+02  0.39480151426E+03  0.48840702204E+03  0.25500000920E-02 0.  1.
</event>
<event>
 5   0  0.8365016E-04  0.1434287E+04  0.7818609E-02  0.8929367E-01
        1   -1    0    0  501    0  0.00000000000E+00  0.00000000000E+00  0.28203732768E+04  0.28203732768E+04  0.50400001928E-02 0.  1.
       -1   -1    0    0    0  501  0.00000000000E+00  0.00000000000E+00 -0.18234985893E+03  0.18234985900E+03  0.50400001928E-02 0. -1.
    10030    2    1    2    0    0  0.00000000000E+00  0.00000000000E+00  0.26380234179E+04  0.30027231359E+04  0.14342868183E+04 0.  0.
        3    1    3    3  502    0 -0.33502839451E+03 -0.54352661233E+03  0.20026366189E+04  0.21019559084E+04  0.10100000352E+00 0.  1.
       -3    1    3    3    0  502  0.33502839451E+03  0.54352661233E+03  0.63538679904E+03  0.90076722744E+03  0.10100000352E+00 0. -1.
</event>
<event>
 5   0  0.1500956E-03  0.1433147E+04  0.7818609E-02  0.8930169E-01
        2   -1    0    0  501    0  0.00000000000E+00  0.00000000000E+00  0.13710307686E+04  0.13710307686E+04  0.25500000920E-02 0. -1.
       -2   -1    0    0    0  501  0.00000000000E+00  0.00000000000E+00 -0.37451920713E+03  0.37451920713E+03  0.25500000920E-02 0.  1.
    10030    2    1    2    0    0  0.00000000000E+00  0.00000000000E+00  0.99651156152E+03  0.17455499758E+04  0.14331466867E+04 0.  0.
        4    1    3    3  502    0 -0.33164848908E+03  0.54275429635E+03  0.96315843458E+02  0.64331275529E+03  0.12699999809E+01 0.  1.
       -4    1    3    3    0  502  0.33164848908E+03 -0.54275429635E+03  0.90019571806E+03  0.11022372205E+04  0.12699999809E+01 0. -1.
</event>
<event>
 5   0  0.1511546E-03  0.1522459E+04  0.7818609E-02  0.8869654E-01
       -2   -1    0    0    0  501  0.00000000000E+00  0.00000000000E+00  0.53005612730E+03  0.53005612731E+03  0.25500000920E-02 0. -1.
        2   -1    0    0  501    0  0.00000000000E+00  0.00000000000E+00 -0.10932239965E+04  0.10932239965E+04  0.25500000920E-02 0.  1.
    10030    2    1    2    0    0  0.00000000000E+00  0.00000000000E+00 -0.56316786921E+03  0.16232801238E+04  0.15224586403E+04 0.  0.
        1    1    3    3  502    0  0.60014037502E+03 -0.29005051803E+03  0.11042126508E+03  0.67564090207E+03  0.50400001928E-02 0. -1.
       -1    1    3    3    0  502 -0.60014037502E+03  0.29005051803E+03 -0.67358913429E+03  0.94763922175E+03  0.50400001928E-02 0.  1.
</event>
<event>
 5   0  0.1552067E-03  0.1510712E+04  0.7818609E-02  0.8877361E-01
       -2   -1    0    0    0  501  0.00000000000E+00  0.00000000000E+00  0.13813062491E+04  0.13813062491E+04  0.25500000920E-02 0.  1.
        2   -1    0    0  501    0  0.00000000000E+00  0.00000000000E+00 -0.41306026172E+03  0.41306026172E+03  0.25500000920E-02 0. -1.
    10030    2    1    2    0    0  0.00000000000E+00  0.00000000000E+00  0.96824598739E+03  0.17943665108E+04  0.15107120451E+04 0.  0.
        3    1    3    3  502    0  0.28346101479E+03 -0.33487127786E+03 -0.24620466650E+03  0.50309608192E+03  0.10100000352E+00 0. -1.
       -3    1    3    3    0  502 -0.28346101479E+03  0.33487127786E+03  0.12144506539E+04  0.12912704289E+04  0.10100000352E+00 0.  1.
</event>
<event>
 5   0  0.1552067E-03  0.1573751E+04  0.7818609E-02  0.8836838E-01
        2   -1    0    0  501    0  0.00000000000E+00  0.00000000000E+00  0.22588206159E+04  0.22588206159E+04  0.25500000920E-02 0.  1.
       -2   -1    0    0    0  501  0.00000000000E+00  0.00000000000E+00 -0.27411330754E+03  0.27411330755E+03  0.25500000920E-02 0. -1.
    10030    2    1    2    0    0  0.00000000000E+00  0.00000000000E+00  0.19847073084E+04  0.25329339235E+04  0.15737506666E+04 0.  0.
        3    1    3    3  502    0 -0.67288624281E+03  0.39988199097E+03  0.86267962004E+03  0.11648594935E+04  0.10100000352E+00 0. -1.
       -3    1    3    3    0  502  0.67288624281E+03 -0.39988199097E+03  0.11220276883E+04  0.13680744300E+04  0.10100000352E+00 0.  1.
</event>
<event>
 5   0  0.1484056E-03  0.1514613E+04  0.7818609E-02  0.8874793E-01
        2   -1    0    0  501    0  0.00000000000E+00  0.00000000000E+00  0.11718867696E+04  0.11718867696E+04  0.25500000920E-02 0.  1.
       -2   -1    0    0    0  501  0.00000000000E+00  0.00000000000E+00 -0.48939276387E+03  0.48939276388E+03  0.25500000920E-02 0. -1.
    10030    2    1    2    0    0  0.00000000000E+00  0.00000000000E+00  0.68249400576E+03  0.16612795335E+04  0.15146126966E+04 0.  0.
        5    1    3    3  502    0  0.34150173959E+03  0.69247496781E+02 -0.39622409320E+03  0.52766871803E+03  0.46999998093E+01 0. -1.
       -5    1    3    3    0  502 -0.34150173959E+03 -0.69247496781E+02  0.10787180990E+04  0.11336108155E+04  0.46999998093E+01 0.  1.
</event>
<event>
 5   0  0.8365016E-04  0.1499713E+04  0.7818609E-02  0.8884644E-01
       -1   -1    0    0    0  501  0.00000000000E+00  0.00000000000E+00  0.88978015386E+03  0.88978015387E+03  0.50400001928E-02 0.  1.
        1   -1    0    0  501    0  0.00000000000E+00  0.00000000000E+00 -0.63193691697E+03  0.63193691699E+03  0.50400001928E-02 0. -1.
    10030    2    1    2    0    0  0.00000000000E+00  0.00000000000E+00  0.25784323688E+03  0.15217170709E+04  0.14997132089E+04 0.  0.
        3    1    3    3  502    0 -0.48379498032E+03 -0.43144093422E+03  0.51139518282E+03  0.82566573498E+03  0.10100000352E+00 0.  1.
       -3    1    3    3    0  502  0.48379498032E+03  0.43144093422E+03 -0.25355194594E+03  0.69605133589E+03  0.10100000352E+00 0. -1.
</event>
<event>
 5   0  0.8306301E-04  0.1605296E+04  0.7818609E-02  0.8817301E-01
       -1   -1    0    0    0  501  0.00000000000E+00  0.00000000000E+00  0.49130093351E+03  0.49130093354E+03  0.50400001928E-02 0. -1.
        1   -1    0    0  501    0  0.00000000000E+00  0.00000000000E+00 -0.13113025554E+04  0.13113025554E+04  0.50400001928E-02 0.  1.
    10030    2    1    2    0    0  0.00000000000E+00  0.00000000000E+00 -0.82000162190E+03  0.18026034890E+04  0.16052964457E+04 0.  0.
        4    1    3    3  502    0 -0.41117474389E+03 -0.66946272161E+03 -0.59450539001E+03  0.98523260061E+03  0.12699999809E+01 0.  1.
       -4    1    3    3    0  502  0.41117474389E+03  0.66946272161E+03 -0.22549623189E+03  0.81737088836E+03  0.12699999809E+01 0. -1.
</event>
<event>
 5   0  0.1500956E-03  0.1498137E+04  0.7818609E-02  0.8885693E-01
       -2   -1    0    0    0  501  0.00000000000E+00  0.00000000000E+00  0.58092776249E+03  0.58092776250E+03  0.25500000920E-02 0.  1.
        2   -1    0    0  501    0  0.00000000000E+00  0.00000000000E+00 -0.96587531870E+03  0.96587531870E+03  0.25500000920E-02 0. -1.
    10030    2    1    2    0    0  0.00000000000E+00  0.00000000000E+00 -0.38494755621E+03  0.15468030812E+04  0.14981372270E+04 0.  0.
        4    1    3    3  502    0 -0.27957086859E+03 -0.68176909112E+03 -0.53439852168E+02  0.73880064623E+03  0.12699999809E+01 0.  1.
       -4    1    3    3    0  502  0.27957086859E+03  0.68176909112E+03 -0.33150770404E+03  0.80800243497E+03  0.12699999809E+01 0. -1.
</event>
<event>
 5   0  0.8365016E-04  0.1470987E+04  0.7818609E-02  0.8903979E-01
        1   -1    0    0  501    0  0.00000000000E+00  0.00000000000E+00  0.14026732189E+04  0.14026732189E+04  0.50400001928E-02 0.  1.
       -1   -1    0    0    0  501  0.00000000000E+00  0.00000000000E+00 -0.38565693221E+03  0.38565693225E+03  0.50400001928E-02 0. -1.
    10030    2    1    2    0    0  0.00000000000E+00  0.00000000000E+00  0.10170162867E+04  0.17883301512E+04  0.14709869483E+04 0.  0.
        3    1    3    3  502    0 -0.32225007619E+03 -0.65065341014E+03  0.65109507781E+03  0.97525370149E+03  0.10100000352E+00 0.  1.
       -3    1    3    3    0  502  0.32225007619E+03  0.65065341014E+03  0.36592120891E+03  0.81307644970E+03  0.10100000352E+00 0. -1.
</event>
<event>
 5   0  0.8191876E-04  0.1465830E+04  0.7818609E-02  0.8907499E-01
       -1   -1    0    0    0  501  0.00000000000E+00  0.00000000000E+00  0.55996858836E+03  0.55996858838E+03  0.50400001928E-02 0. -1.
        1   -1    0    0  501    0  0.00000000000E+00  0.00000000000E+00 -0.95927649804E+03  0.95927649806E+03  0.50400001928E-02 0.  1.
    10030    2    1    2    0    0  0.00000000000E+00  0.00000000000E+00 -0.39930790968E+03  0.15192450864E+04  0.14658304220E+04 0.  0.
        2    1    3    3  502    0  0.64012470256E+03  0.23004987803E+03 -0.48251304477E+03  0.83396727729E+03  0.25500000920E-02 0.  1.
       -2    1    3    3    0  502 -0.64012470256E+03 -0.23004987803E+03  0.83205135092E+02  0.68527780915E+03  0.25500000920E-02 0. -1.
</event>
<event>
 5   0  0.8365016E-04  0.1479924E+04  0.7818609E-02  0.8897914E-01
        1   -1    0    0  501    0  0.00000000000E+00  0.00000000000E+00  0.56060691477E+03  0.56060691479E+03  0.50400001928E-02 0. -1.
       -1   -1    0    0    0  501  0.00000000000E+00  0.00000000000E+00 -0.97669756164E+03  0.97669756165E+03  0.50400001928E-02 0.  1.
    10030    2    1    2    0    0  0.00000000000E+00  0.00000000000E+00 -0.41609064687E+03  0.15373044764E+04  0.14799235206E+04 0.  0.
        3    1    3    3  502    0  0.17415449795E+02 -0.61895401636E+03  0.21280006644E+03  0.65474518000E+03  0.10100000352E+00 0.  1.
       -3    1    3    3    0  502 -0.17415449795E+02  0.61895401636E+03 -0.62889071330E+03  0.88255929644E+03  0.10100000352E+00 0. -1.
</event>
<event>
 5   0  0.8365016E-04  0.1692586E+04  0.7818609E-02  0.8765604E-01
        1   -1    0    0  501    0  0.00000000000E+00  0.00000000000E+00  0.79528297642E+03  0.79528297644E+03  0.50400001928E-02 0. -1.
       -1   -1    0    0    0  501  0.00000000000E+00  0.00000000000E+00 -0.90057444811E+03  0.90057444812E+03  0.50400001928E-02 0.  1.
    10030    2    1    2    0    0  0.00000000000E+00  0.00000000000E+00 -0.10529147169E+03  0.16958574246E+04  0.16925856287E+04 0.  0.
        3    1    3    3  502    0  0.80287498541E+03 -0.27278003744E+01 -0.32073693989E+03  0.86457381287E+03  0.10100000352E+00 0.  1.
       -3    1    3    3    0  502 -0.80287498541E+03  0.27278003744E+01  0.21544546820E+03  0.83128361169E+03  0.10100000352E+00 0. -1.
</event>
<event>
 5   0  0.8058234E-04  0.1501051E+04  0.7818609E-02  0.8883754E-01
       -1   -1    0    0    0  501  0.00000000000E+00  0.00000000000E+00  0.45767923061E+03  0.45767923064E+03  0.50400001928E-02 0. -1.
        1   -1    0    0  501    0  0.00000000000E+00  0.00000000000E+00 -0.12307502465E+04  0.12307502466E+04  0.50400001928E-02 0.  1.
    10030    2    1    2    0    0  0.00000000000E+00  0.00000000000E+00 -0.77307101594E+03  0.16884294772E+04  0.15010513994E+04 0.  0.
        5    1    3    3  502    0 -0.72069251824E+03  0.29768811298E+02 -0.61973894972E+03  0.95099019121E+03  0.46999998093E+01 0.  1.
       -5    1    3    3    0  502  0.72069251824E+03 -0.29768811298E+02 -0.15333206622E+03  0.73743928598E+03  0.46999998093E+01 0. -1.
</event>
<event>
 5   0  0.8191876E-04  0.1523257E+04  0.7818609E-02  0.8869133E-01
        1   -1    0    0  501    0  0.00000000000E+00  0.00000000000E+00  0.11529675922E+04  0.11529675922E+04  0.50400001928E-02 0.  1.
       -1   -1    0    0    0  501  0.00000000000E+00  0.00000000000E+00 -0.50311737135E+03  0.50311737138E+03  0.50400001928E-02 0. -1.
    10030    2    1    2    0    0  0.00000000000E+00  0.00000000000E+00  0.64985022086E+03  0.16560849636E+04  0.15232570686E+04 0.  0.
        2    1    3    3  502    0 -0.42613080919E+03 -0.78568425880E+02  0.10058955904E+04  0.10952563184E+04  0.25500000920E-02 0.  1.
       -2    1    3    3    0  502  0.42613080919E+03  0.78568425880E+02 -0.35604536959E+03  0.56082864521E+03  0.25500000920E-02 0. -1.
</event>
<event>
 5   0  0.8191876E-04  0.1430375E+04  0.7818609E-02  0.8932121E-01
       -1   -1    0    0    0  501  0.00000000000E+00  0.00000000000E+00  0.74692369966E+03  0.74692369968E+03  0.50400001928E-02 0. -1.
        1   -1    0    0  501    0  0.00000000000E+00  0.00000000000E+00 -0.68479942527E+03  0.68479942529E+03  0.50400001928E-02 0.  1.
    10030    2    1    2    0    0  0.00000000000E+00  0.00000000000E+00  0.62124274390E+02  0.14317231250E+04  0.14303746646E+04 0.  0.
        2    1    3    3  502    0  0.54380022403E+03  0.44297311832E+03  0.17101187635E+03  0.72193415840E+03  0.25500000920E-02 0. -1.
       -2    1    3    3    0  502 -0.54380022403E+03 -0.44297311832E+03 -0.10888760196E+03  0.70978896658E+03  0.25500000920E-02 0.  1.
</event>
<event>
 5   0  0.1484056E-03  0.1494649E+04  0.7818609E-02  0.8888019E-01
        2   -1    0    0  501    0  0.00000000000E+00  0.00000000000E+00  0.11864738114E+04  0.11864738114E+04  0.25500000920E-02 0.  1.
       -2   -1    0    0    0  501  0.00000000000E+00  0.00000000000E+00 -0.47071768724E+03  0.47071768725E+03  0.25500000920E-02 0. -1.
    10030    2    1    2    0    0  0.00000000000E+00  0.00000000000E+00  0.71575612417E+03  0.16571914987E+04  0.14946494017E+04 0.  0.
        5    1    3    3  502    0  0.16676746141E+03  0.67383709983E+03  0.51004181908E+02  0.69605412136E+03  0.46999998093E+01 0. -1.
       -5    1    3    3    0  502 -0.16676746141E+03 -0.67383709983E+03  0.66475194226E+03  0.96113737729E+03  0.46999998093E+01 0.  1.
</event>
<event>
 5   0  0.8365016E-04  0.1511360E+04  0.7818609E-02  0.8876933E-01
        1   -1    0    0  501    0  0.00000000000E+00  0.00000000000E+00  0.50716637280E+03  0.50716637282E+03  0.50400001928E-02 0. -1.
       -1   -1    0    0    0  501  0.00000000000E+00  0.00000000000E+00 -0.11259667527E+04  0.11259667527E+04  0.50400001928E-02 0.  1.
    10030    2    1    2    0    0  0.00000000000E+00  0.00000000000E+00 -0.61880037991E+03  0.16331331255E+04  0.15113602799E+04 0.  0.
        3    1    3    3  502    0 -0.64536469360E+03 -0.24340899646E+02 -0.73339811927E+03  0.97722099788E+03  0.10100000352E+00 0.  1.
       -3    1    3    3    0  502  0.64536469360E+03  0.24340899646E+02  0.11459773937E+03  0.65591212766E+03  0.10100000352E+00 0. -1.
</event>
<event>
 5   0  0.1484056E-03  0.1518513E+04  0.7818609E-02  0.8872235E-01
        2   -1    0    0  501    0  0.00000000000E+00  0.00000000000E+00  0.11242572367E+04  0.11242572367E+04  0.25500000920E-02 0. -1.
       -2   -1    0    0    0  501  0.00000000000E+00  0.00000000000E+00 -0.51275639307E+03  0.51275639308E+03  0.25500000920E-02 0.  1.
    10030    2    1    2    0    0  0.00000000000E+00  0.00000000000E+00  0.61150084364E+03  0.16370136298E+04  0.15185125427E+04 0.  0.
        5    1    3    3  502    0  0.55318561464E+03  0.42071767323E+03 -0.23766565712E+02  0.69541687099E+03  0.46999998093E+01 0.  1.
       -5    1    3    3    0  502 -0.55318561464E+03 -0.42071767323E+03  0.63526740936E+03  0.94159675881E+03  0.46999998093E+01 0. -1.
</event>
<event>
 5   0  0.8365016E-04  0.1191127E+04  0.7818609E-02  0.9120658E-01
       -1   -1    0    0    0  501  0.00000000000E+00  0.00000000000E+00  0.36871720269E+03  0.36871720272E+03  0.50400001928E-02 0.  1.
        1   -1    0    0  501    0  0.00000000000E+00  0.00000000000E+00 -0.96197333773E+03  0.96197333774E+03  0.50400001928E-02 0. -1.
    10030    2    1    2    0    0  0.00000000000E+00  0.00000000000E+00 -0.59325613504E+03  0.13306905405E+04  0.11911273957E+04 0.  0.
        3    1    3    3  502    0  0.33111232155E+03  0.49464842707E+03 -0.31851066958E+03  0.67510109815E+03  0.10100000352E+00 0. -1.
       -3    1    3    3    0  502 -0.33111232155E+03 -0.49464842707E+03 -0.27474546546E+03  0.65558944232E+03  0.10100000352E+00 0.  1.
</event>
<event>
 5   0  0.1500956E-03  0.1498048E+04  0.7818609E-02  0.8885752E-01
       -2   -1    0    0    0  501  0.00000000000E+00  0.00000000000E+00  0.39123983909E+03  0.39123983910E+03  0.25500000920E-02 0.  1.
        2   -1    0    0  501    0  0.00000000000E+00  0.00000000000E+00 -0.14339978184E+04  0.14339978184E+04  0.25500000920E-02 0. -1.
    10030    2    1    2    0    0  0.00000000000E+00  0.00000000000E+00 -0.10427579793E+04  0.18252376575E+04  0.14980481644E+04 0.  0.
        4    1    3    3  502    0 -0.46943408245E+03  0.94732601487E+02 -0.12230954945E+04  0.13135093548E+04  0.12699999809E+01 0. -1.
       -4    1    3    3    0  502  0.46943408245E+03 -0.94732601487E+02  0.18033751516E+03  0.51172830274E+03  0.12699999809E+01 0.  1.
</event>
<event>
 5   0  0.8306301E-04  0.1526656E+04  0.7818609E-02  0.8866918E-01
        1   -1    0    0  501    0  0.00000000000E+00  0.00000000000E+00  0.17105711236E+04  0.17105711236E+04  0.50400001928E-02 0.  1.
       -1   -1    0    0    0  501  0.00000000000E+00  0.00000000000E+00 -0.34062874049E+03  0.34062874053E+03  0.50400001928E-02 0. -1.
    10030    2    1    2    0    0  0.00000000000E+00  0.00000000000E+00  0.13699423831E+04  0.20511998642E+04  0.15266560679E+04 0.  0.
        4    1    3    3  502    0  0.27648567823E+03  0.69900035617E+03  0.50661121588E+03  0.90647800036E+03  0.12699999809E+01 0. -1.
       -4    1    3    3    0  502 -0.27648567823E+03 -0.69900035617E+03  0.86333116726E+03  0.11447218638E+04  0.12699999809E+01 0.  1.
</event>
<event>
 5   0  0.1500956E-03  0.1435249E+04  0.7818609E-02  0.8928692E-01
        2   -1    0    0  501    0  0.00000000000E+00  0.00000000000E+00  0.13876401394E+04  0.13876401394E+04  0.25500000920E-02 0.  1.
       -2   -1    0    0    0  501  0.00000000000E+00  0.00000000000E+00 -0.37112261418E+03  0.37112261419E+03  0.25500000920E-02 0. -1.
    10030    2    1    2    0    0  0.00000000000E+00  0.00000000000E+00  0.10165175253E+04  0.17587627536E+04  0.14352486002E+04 0.  0.
        4    1    3    3  502    0  0.39079252502E+03 -0.41805743300E+03 -0.22346728252E+02  0.57270568712E+03  0.12699999809E+01 0. -1.
       -4    1    3    3    0  502 -0.39079252502E+03  0.41805743300E+03  0.10388642535E+04  0.11860570665E+04  0.12699999809E+01 0.  1.
</event>
<event>
 5   0  0.1526126E-03  0.1589693E+04  0.7818609E-02  0.8826905E-01
       -2   -1    0    0    0  501  0.00000000000E+00  0.00000000000E+00  0.54524367568E+03  0.54524367569E+03  0.25500000920E-02 0.  1.
        2   -1    0    0  501    0  0.00000000000E+00  0.00000000000E+00 -0.11587129715E+04  0.11587129715E+04  0.25500000920E-02 0. -1.
    10030    2    1    2    0    0  0.00000000000E+00  0.00000000000E+00 -0.61346929583E+03  0.17039566472E+04  0.15896929510E+04 0.  0.
        2    1    3    3  502    0 -0.23576789813E+03  0.14302911662E+03 -0.11057957386E+04  0.11396613732E+04  0.25500000920E-02 0. -1.
       -2    1    3    3    0  502  0.23576789813E+03 -0.14302911662E+03  0.49232644279E+03  0.56429527401E+03  0.25500000920E-02 0.  1.
</event>
<event>
 5   0  0.7870317E-04  0.1505232E+04  0.7818609E-02  0.8880981E-01
        1   -1    0    0  501    0  0.00000000000E+00  0.00000000000E+00  0.63078333646E+03  0.63078333648E+03  0.50400001928E-02 0. -1.
       -1   -1    0    0    0  501  0.00000000000E+00  0.00000000000E+00 -0.89798008085E+03  0.89798008086E+03  0.50400001928E-02 0.  1.
    10030    2    1    2    0    0  0.00000000000E+00  0.00000000000E+00 -0.26719674439E+03  0.15287634173E+04  0.15052320373E+04 0.  0.
        1    1    3    3  502    0  0.11379889816E+03 -0.21894261390E+03  0.58853374070E+03  0.63816770630E+03  0.50400001928E-02 0. -1.
       -1    1    3    3    0  502 -0.11379889816E+03  0.21894261390E+03 -0.85573048508E+03  0.89059571104E+03  0.50400001928E-02 0.  1.
</event>
<event>
 5   0  0.5603875E-04  0.1645788E+04  0.7818609E-02  0.8792902E-01
        3   -1    0    0  501    0  0.00000000000E+00  0.00000000000E+00  0.94700866587E+03  0.94700867125E+03  0.10100000352E+00 0.  1.
       -3   -1    0    0    0  501  0.00000000000E+00  0.00000000000E+00 -0.71504537764E+03  0.71504538477E+03  0.10100000352E+00 0. -1.
    10030    2    1    2    0    0  0.00000000000E+00  0.00000000000E+00  0.23196328823E+03  0.16620540560E+04  0.16457875677E+04 0.  0.
        1    1    3    3  502    0  0.20749634497E+03 -0.19820353260E+03  0.89484675894E+03  0.93972873507E+03  0.50400001928E-02 0.  1.
       -1    1    3    3    0  502 -0.20749634497E+03  0.19820353260E+03 -0.66288347071E+03  0.72232532095E+03  0.50400001928E-02 0. -1.
</event>
<event>
 5   0  0.7870317E-04  0.1484625E+04  0.7818609E-02  0.8894742E-01
        1   -1    0    0  501    0  0.00000000000E+00  0.00000000000E+00  0.13059208472E+04  0.13059208472E+04  0.50400001928E-02 0. -1.
       -1   -1    0    0    0  501  0.00000000000E+00  0.00000000000E+00 -0.42194583013E+03  0.42194583016E+03  0.50400001928E-02 0.  1.
    10030    2    1    2    0    0  0.00000000000E+00  0.00000000000E+00  0.88397501711E+03  0.17278666774E+04  0.14846250113E+04 0.  0.
        1    1    3    3  502    0 -0.25243239011E+03 -0.27474190607E+03  0.11888636047E+04  0.12460344687E+04  0.50400001928E-02 0. -1.
       -1    1    3    3    0  502  0.25243239011E+03  0.27474190607E+03 -0.30488858758E+03  0.48183220875E+03  0.50400001928E-02 0.  1.
</event>
<event>
 5   0  0.1484056E-03  0.1493474E+04  0.7818609E-02  0.8888804E-01
        2   -1    0    0  501    0  0.00000000000E+00  0.00000000000E+00  0.13009070994E+04  0.13009070994E+04  0.25500000920E-02 0.  1.
       -2   -1    0    0    0  501  0.00000000000E+00  0.00000000000E+00 -0.42863632496E+03  0.42863632497E+03  0.25500000920E-02 0. -1.
    10030    2    1    2    0    0  0.00000000000E+00  0.00000000000E+00  0.87227077446E+03  0.17295434244E+04  0.14934738541E+04 0.  0.
        5    1    3    3  502    0  0.23002387122E+03 -0.54850697483E+03  0.95896540124E+03  0.11284536382E+04  0.46999998093E+01 0.  1.
       -5    1    3    3    0  502 -0.23002387122E+03  0.54850697483E+03 -0.86694626778E+02  0.60108978620E+03  0.46999998093E+01 0. -1.
</event>
<event>
 5   0  0.1552067E-03  0.1477012E+04  0.7818609E-02  0.8899885E-01
        2   -1    0    0  501    0  0.00000000000E+00  0.00000000000E+00  0.71923762772E+03  0.71923762773E+03  0.25500000920E-02 0.  1.
       -2   -1    0    0    0  501  0.00000000000E+00  0.00000000000E+00 -0.75829106558E+03  0.75829106559E+03  0.25500000920E-02 0. -1.
    10030    2    1    2    0    0  0.00000000000E+00  0.00000000000E+00 -0.39053437860E+02  0.14775286933E+04  0.14770124808E+04 0.  0.
        3    1    3    3  502    0 -0.24789142340E+03 -0.32324132690E+03  0.59668885075E+03  0.72247678719E+03  0.10100000352E+00 0.  1.
       -3    1    3    3    0  502  0.24789142340E+03  0.32324132690E+03 -0.63574228861E+03  0.75505190612E+03  0.10100000352E+00 0. -1.
</event>
<event>
 5   0  0.1484056E-03  0.1322006E+04  0.7818609E-02  0.9012294E-01
        2   -1    0    0  501    0  0.00000000000E+00  0.00000000000E+00  0.15970302121E+04  0.15970302121E+04  0.25500000920E-02 0. -1.
       -2   -1    0    0    0  501  0.00000000000E+00  0.00000000000E+00 -0.27358585697E+03  0.27358585698E+03  0.25500000920E-02 0.  1.
    10030    2    1    2    0    0  0.00000000000E+00  0.00000000000E+00  0.13234443552E+04  0.18706160691E+04  0.13220058687E+04 0.  0.
        5    1    3    3  502    0  0.63938181305E+03 -0.14910496825E+03  0.77005293123E+03  0.10119510864E+04  0.46999998093E+01 0.  1.
       -5    1    3    3    0  502 -0.63938181305E+03  0.14910496825E+03  0.55339142393E+03  0.85866498269E+03  0.46999998093E+01 0. -1.
</event>
<event>
 5   0  0.8191876E-04  0.1465799E+04  0.7818609E-02  0.8907520E-01
        1   -1    0    0  501    0  0.00000000000E+00  0.00000000000E+00  0.55010920203E+03  0.55010920205E+03  0.50400001928E-02 0.  1.
       -1   -1    0    0    0  501  0.00000000000E+00  0.00000000000E+00 -0.97642696827E+03  0.97642696828E+03  0.50400001928E-02 0. -1.
    10030    2    1    2    0    0  0.00000000000E+00  0.00000000000E+00 -0.42631776624E+03  0.15265361703E+04  0.14657987043E+04 0.  0.
        2    1    3    3  502    0  0.18747730927E+03  0.69464872777E+03 -0.35842662512E+03  0.80383719874E+03  0.25500000920E-02 0. -1.
       -2    1    3    3    0  502 -0.18747730927E+03 -0.69464872777E+03 -0.67891141116E+02  0.72269897159E+03  0.25500000920E-02 0.  1.
</event>
<event>
 5   0  0.1500956E-03  0.1490759E+04  0.7818609E-02  0.8890621E-01
       -2   -1    0    0    0  501  0.00000000000E+00  0.00000000000E+00  0.42147673003E+03  0.42147673004E+03  0.25500000920E-02 0. -1.
        2   -1    0    0  501    0  0.00000000000E+00  0.00000000000E+00 -0.13181998402E+04  0.13181998402E+04  0.25500000920E-02 0.  1.
    10030    2    1    2    0    0  0.00000000000E+00  0.00000000000E+00 -0.89672311017E+03  0.17396765702E+04  0.14907589452E+04 0.  0.
        4    1    3    3  502    0  0.97302857751E+02  0.15991935879E+03 -0.12903207067E+04  0.13038294315E+04  0.12699999809E+01 0.  1.
       -4    1    3    3    0  502 -0.97302857751E+02 -0.15991935879E+03  0.39359759653E+03  0.43584713873E+03  0.12699999809E+01 0. -1.
</event>
<event>
 5   0  0.7870317E-04  0.1482375E+04  0.7818609E-02  0.8896259E-01
        1   -1    0    0  501    0  0.00000000000E+00  0.00000000000E+00  0.17501381705E+04  0.17501381706E+04  0.50400001928E-02 0.  1.
       -1   -1    0    0    0  501  0.00000000000E+00  0.00000000000E+00 -0.31389467197E+03  0.31389467202E+03  0.50400001928E-02 0. -1.
    10030    2    1    2    0    0  0.00000000000E+00  0.00000000000E+00  0.14362434986E+04  0.20640328426E+04  0.14823751846E+04 0.  0.
        1    1    3    3  502    0  0.45021211451E+03  0.68666026482E+02  0.15323416716E+04  0.15985859282E+04  0.50400001928E-02 0.  1.
       -1    1    3    3    0  502 -0.45021211451E+03 -0.68666026482E+02 -0.96098173012E+02  0.46544691440E+03  0.50400001928E-02 0. -1.
</event>
<event>
 5   0  0.1552067E-03  0.1521020E+04  0.7818609E-02  0.8870594E-01
       -2   -1    0    0    0  501  0.00000000000E+00  0.00000000000E+00  0.93048800158E+03  0.93048800159E+03  0.25500000920E-02 0.  1.
        2   -1    0    0  501    0  0.00000000000E+00  0.00000000000E+00 -0.62158293672E+03  0.62158293672E+03  0.25500000920E-02 0. -1.
    10030    2    1    2    0    0  0.00000000000E+00  0.00000000000E+00  0.30890506486E+03  0.15520709383E+04  0.15210200059E+04 0.  0.
        3    1    3    3  502    0  0.22164193968E+03 -0.42665756862E+03  0.75573012511E+03  0.89570634835E+03  0.10100000352E+00 0.  1.
       -3    1    3    3    0  502 -0.22164193968E+03  0.42665756862E+03 -0.44682506024E+03  0.65636458996E+03  0.10100000352E+00 0. -1.
</event>
<event>
 5   0  0.7870317E-04  0.1525452E+04  0.7818609E-02  0.8867702E-01
       -1   -1    0    0    0  501  0.00000000000E+00  0.00000000000E+00  0.12724655223E+04  0.12724655223E+04  0.50400001928E-02 0. -1.
        1   -1    0    0  501    0  0.00000000000E+00  0.00000000000E+00 -0.45718404849E+03  0.45718404852E+03  0.50400001928E-02 0.  1.
    10030    2    1    2    0    0  0.00000000000E+00  0.00000000000E+00  0.81528147382E+03  0.17296495708E+04  0.15254519843E+04 0.  0.
        1    1    3    3  502    0 -0.13007846244E+03  0.56533646065E+03 -0.15384941920E+03  0.60016278120E+03  0.50400001928E-02 0. -1.
       -1    1    3    3    0  502  0.13007846244E+03 -0.56533646065E+03  0.96913089301E+03  0.11294867896E+04  0.50400001928E-02 0.  1.
</event>
<event>
 5   0  0.1484056E-03  0.1528613E+04  0.7818609E-02  0.8865646E-01
        2   -1    0    0  501    0  0.00000000000E+00  0.00000000000E+00  0.99695742182E+03  0.99695742183E+03  0.25500000920E-02 0. -1.
       -2   -1    0    0    0  501  0.00000000000E+00  0.00000000000E+00 -0.58594713108E+03  0.58594713109E+03  0.25500000920E-02 0.  1.
    10030    2    1    2    0    0  0.00000000000E+00  0.00000000000E+00  0.41101029074E+03  0.15829045529E+04  0.15286128890E+04 0.  0.
        5    1    3    3  502    0 -0.34685802840E+03 -0.66507505535E+03  0.35736620369E+03  0.83088387555E+03  0.46999998093E+01 0.  1.
       -5    1    3    3    0  502  0.34685802840E+03  0.66507505535E+03  0.53644087055E+02  0.75202067736E+03  0.46999998093E+01 0. -1.
</event>
<event>
 5   0  0.5603875E-04  0.1505583E+04  0.7818609E-02  0.8880749E-01
       -3   -1    0    0    0  501  0.00000000000E+00  0.00000000000E+00  0.47558167727E+03  0.47558168799E+03  0.10100000352E+00 0. -1.
        3   -1    0    0  501    0  0.00000000000E+00  0.00000000000E+00 -0.11915824294E+04  0.11915824337E+04  0.10100000352E+00 0.  1.
    10030    2    1    2    0    0  0.00000000000E+00  0.00000000000E+00 -0.71600075210E+03  0.16671641216E+04  0.15055826552E+04 0.  0.
        3    1    3    3  502    0 -0.14252839724E+03 -0.67218470769E+03 -0.69848716392E+03  0.97981169295E+03  0.10100000352E+00 0.  1.
       -3    1    3    3    0  502  0.14252839724E+03  0.67218470769E+03 -0.17513588180E+02  0.68735242870E+03  0.10100000352E+00 0. -1.
</event>
<event>
 5   0  0.8306301E-04  0.1531051E+04  0.7818609E-02  0.8864063E-01
        1   -1    0    0  501    0  0.00000000000E+00  0.00000000000E+00  0.13291125159E+04  0.13291125159E+04  0.50400001928E-02 0.  1.
       -1   -1    0    0    0  501  0.00000000000E+00  0.00000000000E+00 -0.44091754977E+03  0.44091754980E+03  0.50400001928E-02 0. -1.
    10030    2    1    2    0    0  0.00000000000E+00  0.00000000000E+00  0.88819496613E+03  0.17700300657E+04  0.15310506640E+04 0.  0.
        4    1    3    3  502    0 -0.37262052893E+03  0.66228187582E+03  0.33711038113E+03  0.83132927507E+03  0.12699999809E+01 0.  1.
       -4    1    3    3    0  502  0.37262052893E+03 -0.66228187582E+03  0.55108458500E+03  0.93870079064E+03  0.12699999809E+01 0. -1.
</event>
<event>
 5   0  0.1526126E-03  0.1503329E+04  0.7818609E-02  0.8882242E-01
       -2   -1    0    0    0  501  0.00000000000E+00  0.00000000000E+00  0.92289005655E+03  0.92289005656E+03  0.25500000920E-02 0. -1.
        2   -1    0    0  501    0  0.00000000000E+00  0.00000000000E+00 -0.61220678050E+03  0.61220678051E+03  0.25500000920E-02 0.  1.
    10030    2    1    2    0    0  0.00000000000E+00  0.00000000000E+00  0.31068327605E+03  0.15350968371E+04  0.15033290395E+04 0.  0.
        2    1    3    3  502    0  0.48714796262E+03  0.51523919054E+03 -0.99358538290E+02  0.71600047492E+03  0.25500000920E-02 0.  1.
       -2    1    3    3    0  502 -0.48714796262E+03 -0.51523919054E+03  0.41004181434E+03  0.81909636214E+03  0.25500000920E-02 0. -1.
</event>
<event>
 5   0  0.1552067E-03  0.1509187E+04  0.7818609E-02  0.8878367E-01
        2   -1    0    0  501    0  0.00000000000E+00  0.00000000000E+00  0.16076990988E+04  0.16076990988E+04  0.25500000920E-02 0.  1.
       -2   -1    0    0    0  501  0.00000000000E+00  0.00000000000E+00 -0.35417765080E+03  0.35417765081E+03  0.25500000920E-02 0. -1.
    10030    2    1    2    0    0  0.00000000000E+00  0.00000000000E+00  0.12535214480E+04  0.19618767496E+04  0.15091866552E+04 0.  0.
        3    1    3    3  502    0  0.21303085995E+03  0.55580238088E+03  0.12296835626E+04  0.13661698680E+04  0.10100000352E+00 0.  1.
       -3    1    3    3    0  502 -0.21303085995E+03 -0.55580238088E+03  0.23837885444E+02  0.59570688167E+03  0.10100000352E+00 0. -1.
</event>
<event>
 5   0  0.8058234E-04  0.1482226E+04  0.7818609E-02  0.8896359E-01
        1   -1    0    0  501    0  0.00000000000E+00  0.00000000000E+00  0.12213160337E+04  0.12213160337E+04  0.50400001928E-02 0.  1.
       -1   -1    0    0    0  501  0.00000000000E+00  0.00000000000E+00 -0.44971858183E+03  0.44971858186E+03  0.50400001928E-02 0. -1.
    10030    2    1    2    0    0  0.00000000000E+00  0.00000000000E+00  0.77159745184E+03  0.16710346155E+04  0.14822260484E+04 0.  0.
        5    1    3    3  502    0  0.69054941431E+02  0.21256610932E+03 -0.41080119349E+03  0.46768862114E+03  0.46999998093E+01 0. -1.
       -5    1    3    3    0  502 -0.69054941431E+02 -0.21256610932E+03  0.11823986453E+04  0.12033459944E+04  0.46999998093E+01 0.  1.
</event>
<event>
 5   0  0.5603875E-04  0.1523522E+04  0.7818609E-02  0.8868960E-01
       -4   -1    0    0    0  501  0.00000000000E+00  0.00000000000E+00  0.16201840106E+04  0.16201845084E+04  0.12699999809E+01 0.  1.
        4   -1    0    0  501    0  0.00000000000E+00  0.00000000000E+00 -0.35815489423E+03  0.35815714590E+03  0.12699999809E+01 0. -1.
    10030    2    1    2    0    0  0.00000000000E+00  0.00000000000E+00  0.12620291164E+04  0.19783416543E+04  0.15235216475E+04 0.  0.
        3    1    3    3  502    0 -0.66698860641E+03 -0.23544546755E+03  0.99822870106E+03  0.12234250770E+04  0.10100000352E+00 0.  1.
       -3    1    3    3    0  502  0.66698860641E+03  0.23544546755E+03  0.26380041533E+03  0.75491657725E+03  0.10100000352E+00 0. -1.
</event>
<event>
 5   0  0.1500956E-03  0.1249349E+04  0.7818609E-02  0.9070726E-01
       -2   -1    0    0    0  501  0.00000000000E+00  0.00000000000E+00  0.36235534531E+03  0.36235534532E+03  0.25500000920E-02 0.  1.
        2   -1    0    0  501    0  0.00000000000E+00  0.00000000000E+00 -0.10768932713E+04  0.10768932713E+04  0.25500000920E-02 0. -1.
    10030    2    1    2    0    0  0.00000000000E+00  0.00000000000E+00 -0.71453792600E+03  0.14392486166E+04  0.12493486834E+04 0.  0.
        4    1    3    3  502    0 -0.38021734110E+03 -0.31563660440E+03  0.82946567273E+02  0.50107228863E+03  0.12699999809E+01 0.  1.
       -4    1    3    3    0  502  0.38021734110E+03  0.31563660440E+03 -0.79748449328E+03  0.93817632800E+03  0.12699999809E+01 0. -1.
</event>
<event>
 5   0  0.1526126E-03  0.1439845E+04  0.7818609E-02  0.8925471E-01
       -2   -1    0    0    0  501  0.00000000000E+00  0.00000000000E+00  0.26061235069E+03  0.26061235070E+03  0.25500000920E-02 0. -1.
        2   -1    0    0  501    0  0.00000000000E+00  0.00000000000E+00 -0.19887342965E+04  0.19887342965E+04  0.25500000920E-02 0.  1.
    10030    2    1    2    0    0  0.00000000000E+00  0.00000000000E+00 -0.17281219458E+04  0.22493466472E+04  0.14398454360E+04 0.  0.
        2    1    3    3  502    0 -0.69439911651E+03 -0.10553521743E+03 -0.11108754770E+04  0.13142953019E+04  0.25500000920E-02 0.  1.
       -2    1    3    3    0  502  0.69439911651E+03  0.10553521743E+03 -0.61724646880E+03  0.93505134532E+03  0.25500000920E-02 0. -1.
</event>
<event>
 5   0  0.8191876E-04  0.1474083E+04  0.7818609E-02  0.8901873E-01
       -1   -1    0    0    0  501  0.00000000000E+00  0.00000000000E+00  0.28744102369E+03  0.28744102373E+03  0.50400001928E-02 0. -1.
        1   -1    0    0  501    0  0.00000000000E+00  0.00000000000E+00 -0.18898826565E+04  0.18898826565E+04  0.50400001928E-02 0.  1.
    10030    2    1    2    0    0  0.00000000000E+00  0.00000000000E+00 -0.16024416328E+04  0.21773236802E+04  0.14740825017E+04 0.  0.
        2    1    3    3  502    0  0.51048150192E+03  0.46365330768E+03 -0.41700060583E+03  0.80588786987E+03  0.25500000920E-02 0. -1.
       -2    1    3    3    0  502 -0.51048150192E+03 -0.46365330768E+03 -0.11854410270E+04  0.13714358104E+04  0.25500000920E-02 0.  1.
</event>
<event>
 5   0  0.1500956E-03  0.1488239E+04  0.7818609E-02  0.8892312E-01
       -2   -1    0    0    0  501  0.00000000000E+00  0.00000000000E+00  0.55089695590E+03  0.55089695591E+03  0.25500000920E-02 0.  1.
        2   -1    0    0  501    0  0.00000000000E+00  0.00000000000E+00 -0.10051128685E+04  0.10051128685E+04  0.25500000920E-02 0. -1.
    10030    2    1    2    0    0  0.00000000000E+00  0.00000000000E+00 -0.45421591258E+03  0.15560098244E+04  0.14882387169E+04 0.  0.
        4    1    3    3  502    0  0.49175292091E+03 -0.29852414919E+03 -0.72059116640E+03  0.92205794008E+03  0.12699999809E+01 0. -1.
       -4    1    3    3    0  502 -0.49175292091E+03  0.29852414919E+03  0.26637525383E+03  0.63395188431E+03  0.12699999809E+01 0.  1.
</event>
<event>
 5   0  0.1484056E-03  0.1462348E+04  0.7818609E-02  0.8909884E-01
        2   -1    0    0  501    0  0.00000000000E+00  0.00000000000E+00  0.65998458672E+03  0.65998458672E+03  0.25500000920E-02 0.  1.
       -2   -1    0    0    0  501  0.00000000000E+00  0.00000000000E+00 -0.81004219730E+03  0.81004219730E+03  0.25500000920E-02 0. -1.
    10030    2    1    2    0    0  0.00000000000E+00  0.00000000000E+00 -0.15005761058E+03  0.14700267840E+04  0.14623479269E+04 0.  0.
        5    1    3    3  502    0  0.51289391547E+03  0.52104908073E+03 -0.81462550208E+02  0.73567013677E+03  0.46999998093E+01 0.  1.
       -5    1    3    3    0  502 -0.51289391547E+03 -0.52104908073E+03 -0.68595060374E+02  0.73435664725E+03  0.46999998093E+01 0. -1.
</event>
<event>
 5   0  0.1500956E-03  0.1409192E+04  0.7818609E-02  0.8947192E-01
       -2   -1    0    0    0  501  0.00000000000E+00  0.00000000000E+00  0.39052270696E+03  0.39052270697E+03  0.25500000920E-02 0.  1.
        2   -1    0    0  501    0  0.00000000000E+00  0.00000000000E+00 -0.12712594556E+04  0.12712594556E+04  0.25500000920E-02 0. -1.
    10030    2    1    2    0    0  0.00000000000E+00  0.00000000000E+00 -0.88073674860E+03  0.16617821625E+04  0.14091922280E+04 0.  0.
        4    1    3    3  502    0 -0.31678368500E+03  0.15905725994E+02  0.30157152400E+03  0.43766641656E+03  0.12699999809E+01 0.  1.
       -4    1    3    3    0  502  0.31678368500E+03 -0.15905725994E+02 -0.11823082726E+04  0.12241157460E+04  0.12699999809E+01 0. -1.
</event>
<event>
 5   0  0.1526126E-03  0.1341727E+04  0.7818609E-02  0.8997114E-01
        2   -1    0    0  501    0  0.00000000000E+00  0.00000000000E+00  0.11346688824E+04  0.11346688824E+04  0.25500000920E-02 0.  1.
       -2   -1    0    0    0  501  0.00000000000E+00  0.00000000000E+00 -0.39664243846E+03  0.39664243847E+03  0.25500000920E-02 0. -1.
    10030    2    1    2    0    0  0.00000000000E+00  0.00000000000E+00  0.73802644393E+03  0.15313113209E+04  0.13417269951E+04 0.  0.
        2    1    3    3  502    0  0.64906537414E+03 -0.48915014657E+02  0.55437958025E+03  0.85499430266E+03  0.25500000920E-02 0. -1.
       -2    1    3    3    0  502 -0.64906537414E+03  0.48915014657E+02  0.18364686368E+03  0.67631701821E+03  0.25500000920E-02 0.  1.
</event>
<event>
 5   0  0.5603875E-04  0.1437187E+04  0.7818609E-02  0.8927332E-01
        4   -1    0    0  501    0  0.00000000000E+00  0.00000000000E+00  0.87402180689E+03  0.87402272958E+03  0.12699999809E+01 0.  1.
       -4   -1    0    0    0  501  0.00000000000E+00  0.00000000000E+00 -0.59080340217E+03  0.59080476718E+03  0.12699999809E+01 0. -1.
    10030    2    1    2    0    0  0.00000000000E+00  0.00000000000E+00  0.28321840472E+03  0.14648274968E+04  0.14371871592E+04 0.  0.
        2    1    3    3  502    0  0.39824572427E+03 -0.55344710426E+03  0.37285001803E+03  0.77712321421E+03  0.25500000920E-02 0.  1.
       -2    1    3    3    0  502 -0.39824572427E+03  0.55344710426E+03 -0.89631613313E+02  0.68770428254E+03  0.25500000920E-02 0. -1.
</event>
<event>
 5   0  0.7870317E-04  0.1460756E+04  0.7818609E-02  0.8910978E-01
        1   -1    0    0  501    0  0.00000000000E+00  0.00000000000E+00  0.11629983237E+04  0.11629983237E+04  0.50400001928E-02 0. -1.
       -1   -1    0    0    0  501  0.00000000000E+00  0.00000000000E+00 -0.45868660652E+03  0.45868660654E+03  0.50400001928E-02 0.  1.
    10030    2    1    2    0    0  0.00000000000E+00  0.00000000000E+00  0.70431171714E+03  0.16216849302E+04  0.14607556325E+04 0.  0.
        1    1    3    3  502    0  0.55325058996E+03 -0.47566219524E+03  0.31515183831E+03  0.79477130075E+03  0.50400001928E-02 0. -1.
       -1    1    3    3    0  502 -0.55325058996E+03  0.47566219524E+03  0.38915987883E+03  0.82691362947E+03  0.50400001928E-02 0.  1.
</event>
<event>
 5   0  0.1552067E-03  0.1505249E+04  0.7818609E-02  0.8880970E-01
        2   -1    0    0  501    0  0.00000000000E+00  0.00000000000E+00  0.81829561832E+03  0.81829561832E+03  0.25500000920E-02 0.  1.
       -2   -1    0    0    0  501  0.00000000000E+00  0.00000000000E+00 -0.69222403413E+03  0.69222403413E+03  0.25500000920E-02 0. -1.
    10030    2    1    2    0    0  0.00000000000E+00  0.00000000000E+00  0.12607158419E+03  0.15105196525E+04  0.15052493402E+04 0.  0.
        3    1    3    3  502    0  0.70548197161E+03  0.22462083511E+03 -0.72658036544E+02  0.74393449463E+03  0.10100000352E+00 0. -1.
       -3    1    3    3    0  502 -0.70548197161E+03 -0.22462083511E+03  0.19872962073E+03  0.76658515782E+03  0.10100000352E+00 0.  1.
</event>
<event>
 5   0  0.7870317E-04  0.1483803E+04  0.7818609E-02  0.8895296E-01
        1   -1    0    0  501    0  0.00000000000E+00  0.00000000000E+00  0.53977680517E+03  0.53977680519E+03  0.50400001928E-02 0. -1.
       -1   -1    0    0    0  501  0.00000000000E+00  0.00000000000E+00 -0.10197132738E+04  0.10197132738E+04  0.50400001928E-02 0.  1.
    10030    2    1    2    0    0  0.00000000000E+00  0.00000000000E+00 -0.47993646863E+03  0.15594900790E+04  0.14838026461E+04 0.  0.
        1    1    3    3  502    0  0.18951831643E+03  0.34942797819E+03  0.41840358596E+03  0.57712967778E+03  0.50400001928E-02 0. -1.
       -1    1    3    3    0  502 -0.18951831643E+03 -0.34942797819E+03 -0.89834005459E+03  0.98236040123E+03  0.50400001928E-02 0.  1.
</event>
<event>
 5   0  0.1526126E-03  0.1577660E+04  0.7818609E-02  0.8834391E-01
        2   -1    0    0  501    0  0.00000000000E+00  0.00000000000E+00  0.12244323426E+04  0.12244323426E+04  0.25500000920E-02 0. -1.
       -2   -1    0    0    0  501  0.00000000000E+00  0.00000000000E+00 -0.50819711780E+03  0.50819711781E+03  0.25500000920E-02 0.  1.
    10030    2    1    2    0    0  0.00000000000E+00  0.00000000000E+00  0.71623522481E+03  0.17326294604E+04  0.15776602771E+04 0.  0.
        2    1    3    3  502    0 -0.38736453639E+03 -0.18614691558E+03 -0.36833377677E+03  0.56601389502E+03  0.25500000920E-02 0.  1.
       -2    1    3    3    0  502  0.38736453639E+03  0.18614691558E+03  0.10845690016E+04  0.11666155654E+04  0.25500000920E-02 0. -1.
</event>
<event>
 5   0  0.1484056E-03  0.1522963E+04  0.7818609E-02  0.8869325E-01
       -2   -1    0    0    0  501  0.00000000000E+00  0.00000000000E+00  0.59139113310E+03  0.59139113310E+03  0.25500000920E-02 0. -1.
        2   -1    0    0  501    0  0.00000000000E+00  0.00000000000E+00 -0.98049114304E+03  0.98049114304E+03  0.25500000920E-02 0.  1.
    10030    2    1    2    0    0  0.00000000000E+00  0.00000000000E+00 -0.38910000994E+03  0.15718822761E+04  0.15229625972E+04 0.  0.
        5    1    3    3  502    0  0.16732644594E+03  0.62371122264E+03  0.22191813807E+03  0.68284960186E+03  0.46999998093E+01 0. -1.
       -5    1    3    3    0  502 -0.16732644594E+03 -0.62371122264E+03 -0.61101814801E+03  0.88903267429E+03  0.46999998093E+01 0.  1.
</event>
<event>
 5   0  0.8365016E-04  0.1508464E+04  0.7818609E-02  0.8878844E-01
        1   -1    0    0  501    0  0.00000000000E+00  0.00000000000E+00  0.14721877197E+04  0.14721877197E+04  0.50400001928E-02 0. -1.
       -1   -1    0    0    0  501  0.00000000000E+00  0.00000000000E+00 -0.38640859008E+03  0.38640859011E+03  0.50400001928E-02 0.  1.
    10030    2    1    2    0    0  0.00000000000E+00  0.00000000000E+00  0.10857791297E+04  0.18585963099E+04  0.15084640946E+04 0.  0.
        3    1    3    3  502    0 -0.63926251519E+03  0.36455130990E+03  0.74651163953E+03  0.10482527649E+04  0.10100000352E+00 0.  1.
       -3    1    3    3    0  502  0.63926251519E+03 -0.36455130990E+03  0.33926749012E+03  0.81034354500E+03  0.10100000352E+00 0. -1.
</event>
<event>
 5   0  0.7870317E-04  0.1489132E+04  0.7818609E-02  0.8891712E-01
        1   -1    0    0  501    0  0.00000000000E+00  0.00000000000E+00  0.45019195709E+03  0.45019195712E+03  0.50400001928E-02 0. -1.
       -1   -1    0    0    0  501  0.00000000000E+00  0.00000000000E+00 -0.12314267230E+04  0.12314267230E+04  0.50400001928E-02 0.  1.
    10030    2    1    2    0    0  0.00000000000E+00  0.00000000000E+00 -0.78123476588E+03  0.16816186801E+04  0.14891318363E+04 0.  0.
        1    1    3    3  502    0 -0.69316240144E+02 -0.62644502523E+02 -0.12247808935E+04  0.12283392495E+04  0.50400001928E-02 0.  1.
       -1    1    3    3    0  502  0.69316240144E+02  0.62644502523E+02  0.44354612760E+03  0.45327943057E+03  0.50400001928E-02 0. -1.
</event>
<event>
 5   0  0.8058234E-04  0.9651016E+03  0.7818609E-02  0.9347671E-01
        1   -1    0    0  501    0  0.00000000000E+00  0.00000000000E+00  0.27220938149E+03  0.27220938154E+03  0.50400001928E-02 0. -1.
       -1   -1    0    0    0  501  0.00000000000E+00  0.00000000000E+00 -0.85542703933E+03  0.85542703935E+03  0.50400001928E-02 0.  1.
    10030    2    1    2    0    0  0.00000000000E+00  0.00000000000E+00 -0.58321765784E+03  0.11276364209E+04  0.96510158082E+03 0.  0.
        5    1    3    3  502    0  0.29913240047E+03  0.16582602666E+03  0.10608872237E+03  0.35812759058E+03  0.46999998093E+01 0. -1.
       -5    1    3    3    0  502 -0.29913240047E+03 -0.16582602666E+03 -0.68930638021E+03  0.76950883030E+03  0.46999998093E+01 0.  1.
</event>
<event>
 5   0  0.5603875E-04  0.1478378E+04  0.7818609E-02  0.8898960E-01
       -3   -1    0    0    0  501  0.00000000000E+00  0.00000000000E+00  0.45685510850E+03  0.45685511967E+03  0.10100000352E+00 0. -1.
        3   -1    0    0  501    0  0.00000000000E+00  0.00000000000E+00 -0.11960040213E+04  0.11960040255E+04  0.10100000352E+00 0.  1.
    10030    2    1    2    0    0  0.00000000000E+00  0.00000000000E+00 -0.73914891275E+03  0.16528591452E+04  0.14783782461E+04 0.  0.
        3    1    3    3  502    0  0.13561206354E+03  0.67936552903E+03 -0.81323373788E+02  0.69752537957E+03  0.10100000352E+00 0.  1.
       -3    1    3    3    0  502 -0.13561206354E+03 -0.67936552903E+03 -0.65782553896E+03  0.95533376562E+03  0.10100000352E+00 0. -1.
</event>
<event>
 5   0  0.5603875E-04  0.1515386E+04  0.7818609E-02  0.8874285E-01
       -3   -1    0    0    0  501  0.00000000000E+00  0.00000000000E+00  0.51394026999E+03  0.51394027991E+03  0.10100000352E+00 0.  1.
        3   -1    0    0  501    0  0.00000000000E+00  0.00000000000E+00 -0.11170538002E+04  0.11170538047E+04  0.10100000352E+00 0. -1.
    10030    2    1    2    0    0  0.00000000000E+00  0.00000000000E+00 -0.60311353017E+03  0.16309940846E+04  0.15153863447E+04 0.  0.
        1    1    3    3  502    0 -0.71513416037E+03 -0.20756031692E+03 -0.45224030523E+03  0.87121722101E+03  0.50400001928E-02 0.  1.
       -1    1    3    3    0  502  0.71513416037E+03  0.20756031692E+03 -0.15087322494E+03  0.75977686363E+03  0.50400001928E-02 0. -1.
</event>
<event>
 5   0  0.8365016E-04  0.1483651E+04  0.7818609E-02  0.8895398E-01
       -1   -1    0    0    0  501  0.00000000000E+00  0.00000000000E+00  0.49617691391E+03  0.49617691393E+03  0.50400001928E-02 0. -1.
        1   -1    0    0  501    0  0.00000000000E+00  0.00000000000E+00 -0.11090906705E+04  0.11090906706E+04  0.50400001928E-02 0.  1.
    10030    2    1    2    0    0  0.00000000000E+00  0.00000000000E+00 -0.61291375663E+03  0.16052675845E+04  0.14836511533E+04 0.  0.
        3    1    3    3  502    0 -0.24495361190E+03 -0.54647498020E+03  0.16722900595E+03  0.62177385487E+03  0.10100000352E+00 0. -1.
       -3    1    3    3    0  502  0.24495361190E+03  0.54647498020E+03 -0.78014276258E+03  0.98349372961E+03  0.10100000352E+00 0.  1.
</event>
<event>
 5   0  0.1484056E-03  0.1495168E+04  0.7818609E-02  0.8887673E-01
        2   -1    0    0  501    0  0.00000000000E+00  0.00000000000E+00  0.16540661974E+04  0.16540661974E+04  0.25500000920E-02 0.  1.
       -2   -1    0    0    0  501  0.00000000000E+00  0.00000000000E+00 -0.33788355053E+03  0.33788355054E+03  0.25500000920E-02 0. -1.
    10030    2    1    2    0    0  0.00000000000E+00  0.00000000000E+00  0.13161826468E+04  0.19919497479E+04  0.14951678964E+04 0.  0.
        5    1    3    3  502    0  0.74689476249E+03 -0.10795003796E+00  0.70038651928E+03  0.10239214639E+04  0.46999998093E+01 0.  1.
       -5    1    3    3    0  502 -0.74689476249E+03  0.10795003796E+00  0.61579612754E+03  0.96802828398E+03  0.46999998093E+01 0. -1.
</event>
<event>
 5   0  0.5603875E-04  0.1488766E+04  0.7818609E-02  0.8891958E-01
       -3   -1    0    0    0  501  0.00000000000E+00  0.00000000000E+00  0.16912340887E+04  0.16912340917E+04  0.10100000352E+00 0. -1.
        3   -1    0    0  501    0  0.00000000000E+00  0.00000000000E+00 -0.32763431974E+03  0.32763433530E+03  0.10100000352E+00 0.  1.
    10030    2    1    2    0    0  0.00000000000E+00  0.00000000000E+00  0.13635997689E+04  0.20188684270E+04  0.14887664006E+04 0.  0.
        4    1    3    3  502    0  0.28002684027E+03 -0.95039295159E+02  0.16081613051E+04  0.16351244280E+04  0.12699999809E+01 0. -1.
       -4    1    3    3    0  502 -0.28002684027E+03  0.95039295159E+02 -0.24456153617E+03  0.38374399900E+03  0.12699999809E+01 0.  1.
</event>
<event>
 5   0  0.1484056E-03  0.1481361E+04  0.7818609E-02  0.8896943E-01
       -2   -1    0    0    0  501  0.00000000000E+00  0.00000000000E+00  0.42531570606E+03  0.42531570607E+03  0.25500000920E-02 0. -1.
        2   -1    0    0  501    0  0.00000000000E+00  0.00000000000E+00 -0.12898834293E+04  0.12898834293E+04  0.25500000920E-02 0.  1.
    10030    2    1    2    0    0  0.00000000000E+00  0.00000000000E+00 -0.86456772327E+03  0.17151991354E+04  0.14813611059E+04 0.  0.
        5    1    3    3  502    0 -0.45943871013E+03 -0.40458603820E+03  0.50433857674E+02  0.61427962254E+03  0.46999998093E+01 0. -1.
       -5    1    3    3    0  502  0.45943871013E+03  0.40458603820E+03 -0.91500158095E+03  0.11009195129E+04  0.46999998093E+01 0.  1.
</event>
<event>
 5   0  0.7870317E-04  0.1516190E+04  0.7818609E-02  0.8873757E-01
       -1   -1    0    0    0  501  0.00000000000E+00  0.00000000000E+00  0.11012659920E+04  0.11012659920E+04  0.50400001928E-02 0.  1.
        1   -1    0    0  501    0  0.00000000000E+00  0.00000000000E+00 -0.52186142112E+03  0.52186142115E+03  0.50400001928E-02 0. -1.
    10030    2    1    2    0    0  0.00000000000E+00  0.00000000000E+00  0.57940457085E+03  0.16231274131E+04  0.15161902725E+04 0.  0.
        1    1    3    3  502    0 -0.23815088880E+03 -0.24567096266E+03  0.10139047956E+04  0.10700808391E+04  0.50400001928E-02 0.  1.
       -1    1    3    3    0  502  0.23815088880E+03  0.24567096266E+03 -0.43450022472E+03  0.55304657402E+03  0.50400001928E-02 0. -1.
</event>
<event>
 5   0  0.8058234E-04  0.1471661E+04  0.7818609E-02  0.8903520E-01
        1   -1    0    0  501    0  0.00000000000E+00  0.00000000000E+00  0.22592278095E+04  0.22592278095E+04  0.50400001928E-02 0. -1.
       -1   -1    0    0    0  501  0.00000000000E+00  0.00000000000E+00 -0.23965987454E+03  0.23965987460E+03  0.50400001928E-02 0.  1.
    10030    2    1    2    0    0  0.00000000000E+00  0.00000000000E+00  0.20195679350E+04  0.24988876841E+04  0.14716606314E+04 0.  0.
        5    1    3    3  502    0  0.57695490885E+03  0.44867094574E+03  0.86528800811E+03  0.11326641212E+04  0.46999998093E+01 0.  1.
       -5    1    3    3    0  502 -0.57695490885E+03 -0.44867094574E+03  0.11542799269E+04  0.13662235629E+04  0.46999998093E+01 0. -1.
</event>
<event>
 5   0  0.1552067E-03  0.1498643E+04  0.7818609E-02  0.8885356E-01
        2   -1    0    0  501    0  0.00000000000E+00  0.00000000000E+00  0.62519733005E+03  0.62519733006E+03  0.25500000920E-02 0.  1.
       -2   -1    0    0    0  501  0.00000000000E+00  0.00000000000E+00 -0.89808845791E+03  0.89808845792E+03  0.25500000920E-02 0. -1.
    10030    2    1    2    0    0  0.00000000000E+00  0.00000000000E+00 -0.27289112786E+03  0.15232857880E+04  0.14986427273E+04 0.  0.
        3    1    3    3  502    0 -0.54201798705E+03 -0.51608057139E+03 -0.98963162473E+02  0.75492805762E+03  0.10100000352E+00 0.  1.
       -3    1    3    3    0  502  0.54201798705E+03  0.51608057139E+03 -0.17392796539E+03  0.76835773036E+03  0.10100000352E+00 0. -1.
</event>
<event>
 5   0  0.1484056E-03  0.1494688E+04  0.7818609E-02  0.8887993E-01
        2   -1    0    0  501    0  0.00000000000E+00  0.00000000000E+00  0.14747389180E+04  0.14747389180E+04  0.25500000920E-02 0.  1.
       -2   -1    0    0    0  501  0.00000000000E+00  0.00000000000E+00 -0.37872685124E+03  0.37872685125E+03  0.25500000920E-02 0. -1.
    10030    2    1    2    0    0  0.00000000000E+00  0.00000000000E+00  0.10960120668E+04  0.18534657693E+04  0.14946882308E+04 0.  0.
        5    1    3    3  502    0 -0.61830830843E+03 -0.19734138633E+02  0.28068147883E+02  0.61927741072E+03  0.46999998093E+01 0. -1.
       -5    1    3    3    0  502  0.61830830843E+03  0.19734138633E+02  0.10679439189E+04  0.12341883585E+04  0.46999998093E+01 0.  1.
</event>
<event>
 5   0  0.5603875E-04  0.1233695E+04  0.7818609E-02  0.9083864E-01
        3   -1    0    0  501    0  0.00000000000E+00  0.00000000000E+00  0.12443503257E+04  0.12443503298E+04  0.10100000352E+00 0.  1.
       -3   -1    0    0    0  501  0.00000000000E+00  0.00000000000E+00 -0.30578276204E+03  0.30578277872E+03  0.10100000352E+00 0. -1.
    10030    2    1    2    0    0  0.00000000000E+00  0.00000000000E+00  0.93856756361E+03  0.15501331085E+04  0.12336950930E+04 0.  0.
        1    1    3    3  502    0 -0.18785607891E+03 -0.63081838068E+02  0.12032664777E+04  0.12194750678E+04  0.50400001928E-02 0.  1.
       -1    1    3    3    0  502  0.18785607891E+03  0.63081838068E+02 -0.26469891411E+03  0.33065804063E+03  0.50400001928E-02 0. -1.
</event>
<event>
 5   0  0.1500956E-03  0.1462582E+04  0.7818609E-02  0.8909724E-01
       -2   -1    0    0    0  501  0.00000000000E+00  0.00000000000E+00  0.62611390155E+03  0.62611390156E+03  0.25500000920E-02 0. -1.
        2   -1    0    0  501    0  0.00000000000E+00  0.00000000000E+00 -0.85413648532E+03  0.85413648532E+03  0.25500000920E-02 0.  1.
    10030    2    1    2    0    0  0.00000000000E+00  0.00000000000E+00 -0.22802258377E+03  0.14802503869E+04  0.14625822743E+04 0.  0.
        4    1    3    3  502    0  0.36156620549E+03  0.62378610708E+03  0.97189069960E+01  0.72106539120E+03  0.12699999809E+01 0. -1.
       -4    1    3    3    0  502 -0.36156620549E+03 -0.62378610708E+03 -0.23774149076E+03  0.75918499568E+03  0.12699999809E+01 0.  1.
</event>
<event>
 5   0  0.7870317E-04  0.1532423E+04  0.7818609E-02  0.8863173E-01
        1   -1    0    0  501    0  0.00000000000E+00  0.00000000000E+00  0.91159401877E+03  0.91159401879E+03  0.50400001928E-02 0.  1.
       -1   -1    0    0    0  501  0.00000000000E+00  0.00000000000E+00 -0.64401521657E+03  0.64401521659E+03  0.50400001928E-02 0. -1.
    10030    2    1    2    0    0  0.00000000000E+00  0.00000000000E+00  0.26757880221E+03  0.15556092354E+04  0.15324234656E+04 0.  0.
        1    1    3    3  502    0 -0.63796097558E+02 -0.30218562827E+03 -0.57802917332E+03  0.65536541046E+03  0.50400001928E-02 0. -1.
       -1    1    3    3    0  502  0.63796097558E+02  0.30218562827E+03  0.84560797552E+03  0.90024382491E+03  0.50400001928E-02 0.  1.
</event>
<event>
 5   0  0.8306301E-04  0.1529692E+04  0.7818609E-02  0.8864945E-01
        1   -1    0    0  501    0  0.00000000000E+00  0.00000000000E+00  0.73332866838E+03  0.73332866840E+03  0.50400001928E-02 0.  1.
       -1   -1    0    0    0  501  0.00000000000E+00  0.00000000000E+00 -0.79771753433E+03  0.79771753434E+03  0.50400001928E-02 0. -1.
    10030    2    1    2    0    0  0.00000000000E+00  0.00000000000E+00 -0.64388865941E+02  0.15310462027E+04  0.15296916516E+04 0.  0.
        4    1    3    3  502    0  0.20443728624E+03  0.68576018397E+03  0.23809263703E+03  0.75415605191E+03  0.12699999809E+01 0. -1.
       -4    1    3    3    0  502 -0.20443728624E+03 -0.68576018397E+03 -0.30248150297E+03  0.77689015083E+03  0.12699999809E+01 0.  1.
</event>
<event>
 5   0  0.8306301E-04  0.1562921E+04  0.7818609E-02  0.8843657E-01
       -1   -1    0    0    0  501  0.00000000000E+00  0.00000000000E+00  0.56753288860E+03  0.56753288862E+03  0.50400001928E-02 0. -1.
        1   -1    0    0  501    0  0.00000000000E+00  0.00000000000E+00 -0.10760260012E+04  0.10760260012E+04  0.50400001928E-02 0.  1.
    10030    2    1    2    0    0  0.00000000000E+00  0.00000000000E+00 -0.50849311259E+03  0.16435588898E+04  0.15629205286E+04 0.  0.
        4    1    3    3  502    0  0.21143290366E+03 -0.55370915037E+03 -0.78981788186E+03  0.98747738980E+03  0.12699999809E+01 0.  1.
       -4    1    3    3    0  502 -0.21143290366E+03  0.55370915037E+03  0.28132476927E+03  0.65608150002E+03  0.12699999809E+01 0. -1.
</event>
<event>
 5   0  0.8306301E-04  0.1515320E+04  0.7818609E-02  0.8874329E-01
        1   -1    0    0  501    0  0.00000000000E+00  0.00000000000E+00  0.74333729578E+03  0.74333729580E+03  0.50400001928E-02 0. -1.
       -1   -1    0    0    0  501  0.00000000000E+00  0.00000000000E+00 -0.77225878183E+03  0.77225878185E+03  0.50400001928E-02 0.  1.
    10030    2    1    2    0    0  0.00000000000E+00  0.00000000000E+00 -0.28921486055E+02  0.15155960776E+04  0.15153201042E+04 0.  0.
        4    1    3    3  502    0 -0.53614266650E+03 -0.85569045412E+02  0.51410132079E+03  0.74771171003E+03  0.12699999809E+01 0. -1.
       -4    1    3    3    0  502  0.53614266650E+03  0.85569045412E+02 -0.54302280685E+03  0.76788436762E+03  0.12699999809E+01 0.  1.
</event>
<event>
 5   0  0.7870317E-04  0.1516600E+04  0.7818609E-02  0.8873489E-01
       -1   -1    0    0    0  501  0.00000000000E+00  0.00000000000E+00  0.96087416507E+03  0.96087416508E+03  0.50400001928E-02 0. -1.
        1   -1    0    0  501    0  0.00000000000E+00  0.00000000000E+00 -0.59843296814E+03  0.59843296817E+03  0.50400001928E-02 0.  1.
    10030    2    1    2    0    0  0.00000000000E+00  0.00000000000E+00  0.36244119693E+03  0.15593071332E+04  0.15165998531E+04 0.  0.
        1    1    3    3  502    0  0.74687138176E+03 -0.31285663763E+02  0.31217735581E+03  0.81009280651E+03  0.50400001928E-02 0. -1.
       -1    1    3    3    0  502 -0.74687138176E+03  0.31285663763E+02  0.50263841119E+02  0.74921432674E+03  0.50400001928E-02 0.  1.
</event>
<event>
 5   0  0.8058234E-04  0.1491431E+04  0.7818609E-02  0.8890171E-01
        1   -1    0    0  501    0  0.00000000000E+00  0.00000000000E+00  0.69116577772E+03  0.69116577774E+03  0.50400001928E-02 0. -1.
       -1   -1    0    0    0  501  0.00000000000E+00  0.00000000000E+00 -0.80457038404E+03  0.80457038406E+03  0.50400001928E-02 0.  1.
    10030    2    1    2    0    0  0.00000000000E+00  0.00000000000E+00 -0.11340460632E+03  0.14957361618E+04  0.14914308770E+04 0.  0.
        5    1    3    3  502    0 -0.72572789367E+03 -0.55217902490E+02 -0.21946507344E+03  0.76020852459E+03  0.46999998093E+01 0.  1.
       -5    1    3    3    0  502  0.72572789367E+03  0.55217902490E+02  0.10606046712E+03  0.73552763720E+03  0.46999998093E+01 0. -1.
</event>
<event>
 5   0  0.1500956E-03  0.1515820E+04  0.7818609E-02  0.8874000E-01
        2   -1    0    0  501    0  0.00000000000E+00  0.00000000000E+00  0.12801041333E+04  0.12801041333E+04  0.25500000920E-02 0. -1.
       -2   -1    0    0    0  501  0.00000000000E+00  0.00000000000E+00 -0.44873528566E+03  0.44873528567E+03  0.25500000920E-02 0.  1.
    10030    2    1    2    0    0  0.00000000000E+00  0.00000000000E+00  0.83136884765E+03  0.17288394190E+04  0.15158204299E+04 0.  0.
        4    1    3    3  502    0 -0.33203684346E+03  0.38723690950E+03  0.10550180370E+04  0.11718641392E+04  0.12699999809E+01 0. -1.
       -4    1    3    3    0  502  0.33203684346E+03 -0.38723690950E+03 -0.22364918934E+03  0.55697527978E+03  0.12699999809E+01 0.  1.
</event>
<event>
 5   0  0.8058234E-04  0.1503375E+04  0.7818609E-02  0.8882212E-01
       -1   -1    0    0    0  501  0.00000000000E+00  0.00000000000E+00  0.31601875655E+03  0.31601875659E+03  0.50400001928E-02 0. -1.
        1   -1    0    0  501    0  0.00000000000E+00  0.00000000000E+00 -0.17879770159E+04  0.17879770159E+04  0.50400001928E-02 0.  1.
    10030    2    1    2    0    0  0.00000000000E+00  0.00000000000E+00 -0.14719582594E+04  0.21039957725E+04  0.15033752337E+04 0.  0.
        5    1    3    3  502    0  0.48726160868E+03  0.21712536026E+03  0.51625438412E+01  0.53349417918E+03  0.46999998093E+01 0. -1.
       -5    1    3    3    0  502 -0.48726160868E+03 -0.21712536026E+03 -0.14771208032E+04  0.15705015933E+04  0.46999998093E+01 0.  1.
</event>
<event>
 5   0  0.1500956E-03  0.1476929E+04  0.7818609E-02  0.8899941E-01
       -2   -1    0    0    0  501  0.00000000000E+00  0.00000000000E+00  0.39882574834E+03  0.39882574835E+03  0.25500000920E-02 0. -1.
        2   -1    0    0  501    0  0.00000000000E+00  0.00000000000E+00 -0.13673389944E+04  0.13673389944E+04  0.25500000920E-02 0.  1.
    10030    2    1    2    0    0  0.00000000000E+00  0.00000000000E+00 -0.96851324606E+03  0.17661647428E+04  0.14769292437E+04 0.  0.
        4    1    3    3  502    0 -0.19609354669E+03 -0.36464636387E+03 -0.12154871717E+04  0.12840678826E+04  0.12699999809E+01 0.  1.
       -4    1    3    3    0  502  0.19609354669E+03  0.36464636387E+03  0.24697392561E+03  0.48209686015E+03  0.12699999809E+01 0. -1.
</event>
<event>
 5   0  0.7870317E-04  0.1493754E+04  0.7818609E-02  0.8888617E-01
       -1   -1    0    0    0  501  0.00000000000E+00  0.00000000000E+00  0.56170871927E+03  0.56170871929E+03  0.50400001928E-02 0. -1.
        1   -1    0    0  501    0  0.00000000000E+00  0.00000000000E+00 -0.99308598601E+03  0.99308598602E+03  0.50400001928E-02 0.  1.
    10030    2    1    2    0    0  0.00000000000E+00  0.00000000000E+00 -0.43137726675E+03  0.15547947053E+04  0.14937537379E+04 0.  0.
        1    1    3    3  502    0  0.69620466715E+03 -0.16585684794E+03  0.66172014346E+01  0.71571867375E+03  0.50400001928E-02 0. -1.
       -1    1    3    3    0  502 -0.69620466715E+03  0.16585684794E+03 -0.43799446818E+03  0.83907603157E+03  0.50400001928E-02 0.  1.
</event>
<event>
 5   0  0.1511546E-03  0.1530996E+04  0.7818609E-02  0.8864099E-01
        2   -1    0    0  501    0  0.00000000000E+00  0.00000000000E+00  0.87272352666E+03  0.87272352666E+03  0.25500000920E-02 0. -1.
       -2   -1    0    0    0  501  0.00000000000E+00  0.00000000000E+00 -0.67144665528E+03  0.67144665528E+03  0.25500000920E-02 0.  1.
    10030    2    1    2    0    0  0.00000000000E+00  0.00000000000E+00  0.20127687138E+03  0.15441701819E+04  0.15309961371E+04 0.  0.
        1    1    3    3  502    0  0.54812454309E+03  0.68420632753E+02 -0.43388922511E+03  0.70241138759E+03  0.50400001928E-02 0.  1.
       -1    1    3    3    0  502 -0.54812454309E+03 -0.68420632753E+02  0.63516609649E+03  0.84175879436E+03  0.50400001928E-02 0. -1.
</event>
<event>
 5   0  0.8365016E-04  0.1491151E+04  0.7818609E-02  0.8890359E-01
       -1   -1    0    0    0  501  0.00000000000E+00  0.00000000000E+00  0.53528299357E+03  0.53528299359E+03  0.50400001928E-02 0. -1.
        1   -1    0    0  501    0  0.00000000000E+00  0.00000000000E+00 -0.10384838396E+04  0.10384838396E+04  0.50400001928E-02 0.  1.
    10030    2    1    2    0    0  0.00000000000E+00  0.00000000000E+00 -0.50320084604E+03  0.15737668332E+04  0.14911508823E+04 0.  0.
        3    1    3    3  502    0 -0.41041339218E+03  0.24624797675E+03  0.35174147267E+03  0.59396910049E+03  0.10100000352E+00 0. -1.
       -3    1    3    3    0  502  0.41041339218E+03 -0.24624797675E+03 -0.85494231872E+03  0.97979773273E+03  0.10100000352E+00 0.  1.
</event>
<event>
 5   0  0.1526126E-03  0.1417758E+04  0.7818609E-02  0.8941064E-01
       -2   -1    0    0    0  501  0.00000000000E+00  0.00000000000E+00  0.80241981436E+03  0.80241981436E+03  0.25500000920E-02 0. -1.
        2   -1    0    0  501    0  0.00000000000E+00  0.00000000000E+00 -0.62624249002E+03  0.62624249003E+03  0.25500000920E-02 0.  1.
    10030    2    1    2    0    0  0.00000000000E+00  0.00000000000E+00  0.17617732434E+03  0.14286623044E+04  0.14177579238E+04 0.  0.
        2    1    3    3  502    0 -0.25204805290E+03 -0.58609772276E+03 -0.22327102084E+03  0.67593543356E+03  0.25500000920E-02 0.  1.
       -2    1    3    3    0  502  0.25204805290E+03  0.58609772276E+03  0.39944834518E+03  0.75272687082E+03  0.25500000920E-02 0. -1.
</event>
<event>
 5   0  0.7870317E-04  0.1521486E+04  0.7818609E-02  0.8870289E-01
        1   -1    0    0  501    0  0.00000000000E+00  0.00000000000E+00  0.54140223086E+03  0.54140223088E+03  0.50400001928E-02 0.  1.
       -1   -1    0    0    0  501  0.00000000000E+00  0.00000000000E+00 -0.10689462984E+04  0.10689462985E+04  0.50400001928E-02 0. -1.
    10030    2    1    2    0    0  0.00000000000E+00  0.00000000000E+00 -0.52754406759E+03  0.16103485293E+04  0.15214859982E+04 0.  0.
        1    1    3    3  502    0  0.24462925152E+03 -0.49158977810E+03 -0.82104611629E+03  0.98773513947E+03  0.50400001928E-02 0. -1.
       -1    1    3    3    0  502 -0.24462925152E+03  0.49158977810E+03  0.29350204871E+03  0.62261338988E+03  0.50400001928E-02 0.  1.
</event>
<event>
 5   0  0.8365016E-04  0.1527165E+04  0.7818609E-02  0.8866587E-01
        1   -1    0    0  501    0  0.00000000000E+00  0.00000000000E+00  0.18013949341E+04  0.18013949341E+04  0.50400001928E-02 0. -1.
       -1   -1    0    0    0  501  0.00000000000E+00  0.00000000000E+00 -0.32367038629E+03  0.32367038633E+03  0.50400001928E-02 0.  1.
    10030    2    1    2    0    0  0.00000000000E+00  0.00000000000E+00  0.14777245478E+04  0.21250653204E+04  0.15271649475E+04 0.  0.
        3    1    3    3  502    0  0.38333192241E+03 -0.61740580366E+03  0.10649774082E+04  0.12893060844E+04  0.10100000352E+00 0. -1.
       -3    1    3    3    0  502 -0.38333192241E+03  0.61740580366E+03  0.41274713960E+03  0.83575923601E+03  0.10100000352E+00 0.  1.
</event>
<event>
 5   0  0.7870317E-04  0.1546150E+04  0.7818609E-02  0.8854330E-01
        1   -1    0    0  501    0  0.00000000000E+00  0.00000000000E+00  0.11366487902E+04  0.11366487902E+04  0.50400001928E-02 0. -1.
       -1   -1    0    0    0  501  0.00000000000E+00  0.00000000000E+00 -0.52579592768E+03  0.52579592770E+03  0.50400001928E-02 0.  1.
    10030    2    1    2    0    0  0.00000000000E+00  0.00000000000E+00  0.61085286256E+03  0.16624447179E+04  0.15461504521E+04 0.  0.
        1    1    3    3  502    0 -0.36195406091E+03 -0.15218693310E+03  0.10214534254E+04  0.10943211161E+04  0.50400001928E-02 0. -1.
       -1    1    3    3    0  502  0.36195406091E+03  0.15218693310E+03 -0.41060056281E+03  0.56812360189E+03  0.50400001928E-02 0.  1.
</event>
<event>
 5   0  0.1484056E-03  0.1482157E+04  0.7818609E-02  0.8896406E-01
        2   -1    0    0  501    0  0.00000000000E+00  0.00000000000E+00  0.42371778937E+03  0.42371778938E+03  0.25500000920E-02 0.  1.
       -2   -1    0    0    0  501  0.00000000000E+00  0.00000000000E+00 -0.12961390265E+04  0.12961390265E+04  0.25500000920E-02 0. -1.
    10030    2    1    2    0    0  0.00000000000E+00  0.00000000000E+00 -0.87242123709E+03  0.17198568158E+04  0.14821567569E+04 0.  0.
        5    1    3    3  502    0 -0.51409163007E+01 -0.61452077437E+03 -0.91676938089E+03  0.11036985091E+04  0.46999998093E+01 0. -1.
       -5    1    3    3    0  502  0.51409163007E+01  0.61452077437E+03  0.44348143799E+02  0.61615830678E+03  0.46999998093E+01 0.  1.
</event>
<event>
 5   0  0.1552067E-03  0.1267494E+04  0.7818609E-02  0.9055748E-01
        2   -1    0    0  501    0  0.00000000000E+00  0.00000000000E+00  0.69947301781E+03  0.69947301782E+03  0.25500000920E-02 0. -1.
       -2   -1    0    0    0  501  0.00000000000E+00  0.00000000000E+00 -0.57419684005E+03  0.57419684006E+03  0.25500000920E-02 0.  1.
    10030    2    1    2    0    0  0.00000000000E+00  0.00000000000E+00  0.12527617776E+03  0.12736698579E+04  0.12674938998E+04 0.  0.
        3    1    3    3  502    0  0.88558876505E+02 -0.55260924782E+03  0.36143442850E+03  0.66622407018E+03  0.10100000352E+00 0. -1.
       -3    1    3    3    0  502 -0.88558876505E+02  0.55260924782E+03 -0.23615825074E+03  0.60744578769E+03  0.10100000352E+00 0.  1.
</event>
<event>
 5   0  0.1511546E-03  0.1510942E+04  0.7818609E-02  0.8877209E-01
        2   -1    0    0  501    0  0.00000000000E+00  0.00000000000E+00  0.74670711543E+03  0.74670711544E+03  0.25500000920E-02 0.  1.
       -2   -1    0    0    0  501  0.00000000000E+00  0.00000000000E+00 -0.76433811284E+03  0.76433811284E+03  0.25500000920E-02 0. -1.
    10030    2    1    2    0    0  0.00000000000E+00  0.00000000000E+00 -0.17630997407E+02  0.15110452283E+04  0.15109423648E+04 0.  0.
        1    1    3    3  502    0 -0.46154067622E+03 -0.23063814184E+03  0.54305805910E+03  0.74908330903E+03  0.50400001928E-02 0.  1.
       -1    1    3    3    0  502  0.46154067622E+03  0.23063814184E+03 -0.56068905651E+03  0.76196191925E+03  0.50400001928E-02 0. -1.
</event>
<event>
 5   0  0.8191876E-04  0.1503404E+04  0.7818609E-02  0.8882193E-01
       -1   -1    0    0    0  501  0.00000000000E+00  0.00000000000E+00  0.58019762157E+03  0.58019762159E+03  0.50400001928E-02 0.  1.
        1   -1    0    0  501    0  0.00000000000E+00  0.00000000000E+00 -0.97390214336E+03  0.97390214338E+03  0.50400001928E-02 0. -1.
    10030    2    1    2    0    0  0.00000000000E+00  0.00000000000E+00 -0.39370452179E+03  0.15540997650E+04  0.15034037478E+04 0.  0.
        2    1    3    3  502    0 -0.37141207028E+03 -0.46177027861E+03  0.28121092241E+03  0.65594077404E+03  0.25500000920E-02 0.  1.
       -2    1    3    3    0  502  0.37141207028E+03  0.46177027861E+03 -0.67491544421E+03  0.89815899093E+03  0.25500000920E-02 0. -1.
</event>
<event>
 5   0  0.7870317E-04  0.1460573E+04  0.7818609E-02  0.8911103E-01
       -1   -1    0    0    0  501  0.00000000000E+00  0.00000000000E+00  0.29453994901E+03  0.29453994905E+03  0.50400001928E-02 0.  1.
        1   -1    0    0  501    0  0.00000000000E+00  0.00000000000E+00 -0.18106833931E+04  0.18106833931E+04  0.50400001928E-02 0. -1.
    10030    2    1    2    0    0  0.00000000000E+00  0.00000000000E+00 -0.15161434441E+04  0.21052233422E+04  0.14605733043E+04 0.  0.
        1    1    3    3  502    0 -0.39815343079E+03  0.45871763220E+03 -0.17370314644E+03  0.63176008393E+03  0.50400001928E-02 0.  1.
       -1    1    3    3    0  502  0.39815343079E+03 -0.45871763220E+03 -0.13424402977E+04  0.14734632582E+04  0.50400001928E-02 0. -1.
</event>
<event>
 5   0  0.1484056E-03  0.1503307E+04  0.7818609E-02  0.8882257E-01
       -2   -1    0    0    0  501  0.00000000000E+00  0.00000000000E+00  0.43218625585E+03  0.43218625585E+03  0.25500000920E-02 0.  1.
        2   -1    0    0  501    0  0.00000000000E+00  0.00000000000E+00 -0.13072675387E+04  0.13072675387E+04  0.25500000920E-02 0. -1.
    10030    2    1    2    0    0  0.00000000000E+00  0.00000000000E+00 -0.87508128283E+03  0.17394537945E+04  0.15033071049E+04 0.  0.
        5    1    3    3  502    0 -0.36994746167E+03 -0.21922123550E+03  0.27577365181E+03  0.51087402705E+03  0.46999998093E+01 0.  1.
       -5    1    3    3    0  502  0.36994746167E+03  0.21922123550E+03 -0.11508549346E+04  0.12285797675E+04  0.46999998093E+01 0. -1.
</event>
<event>
 5   0  0.8058234E-04  0.1504470E+04  0.7818609E-02  0.8881486E-01
       -1   -1    0    0    0  501  0.00000000000E+00  0.00000000000E+00  0.13410893716E+04  0.13410893717E+04  0.50400001928E-02 0. -1.
        1   -1    0    0  501    0  0.00000000000E+00  0.00000000000E+00 -0.42193859092E+03  0.42193859095E+03  0.50400001928E-02 0.  1.
    10030    2    1    2    0    0  0.00000000000E+00  0.00000000000E+00  0.91915078072E+03  0.17630279626E+04  0.15044698200E+04 0.  0.
        5    1    3    3  502    0 -0.55072196173E+03  0.50883828957E+03  0.53012277930E+03  0.91829370857E+03  0.46999998093E+01 0.  1.
       -5    1    3    3    0  502  0.55072196173E+03 -0.50883828957E+03  0.38902800143E+03  0.84473425405E+03  0.46999998093E+01 0. -1.
</event>
<event>
 5   0  0.8306301E-04  0.1396776E+04  0.7818609E-02  0.8956156E-01
       -1   -1    0    0    0  501  0.00000000000E+00  0.00000000000E+00  0.35188667428E+03  0.35188667432E+03  0.50400001928E-02 0.  1.
        1   -1    0    0  501    0  0.00000000000E+00  0.00000000000E+00 -0.13860868865E+04  0.13860868865E+04  0.50400001928E-02 0. -1.
    10030    2    1    2    0    0  0.00000000000E+00  0.00000000000E+00 -0.10342002122E+04  0.17379735608E+04  0.13967755794E+04 0.  0.
        4    1    3    3  502    0  0.42574743674E+03  0.29054770541E+03 -0.11034497031E+04  0.12179005333E+04  0.12699999809E+01 0. -1.
       -4    1    3    3    0  502 -0.42574743674E+03 -0.29054770541E+03  0.69249490880E+02  0.52007302746E+03  0.12699999809E+01 0.  1.
</event>
<event>
 5   0  0.1484056E-03  0.1525629E+04  0.7818609E-02  0.8867587E-01
       -2   -1    0    0    0  501  0.00000000000E+00  0.00000000000E+00  0.44999904538E+03  0.44999904539E+03  0.25500000920E-02 0. -1.
        2   -1    0    0  501    0  0.00000000000E+00  0.00000000000E+00 -0.12930823389E+04  0.12930823389E+04  0.25500000920E-02 0.  1.
    10030    2    1    2    0    0  0.00000000000E+00  0.00000000000E+00 -0.84308329348E+03  0.17430813842E+04  0.15256288121E+04 0.  0.
        5    1    3    3  502    0  0.12429634669E+03  0.53832013830E+03 -0.10224592793E+04  0.11621889782E+04  0.46999998093E+01 0. -1.
       -5    1    3    3    0  502 -0.12429634669E+03 -0.53832013830E+03  0.17937598587E+03  0.58089240605E+03  0.46999998093E+01 0.  1.
</event>
<event>
 5   0  0.5603875E-04  0.1501832E+04  0.7818609E-02  0.8883236E-01
       -3   -1    0    0    0  501  0.00000000000E+00  0.00000000000E+00  0.79591136878E+03  0.79591137519E+03  0.10100000352E+00 0. -1.
        3   -1    0    0  501    0  0.00000000000E+00  0.00000000000E+00 -0.70846414283E+03  0.70846415002E+03  0.10100000352E+00 0.  1.
    10030    2    1    2    0    0  0.00000000000E+00  0.00000000000E+00  0.87447225953E+02  0.15043755252E+04  0.15018317827E+04 0.  0.
        2    1    3    3  502    0  0.65225230926E+03 -0.13219052848E+03 -0.30466896898E+03  0.73193619355E+03  0.25500000920E-02 0.  1.
       -2    1    3    3    0  502 -0.65225230926E+03  0.13219052848E+03  0.39211619494E+03  0.77243933166E+03  0.25500000920E-02 0. -1.
</event>
<event>
 5   0  0.1484056E-03  0.1488603E+04  0.7818609E-02  0.8892067E-01
       -2   -1    0    0    0  501  0.00000000000E+00  0.00000000000E+00  0.57813055650E+03  0.57813055651E+03  0.25500000920E-02 0.  1.
        2   -1    0    0  501    0  0.00000000000E+00  0.00000000000E+00 -0.95823522842E+03  0.95823522842E+03  0.25500000920E-02 0. -1.
    10030    2    1    2    0    0  0.00000000000E+00  0.00000000000E+00 -0.38010467191E+03  0.15363657849E+04  0.14886034608E+04 0.  0.
        5    1    3    3  502    0 -0.33235145598E+03 -0.60044745373E+03 -0.48733652040E+03  0.84173250448E+03  0.46999998093E+01 0. -1.
       -5    1    3    3    0  502  0.33235145598E+03  0.60044745373E+03  0.10723184849E+03  0.69463328045E+03  0.46999998093E+01 0.  1.
</event>
<event>
 5   0  0.1500956E-03  0.1487125E+04  0.7818609E-02  0.8893060E-01
        2   -1    0    0  501    0  0.00000000000E+00  0.00000000000E+00  0.10133436073E+04  0.10133436073E+04  0.25500000920E-02 0.  1.
       -2   -1    0    0    0  501  0.00000000000E+00  0.00000000000E+00 -0.54560453700E+03  0.54560453700E+03  0.25500000920E-02 0. -1.
    10030    2    1    2    0    0  0.00000000000E+00  0.00000000000E+00  0.46773907033E+03  0.15589481443E+04  0.14871245674E+04 0.  0.
        4    1    3    3  502    0 -0.24821089706E+03  0.70077603472E+03  0.24822609665E+03  0.78378154368E+03  0.12699999809E+01 0.  1.
       -4    1    3    3    0  502  0.24821089706E+03 -0.70077603472E+03  0.21951297369E+03  0.77516660066E+03  0.12699999809E+01 0. -1.
</event>
<event>
 5   0  0.1511546E-03  0.1484555E+04  0.7818609E-02  0.8894789E-01
        2   -1    0    0  501    0  0.00000000000E+00  0.00000000000E+00  0.25238047032E+04  0.25238047032E+04  0.25500000920E-02 0. -1.
       -2   -1    0    0    0  501  0.00000000000E+00  0.00000000000E+00 -0.21831167709E+03  0.21831167710E+03  0.25500000920E-02 0.  1.
    10030    2    1    2    0    0  0.00000000000E+00  0.00000000000E+00  0.23054930261E+04  0.27421163803E+04  0.14845552026E+04 0.  0.
        1    1    3    3  502    0 -0.12389609139E+03 -0.59910141036E+03  0.19291935858E+04  0.20238726820E+04  0.50400001928E-02 0. -1.
       -1    1    3    3    0  502  0.12389609139E+03  0.59910141036E+03  0.37629944027E+03  0.71824369829E+03  0.50400001928E-02 0.  1.
</event>
<event>
 5   0  0.1511546E-03  0.1484954E+04  0.7818609E-02  0.8894520E-01
       -2   -1    0    0    0  501  0.00000000000E+00  0.00000000000E+00  0.37154080425E+03  0.37154080426E+03  0.25500000920E-02 0.  1.
        2   -1    0    0  501    0  0.00000000000E+00  0.00000000000E+00 -0.14837466651E+04  0.14837466651E+04  0.25500000920E-02 0. -1.
    10030    2    1    2    0    0  0.00000000000E+00  0.00000000000E+00 -0.11122058608E+04  0.18552874693E+04  0.14849544495E+04 0.  0.
        1    1    3    3  502    0 -0.45055980542E+03  0.82798489960E+02 -0.12861282382E+04  0.13652785698E+04  0.50400001928E-02 0. -1.
       -1    1    3    3    0  502  0.45055980542E+03 -0.82798489960E+02  0.17392237737E+03  0.49000889949E+03  0.50400001928E-02 0.  1.
</event>
<event>
 5   0  0.8191876E-04  0.1512077E+04  0.7818609E-02  0.8876461E-01
        1   -1    0    0  501    0  0.00000000000E+00  0.00000000000E+00  0.10904536569E+04  0.10904536569E+04  0.50400001928E-02 0. -1.
       -1   -1    0    0    0  501  0.00000000000E+00  0.00000000000E+00 -0.52418009879E+03  0.52418009881E+03  0.50400001928E-02 0.  1.
    10030    2    1    2    0    0  0.00000000000E+00  0.00000000000E+00  0.56627355809E+03  0.16146337557E+04  0.15120768573E+04 0.  0.
        2    1    3    3  502    0  0.79282149819E+02  0.52152671213E+03  0.86145884958E+03  0.10101421287E+04  0.25500000920E-02 0. -1.
       -2    1    3    3    0  502 -0.79282149819E+02 -0.52152671213E+03 -0.29518529149E+03  0.60449162696E+03  0.25500000920E-02 0.  1.
</event>
<event>
 5   0  0.1511546E-03  0.1577758E+04  0.7818609E-02  0.8834330E-01
       -2   -1    0    0    0  501  0.00000000000E+00  0.00000000000E+00  0.75305279229E+03  0.75305279229E+03  0.25500000920E-02 0. -1.
        2   -1    0    0  501    0  0.00000000000E+00  0.00000000000E+00 -0.82641012822E+03  0.82641012822E+03  0.25500000920E-02 0.  1.
    10030    2    1    2    0    0  0.00000000000E+00  0.00000000000E+00 -0.73357335929E+02  0.15794629205E+04  0.15777584791E+04 0.  0.
        1    1    3    3  502    0  0.20314303482E+03 -0.10179972020E+03 -0.79294177811E+03  0.82485570806E+03  0.50400001928E-02 0.  1.
       -1    1    3    3    0  502 -0.20314303482E+03  0.10179972020E+03  0.71958444218E+03  0.75460721245E+03  0.50400001928E-02 0. -1.
</event>
<event>
 5   0  0.8058234E-04  0.1502293E+04  0.7818609E-02  0.8882929E-01
       -1   -1    0    0    0  501  0.00000000000E+00  0.00000000000E+00  0.98818288540E+03  0.98818288541E+03  0.50400001928E-02 0. -1.
        1   -1    0    0  501    0  0.00000000000E+00  0.00000000000E+00 -0.57096837407E+03  0.57096837409E+03  0.50400001928E-02 0.  1.
    10030    2    1    2    0    0  0.00000000000E+00  0.00000000000E+00  0.41721451133E+03  0.15591512595E+04  0.15022931477E+04 0.  0.
        5    1    3    3  502    0 -0.28106011852E+02 -0.67778837365E+03  0.54332243523E+03  0.86914232780E+03  0.46999998093E+01 0. -1.
       -5    1    3    3    0  502  0.28106011852E+02  0.67778837365E+03 -0.12610792391E+03  0.69000893170E+03  0.46999998093E+01 0.  1.
</event>
<event>
 5   0  0.8365016E-04  0.1463089E+04  0.7818609E-02  0.8909376E-01
       -1   -1    0    0    0  501  0.00000000000E+00  0.00000000000E+00  0.29897183717E+03  0.29897183721E+03  0.50400001928E-02 0.  1.
        1   -1    0    0  501    0  0.00000000000E+00  0.00000000000E+00 -0.17899926444E+04  0.17899926444E+04  0.50400001928E-02 0. -1.
    10030    2    1    2    0    0  0.00000000000E+00  0.00000000000E+00 -0.14910208072E+04  0.20889644816E+04  0.14630890464E+04 0.  0.
        3    1    3    3  502    0 -0.62510423452E+02 -0.47182913194E+03 -0.15387005736E+04  0.16106302333E+04  0.10100000352E+00 0. -1.
       -3    1    3    3    0  502  0.62510423452E+02  0.47182913194E+03  0.47679766445E+02  0.47833424832E+03  0.10100000352E+00 0.  1.
</event>
<event>
 5   0  0.1500956E-03  0.1498350E+04  0.7818609E-02  0.8885551E-01
        2   -1    0    0  501    0  0.00000000000E+00  0.00000000000E+00  0.14675012014E+04  0.14675012014E+04  0.25500000920E-02 0. -1.
       -2   -1    0    0    0  501  0.00000000000E+00  0.00000000000E+00 -0.38246191302E+03  0.38246191303E+03  0.25500000920E-02 0.  1.
    10030    2    1    2    0    0  0.00000000000E+00  0.00000000000E+00  0.10850392884E+04  0.18499631145E+04  0.14983501819E+04 0.  0.
        4    1    3    3  502    0  0.11598916801E+03 -0.33076034631E+03 -0.27498060742E+03  0.44550178579E+03  0.12699999809E+01 0.  1.
       -4    1    3    3    0  502 -0.11598916801E+03  0.33076034631E+03  0.13600198958E+04  0.14044613287E+04  0.12699999809E+01 0. -1.
</event>
<event>
 5   0  0.7870317E-04  0.1502551E+04  0.7818609E-02  0.8882758E-01
        1   -1    0    0  501    0  0.00000000000E+00  0.00000000000E+00  0.53851193720E+03  0.53851193723E+03  0.50400001928E-02 0. -1.
       -1   -1    0    0    0  501  0.00000000000E+00  0.00000000000E+00 -0.10481007891E+04  0.10481007891E+04  0.50400001928E-02 0.  1.
    10030    2    1    2    0    0  0.00000000000E+00  0.00000000000E+00 -0.50958885190E+03  0.15866127263E+04  0.15025508795E+04 0.  0.
        1    1    3    3  502    0 -0.40492669107E+03  0.63156410003E+03 -0.29671360715E+03  0.80676998102E+03  0.50400001928E-02 0.  1.
       -1    1    3    3    0  502  0.40492669107E+03 -0.63156410003E+03 -0.21287524475E+03  0.77984274532E+03  0.50400001928E-02 0. -1.
</event>
<event>
 5   0  0.1552067E-03  0.1503782E+04  0.7818609E-02  0.8881942E-01
        2   -1    0    0  501    0  0.00000000000E+00  0.00000000000E+00  0.21578139356E+04  0.21578139356E+04  0.25500000920E-02 0.  1.
       -2   -1    0    0    0  501  0.00000000000E+00  0.00000000000E+00 -0.26199675936E+03  0.26199675937E+03  0.25500000920E-02 0. -1.
    10030    2    1    2    0    0  0.00000000000E+00  0.00000000000E+00  0.18958171762E+04  0.24198106949E+04  0.15037822428E+04 0.  0.
        3    1    3    3  502    0  0.16337051004E+03  0.36333494300E+03 -0.78216824770E+02  0.40598040129E+03  0.10100000352E+00 0. -1.
       -3    1    3    3    0  502 -0.16337051004E+03 -0.36333494300E+03  0.19740340010E+04  0.20138302936E+04  0.10100000352E+00 0.  1.
</event>
<event>
 5   0  0.1552067E-03  0.1513631E+04  0.7818609E-02  0.8875439E-01
       -2   -1    0    0    0  501  0.00000000000E+00  0.00000000000E+00  0.84952802240E+03  0.84952802240E+03  0.25500000920E-02 0.  1.
        2   -1    0    0  501    0  0.00000000000E+00  0.00000000000E+00 -0.67422123143E+03  0.67422123143E+03  0.25500000920E-02 0. -1.
    10030    2    1    2    0    0  0.00000000000E+00  0.00000000000E+00  0.17530679097E+03  0.15237492538E+04  0.15136311696E+04 0.  0.
        3    1    3    3  502    0 -0.44977379275E+03 -0.61876252813E+02  0.69721294546E+03  0.83200422885E+03  0.10100000352E+00 0.  1.
       -3    1    3    3    0  502  0.44977379275E+03  0.61876252813E+02 -0.52190615448E+03  0.69174502499E+03  0.10100000352E+00 0. -1.
</event>
<event>
 5   0  0.1552067E-03  0.1521226E+04  0.7818609E-02  0.8870460E-01
        2   -1    0    0  501    0  0.00000000000E+00  0.00000000000E+00  0.17880367529E+04  0.17880367529E+04  0.25500000920E-02 0.  1.
       -2   -1    0    0    0  501  0.00000000000E+00  0.00000000000E+00 -0.32355702346E+03  0.32355702347E+03  0.25500000920E-02 0. -1.
    10030    2    1    2    0    0  0.00000000000E+00  0.00000000000E+00  0.14644797294E+04  0.21115937764E+04  0.15212256238E+04 0.  0.
        3    1    3    3  502    0 -0.60763696904E+03  0.30828288962E+03  0.12014683840E+04  0.13812267425E+04  0.10100000352E+00 0.  1.
       -3    1    3    3    0  502  0.60763696904E+03 -0.30828288962E+03  0.26301134545E+03  0.73036703390E+03  0.10100000352E+00 0. -1.
</event>
<event>
 5   0  0.8191876E-04  0.1495007E+04  0.7818609E-02  0.8887780E-01
       -1   -1    0    0    0  501  0.00000000000E+00  0.00000000000E+00  0.36143124075E+03  0.36143124078E+03  0.50400001928E-02 0. -1.
        1   -1    0    0  501    0  0.00000000000E+00  0.00000000000E+00 -0.15459699905E+04  0.15459699905E+04  0.50400001928E-02 0.  1.
    10030    2    1    2    0    0  0.00000000000E+00  0.00000000000E+00 -0.11845387497E+04  0.19074012313E+04  0.14950074941E+04 0.  0.
        2    1    3    3  502    0 -0.59833997477E+03  0.41963127347E+03 -0.39191373506E+03  0.82927529013E+03  0.25500000920E-02 0.  1.
       -2    1    3    3    0  502  0.59833997477E+03 -0.41963127347E+03 -0.79262501468E+03  0.10781259412E+04  0.25500000920E-02 0. -1.
</event>
<event>
 5   0  0.1484056E-03  0.1534812E+04  0.7818609E-02  0.8861628E-01
        2   -1    0    0  501    0  0.00000000000E+00  0.00000000000E+00  0.13208178308E+04  0.13208178308E+04  0.25500000920E-02 0. -1.
       -2   -1    0    0    0  501  0.00000000000E+00  0.00000000000E+00 -0.44586928271E+03  0.44586928272E+03  0.25500000920E-02 0.  1.
    10030    2    1    2    0    0  0.00000000000E+00  0.00000000000E+00  0.87494854804E+03  0.17666871135E+04  0.15348121694E+04 0.  0.
        5    1    3    3  502    0  0.28301955569E+03 -0.66815312416E+03  0.15002439152E+03  0.74098453039E+03  0.46999998093E+01 0.  1.
       -5    1    3    3    0  502 -0.28301955569E+03  0.66815312416E+03  0.72492415652E+03  0.10257025831E+04  0.46999998093E+01 0. -1.
</event>
<event>
 5   0  0.1484056E-03  0.1515955E+04  0.7818609E-02  0.8873912E-01
       -2   -1    0    0    0  501  0.00000000000E+00  0.00000000000E+00  0.10442075430E+04  0.10442075430E+04  0.25500000920E-02 0.  1.
        2   -1    0    0  501    0  0.00000000000E+00  0.00000000000E+00 -0.55020666406E+03  0.55020666406E+03  0.25500000920E-02 0. -1.
    10030    2    1    2    0    0  0.00000000000E+00  0.00000000000E+00  0.49400087893E+03  0.15944142071E+04  0.15159550769E+04 0.  0.
        5    1    3    3  502    0 -0.28797741226E+03  0.40124204199E+03  0.85172028744E+03  0.98456879103E+03  0.46999998093E+01 0.  1.
       -5    1    3    3    0  502  0.28797741226E+03 -0.40124204199E+03 -0.35771940850E+03  0.60984541603E+03  0.46999998093E+01 0. -1.
</event>
<event>
 5   0  0.1500956E-03  0.1484884E+04  0.7818609E-02  0.8894567E-01
       -2   -1    0    0    0  501  0.00000000000E+00  0.00000000000E+00  0.13887726943E+04  0.13887726943E+04  0.25500000920E-02 0.  1.
        2   -1    0    0  501    0  0.00000000000E+00  0.00000000000E+00 -0.39691175474E+03  0.39691175475E+03  0.25500000920E-02 0. -1.
    10030    2    1    2    0    0  0.00000000000E+00  0.00000000000E+00  0.99186093958E+03  0.17856844491E+04  0.14848841127E+04 0.  0.
        4    1    3    3  502    0  0.25144565700E+03 -0.20631202989E+03 -0.30667369870E+03  0.44703460993E+03  0.12699999809E+01 0. -1.
       -4    1    3    3    0  502 -0.25144565700E+03  0.20631202989E+03  0.12985346383E+04  0.13386498391E+04  0.12699999809E+01 0.  1.
</event>
<event>
 5   0  0.1500956E-03  0.1460032E+04  0.7818609E-02  0.8911475E-01
       -2   -1    0    0    0  501  0.00000000000E+00  0.00000000000E+00  0.10839445545E+04  0.10839445545E+04  0.25500000920E-02 0. -1.
        2   -1    0    0  501    0  0.00000000000E+00  0.00000000000E+00 -0.49165215839E+03  0.49165215839E+03  0.25500000920E-02 0.  1.
    10030    2    1    2    0    0  0.00000000000E+00  0.00000000000E+00  0.59229239615E+03  0.15755967129E+04  0.14600324377E+04 0.  0.
        4    1    3    3  502    0 -0.49619436157E+03  0.40943749991E+03  0.66853045957E+03  0.92778364884E+03  0.12699999809E+01 0. -1.
       -4    1    3    3    0  502  0.49619436157E+03 -0.40943749991E+03 -0.76238063416E+02  0.64781306409E+03  0.12699999809E+01 0.  1.
</event>
<event>
 5   0  0.8191876E-04  0.1535517E+04  0.7818609E-02  0.8861172E-01
       -1   -1    0    0    0  501  0.00000000000E+00  0.00000000000E+00  0.85577600226E+03  0.85577600228E+03  0.50400001928E-02 0.  1.
        1   -1    0    0  501    0  0.00000000000E+00  0.00000000000E+00 -0.68879351304E+03  0.68879351305E+03  0.50400001928E-02 0. -1.
    10030    2    1    2    0    0  0.00000000000E+00  0.00000000000E+00  0.16698248923E+03  0.15445695153E+04  0.15355167977E+04 0.  0.
        2    1    3    3  502    0  0.69464593052E+03  0.19774993825E+03 -0.17845707515E+03  0.74396568102E+03  0.25500000920E-02 0.  1.
       -2    1    3    3    0  502 -0.69464593052E+03 -0.19774993825E+03  0.34543956438E+03  0.80060383431E+03  0.25500000920E-02 0. -1.
</event>
<event>
 5   0  0.1552067E-03  0.1441712E+04  0.7818609E-02  0.8924167E-01
       -2   -1    0    0    0  501  0.00000000000E+00  0.00000000000E+00  0.36689563505E+03  0.36689563506E+03  0.25500000920E-02 0.  1.
        2   -1    0    0  501    0  0.00000000000E+00  0.00000000000E+00 -0.14162974993E+04  0.14162974993E+04  0.25500000920E-02 0. -1.
    10030    2    1    2    0    0  0.00000000000E+00  0.00000000000E+00 -0.10494018642E+04  0.17831931343E+04  0.14417119968E+04 0.  0.
        3    1    3    3  502    0 -0.19553996608E+03  0.45840566086E+03 -0.11688911656E+04  0.12706998841E+04  0.10100000352E+00 0. -1.
       -3    1    3    3    0  502  0.19553996608E+03 -0.45840566086E+03  0.11948930133E+03  0.51249325028E+03  0.10100000352E+00 0.  1.
</event>
<event>
 5   0  0.8306301E-04  0.1483108E+04  0.7818609E-02  0.8895764E-01
       -1   -1    0    0    0  501  0.00000000000E+00  0.00000000000E+00  0.25123365295E+03  0.25123365300E+03  0.50400001928E-02 0.  1.
        1   -1    0    0  501    0  0.00000000000E+00  0.00000000000E+00 -0.21888073855E+04  0.21888073855E+04  0.50400001928E-02 0. -1.
    10030    2    1    2    0    0  0.00000000000E+00  0.00000000000E+00 -0.19375737326E+04  0.24400410385E+04  0.14831076497E+04 0.  0.
        4    1    3    3  502    0  0.31163601687E+03 -0.47859364300E+03 -0.17469812653E+04  0.18379646450E+04  0.12699999809E+01 0. -1.
       -4    1    3    3    0  502 -0.31163601687E+03  0.47859364300E+03 -0.19059246725E+03  0.60207639349E+03  0.12699999809E+01 0.  1.
</event>
<event>
 5   0  0.1511546E-03  0.1442201E+04  0.7818609E-02  0.8923825E-01
       -2   -1    0    0    0  501  0.00000000000E+00  0.00000000000E+00  0.27784333662E+03  0.27784333663E+03  0.25500000920E-02 0.  1.
        2   -1    0    0  501    0  0.00000000000E+00  0.00000000000E+00 -0.18715088897E+04  0.18715088897E+04  0.25500000920E-02 0. -1.
    10030    2    1    2    0    0  0.00000000000E+00  0.00000000000E+00 -0.15936655531E+04  0.21493522263E+04  0.14422014761E+04 0.  0.
        1    1    3    3  502    0 -0.18909812323E+02  0.16357849672E+03 -0.18431134102E+04  0.18504546870E+04  0.50400001928E-02 0. -1.
       -1    1    3    3    0  502  0.18909812323E+02 -0.16357849672E+03  0.24944785713E+03  0.29889753937E+03  0.50400001928E-02 0.  1.
</event>
<event>
 5   0  0.1526126E-03  0.1531330E+04  0.7818609E-02  0.8863882E-01
       -2   -1    0    0    0  501  0.00000000000E+00  0.00000000000E+00  0.75163643272E+03  0.75163643273E+03  0.25500000920E-02 0. -1.
        2   -1    0    0  501    0  0.00000000000E+00  0.00000000000E+00 -0.77995534865E+03  0.77995534865E+03  0.25500000920E-02 0.  1.
    10030    2    1    2    0    0  0.00000000000E+00  0.00000000000E+00 -0.28318915928E+02  0.15315917814E+04  0.15313299526E+04 0.  0.
        2    1    3    3  502    0  0.70708817728E+02 -0.46243794186E+03 -0.62039366584E+03  0.77700507565E+03  0.25500000920E-02 0.  1.
       -2    1    3    3    0  502 -0.70708817728E+02  0.46243794186E+03  0.59207474991E+03  0.75458670573E+03  0.25500000920E-02 0. -1.
</event>
<event>
 5   0  0.8306301E-04  0.1486159E+04  0.7818609E-02  0.8893710E-01
        1   -1    0    0  501    0  0.00000000000E+00  0.00000000000E+00  0.85897608324E+03  0.85897608326E+03  0.50400001928E-02 0. -1.
       -1   -1    0    0    0  501  0.00000000000E+00  0.00000000000E+00 -0.64281973958E+03  0.64281973960E+03  0.50400001928E-02 0.  1.
    10030    2    1    2    0    0  0.00000000000E+00  0.00000000000E+00  0.21615634367E+03  0.15017958229E+04  0.14861585140E+04 0.  0.
        4    1    3    3  502    0 -0.25168865357E+03 -0.78782295486E+02  0.81009014575E+03  0.85193983682E+03  0.12699999809E+01 0. -1.
       -4    1    3    3    0  502  0.25168865357E+03  0.78782295486E+02 -0.59393380209E+03  0.64985598603E+03  0.12699999809E+01 0.  1.
</event>
<event>
 5   0  0.8191876E-04  0.1484554E+04  0.7818609E-02  0.8894790E-01
       -1   -1    0    0    0  501  0.00000000000E+00  0.00000000000E+00  0.30045862868E+03  0.30045862872E+03  0.50400001928E-02 0. -1.
        1   -1    0    0  501    0  0.00000000000E+00  0.00000000000E+00 -0.18337810079E+04  0.18337810079E+04  0.50400001928E-02 0.  1.
    10030    2    1    2    0    0  0.00000000000E+00  0.00000000000E+00 -0.15333223792E+04  0.21342396366E+04  0.14845542455E+04 0.  0.
        2    1    3    3  502    0  0.16317825303E+03 -0.10307677547E+03  0.26375285244E+03  0.32682951378E+03  0.25500000920E-02 0. -1.
       -2    1    3    3    0  502 -0.16317825303E+03  0.10307677547E+03 -0.17970752316E+04  0.18074101228E+04  0.25500000920E-02 0.  1.
</event>
<event>
 5   0  0.1500956E-03  0.1500029E+04  0.7818609E-02  0.8884434E-01
       -2   -1    0    0    0  501  0.00000000000E+00  0.00000000000E+00  0.47526093010E+03  0.47526093010E+03  0.25500000920E-02 0. -1.
        2   -1    0    0  501    0  0.00000000000E+00  0.00000000000E+00 -0.11836055099E+04  0.11836055099E+04  0.25500000920E-02 0.  1.
    10030    2    1    2    0    0  0.00000000000E+00  0.00000000000E+00 -0.70834457984E+03  0.16588664400E+04  0.15000286071E+04 0.  0.
        4    1    3    3  502    0 -0.58340496997E+03  0.22927602550E+03  0.10124893226E+03  0.63496599440E+03  0.12699999809E+01 0. -1.
       -4    1    3    3    0  502  0.58340496997E+03 -0.22927602550E+03 -0.80959351210E+03  0.10239004456E+04  0.12699999809E+01 0.  1.
</event>
<event>
 5   0  0.1500956E-03  0.1529444E+04  0.7818609E-02  0.8865106E-01
       -2   -1    0    0    0  501  0.00000000000E+00  0.00000000000E+00  0.56004492218E+03  0.56004492218E+03  0.25500000920E-02 0.  1.
        2   -1    0    0  501    0  0.00000000000E+00  0.00000000000E+00 -0.10442009006E+04  0.10442009006E+04  0.25500000920E-02 0. -1.
    10030    2    1    2    0    0  0.00000000000E+00  0.00000000000E+00 -0.48415597839E+03  0.16042458227E+04  0.15294435748E+04 0.  0.
        4    1    3    3  502    0  0.49465616798E+03 -0.17040261784E+03  0.34294202824E+03  0.62556584331E+03  0.12699999809E+01 0. -1.
       -4    1    3    3    0  502 -0.49465616798E+03  0.17040261784E+03 -0.82709800663E+03  0.97867997944E+03  0.12699999809E+01 0.  1.
</event>
<event>
 5   0  0.8306301E-04  0.1530973E+04  0.7818609E-02  0.8864114E-01
       -1   -1    0    0    0  501  0.00000000000E+00  0.00000000000E+00  0.73873716269E+03  0.73873716271E+03  0.50400001928E-02 0. -1.
        1   -1    0    0  501    0  0.00000000000E+00  0.00000000000E+00 -0.79320392579E+03  0.79320392580E+03  0.50400001928E-02 0.  1.
    10030    2    1    2    0    0  0.00000000000E+00  0.00000000000E+00 -0.54466763094E+02  0.15319410885E+04  0.15309725244E+04 0.  0.
        4    1    3    3  502    0 -0.49458543382E+02  0.10347383856E+03  0.73009061075E+03  0.73904458295E+03  0.12699999809E+01 0. -1.
       -4    1    3    3    0  502  0.49458543382E+02 -0.10347383856E+03 -0.78455737385E+03  0.79289650556E+03  0.12699999809E+01 0.  1.
</event>
<event>
 5   0  0.8191876E-04  0.1483545E+04  0.7818609E-02  0.8895470E-01
        1   -1    0    0  501    0  0.00000000000E+00  0.00000000000E+00  0.16392380737E+04  0.16392380737E+04  0.50400001928E-02 0.  1.
       -1   -1    0    0    0  501  0.00000000000E+00  0.00000000000E+00 -0.33565993285E+03  0.33565993289E+03  0.50400001928E-02 0. -1.
    10030    2    1    2    0    0  0.00000000000E+00  0.00000000000E+00  0.13035781409E+04  0.19748980066E+04  0.14835451349E+04 0.  0.
        2    1    3    3  502    0 -0.64884528802E+03  0.21233630593E+03  0.10379285434E+04  0.12423294957E+04  0.25500000920E-02 0.  1.
       -2    1    3    3    0  502  0.64884528802E+03 -0.21233630593E+03  0.26564959750E+03  0.73256851097E+03  0.25500000920E-02 0. -1.
</event>
<event>
 5   0  0.1484056E-03  0.1539596E+04  0.7818609E-02  0.8858541E-01
       -2   -1    0    0    0  501  0.00000000000E+00  0.00000000000E+00  0.48086956552E+03  0.48086956553E+03  0.25500000920E-02 0. -1.
        2   -1    0    0  501    0  0.00000000000E+00  0.00000000000E+00 -0.12323282299E+04  0.12323282299E+04  0.25500000920E-02 0.  1.
    10030    2    1    2    0    0  0.00000000000E+00  0.00000000000E+00 -0.75145866442E+03  0.17131977955E+04  0.15395962335E+04 0.  0.
        5    1    3    3  502    0  0.34596044187E+03  0.30316003240E+03  0.31109778578E+03  0.55533643397E+03  0.46999998093E+01 0. -1.
       -5    1    3    3    0  502 -0.34596044187E+03 -0.30316003240E+03 -0.10625564502E+04  0.11578613615E+04  0.46999998093E+01 0.  1.
</event>
<event>
 5   0  0.5603875E-04  0.1512082E+04  0.7818609E-02  0.8876458E-01
        4   -1    0    0  501    0  0.00000000000E+00  0.00000000000E+00  0.10926447583E+04  0.10926454964E+04  0.12699999809E+01 0.  1.
       -4   -1    0    0    0  501  0.00000000000E+00  0.00000000000E+00 -0.52313049973E+03  0.52313204131E+03  0.12699999809E+01 0. -1.
    10030    2    1    2    0    0  0.00000000000E+00  0.00000000000E+00  0.56951425857E+03  0.16157775377E+04  0.15120815324E+04 0.  0.
        2    1    3    3  502    0  0.64900322113E+03 -0.16859038919E+03 -0.88434939793E+02  0.67634949468E+03  0.25500000920E-02 0. -1.
       -2    1    3    3    0  502 -0.64900322113E+03  0.16859038919E+03  0.65794919836E+03  0.93942804301E+03  0.25500000920E-02 0.  1.
</event>
<event>
 5   0  0.8058234E-04  0.1504050E+04  0.7818609E-02  0.8881764E-01
        1   -1    0    0  501    0  0.00000000000E+00  0.00000000000E+00  0.18946403376E+04  0.18946403376E+04  0.50400001928E-02 0. -1.
       -1   -1    0    0    0  501  0.00000000000E+00  0.00000000000E+00 -0.29849531085E+03  0.29849531089E+03  0.50400001928E-02 0.  1.
    10030    2    1    2    0    0  0.00000000000E+00  0.00000000000E+00  0.15961450267E+04  0.21931356485E+04  0.15040495425E+04 0.  0.
        5    1    3    3  502    0 -0.52478723970E+03  0.51595725909E+03  0.10235241625E+04  0.12606495712E+04  0.46999998093E+01 0. -1.
       -5    1    3    3    0  502  0.52478723970E+03 -0.51595725909E+03  0.57262086421E+03  0.93248607726E+03  0.46999998093E+01 0.  1.
</event>
<event>
 5   0  0.1526126E-03  0.1495819E+04  0.7818609E-02  0.8887238E-01
       -2   -1    0    0    0  501  0.00000000000E+00  0.00000000000E+00  0.41924779674E+03  0.41924779675E+03  0.25500000920E-02 0. -1.
        2   -1    0    0  501    0  0.00000000000E+00  0.00000000000E+00 -0.13342190826E+04  0.13342190826E+04  0.25500000920E-02 0.  1.
    10030    2    1    2    0    0  0.00000000000E+00  0.00000000000E+00 -0.91497128588E+03  0.17534668794E+04  0.14958187200E+04 0.  0.
        2    1    3    3  502    0 -0.50686712432E+03 -0.15486232600E+02  0.18694489468E+03  0.54046507637E+03  0.25500000920E-02 0. -1.
       -2    1    3    3    0  502  0.50686712432E+03  0.15486232600E+02 -0.11019161806E+04  0.12130018030E+04  0.25500000920E-02 0.  1.
</event>
<event>
 5   0  0.8306301E-04  0.1494681E+04  0.7818609E-02  0.8887997E-01
        1   -1    0    0  501    0  0.00000000000E+00  0.00000000000E+00  0.11489292689E+04  0.11489292689E+04  0.50400001928E-02 0. -1.
       -1   -1    0    0    0  501  0.00000000000E+00  0.00000000000E+00 -0.48612055091E+03  0.48612055094E+03  0.50400001928E-02 0.  1.
    10030    2    1    2    0    0  0.00000000000E+00  0.00000000000E+00  0.66280871795E+03  0.16350498198E+04  0.14946814098E+04 0.  0.
        4    1    3    3  502    0 -0.39773431398E+03  0.15271284072E+03  0.10030722678E+04  0.10898024516E+04  0.12699999809E+01 0. -1.
       -4    1    3    3    0  502  0.39773431398E+03 -0.15271284072E+03 -0.34026354986E+03  0.54524736818E+03  0.12699999809E+01 0.  1.
</event>
<event>
 5   0  0.1552067E-03  0.1485825E+04  0.7818609E-02  0.8893934E-01
       -2   -1    0    0    0  501  0.00000000000E+00  0.00000000000E+00  0.68699156518E+03  0.68699156519E+03  0.25500000920E-02 0. -1.
        2   -1    0    0  501    0  0.00000000000E+00  0.00000000000E+00 -0.80338503404E+03  0.80338503404E+03  0.25500000920E-02 0.  1.
    10030    2    1    2    0    0  0.00000000000E+00  0.00000000000E+00 -0.11639346885E+03  0.14903765992E+04  0.14858246760E+04 0.  0.
        3    1    3    3  502    0 -0.16971389573E+03 -0.11795235040E+03  0.65757411115E+03  0.68928897077E+03  0.10100000352E+00 0. -1.
       -3    1    3    3    0  502  0.16971389573E+03  0.11795235040E+03 -0.77396758001E+03  0.80108762846E+03  0.10100000352E+00 0.  1.
</event>
<event>
 5   0  0.5603875E-04  0.1565345E+04  0.7818609E-02  0.8842125E-01
        4   -1    0    0  501    0  0.00000000000E+00  0.00000000000E+00  0.93903632413E+03  0.93903718294E+03  0.12699999809E+01 0. -1.
       -4   -1    0    0    0  501  0.00000000000E+00  0.00000000000E+00 -0.65234409370E+03  0.65234532993E+03  0.12699999809E+01 0.  1.
    10030    2    1    2    0    0  0.00000000000E+00  0.00000000000E+00  0.28669223044E+03  0.15913825129E+04  0.15653452869E+04 0.  0.
        1    1    3    3  502    0  0.62286877406E+03 -0.26958721844E+03 -0.25292413807E+03  0.72430200724E+03  0.50400001928E-02 0.  1.
       -1    1    3    3    0  502 -0.62286877406E+03  0.26958721844E+03  0.53961636850E+03  0.86708050562E+03  0.50400001928E-02 0. -1.
</event>
<event>
 5   0  0.1526126E-03  0.1505624E+04  0.7818609E-02  0.8880721E-01
       -2   -1    0    0    0  501  0.00000000000E+00  0.00000000000E+00  0.58690225435E+03  0.58690225436E+03  0.25500000920E-02 0. -1.
        2   -1    0    0  501    0  0.00000000000E+00  0.00000000000E+00 -0.96562283563E+03  0.96562283563E+03  0.25500000920E-02 0.  1.
    10030    2    1    2    0    0  0.00000000000E+00  0.00000000000E+00 -0.37872058128E+03  0.15525250900E+04  0.15056244141E+04 0.  0.
        2    1    3    3  502    0  0.15444843194E+03 -0.67809727887E+03 -0.48653198202E+03  0.84875415008E+03  0.25500000920E-02 0. -1.
       -2    1    3    3    0  502 -0.15444843194E+03  0.67809727887E+03  0.10781140075E+03  0.70377093992E+03  0.25500000920E-02 0.  1.
</event>
<event>
 5   0  0.8365016E-04  0.1526405E+04  0.7818609E-02  0.8867081E-01
        1   -1    0    0  501    0  0.00000000000E+00  0.00000000000E+00  0.49330976387E+03  0.49330976389E+03  0.50400001928E-02 0.  1.
       -1   -1    0    0    0  501  0.00000000000E+00  0.00000000000E+00 -0.11807556017E+04  0.11807556017E+04  0.50400001928E-02 0. -1.
    10030    2    1    2    0    0  0.00000000000E+00  0.00000000000E+00 -0.68744583787E+03  0.16740653656E+04  0.15264052766E+04 0.  0.
        3    1    3    3  502    0 -0.35473290925E+03  0.67143226279E+03 -0.42740285979E+03  0.87139539543E+03  0.10100000352E+00 0. -1.
       -3    1    3    3    0  502  0.35473290925E+03 -0.67143226279E+03 -0.26004297808E+03  0.80266997021E+03  0.10100000352E+00 0.  1.
</event>
<event>
 5   0  0.1526126E-03  0.1598180E+04  0.7818609E-02  0.8821667E-01
       -2   -1    0    0    0  501  0.00000000000E+00  0.00000000000E+00  0.29222313174E+03  0.29222313175E+03  0.25500000920E-02 0.  1.
        2   -1    0    0  501    0  0.00000000000E+00  0.00000000000E+00 -0.21851284873E+04  0.21851284873E+04  0.25500000920E-02 0. -1.
    10030    2    1    2    0    0  0.00000000000E+00  0.00000000000E+00 -0.18929053556E+04  0.24773516191E+04  0.15981803275E+04 0.  0.
        2    1    3    3  502    0 -0.46503578319E+02 -0.53882182238E+03 -0.34581421463E+02  0.54192934391E+03  0.25500000920E-02 0.  1.
       -2    1    3    3    0  502  0.46503578319E+02  0.53882182238E+03 -0.18583239341E+04  0.19354222752E+04  0.25500000920E-02 0. -1.
</event>
<event>
 5   0  0.8058234E-04  0.1496497E+04  0.7818609E-02  0.8886786E-01
        1   -1    0    0  501    0  0.00000000000E+00  0.00000000000E+00  0.78649433874E+03  0.78649433875E+03  0.50400001928E-02 0.  1.
       -1   -1    0    0    0  501  0.00000000000E+00  0.00000000000E+00 -0.71186201855E+03  0.71186201857E+03  0.50400001928E-02 0. -1.
    10030    2    1    2    0    0  0.00000000000E+00  0.00000000000E+00  0.74632320182E+02  0.14983563573E+04  0.14964965053E+04 0.  0.
        5    1    3    3  502    0 -0.68599336066E+03  0.27604597977E+03  0.15176081320E+03  0.75487860497E+03  0.46999998093E+01 0.  1.
       -5    1    3    3    0  502  0.68599336066E+03 -0.27604597977E+03 -0.77128493023E+02  0.74347775236E+03  0.46999998093E+01 0. -1.
</event>
<event>
 5   0  0.8306301E-04  0.1476304E+04  0.7818609E-02  0.8900365E-01
        1   -1    0    0  501    0  0.00000000000E+00  0.00000000000E+00  0.21620911136E+04  0.21620911136E+04  0.50400001928E-02 0. -1.
       -1   -1    0    0    0  501  0.00000000000E+00  0.00000000000E+00 -0.25200982365E+03  0.25200982370E+03  0.50400001928E-02 0.  1.
    10030    2    1    2    0    0  0.00000000000E+00  0.00000000000E+00  0.19100812899E+04  0.24141009373E+04  0.14763037632E+04 0.  0.
        4    1    3    3  502    0 -0.13746057879E+02  0.37290675196E+03  0.19964906058E+04  0.20310649305E+04  0.12699999809E+01 0. -1.
       -4    1    3    3    0  502  0.13746057879E+02 -0.37290675196E+03 -0.86409315874E+02  0.38303600683E+03  0.12699999809E+01 0.  1.
</event>
<event>
 5   0  0.1552067E-03  0.1524712E+04  0.7818609E-02  0.8868184E-01
       -2   -1    0    0    0  501  0.00000000000E+00  0.00000000000E+00  0.56534906168E+03  0.56534906168E+03  0.25500000920E-02 0.  1.
        2   -1    0    0  501    0  0.00000000000E+00  0.00000000000E+00 -0.10280138527E+04  0.10280138527E+04  0.25500000920E-02 0. -1.
    10030    2    1    2    0    0  0.00000000000E+00  0.00000000000E+00 -0.46266479104E+03  0.15933629144E+04  0.15247119951E+04 0.  0.
        3    1    3    3  502    0  0.17046651323E+03 -0.94682153186E+02  0.53884722503E+03  0.57304440002E+03  0.10100000352E+00 0.  1.
       -3    1    3    3    0  502 -0.17046651323E+03  0.94682153186E+02 -0.10015120161E+04  0.10203185144E+04  0.10100000352E+00 0. -1.
</event>
<event>
 5   0  0.8365016E-04  0.1329514E+04  0.7818609E-02  0.9006483E-01
       -1   -1    0    0    0  501  0.00000000000E+00  0.00000000000E+00  0.36712216207E+03  0.36712216210E+03  0.50400001928E-02 0.  1.
        1   -1    0    0  501    0  0.00000000000E+00  0.00000000000E+00 -0.12036909136E+04  0.12036909136E+04  0.50400001928E-02 0. -1.
    10030    2    1    2    0    0  0.00000000000E+00  0.00000000000E+00 -0.83656875149E+03  0.15708130757E+04  0.13295136113E+04 0.  0.
        3    1    3    3  502    0 -0.63197869365E+03  0.12929616932E+03 -0.60801279929E+03  0.88645030483E+03  0.10100000352E+00 0. -1.
       -3    1    3    3    0  502  0.63197869365E+03 -0.12929616932E+03 -0.22855595220E+03  0.68436277084E+03  0.10100000352E+00 0.  1.
</event>
<event>
 5   0  0.8191876E-04  0.1497134E+04  0.7818609E-02  0.8886361E-01
        1   -1    0    0  501    0  0.00000000000E+00  0.00000000000E+00  0.93771296350E+03  0.93771296351E+03  0.50400001928E-02 0. -1.
       -1   -1    0    0    0  501  0.00000000000E+00  0.00000000000E+00 -0.59757360177E+03  0.59757360179E+03  0.50400001928E-02 0.  1.
    10030    2    1    2    0    0  0.00000000000E+00  0.00000000000E+00  0.34013936173E+03  0.15352865653E+04  0.14971339460E+04 0.  0.
        2    1    3    3  502    0 -0.22994131831E+02 -0.71226010713E+03  0.40505839258E+03  0.81970451488E+03  0.25500000920E-02 0.  1.
       -2    1    3    3    0  502  0.22994131831E+02  0.71226010713E+03 -0.64919030854E+02  0.71558205042E+03  0.25500000920E-02 0. -1.
</event>
<event>
 5   0  0.8191876E-04  0.1505454E+04  0.7818609E-02  0.8880834E-01
        1   -1    0    0  501    0  0.00000000000E+00  0.00000000000E+00  0.95105642874E+03  0.95105642875E+03  0.50400001928E-02 0.  1.
       -1   -1    0    0    0  501  0.00000000000E+00  0.00000000000E+00 -0.59575622800E+03  0.59575622802E+03  0.50400001928E-02 0. -1.
    10030    2    1    2    0    0  0.00000000000E+00  0.00000000000E+00  0.35530020074E+03  0.15468126568E+04  0.15054538062E+04 0.  0.
        2    1    3    3  502    0  0.50954182895E+03 -0.42844154810E+03  0.53858818621E+03  0.85631318449E+03  0.25500000920E-02 0.  1.
       -2    1    3    3    0  502 -0.50954182895E+03  0.42844154810E+03 -0.18328798547E+03  0.69049947228E+03  0.25500000920E-02 0. -1.
</event>
<event>
 5   0  0.1500956E-03  0.1492380E+04  0.7818609E-02  0.8889536E-01
        2   -1    0    0  501    0  0.00000000000E+00  0.00000000000E+00  0.11227170997E+04  0.11227170997E+04  0.25500000920E-02 0. -1.
       -2   -1    0    0    0  501  0.00000000000E+00  0.00000000000E+00 -0.49593901443E+03  0.49593901443E+03  0.25500000920E-02 0.  1.
    10030    2    1    2    0    0  0.00000000000E+00  0.00000000000E+00  0.62677808526E+03  0.16186561141E+04  0.14923795923E+04 0.  0.
        4    1    3    3  502    0  0.19337974062E+03  0.21098219788E+03  0.10608199717E+04  0.10987492148E+04  0.12699999809E+01 0. -1.
       -4    1    3    3    0  502 -0.19337974062E+03 -0.21098219788E+03 -0.43404188639E+03  0.51990689931E+03  0.12699999809E+01 0.  1.
</event>
<event>
 5   0  0.7870317E-04  0.1591035E+04  0.7818609E-02  0.8826075E-01
       -1   -1    0    0    0  501  0.00000000000E+00  0.00000000000E+00  0.71974370587E+03  0.71974370589E+03  0.50400001928E-02 0. -1.
        1   -1    0    0  501    0  0.00000000000E+00  0.00000000000E+00 -0.87926868949E+03  0.87926868950E+03  0.50400001928E-02 0.  1.
    10030    2    1    2    0    0  0.00000000000E+00  0.00000000000E+00 -0.15952498362E+03  0.15990123954E+04  0.15910350154E+04 0.  0.
        1    1    3    3  502    0  0.21674168546E+03  0.23908669704E+03 -0.81053183592E+03  0.87241117828E+03  0.50400001928E-02 0.  1.
       -1    1    3    3    0  502 -0.21674168546E+03 -0.23908669704E+03  0.65100685231E+03  0.72660121710E+03  0.50400001928E-02 0. -1.
</event>
<event>
 5   0  0.7870317E-04  0.1532365E+04  0.7818609E-02  0.8863211E-01
        1   -1    0    0  501    0  0.00000000000E+00  0.00000000000E+00  0.14704464737E+04  0.14704464738E+04  0.50400001928E-02 0.  1.
       -1   -1    0    0    0  501  0.00000000000E+00  0.00000000000E+00 -0.39922258102E+03  0.39922258105E+03  0.50400001928E-02 0. -1.
    10030    2    1    2    0    0  0.00000000000E+00  0.00000000000E+00  0.10712238927E+04  0.18696690548E+04  0.15323647562E+04 0.  0.
        1    1    3    3  502    0  0.36981398516E+03 -0.26597612412E+03 -0.21605508089E+03  0.50416810711E+03  0.50400001928E-02 0. -1.
       -1    1    3    3    0  502 -0.36981398516E+03  0.26597612412E+03  0.12872789736E+04  0.13655009477E+04  0.50400001928E-02 0.  1.
</event>
<event>
 5   0  0.1484056E-03  0.1493488E+04  0.7818609E-02  0.8888795E-01
       -2   -1    0    0    0  501  0.00000000000E+00  0.00000000000E+00  0.45564643913E+03  0.45564643914E+03  0.25500000920E-02 0. -1.
        2   -1    0    0  501    0  0.00000000000E+00  0.00000000000E+00 -0.12238150054E+04  0.12238150054E+04  0.25500000920E-02 0.  1.
    10030    2    1    2    0    0  0.00000000000E+00  0.00000000000E+00 -0.76816856629E+03  0.16794614446E+04  0.14934884658E+04 0.  0.
        5    1    3    3  502    0  0.20281526935E+03  0.13231037204E+03  0.41024965076E+03  0.47641046796E+03  0.46999998093E+01 0. -1.
       -5    1    3    3    0  502 -0.20281526935E+03 -0.13231037204E+03 -0.11784182171E+04  0.12030509766E+04  0.46999998093E+01 0.  1.
</event>
<event>
 5   0  0.1511546E-03  0.1499508E+04  0.7818609E-02  0.8884780E-01
        2   -1    0    0  501    0  0.00000000000E+00  0.00000000000E+00  0.11008047012E+04  0.11008047012E+04  0.25500000920E-02 0.  1.
       -2   -1    0    0    0  501  0.00000000000E+00  0.00000000000E+00 -0.51065466932E+03  0.51065466933E+03  0.25500000920E-02 0. -1.
    10030    2    1    2    0    0  0.00000000000E+00  0.00000000000E+00  0.59015003183E+03  0.16114593705E+04  0.14995080002E+04 0.  0.
        1    1    3    3  502    0 -0.19702596872E+03 -0.71953431753E+03  0.37536715775E+03  0.83513434225E+03  0.50400001928E-02 0. -1.
       -1    1    3    3    0  502  0.19702596872E+03  0.71953431753E+03  0.21478287408E+03  0.77632502824E+03  0.50400001928E-02 0.  1.
</event>
<event>
 5   0  0.1511546E-03  0.1528550E+04  0.7818609E-02  0.8865687E-01
        2   -1    0    0  501    0  0.00000000000E+00  0.00000000000E+00  0.62749655147E+03  0.62749655148E+03  0.25500000920E-02 0.  1.
       -2   -1    0    0    0  501  0.00000000000E+00  0.00000000000E+00 -0.93086718311E+03  0.93086718311E+03  0.25500000920E-02 0. -1.
    10030    2    1    2    0    0  0.00000000000E+00  0.00000000000E+00 -0.30337063164E+03  0.15583637346E+04  0.15285495704E+04 0.  0.
        1    1    3    3  502    0 -0.12911018523E+03 -0.35298159877E+03  0.52676472742E+03  0.64710627186E+03  0.50400001928E-02 0.  1.
       -1    1    3    3    0  502  0.12911018523E+03  0.35298159877E+03 -0.83013535906E+03  0.91125746273E+03  0.50400001928E-02 0. -1.
</event>
<event>
 5   0  0.8365016E-04  0.1444612E+04  0.7818609E-02  0.8922144E-01
        1   -1    0    0  501    0  0.00000000000E+00  0.00000000000E+00  0.11667316549E+04  0.11667316549E+04  0.50400001928E-02 0. -1.
       -1   -1    0    0    0  501  0.00000000000E+00  0.00000000000E+00 -0.44716899325E+03  0.44716899328E+03  0.50400001928E-02 0.  1.
    10030    2    1    2    0    0  0.00000000000E+00  0.00000000000E+00  0.71956266161E+03  0.16139006482E+04  0.14446123626E+04 0.  0.
        3    1    3    3  502    0  0.42128124057E+02 -0.51111795586E+03  0.92802154340E+03  0.10603020036E+04  0.10100000352E+00 0. -1.
       -3    1    3    3    0  502 -0.42128124057E+02  0.51111795586E+03 -0.20845888179E+03  0.55359864454E+03  0.10100000352E+00 0.  1.
</event>
<event>
 5   0  0.1484056E-03  0.1098368E+04  0.7818609E-02  0.9206784E-01
        2   -1    0    0  501    0  0.00000000000E+00  0.00000000000E+00  0.51583658292E+03  0.51583658292E+03  0.25500000920E-02 0. -1.
       -2   -1    0    0    0  501  0.00000000000E+00  0.00000000000E+00 -0.58468678369E+03  0.58468678370E+03  0.25500000920E-02 0.  1.
    10030    2    1    2    0    0  0.00000000000E+00  0.00000000000E+00 -0.68850200775E+02  0.11005233666E+04  0.10983675752E+04 0.  0.
        5    1    3    3  502    0  0.50737539304E+02  0.41834598178E+03 -0.38724274458E+03  0.57233442286E+03  0.46999998093E+01 0. -1.
       -5    1    3    3    0  502 -0.50737539304E+02 -0.41834598178E+03  0.31839254380E+03  0.52818894376E+03  0.46999998093E+01 0.  1.
</event>
<event>
 5   0  0.1526126E-03  0.1547465E+04  0.7818609E-02  0.8853489E-01
        2   -1    0    0  501    0  0.00000000000E+00  0.00000000000E+00  0.10053423125E+04  0.10053423125E+04  0.25500000920E-02 0. -1.
       -2   -1    0    0    0  501  0.00000000000E+00  0.00000000000E+00 -0.59548044756E+03  0.59548044757E+03  0.25500000920E-02 0.  1.
    10030    2    1    2    0    0  0.00000000000E+00  0.00000000000E+00  0.40986186498E+03  0.16008227601E+04  0.15474646235E+04 0.  0.
        2    1    3    3  502    0 -0.50826284630E+03 -0.34547653941E+03  0.69122122010E+03  0.92491725864E+03  0.25500000920E-02 0.  1.
       -2    1    3    3    0  502  0.50826284630E+03  0.34547653941E+03 -0.28135935512E+03  0.67590550148E+03  0.25500000920E-02 0. -1.
</event>
<event>
 5   0  0.8058234E-04  0.1673506E+04  0.7818609E-02  0.8776621E-01
        1   -1    0    0  501    0  0.00000000000E+00  0.00000000000E+00  0.22900819977E+04  0.22900819977E+04  0.50400001928E-02 0.  1.
       -1   -1    0    0    0  501  0.00000000000E+00  0.00000000000E+00 -0.30573377671E+03  0.30573377675E+03  0.50400001928E-02 0. -1.
    10030    2    1    2    0    0  0.00000000000E+00  0.00000000000E+00  0.19843482210E+04  0.25958157745E+04  0.16735058030E+04 0.  0.
        5    1    3    3  502    0 -0.65608177284E+03  0.45091372483E+03  0.13917711312E+04  0.16033762664E+04  0.46999998093E+01 0. -1.
       -5    1    3    3    0  502  0.65608177284E+03 -0.45091372483E+03  0.59257708982E+03  0.99243950812E+03  0.46999998093E+01 0.  1.
</event>
<event>
 5   0  0.1511546E-03  0.1499863E+04  0.7818609E-02  0.8884544E-01
        2   -1    0    0  501    0  0.00000000000E+00  0.00000000000E+00  0.69090268194E+03  0.69090268194E+03  0.25500000920E-02 0. -1.
       -2   -1    0    0    0  501  0.00000000000E+00  0.00000000000E+00 -0.81400367941E+03  0.81400367941E+03  0.25500000920E-02 0.  1.
    10030    2    1    2    0    0  0.00000000000E+00  0.00000000000E+00 -0.12310099747E+03  0.15049063614E+04  0.14998630940E+04 0.  0.
        1    1    3    3  502    0 -0.59151281719E+03  0.54842726806E+02  0.39770264744E+03  0.71488637796E+03  0.50400001928E-02 0. -1.
       -1    1    3    3    0  502  0.59151281719E+03 -0.54842726806E+02 -0.52080364491E+03  0.79001998340E+03  0.50400001928E-02 0.  1.
</event>
<event>
 5   0  0.1500956E-03  0.1513668E+04  0.7818609E-02  0.8875415E-01
        2   -1    0    0  501    0  0.00000000000E+00  0.00000000000E+00  0.50237856687E+03  0.50237856688E+03  0.25500000920E-02 0.  1.
       -2   -1    0    0    0  501  0.00000000000E+00  0.00000000000E+00 -0.11401709921E+04  0.11401709921E+04  0.25500000920E-02 0. -1.
    10030    2    1    2    0    0  0.00000000000E+00  0.00000000000E+00 -0.63779242524E+03  0.16425495590E+04  0.15136676901E+04 0.  0.
        4    1    3    3  502    0  0.57174614513E+03 -0.18353027165E+03  0.18100007361E+03  0.62716796365E+03  0.12699999809E+01 0.  1.
       -4    1    3    3    0  502 -0.57174614513E+03  0.18353027165E+03 -0.81879249885E+03  0.10153815953E+04  0.12699999809E+01 0. -1.
</event>
<event>
 5   0  0.1511546E-03  0.1537396E+04  0.7818609E-02  0.8859959E-01
       -2   -1    0    0    0  501  0.00000000000E+00  0.00000000000E+00  0.11384070686E+04  0.11384070686E+04  0.25500000920E-02 0.  1.
        2   -1    0    0  501    0  0.00000000000E+00  0.00000000000E+00 -0.51905597520E+03  0.51905597521E+03  0.25500000920E-02 0. -1.
    10030    2    1    2    0    0  0.00000000000E+00  0.00000000000E+00  0.61935109337E+03  0.16574630438E+04  0.15373964891E+04 0.  0.
        1    1    3    3  502    0 -0.23858712747E+03  0.65241821785E+03 -0.45153853374E+02  0.69614094757E+03  0.50400001928E-02 0. -1.
       -1    1    3    3    0  502  0.23858712747E+03 -0.65241821785E+03  0.66450494674E+03  0.96132209620E+03  0.50400001928E-02 0.  1.
</event>
<event>
 5   0  0.1526126E-03  0.1515357E+04  0.7818609E-02  0.8874304E-01
       -2   -1    0    0    0  501  0.00000000000E+00  0.00000000000E+00  0.46380607277E+03  0.46380607277E+03  0.25500000920E-02 0.  1.
        2   -1    0    0  501    0  0.00000000000E+00  0.00000000000E+00 -0.12377522655E+04  0.12377522655E+04  0.25500000920E-02 0. -1.
    10030    2    1    2    0    0  0.00000000000E+00  0.00000000000E+00 -0.77394619277E+03  0.17015583383E+04  0.15153574065E+04 0.  0.
        2    1    3    3  502    0 -0.22859532851E+03  0.59983325470E+03 -0.83895158939E+03  0.10563595633E+04  0.25500000920E-02 0.  1.
       -2    1    3    3    0  502  0.22859532851E+03 -0.59983325470E+03  0.65005396619E+02  0.64519877500E+03  0.25500000920E-02 0. -1.
</event>
<event>
 5   0  0.8191876E-04  0.1524508E+04  0.7818609E-02  0.8868317E-01
       -1   -1    0    0    0  501  0.00000000000E+00  0.00000000000E+00  0.99449783580E+03  0.99449783581E+03  0.50400001928E-02 0.  1.
        1   -1    0    0  501    0  0.00000000000E+00  0.00000000000E+00 -0.58424565374E+03  0.58424565376E+03  0.50400001928E-02 0. -1.
    10030    2    1    2    0    0  0.00000000000E+00  0.00000000000E+00  0.41025218207E+03  0.15787434896E+04  0.15245078396E+04 0.  0.
        2    1    3    3  502    0  0.34629935007E+03  0.67807565135E+03  0.24276766214E+03  0.79915328104E+03  0.25500000920E-02 0. -1.
       -2    1    3    3    0  502 -0.34629935007E+03 -0.67807565135E+03  0.16748451993E+03  0.77959020853E+03  0.25500000920E-02 0.  1.
</event>
<event>
 5   0  0.8191876E-04  0.1492691E+04  0.7818609E-02  0.8889328E-01
        1   -1    0    0  501    0  0.00000000000E+00  0.00000000000E+00  0.19525051724E+04  0.19525051724E+04  0.50400001928E-02 0.  1.
       -1   -1    0    0    0  501  0.00000000000E+00  0.00000000000E+00 -0.28529085219E+03  0.28529085224E+03  0.50400001928E-02 0. -1.
    10030    2    1    2    0    0  0.00000000000E+00  0.00000000000E+00  0.16672143202E+04  0.22377960246E+04  0.14926913473E+04 0.  0.
        2    1    3    3  502    0 -0.56839459358E+03  0.47314478085E+03  0.68299131434E+03  0.10066854192E+04  0.25500000920E-02 0. -1.
       -2    1    3    3    0  502  0.56839459358E+03 -0.47314478085E+03  0.98422300583E+03  0.12311106055E+04  0.25500000920E-02 0.  1.
</event>
<event>
 5   0  0.1511546E-03  0.1435693E+04  0.7818609E-02  0.8928380E-01
       -2   -1    0    0    0  501  0.00000000000E+00  0.00000000000E+00  0.52104600250E+03  0.52104600251E+03  0.25500000920E-02 0. -1.
        2   -1    0    0  501    0  0.00000000000E+00  0.00000000000E+00 -0.98897943662E+03  0.98897943662E+03  0.25500000920E-02 0.  1.
    10030    2    1    2    0    0  0.00000000000E+00  0.00000000000E+00 -0.46793343412E+03  0.15100254391E+04  0.14356932569E+04 0.  0.
        1    1    3    3  502    0  0.14524740654E+02 -0.27596211209E+03 -0.93079225412E+03  0.97094813237E+03  0.50400001928E-02 0.  1.
       -1    1    3    3    0  502 -0.14524740654E+02  0.27596211209E+03  0.46285881999E+03  0.53907730676E+03  0.50400001928E-02 0. -1.
</event>
<event>
 5   0  0.7870317E-04  0.1546729E+04  0.7818609E-02  0.8853960E-01
       -1   -1    0    0    0  501  0.00000000000E+00  0.00000000000E+00  0.37824909073E+03  0.37824909076E+03  0.50400001928E-02 0.  1.
        1   -1    0    0  501    0  0.00000000000E+00  0.00000000000E+00 -0.15812131619E+04  0.15812131619E+04  0.50400001928E-02 0. -1.
    10030    2    1    2    0    0  0.00000000000E+00  0.00000000000E+00 -0.12029640712E+04  0.19594622527E+04  0.15467287296E+04 0.  0.
        1    1    3    3  502    0  0.48772472945E+03 -0.59090714664E+03 -0.73462579260E+03  0.10614714894E+04  0.50400001928E-02 0.  1.
       -1    1    3    3    0  502 -0.48772472945E+03  0.59090714664E+03 -0.46833827856E+03  0.89799076324E+03  0.50400001928E-02 0. -1.
</event>
<event>
 5   0  0.8058234E-04  0.1482510E+04  0.7818609E-02  0.8896167E-01
        1   -1    0    0  501    0  0.00000000000E+00  0.00000000000E+00  0.17618614144E+04  0.17618614144E+04  0.50400001928E-02 0.  1.
       -1   -1    0    0    0  501  0.00000000000E+00  0.00000000000E+00 -0.31186295420E+03  0.31186295424E+03  0.50400001928E-02 0. -1.
    10030    2    1    2    0    0  0.00000000000E+00  0.00000000000E+00  0.14499984602E+04  0.20737243686E+04  0.14825104460E+04 0.  0.
        5    1    3    3  502    0 -0.14806579524E+03  0.47242149747E+03  0.14966607424E+04  0.15764266615E+04  0.46999998093E+01 0.  1.
       -5    1    3    3    0  502  0.14806579524E+03 -0.47242149747E+03 -0.46662282248E+02  0.49729770718E+03  0.46999998093E+01 0. -1.
</event>
<event>
 5   0  0.1552067E-03  0.1527288E+04  0.7818609E-02  0.8866507E-01
        2   -1    0    0  501    0  0.00000000000E+00  0.00000000000E+00  0.30784790220E+03  0.30784790221E+03  0.25500000920E-02 0. -1.
       -2   -1    0    0    0  501  0.00000000000E+00  0.00000000000E+00 -0.18942857703E+04  0.18942857703E+04  0.25500000920E-02 0.  1.
    10030    2    1    2    0    0  0.00000000000E+00  0.00000000000E+00 -0.15864378681E+04  0.22021336725E+04  0.15272876619E+04 0.  0.
        3    1    3    3  502    0  0.14332999146E+03 -0.33286649675E+03 -0.17623888762E+04  0.17992660037E+04  0.10100000352E+00 0.  1.
       -3    1    3    3    0  502 -0.14332999146E+03  0.33286649675E+03  0.17595100807E+03  0.40286766878E+03  0.10100000352E+00 0. -1.
</event>
<event>
 5   0  0.8306301E-04  0.1453422E+04  0.7818609E-02  0.8916032E-01
       -1   -1    0    0    0  501  0.00000000000E+00  0.00000000000E+00  0.38422832847E+03  0.38422832850E+03  0.50400001928E-02 0. -1.
        1   -1    0    0  501    0  0.00000000000E+00  0.00000000000E+00 -0.13744662445E+04  0.13744662445E+04  0.50400001928E-02 0.  1.
    10030    2    1    2    0    0  0.00000000000E+00  0.00000000000E+00 -0.99023791603E+03  0.17586945730E+04  0.14534219865E+04 0.  0.
        4    1    3    3  502    0 -0.24567403327E+03 -0.12300579257E+03 -0.13091971022E+04  0.13377162707E+04  0.12699999809E+01 0.  1.
       -4    1    3    3    0  502  0.24567403327E+03  0.12300579257E+03  0.31895918619E+03  0.42097830227E+03  0.12699999809E+01 0. -1.
</event>
<event>
 5   0  0.1526126E-03  0.1496417E+04  0.7818609E-02  0.8886839E-01
       -2   -1    0    0    0  501  0.00000000000E+00  0.00000000000E+00  0.24171767306E+03  0.24171767307E+03  0.25500000920E-02 0. -1.
        2   -1    0    0  501    0  0.00000000000E+00  0.00000000000E+00 -0.23159915031E+04  0.23159915031E+04  0.25500000920E-02 0.  1.
    10030    2    1    2    0    0  0.00000000000E+00  0.00000000000E+00 -0.20742738300E+04  0.25577091761E+04  0.14964171570E+04 0.  0.
        2    1    3    3  502    0  0.66686197083E+02 -0.74033696450E+03 -0.11828746021E+04  0.13970462391E+04  0.25500000920E-02 0. -1.
       -2    1    3    3    0  502 -0.66686197083E+02  0.74033696450E+03 -0.89139922788E+03  0.11606629370E+04  0.25500000920E-02 0.  1.
</event>
<event>
 5   0  0.8306301E-04  0.1245919E+04  0.7818609E-02  0.9073587E-01
        1   -1    0    0  501    0  0.00000000000E+00  0.00000000000E+00  0.75981478992E+03  0.75981478993E+03  0.50400001928E-02 0.  1.
       -1   -1    0    0    0  501  0.00000000000E+00  0.00000000000E+00 -0.51075427006E+03  0.51075427008E+03  0.50400001928E-02 0. -1.
    10030    2    1    2    0    0  0.00000000000E+00  0.00000000000E+00  0.24906051986E+03  0.12705690600E+04  0.12459191762E+04 0.  0.
        4    1    3    3  502    0 -0.31823384355E+03  0.24232704237E+03  0.61155809050E+03  0.73075309483E+03  0.12699999809E+01 0.  1.
       -4    1    3    3    0  502  0.31823384355E+03 -0.24232704237E+03 -0.36249757064E+03  0.53981596518E+03  0.12699999809E+01 0. -1.
</event>
<event>
 5   0  0.7870317E-04  0.1455713E+04  0.7818609E-02  0.8914449E-01
        1   -1    0    0  501    0  0.00000000000E+00  0.00000000000E+00  0.96028028280E+03  0.96028028281E+03  0.50400001928E-02 0.  1.
       -1   -1    0    0    0  501  0.00000000000E+00  0.00000000000E+00 -0.55168833904E+03  0.55168833906E+03  0.50400001928E-02 0. -1.
    10030    2    1    2    0    0  0.00000000000E+00  0.00000000000E+00  0.40859194376E+03  0.15119686219E+04  0.14557134804E+04 0.  0.
        1    1    3    3  502    0 -0.69054664360E+02  0.70445210068E+03  0.28172614438E+02  0.70838902098E+03  0.50400001928E-02 0. -1.
       -1    1    3    3    0  502  0.69054664360E+02 -0.70445210068E+03  0.38041932932E+03  0.80357960089E+03  0.50400001928E-02 0.  1.
</event>
<event>
 5   0  0.1484056E-03  0.1450675E+04  0.7818609E-02  0.8917933E-01
       -2   -1    0    0    0  501  0.00000000000E+00  0.00000000000E+00  0.49737378973E+03  0.49737378974E+03  0.25500000920E-02 0. -1.
        2   -1    0    0  501    0  0.00000000000E+00  0.00000000000E+00 -0.10577848346E+04  0.10577848346E+04  0.25500000920E-02 0.  1.
    10030    2    1    2    0    0  0.00000000000E+00  0.00000000000E+00 -0.56041104486E+03  0.15551586243E+04  0.14506749490E+04 0.  0.
        5    1    3    3  502    0 -0.10627329699E+03 -0.68405202494E+03 -0.48114947649E+02  0.69394403569E+03  0.46999998093E+01 0.  1.
       -5    1    3    3    0  502  0.10627329699E+03  0.68405202494E+03 -0.51229609721E+03  0.86121458865E+03  0.46999998093E+01 0. -1.
</event>
<event>
 5   0  0.8365016E-04  0.1503407E+04  0.7818609E-02  0.8882191E-01
       -1   -1    0    0    0  501  0.00000000000E+00  0.00000000000E+00  0.42826787540E+03  0.42826787543E+03  0.50400001928E-02 0. -1.
        1   -1    0    0  501    0  0.00000000000E+00  0.00000000000E+00 -0.13194032290E+04  0.13194032290E+04  0.50400001928E-02 0.  1.
    10030    2    1    2    0    0  0.00000000000E+00  0.00000000000E+00 -0.89113535357E+03  0.17476711044E+04  0.15034068215E+04 0.  0.
        3    1    3    3  502    0 -0.52899321797E+03 -0.50827818514E+03 -0.63614770061E+03  0.97101207271E+03  0.10100000352E+00 0. -1.
       -3    1    3    3    0  502  0.52899321797E+03  0.50827818514E+03 -0.25498765296E+03  0.77665903170E+03  0.10100000352E+00 0.  1.
</event>
<event>
 5   0  0.8365016E-04  0.1485957E+04  0.7818609E-02  0.8893846E-01
       -1   -1    0    0    0  501  0.00000000000E+00  0.00000000000E+00  0.40164582396E+03  0.40164582399E+03  0.50400001928E-02 0. -1.
        1   -1    0    0  501    0  0.00000000000E+00  0.00000000000E+00 -0.13743868563E+04  0.13743868564E+04  0.50400001928E-02 0.  1.
    10030    2    1    2    0    0  0.00000000000E+00  0.00000000000E+00 -0.97274103239E+03  0.17760326803E+04  0.14859565827E+04 0.  0.
        3    1    3    3  502    0 -0.36949684661E+03 -0.13668271931E+03  0.26652429009E+03  0.47565249166E+03  0.10100000352E+00 0. -1.
       -3    1    3    3    0  502  0.36949684661E+03  0.13668271931E+03 -0.12392653225E+04  0.13003801887E+04  0.10100000352E+00 0.  1.
</event>
<event>
 5   0  0.1526126E-03  0.1455330E+04  0.7818609E-02  0.8914714E-01
        2   -1    0    0  501    0  0.00000000000E+00  0.00000000000E+00  0.11158048161E+04  0.11158048161E+04  0.25500000920E-02 0.  1.
       -2   -1    0    0    0  501  0.00000000000E+00  0.00000000000E+00 -0.47454195521E+03  0.47454195522E+03  0.25500000920E-02 0. -1.
    10030    2    1    2    0    0  0.00000000000E+00  0.00000000000E+00  0.64126286090E+03  0.15903467713E+04  0.14553297895E+04 0.  0.
        2    1    3    3  502    0 -0.12757065966E+03 -0.41155410304E+03 -0.32015286801E+03  0.53679503708E+03  0.25500000920E-02 0. -1.
       -2    1    3    3    0  502  0.12757065966E+03  0.41155410304E+03  0.96141572891E+03  0.10535517342E+04  0.25500000920E-02 0.  1.
</event>
<event>
 5   0  0.1500956E-03  0.1566119E+04  0.7818609E-02  0.8841637E-01
        2   -1    0    0  501    0  0.00000000000E+00  0.00000000000E+00  0.46925999426E+03  0.46925999426E+03  0.25500000920E-02 0. -1.
       -2   -1    0    0    0  501  0.00000000000E+00  0.00000000000E+00 -0.13067002769E+04  0.13067002769E+04  0.25500000920E-02 0.  1.
    10030    2    1    2    0    0  0.00000000000E+00  0.00000000000E+00 -0.83744028264E+03  0.17759602712E+04  0.15661189794E+04 0.  0.
        4    1    3    3  502    0  0.41494389754E+03 -0.10765351068E+03 -0.11618179903E+04  0.12383821591E+04  0.12699999809E+01 0.  1.
       -4    1    3    3    0  502 -0.41494389754E+03  0.10765351068E+03  0.32437770765E+03  0.53757811208E+03  0.12699999809E+01 0. -1.
</event>
<event>
 5   0  0.8365016E-04  0.1476236E+04  0.7818609E-02  0.8900411E-01
       -1   -1    0    0    0  501  0.00000000000E+00  0.00000000000E+00  0.64855515184E+03  0.64855515186E+03  0.50400001928E-02 0.  1.
        1   -1    0    0  501    0  0.00000000000E+00  0.00000000000E+00 -0.84004930549E+03  0.84004930550E+03  0.50400001928E-02 0. -1.
    10030    2    1    2    0    0  0.00000000000E+00  0.00000000000E+00 -0.19149415365E+03  0.14886044574E+04  0.14762361666E+04 0.  0.
        3    1    3    3  502    0 -0.64004693586E+03  0.34728314542E+03  0.25897916855E+02  0.72865381046E+03  0.10100000352E+00 0. -1.
       -3    1    3    3    0  502  0.64004693586E+03 -0.34728314542E+03 -0.21739207050E+03  0.75995064690E+03  0.10100000352E+00 0.  1.
</event>
<event>
 5   0  0.1526126E-03  0.1531345E+04  0.7818609E-02  0.8863872E-01
       -2   -1    0    0    0  501  0.00000000000E+00  0.00000000000E+00  0.27641355508E+03  0.27641355509E+03  0.25500000920E-02 0.  1.
        2   -1    0    0  501    0  0.00000000000E+00  0.00000000000E+00 -0.21209316776E+04  0.21209316776E+04  0.25500000920E-02 0. -1.
    10030    2    1    2    0    0  0.00000000000E+00  0.00000000000E+00 -0.18445181225E+04  0.23973452327E+04  0.15313448535E+04 0.  0.
        2    1    3    3  502    0  0.52960702182E+02  0.59425348209E+03 -0.17095441471E+03  0.62061860177E+03  0.25500000920E-02 0.  1.
       -2    1    3    3    0  502 -0.52960702182E+02 -0.59425348209E+03 -0.16735637078E+04  0.17767266310E+04  0.25500000920E-02 0. -1.
</event>
<event>
 5   0  0.1500956E-03  0.1491544E+04  0.7818609E-02  0.8890095E-01
       -2   -1    0    0    0  501  0.00000000000E+00  0.00000000000E+00  0.47983309522E+03  0.47983309523E+03  0.25500000920E-02 0.  1.
        2   -1    0    0  501    0  0.00000000000E+00  0.00000000000E+00 -0.11591034053E+04  0.11591034053E+04  0.25500000920E-02 0. -1.
    10030    2    1    2    0    0  0.00000000000E+00  0.00000000000E+00 -0.67927031010E+03  0.16389365005E+04  0.14915444005E+04 0.  0.
        4    1    3    3  502    0 -0.10317254243E+03  0.13697640288E+03  0.45787350627E+03  0.48893442209E+03  0.12699999809E+01 0.  1.
       -4    1    3    3    0  502  0.10317254243E+03 -0.13697640288E+03 -0.11371438164E+04  0.11500020785E+04  0.12699999809E+01 0. -1.
</event>
<event>
 5   0  0.1552067E-03  0.1393771E+04  0.7818609E-02  0.8958340E-01
       -2   -1    0    0    0  501  0.00000000000E+00  0.00000000000E+00  0.47526315156E+03  0.47526315157E+03  0.25500000920E-02 0. -1.
        2   -1    0    0  501    0  0.00000000000E+00  0.00000000000E+00 -0.10218538104E+04  0.10218538104E+04  0.25500000920E-02 0.  1.
    10030    2    1    2    0    0  0.00000000000E+00  0.00000000000E+00 -0.54659065886E+03  0.14971169620E+04  0.13937710894E+04 0.  0.
        3    1    3    3  502    0 -0.24604877452E+03  0.25372025356E+03 -0.91844237398E+03  0.98409876081E+03  0.10100000352E+00 0.  1.
       -3    1    3    3    0  502  0.24604877452E+03 -0.25372025356E+03  0.37185171512E+03  0.51301820119E+03  0.10100000352E+00 0. -1.
</event>
<event>
 5   0  0.8058234E-04  0.1362689E+04  0.7818609E-02  0.8981278E-01
        1   -1    0    0  501    0  0.00000000000E+00  0.00000000000E+00  0.10488050820E+04  0.10488050820E+04  0.50400001928E-02 0. -1.
       -1   -1    0    0    0  501  0.00000000000E+00  0.00000000000E+00 -0.44262784084E+03  0.44262784087E+03  0.50400001928E-02 0.  1.
    10030    2    1    2    0    0  0.00000000000E+00  0.00000000000E+00  0.60617724115E+03  0.14914329229E+04  0.13626890018E+04 0.  0.
        5    1    3    3  502    0  0.22146248173E+03 -0.98663820218E+02  0.99997804812E+03  0.10289598471E+04  0.46999998093E+01 0. -1.
       -5    1    3    3    0  502 -0.22146248173E+03  0.98663820218E+02 -0.39380080697E+03  0.46247307577E+03  0.46999998093E+01 0.  1.
</event>
<event>
 5   0  0.1526126E-03  0.1369928E+04  0.7818609E-02  0.8975879E-01
       -2   -1    0    0    0  501  0.00000000000E+00  0.00000000000E+00  0.38822890334E+03  0.38822890335E+03  0.25500000920E-02 0.  1.
        2   -1    0    0  501    0  0.00000000000E+00  0.00000000000E+00 -0.12085020096E+04  0.12085020096E+04  0.25500000920E-02 0. -1.
    10030    2    1    2    0    0  0.00000000000E+00  0.00000000000E+00 -0.82027310624E+03  0.15967309129E+04  0.13699276037E+04 0.  0.
        2    1    3    3  502    0  0.71912588629E+02 -0.66929384856E+03 -0.26247479575E+03  0.72250861208E+03  0.25500000920E-02 0.  1.
       -2    1    3    3    0  502 -0.71912588629E+02  0.66929384856E+03 -0.55779831049E+03  0.87422230085E+03  0.25500000920E-02 0. -1.
</event>
<event>
 5   0  0.5603875E-04  0.1521801E+04  0.7818609E-02  0.8870084E-01
        3   -1    0    0  501    0  0.00000000000E+00  0.00000000000E+00  0.50677152287E+03  0.50677153294E+03  0.10100000352E+00 0. -1.
       -3   -1    0    0    0  501  0.00000000000E+00  0.00000000000E+00 -0.11424664865E+04  0.11424664909E+04  0.10100000352E+00 0.  1.
    10030    2    1    2    0    0  0.00000000000E+00  0.00000000000E+00 -0.63569496359E+03  0.16492380239E+04  0.15218008978E+04 0.  0.
        4    1    3    3  502    0 -0.45416553327E+03 -0.29836988183E+03  0.25936742306E+03  0.60213286826E+03  0.12699999809E+01 0. -1.
       -4    1    3    3    0  502  0.45416553327E+03  0.29836988183E+03 -0.89506238666E+03  0.10471051556E+04  0.12699999809E+01 0.  1.
</event>
<event>
 5   0  0.8306301E-04  0.1650697E+04  0.7818609E-02  0.8789995E-01
        1   -1    0    0  501    0  0.00000000000E+00  0.00000000000E+00  0.11811381819E+04  0.11811381819E+04  0.50400001928E-02 0.  1.
       -1   -1    0    0    0  501  0.00000000000E+00  0.00000000000E+00 -0.57673163161E+03  0.57673163163E+03  0.50400001928E-02 0. -1.
    10030    2    1    2    0    0  0.00000000000E+00  0.00000000000E+00  0.60440655030E+03  0.17578698135E+04  0.16506965207E+04 0.  0.
        4    1    3    3  502    0  0.29792204747E+03 -0.21736292750E+03 -0.48410887449E+03  0.60857801791E+03  0.12699999809E+01 0. -1.
       -4    1    3    3    0  502 -0.29792204747E+03  0.21736292750E+03  0.10885154248E+04  0.11492917956E+04  0.12699999809E+01 0.  1.
</event>
<event>
 5   0  0.1526126E-03  0.1343978E+04  0.7818609E-02  0.8995399E-01
       -2   -1    0    0    0  501  0.00000000000E+00  0.00000000000E+00  0.28849276352E+03  0.28849276353E+03  0.25500000920E-02 0. -1.
        2   -1    0    0  501    0  0.00000000000E+00  0.00000000000E+00 -0.15652714636E+04  0.15652714636E+04  0.25500000920E-02 0.  1.
    10030    2    1    2    0    0  0.00000000000E+00  0.00000000000E+00 -0.12767787000E+04  0.18537642271E+04  0.13439784078E+04 0.  0.
        2    1    3    3  502    0 -0.34516689846E+03  0.32227406458E+03 -0.12978222532E+04  0.13810660235E+04  0.25500000920E-02 0.  1.
       -2    1    3    3    0  502  0.34516689846E+03 -0.32227406458E+03  0.21043553156E+02  0.47269820354E+03  0.25500000920E-02 0. -1.
</event>
<event>
 5   0  0.8058234E-04  0.1506978E+04  0.7818609E-02  0.8879826E-01
       -1   -1    0    0    0  501  0.00000000000E+00  0.00000000000E+00  0.79028257225E+03  0.79028257227E+03  0.50400001928E-02 0. -1.
        1   -1    0    0  501    0  0.00000000000E+00  0.00000000000E+00 -0.71840829289E+03  0.71840829291E+03  0.50400001928E-02 0.  1.
    10030    2    1    2    0    0  0.00000000000E+00  0.00000000000E+00  0.71874279357E+02  0.15086908652E+04  0.15069778415E+04 0.  0.
        5    1    3    3  502    0  0.46857030531E+03 -0.16549340328E+02 -0.55455656674E+03  0.72621421592E+03  0.46999998093E+01 0.  1.
       -5    1    3    3    0  502 -0.46857030531E+03  0.16549340328E+02  0.62643084610E+03  0.78247664926E+03  0.46999998093E+01 0. -1.
</event>
<event>
 5   0  0.8058234E-04  0.1469685E+04  0.7818609E-02  0.8904866E-01
       -1   -1    0    0    0  501  0.00000000000E+00  0.00000000000E+00  0.11236020758E+04  0.11236020758E+04  0.50400001928E-02 0.  1.
        1   -1    0    0  501    0  0.00000000000E+00  0.00000000000E+00 -0.48059108531E+03  0.48059108534E+03  0.50400001928E-02 0. -1.
    10030    2    1    2    0    0  0.00000000000E+00  0.00000000000E+00  0.64301099047E+03  0.16041931611E+04  0.14696845118E+04 0.  0.
        5    1    3    3  502    0  0.23155935551E+02 -0.34966266031E+03 -0.38349518286E+03  0.51951017184E+03  0.46999998093E+01 0. -1.
       -5    1    3    3    0  502 -0.23155935551E+02  0.34966266031E+03  0.10265061733E+04  0.10846829893E+04  0.46999998093E+01 0.  1.
</event>
<event>
 5   0  0.8365016E-04  0.1502766E+04  0.7818609E-02  0.8882616E-01
        1   -1    0    0  501    0  0.00000000000E+00  0.00000000000E+00  0.43413261991E+03  0.43413261994E+03  0.50400001928E-02 0.  1.
       -1   -1    0    0    0  501  0.00000000000E+00  0.00000000000E+00 -0.13004694703E+04  0.13004694703E+04  0.50400001928E-02 0. -1.
    10030    2    1    2    0    0  0.00000000000E+00  0.00000000000E+00 -0.86633685039E+03  0.17346020903E+04  0.15027657413E+04 0.  0.
        3    1    3    3  502    0  0.19598232161E+03 -0.60646182911E+03 -0.89252154061E+03  0.10967222671E+04  0.10100000352E+00 0. -1.
       -3    1    3    3    0  502 -0.19598232161E+03  0.60646182911E+03  0.26184690223E+02  0.63787982313E+03  0.10100000352E+00 0.  1.
</event>
<event>
 5   0  0.8191876E-04  0.1492097E+04  0.7818609E-02  0.8889725E-01
        1   -1    0    0  501    0  0.00000000000E+00  0.00000000000E+00  0.11383614136E+04  0.11383614136E+04  0.50400001928E-02 0.  1.
       -1   -1    0    0    0  501  0.00000000000E+00  0.00000000000E+00 -0.48893811506E+03  0.48893811508E+03  0.50400001928E-02 0. -1.
    10030    2    1    2    0    0  0.00000000000E+00  0.00000000000E+00  0.64942329851E+03  0.16272995287E+04  0.14920968921E+04 0.  0.
        2    1    3    3  502    0 -0.32321608280E+03 -0.44992375473E+03 -0.22025451229E+03  0.59616446677E+03  0.25500000920E-02 0. -1.
       -2    1    3    3    0  502  0.32321608280E+03  0.44992375473E+03  0.86967781080E+03  0.10311350619E+04  0.25500000920E-02 0.  1.
</event>
<event>
 5   0  0.1484056E-03  0.1498138E+04  0.7818609E-02  0.8885692E-01
       -2   -1    0    0    0  501  0.00000000000E+00  0.00000000000E+00  0.10744186199E+04  0.10744186199E+04  0.25500000920E-02 0. -1.
        2   -1    0    0  501    0  0.00000000000E+00  0.00000000000E+00 -0.52224019362E+03  0.52224019363E+03  0.25500000920E-02 0.  1.
    10030    2    1    2    0    0  0.00000000000E+00  0.00000000000E+00  0.55217842632E+03  0.15966588136E+04  0.14981382955E+04 0.  0.
        5    1    3    3  502    0 -0.48463427738E+03 -0.53249226490E+03  0.49622544450E+03  0.87445993434E+03  0.46999998093E+01 0. -1.
       -5    1    3    3    0  502  0.48463427738E+03  0.53249226490E+03  0.55952981814E+02  0.72219887923E+03  0.46999998093E+01 0.  1.
</event>
<event>
 5   0  0.8306301E-04  0.1489715E+04  0.7818609E-02  0.8891321E-01
        1   -1    0    0  501    0  0.00000000000E+00  0.00000000000E+00  0.19346832442E+04  0.19346832442E+04  0.50400001928E-02 0.  1.
       -1   -1    0    0    0  501  0.00000000000E+00  0.00000000000E+00 -0.28677172632E+03  0.28677172636E+03  0.50400001928E-02 0. -1.
    10030    2    1    2    0    0  0.00000000000E+00  0.00000000000E+00  0.16479115178E+04  0.22214549705E+04  0.14897146758E+04 0.  0.
        4    1    3    3  502    0  0.26131513962E+03  0.59228823927E+03  0.27459687473E+03  0.70320410770E+03  0.12699999809E+01 0. -1.
       -4    1    3    3    0  502 -0.26131513962E+03 -0.59228823927E+03  0.13733146431E+04  0.15182508628E+04  0.12699999809E+01 0.  1.
</event>
<event>
 5   0  0.8058234E-04  0.1513485E+04  0.7818609E-02  0.8875535E-01
       -1   -1    0    0    0  501  0.00000000000E+00  0.00000000000E+00  0.40461192729E+03  0.40461192732E+03  0.50400001928E-02 0. -1.
        1   -1    0    0  501    0  0.00000000000E+00  0.00000000000E+00 -0.14153295446E+04  0.14153295446E+04  0.50400001928E-02 0.  1.
    10030    2    1    2    0    0  0.00000000000E+00  0.00000000000E+00 -0.10107176173E+04  0.18199414719E+04  0.15134850046E+04 0.  0.
        5    1    3    3  502    0  0.10694580484E+03  0.23111217240E+03  0.35152125474E+03  0.43409621507E+03  0.46999998093E+01 0. -1.
       -5    1    3    3    0  502 -0.10694580484E+03 -0.23111217240E+03 -0.13622388720E+04  0.13858452568E+04  0.46999998093E+01 0.  1.
</event>
<event>
 5   0  0.1526126E-03  0.1491625E+04  0.7818609E-02  0.8890041E-01
       -2   -1    0    0    0  501  0.00000000000E+00  0.00000000000E+00  0.61379509051E+03  0.61379509052E+03  0.25500000920E-02 0. -1.
        2   -1    0    0  501    0  0.00000000000E+00  0.00000000000E+00 -0.90622486806E+03  0.90622486806E+03  0.25500000920E-02 0.  1.
    10030    2    1    2    0    0  0.00000000000E+00  0.00000000000E+00 -0.29242977755E+03  0.15200199586E+04  0.14916251204E+04 0.  0.
        2    1    3    3  502    0  0.76808145772E+01  0.18354631806E+03  0.59037849851E+03  0.61830010294E+03  0.25500000920E-02 0. -1.
       -2    1    3    3    0  502 -0.76808145772E+01 -0.18354631806E+03 -0.88280827605E+03  0.90171985564E+03  0.25500000920E-02 0.  1.
</event>
<event>
 5   0  0.8191876E-04  0.1517788E+04  0.7818609E-02  0.8872709E-01
        1   -1    0    0  501    0  0.00000000000E+00  0.00000000000E+00  0.91458724042E+03  0.91458724044E+03  0.50400001928E-02 0.  1.
       -1   -1    0    0    0  501  0.00000000000E+00  0.00000000000E+00 -0.62970527060E+03  0.62970527062E+03  0.50400001928E-02 0. -1.
    10030    2    1    2    0    0  0.00000000000E+00  0.00000000000E+00  0.28488196982E+03  0.15442925111E+04  0.15177883986E+04 0.  0.
        2    1    3    3  502    0 -0.43201542013E+03 -0.20422612651E+03 -0.45740873385E+03  0.66148951903E+03  0.25500000920E-02 0. -1.
       -2    1    3    3    0  502  0.43201542013E+03  0.20422612651E+03  0.74229070367E+03  0.88280299203E+03  0.25500000920E-02 0.  1.
</event>
<event>
 5   0  0.1484056E-03  0.1519884E+04  0.7818609E-02  0.8871337E-01
       -2   -1    0    0    0  501  0.00000000000E+00  0.00000000000E+00  0.34297730647E+03  0.34297730648E+03  0.25500000920E-02 0.  1.
        2   -1    0    0  501    0  0.00000000000E+00  0.00000000000E+00 -0.16838191747E+04  0.16838191747E+04  0.25500000920E-02 0. -1.
    10030    2    1    2    0    0  0.00000000000E+00  0.00000000000E+00 -0.13408418683E+04  0.20267964812E+04  0.15198838971E+04 0.  0.
        5    1    3    3  502    0  0.58925378035E+03  0.44148678384E+03 -0.41966559497E+03  0.84750923273E+03  0.46999998093E+01 0.  1.
       -5    1    3    3    0  502 -0.58925378035E+03 -0.44148678384E+03 -0.92117627330E+03  0.11792872485E+04  0.46999998093E+01 0. -1.
</event>
<event>
 5   0  0.7870317E-04  0.1561611E+04  0.7818609E-02  0.8844485E-01
        1   -1    0    0  501    0  0.00000000000E+00  0.00000000000E+00  0.11003565859E+04  0.11003565859E+04  0.50400001928E-02 0.  1.
       -1   -1    0    0    0  501  0.00000000000E+00  0.00000000000E+00 -0.55405446567E+03  0.55405446569E+03  0.50400001928E-02 0. -1.
    10030    2    1    2    0    0  0.00000000000E+00  0.00000000000E+00  0.54630212020E+03  0.16544110516E+04  0.15616113220E+04 0.  0.
        1    1    3    3  502    0 -0.72449166328E+03 -0.26665743877E+03  0.14931548610E+03  0.78631385224E+03  0.50400001928E-02 0.  1.
       -1    1    3    3    0  502  0.72449166328E+03  0.26665743877E+03  0.39698663410E+03  0.86809719933E+03  0.50400001928E-02 0. -1.
</event>
<event>
 5   0  0.1552067E-03  0.1477323E+04  0.7818609E-02  0.8899674E-01
        2   -1    0    0  501    0  0.00000000000E+00  0.00000000000E+00  0.18196972297E+04  0.18196972297E+04  0.25500000920E-02 0.  1.
       -2   -1    0    0    0  501  0.00000000000E+00  0.00000000000E+00 -0.29984151527E+03  0.29984151528E+03  0.25500000920E-02 0. -1.
    10030    2    1    2    0    0  0.00000000000E+00  0.00000000000E+00  0.15198557144E+04  0.21195387449E+04  0.14773229500E+04 0.  0.
        3    1    3    3  502    0  0.87565019272E+02  0.26573774775E+03 -0.22087292576E+03  0.35646744973E+03  0.10100000352E+00 0. -1.
       -3    1    3    3    0  502 -0.87565019272E+02 -0.26573774775E+03  0.17407286401E+04  0.17630712952E+04  0.10100000352E+00 0.  1.
</event>
<event>
 5   0  0.1484056E-03  0.1522369E+04  0.7818609E-02  0.8869712E-01
        2   -1    0    0  501    0  0.00000000000E+00  0.00000000000E+00  0.12358356701E+04  0.12358356701E+04  0.25500000920E-02 0.  1.
       -2   -1    0    0    0  501  0.00000000000E+00  0.00000000000E+00 -0.46883429131E+03  0.46883429132E+03  0.25500000920E-02 0. -1.
    10030    2    1    2    0    0  0.00000000000E+00  0.00000000000E+00  0.76700137876E+03  0.17046699614E+04  0.15223693909E+04 0.  0.
        5    1    3    3  502    0 -0.72015525941E+03  0.13693765409E+02  0.10792225464E+03  0.72834086794E+03  0.46999998093E+01 0. -1.
       -5    1    3    3    0  502  0.72015525941E+03 -0.13693765409E+02  0.65907912412E+03  0.97632909345E+03  0.46999998093E+01 0.  1.
</event>
<event>
 5   0  0.7870317E-04  0.1495686E+04  0.7818609E-02  0.8887326E-01
        1   -1    0    0  501    0  0.00000000000E+00  0.00000000000E+00  0.23390110727E+04  0.23390110727E+04  0.50400001928E-02 0.  1.
       -1   -1    0    0    0  501  0.00000000000E+00  0.00000000000E+00 -0.23910510785E+03  0.23910510790E+03  0.50400001928E-02 0. -1.
    10030    2    1    2    0    0  0.00000000000E+00  0.00000000000E+00  0.20999059649E+04  0.25781161806E+04  0.14956864576E+04 0.  0.
        1    1    3    3  502    0 -0.59589903616E+03  0.34945352055E+03  0.15437145476E+04  0.16912326950E+04  0.50400001928E-02 0.  1.
       -1    1    3    3    0  502  0.59589903616E+03 -0.34945352055E+03  0.55619141730E+03  0.88688348560E+03  0.50400001928E-02 0. -1.
</event>
<event>
 5   0  0.1526126E-03  0.1472378E+04  0.7818609E-02  0.8903032E-01
        2   -1    0    0  501    0  0.00000000000E+00  0.00000000000E+00  0.55975060007E+03  0.55975060008E+03  0.25500000920E-02 0.  1.
       -2   -1    0    0    0  501  0.00000000000E+00  0.00000000000E+00 -0.96824216370E+03  0.96824216371E+03  0.25500000920E-02 0. -1.
    10030    2    1    2    0    0  0.00000000000E+00  0.00000000000E+00 -0.40849156363E+03  0.15279927638E+04  0.14723778485E+04 0.  0.
        2    1    3    3  502    0 -0.10595982048E+03  0.17081768553E+03  0.53071965936E+03  0.56751169335E+03  0.25500000920E-02 0.  1.
       -2    1    3    3    0  502  0.10595982048E+03 -0.17081768553E+03 -0.93921122300E+03  0.96048107043E+03  0.25500000920E-02 0. -1.
</event>
<event>
 5   0  0.1484056E-03  0.1508450E+04  0.7818609E-02  0.8878853E-01
        2   -1    0    0  501    0  0.00000000000E+00  0.00000000000E+00  0.36555112867E+03  0.36555112868E+03  0.25500000920E-02 0. -1.
       -2   -1    0    0    0  501  0.00000000000E+00  0.00000000000E+00 -0.15561590159E+04  0.15561590159E+04  0.25500000920E-02 0.  1.
    10030    2    1    2    0    0  0.00000000000E+00  0.00000000000E+00 -0.11906078873E+04  0.19217101446E+04  0.15084504429E+04 0.  0.
        5    1    3    3  502    0 -0.18981475839E+03 -0.65527916900E+03 -0.18562395909E+03  0.70703520139E+03  0.46999998093E+01 0. -1.
       -5    1    3    3    0  502  0.18981475839E+03  0.65527916900E+03 -0.10049839282E+04  0.12146749432E+04  0.46999998093E+01 0.  1.
</event>
<event>
 5   0  0.8191876E-04  0.1549844E+04  0.7818609E-02  0.8851967E-01
        1   -1    0    0  501    0  0.00000000000E+00  0.00000000000E+00  0.80800879936E+03  0.80800879937E+03  0.50400001928E-02 0. -1.
       -1   -1    0    0    0  501  0.00000000000E+00  0.00000000000E+00 -0.74319023430E+03  0.74319023432E+03  0.50400001928E-02 0.  1.
    10030    2    1    2    0    0  0.00000000000E+00  0.00000000000E+00  0.64818565055E+02  0.15511990337E+04  0.15498441843E+04 0.  0.
        2    1    3    3  502    0  0.37126034454E+03  0.38372660052E+03  0.59452636980E+03  0.79908820024E+03  0.25500000920E-02 0. -1.
       -2    1    3    3    0  502 -0.37126034454E+03 -0.38372660052E+03 -0.52970780474E+03  0.75211083345E+03  0.25500000920E-02 0.  1.
</event>
<event>
 5   0  0.1484056E-03  0.1530305E+04  0.7818609E-02  0.8864547E-01
       -2   -1    0    0    0  501  0.00000000000E+00  0.00000000000E+00  0.79476417824E+03  0.79476417825E+03  0.25500000920E-02 0. -1.
        2   -1    0    0  501    0  0.00000000000E+00  0.00000000000E+00 -0.73664454567E+03  0.73664454567E+03  0.25500000920E-02 0.  1.
    10030    2    1    2    0    0  0.00000000000E+00  0.00000000000E+00  0.58119632579E+02  0.15314087239E+04  0.15303054558E+04 0.  0.
        5    1    3    3  502    0 -0.25210487532E+03 -0.62516182490E+02 -0.69116139575E+03  0.73837071055E+03  0.46999998093E+01 0.  1.
       -5    1    3    3    0  502  0.25210487532E+03  0.62516182490E+02  0.74928102833E+03  0.79303801337E+03  0.46999998093E+01 0. -1.
</event>
<event>
 5   0  0.8306301E-04  0.1453672E+04  0.7818609E-02  0.8915859E-01
        1   -1    0    0  501    0  0.00000000000E+00  0.00000000000E+00  0.11076498060E+04  0.11076498060E+04  0.50400001928E-02 0. -1.
       -1   -1    0    0    0  501  0.00000000000E+00  0.00000000000E+00 -0.47694711459E+03  0.47694711461E+03  0.50400001928E-02 0.  1.
    10030    2    1    2    0    0  0.00000000000E+00  0.00000000000E+00  0.63070269143E+03  0.15845969206E+04  0.14536717360E+04 0.  0.
        4    1    3    3  502    0 -0.60101427355E+03  0.31440063224E+03  0.30631725923E+02  0.67897410119E+03  0.12699999809E+01 0.  1.
       -4    1    3    3    0  502  0.60101427355E+03 -0.31440063224E+03  0.60007096550E+03  0.90562281945E+03  0.12699999809E+01 0. -1.
</event>
<event>
 5   0  0.8058234E-04  0.9314808E+03  0.7818609E-02  0.9387062E-01
        1   -1    0    0  501    0  0.00000000000E+00  0.00000000000E+00  0.84339725434E+03  0.84339725435E+03  0.50400001928E-02 0.  1.
       -1   -1    0    0    0  501  0.00000000000E+00  0.00000000000E+00 -0.25719095102E+03  0.25719095107E+03  0.50400001928E-02 0. -1.
    10030    2    1    2    0    0  0.00000000000E+00  0.00000000000E+00  0.58620630332E+03  0.11005882054E+04  0.93148084676E+03 0.  0.
        5    1    3    3  502    0  0.13387384133E+03  0.43029468841E+03  0.15422074369E+03  0.47632116481E+03  0.46999998093E+01 0. -1.
       -5    1    3    3    0  502 -0.13387384133E+03 -0.43029468841E+03  0.43198555963E+03  0.62426704061E+03  0.46999998093E+01 0.  1.
</event>
<event>
 5   0  0.8058234E-04  0.1493653E+04  0.7818609E-02  0.8888684E-01
        1   -1    0    0  501    0  0.00000000000E+00  0.00000000000E+00  0.58030459142E+03  0.58030459144E+03  0.50400001928E-02 0.  1.
       -1   -1    0    0    0  501  0.00000000000E+00  0.00000000000E+00 -0.96113324847E+03  0.96113324849E+03  0.50400001928E-02 0. -1.
    10030    2    1    2    0    0  0.00000000000E+00  0.00000000000E+00 -0.38082865705E+03  0.15414378399E+04  0.14936532892E+04 0.  0.
        5    1    3    3  502    0  0.18976506209E+03  0.56502687556E+03  0.27393814291E+03  0.65599568980E+03  0.46999998093E+01 0.  1.
       -5    1    3    3    0  502 -0.18976506209E+03 -0.56502687556E+03 -0.65476679997E+03  0.88544215013E+03  0.46999998093E+01 0. -1.
</event>
<event>
 5   0  0.5603875E-04  0.1502673E+04  0.7818609E-02  0.8882677E-01
       -3   -1    0    0    0  501  0.00000000000E+00  0.00000000000E+00  0.83846861076E+03  0.83846861684E+03  0.10100000352E+00 0. -1.
        3   -1    0    0  501    0  0.00000000000E+00  0.00000000000E+00 -0.67325921349E+03  0.67325922107E+03  0.10100000352E+00 0.  1.
    10030    2    1    2    0    0  0.00000000000E+00  0.00000000000E+00  0.16520939727E+03  0.15117278379E+04  0.15026732549E+04 0.  0.
        1    1    3    3  502    0 -0.56640796014E+03  0.38886750431E+03 -0.22331778416E+03  0.72243113580E+03  0.50400001928E-02 0.  1.
       -1    1    3    3    0  502  0.56640796014E+03 -0.38886750431E+03  0.38852718143E+03  0.78929670211E+03  0.50400001928E-02 0. -1.
</event>
<event>
 5   0  0.1552067E-03  0.1492352E+04  0.7818609E-02  0.8889554E-01
       -2   -1    0    0    0  501  0.00000000000E+00  0.00000000000E+00  0.72581865247E+03  0.72581865247E+03  0.25500000920E-02 0.  1.
        2   -1    0    0  501    0  0.00000000000E+00  0.00000000000E+00 -0.76710475873E+03  0.76710475874E+03  0.25500000920E-02 0. -1.
    10030    2    1    2    0    0  0.00000000000E+00  0.00000000000E+00 -0.41286106265E+02  0.14929234112E+04  0.14923524279E+04 0.  0.
        3    1    3    3  502    0  0.15751352998E+03 -0.33616138517E+03 -0.66816494528E+03  0.76436862397E+03  0.10100000352E+00 0. -1.
       -3    1    3    3    0  502 -0.15751352998E+03  0.33616138517E+03  0.62687883901E+03  0.72855478724E+03  0.10100000352E+00 0.  1.
</event>
<event>
 5   0  0.8058234E-04  0.1522497E+04  0.7818609E-02  0.8869629E-01
       -1   -1    0    0    0  501  0.00000000000E+00  0.00000000000E+00  0.11260549170E+04  0.11260549170E+04  0.50400001928E-02 0. -1.
        1   -1    0    0  501    0  0.00000000000E+00  0.00000000000E+00 -0.51462756722E+03  0.51462756724E+03  0.50400001928E-02 0.  1.
    10030    2    1    2    0    0  0.00000000000E+00  0.00000000000E+00  0.61142734974E+03  0.16406824842E+04  0.15224965057E+04 0.  0.
        5    1    3    3  502    0 -0.14261235390E+03  0.67160934892E+03 -0.48560685510E+02  0.68831506682E+03  0.46999998093E+01 0.  1.
       -5    1    3    3    0  502  0.14261235390E+03 -0.67160934892E+03  0.65998803525E+03  0.95236741739E+03  0.46999998093E+01 0. -1.
</event>
<event>
 5   0  0.8058234E-04  0.1399289E+04  0.7818609E-02  0.8954334E-01
        1   -1    0    0  501    0  0.00000000000E+00  0.00000000000E+00  0.57130042972E+03  0.57130042974E+03  0.50400001928E-02 0.  1.
       -1   -1    0    0    0  501  0.00000000000E+00  0.00000000000E+00 -0.85682098906E+03  0.85682098908E+03  0.50400001928E-02 0. -1.
    10030    2    1    2    0    0  0.00000000000E+00  0.00000000000E+00 -0.28552055934E+03  0.14281214188E+04  0.13992886754E+04 0.  0.
        5    1    3    3  502    0  0.12514078520E+03 -0.42785151331E+03 -0.69309557365E+03  0.82408779737E+03  0.46999998093E+01 0. -1.
       -5    1    3    3    0  502 -0.12514078520E+03  0.42785151331E+03  0.40757501430E+03  0.60403362145E+03  0.46999998093E+01 0.  1.
</event>
<event>
 5   0  0.1552067E-03  0.1524801E+04  0.7818609E-02  0.8868126E-01
        2   -1    0    0  501    0  0.00000000000E+00  0.00000000000E+00  0.66095713098E+03  0.66095713099E+03  0.25500000920E-02 0.  1.
       -2   -1    0    0    0  501  0.00000000000E+00  0.00000000000E+00 -0.87941333969E+03  0.87941333969E+03  0.25500000920E-02 0. -1.
    10030    2    1    2    0    0  0.00000000000E+00  0.00000000000E+00 -0.21845620870E+03  0.15403704707E+04  0.15248009942E+04 0.  0.
        3    1    3    3  502    0 -0.16917672001E+03  0.39363026457E+03  0.52783695384E+03  0.67983630957E+03  0.10100000352E+00 0.  1.
       -3    1    3    3    0  502  0.16917672001E+03 -0.39363026457E+03 -0.74629316254E+03  0.86053416111E+03  0.10100000352E+00 0. -1.
</event>
<event>
 5   0  0.1511546E-03  0.1506648E+04  0.7818609E-02  0.8880044E-01
       -2   -1    0    0    0  501  0.00000000000E+00  0.00000000000E+00  0.42861364502E+03  0.42861364503E+03  0.25500000920E-02 0. -1.
        2   -1    0    0  501    0  0.00000000000E+00  0.00000000000E+00 -0.13240291839E+04  0.13240291839E+04  0.25500000920E-02 0.  1.
    10030    2    1    2    0    0  0.00000000000E+00  0.00000000000E+00 -0.89541553888E+03  0.17526428289E+04  0.15066479013E+04 0.  0.
        1    1    3    3  502    0 -0.96704617604E+02  0.30653395624E+03  0.34484074371E+03  0.47141275751E+03  0.50400001928E-02 0. -1.
       -1    1    3    3    0  502  0.96704617604E+02 -0.30653395624E+03 -0.12402562826E+04  0.12812300714E+04  0.50400001928E-02 0.  1.
</event>
<event>
 5   0  0.1500956E-03  0.1510702E+04  0.7818609E-02  0.8877367E-01
       -2   -1    0    0    0  501  0.00000000000E+00  0.00000000000E+00  0.11652670224E+04  0.11652670224E+04  0.25500000920E-02 0.  1.
        2   -1    0    0  501    0  0.00000000000E+00  0.00000000000E+00 -0.48963451459E+03  0.48963451459E+03  0.25500000920E-02 0. -1.
    10030    2    1    2    0    0  0.00000000000E+00  0.00000000000E+00  0.67563250785E+03  0.16549015370E+04  0.15107017613E+04 0.  0.
        4    1    3    3  502    0  0.42923363083E+02  0.70110211794E+03  0.64212085217E+03  0.95168660628E+03  0.12699999809E+01 0.  1.
       -4    1    3    3    0  502 -0.42923363083E+02 -0.70110211794E+03  0.33511655687E+02  0.70321493076E+03  0.12699999809E+01 0. -1.
</event>
<event>
 5   0  0.8191876E-04  0.1501499E+04  0.7818609E-02  0.8883457E-01
        1   -1    0    0  501    0  0.00000000000E+00  0.00000000000E+00  0.17920835077E+04  0.17920835077E+04  0.50400001928E-02 0. -1.
       -1   -1    0    0    0  501  0.00000000000E+00  0.00000000000E+00 -0.31450791645E+03  0.31450791649E+03  0.50400001928E-02 0.  1.
    10030    2    1    2    0    0  0.00000000000E+00  0.00000000000E+00  0.14775755912E+04  0.21065914242E+04  0.15014985183E+04 0.  0.
        2    1    3    3  502    0  0.18674020800E+03  0.70578922845E+03  0.49330773490E+03  0.88111455646E+03  0.25500000920E-02 0. -1.
       -2    1    3    3    0  502 -0.18674020800E+03 -0.70578922845E+03  0.98426785633E+03  0.12254768677E+04  0.25500000920E-02 0.  1.
</event>
<event>
 5   0  0.1484056E-03  0.1505156E+04  0.7818609E-02  0.8881032E-01
       -2   -1    0    0    0  501  0.00000000000E+00  0.00000000000E+00  0.13284689881E+04  0.13284689881E+04  0.25500000920E-02 0.  1.
        2   -1    0    0  501    0  0.00000000000E+00  0.00000000000E+00 -0.42633538420E+03  0.42633538420E+03  0.25500000920E-02 0. -1.
    10030    2    1    2    0    0  0.00000000000E+00  0.00000000000E+00  0.90213360394E+03  0.17548043723E+04  0.15051555886E+04 0.  0.
        5    1    3    3  502    0  0.26690356984E+03 -0.69936096247E+03  0.54143411567E+03  0.92385943900E+03  0.46999998093E+01 0. -1.
       -5    1    3    3    0  502 -0.26690356984E+03  0.69936096247E+03  0.36069948827E+03  0.83094493334E+03  0.46999998093E+01 0.  1.
</event>
<event>
 5   0  0.8306301E-04  0.1511638E+04  0.7818609E-02  0.8876750E-01
        1   -1    0    0  501    0  0.00000000000E+00  0.00000000000E+00  0.51881978798E+03  0.51881978801E+03  0.50400001928E-02 0.  1.
       -1   -1    0    0    0  501  0.00000000000E+00  0.00000000000E+00 -0.11010810752E+04  0.11010810752E+04  0.50400001928E-02 0. -1.
    10030    2    1    2    0    0  0.00000000000E+00  0.00000000000E+00 -0.58226128719E+03  0.16199008632E+04  0.15116383827E+04 0.  0.
        4    1    3    3  502    0 -0.50495173277E+03 -0.53571344262E+03 -0.47454946121E+03  0.87587895800E+03  0.12699999809E+01 0. -1.
       -4    1    3    3    0  502  0.50495173277E+03  0.53571344262E+03 -0.10771182597E+03  0.74402190518E+03  0.12699999809E+01 0.  1.
</event>
<event>
 5   0  0.1511546E-03  0.1474021E+04  0.7818609E-02  0.8901915E-01
        2   -1    0    0  501    0  0.00000000000E+00  0.00000000000E+00  0.10835881211E+04  0.10835881211E+04  0.25500000920E-02 0. -1.
       -2   -1    0    0    0  501  0.00000000000E+00  0.00000000000E+00 -0.50128282571E+03  0.50128282571E+03  0.25500000920E-02 0.  1.
    10030    2    1    2    0    0  0.00000000000E+00  0.00000000000E+00  0.58230529537E+03  0.15848709468E+04  0.14740205090E+04 0.  0.
        1    1    3    3  502    0  0.12876465206E+03 -0.38826144829E+02  0.10702825297E+04  0.10786994478E+04  0.50400001928E-02 0. -1.
       -1    1    3    3    0  502 -0.12876465206E+03  0.38826144829E+02 -0.48797723436E+03  0.50617149902E+03  0.50400001928E-02 0.  1.
</event>
<event>
 5   0  0.5603875E-04  0.1537285E+04  0.7818609E-02  0.8860031E-01
       -4   -1    0    0    0  501  0.00000000000E+00  0.00000000000E+00  0.48548206565E+03  0.48548372678E+03  0.12699999809E+01 0. -1.
        4   -1    0    0  501    0  0.00000000000E+00  0.00000000000E+00 -0.12169532752E+04  0.12169539378E+04  0.12699999809E+01 0.  1.
    10030    2    1    2    0    0  0.00000000000E+00  0.00000000000E+00 -0.73147120950E+03  0.17024376646E+04  0.15372845773E+04 0.  0.
        2    1    3    3  502    0  0.72341442739E+02 -0.55841567413E+03  0.21368469986E+03  0.60226447713E+03  0.25500000920E-02 0. -1.
       -2    1    3    3    0  502 -0.72341442739E+02  0.55841567413E+03 -0.94515590936E+03  0.11001731875E+04  0.25500000920E-02 0.  1.
</event>
<event>
 5   0  0.1526126E-03  0.1446457E+04  0.7818609E-02  0.8920860E-01
        2   -1    0    0  501    0  0.00000000000E+00  0.00000000000E+00  0.55850408432E+03  0.55850408432E+03  0.25500000920E-02 0. -1.
       -2   -1    0    0    0  501  0.00000000000E+00  0.00000000000E+00 -0.93653681191E+03  0.93653681191E+03  0.25500000920E-02 0.  1.
    10030    2    1    2    0    0  0.00000000000E+00  0.00000000000E+00 -0.37803272759E+03  0.14950408962E+04  0.14464572369E+04 0.  0.
        2    1    3    3  502    0  0.47502526895E+03  0.51710752749E+03 -0.36807019089E+03  0.79279560200E+03  0.25500000920E-02 0.  1.
       -2    1    3    3    0  502 -0.47502526895E+03 -0.51710752749E+03 -0.99625367014E+01  0.70224529423E+03  0.25500000920E-02 0. -1.
</event>
<event>
 5   0  0.7870317E-04  0.1488003E+04  0.7818609E-02  0.8892470E-01
        1   -1    0    0  501    0  0.00000000000E+00  0.00000000000E+00  0.11284244846E+04  0.11284244846E+04  0.50400001928E-02 0. -1.
       -1   -1    0    0    0  501  0.00000000000E+00  0.00000000000E+00 -0.49054107459E+03  0.49054107462E+03  0.50400001928E-02 0.  1.
    10030    2    1    2    0    0  0.00000000000E+00  0.00000000000E+00  0.63788340999E+03  0.16189655592E+04  0.14880034399E+04 0.  0.
        1    1    3    3  502    0  0.16859284374E+03  0.59583695201E+03 -0.12978025912E+03  0.63268328256E+03  0.50400001928E-02 0.  1.
       -1    1    3    3    0  502 -0.16859284374E+03 -0.59583695201E+03  0.76766366911E+03  0.98628227665E+03  0.50400001928E-02 0. -1.
</event>
<event>
 5   0  0.8306301E-04  0.1476681E+04  0.7818609E-02  0.8900109E-01
        1   -1    0    0  501    0  0.00000000000E+00  0.00000000000E+00  0.11414468853E+04  0.11414468853E+04  0.50400001928E-02 0.  1.
       -1   -1    0    0    0  501  0.00000000000E+00  0.00000000000E+00 -0.47759282026E+03  0.47759282028E+03  0.50400001928E-02 0. -1.
    10030    2    1    2    0    0  0.00000000000E+00  0.00000000000E+00  0.66385406500E+03  0.16190397055E+04  0.14766811939E+04 0.  0.
        4    1    3    3  502    0 -0.17394680885E+02 -0.57104529450E+03 -0.18086906085E+03  0.59925831940E+03  0.12699999809E+01 0. -1.
       -4    1    3    3    0  502  0.17394680885E+02  0.57104529450E+03  0.84472312585E+03  0.10197813861E+04  0.12699999809E+01 0.  1.
</event>
<event>
 5   0  0.1526126E-03  0.1695362E+04  0.7818609E-02  0.8764014E-01
        2   -1    0    0  501    0  0.00000000000E+00  0.00000000000E+00  0.10741246695E+04  0.10741246695E+04  0.25500000920E-02 0.  1.
       -2   -1    0    0    0  501  0.00000000000E+00  0.00000000000E+00 -0.66897583500E+03  0.66897583501E+03  0.25500000920E-02 0. -1.
    10030    2    1    2    0    0  0.00000000000E+00  0.00000000000E+00  0.40514883451E+03  0.17431005045E+04  0.16953624364E+04 0.  0.
        2    1    3    3  502    0 -0.25102956202E+03  0.79711160092E+03  0.56587915682E+02  0.83761861102E+03  0.25500000920E-02 0.  1.
       -2    1    3    3    0  502  0.25102956202E+03 -0.79711160092E+03  0.34856091882E+03  0.90548189350E+03  0.25500000920E-02 0. -1.
</event>
<event>
 5   0  0.1484056E-03  0.1441258E+04  0.7818609E-02  0.8924484E-01
       -2   -1    0    0    0  501  0.00000000000E+00  0.00000000000E+00  0.61775681467E+03  0.61775681467E+03  0.25500000920E-02 0.  1.
        2   -1    0    0  501    0  0.00000000000E+00  0.00000000000E+00 -0.84063192504E+03  0.84063192505E+03  0.25500000920E-02 0. -1.
    10030    2    1    2    0    0  0.00000000000E+00  0.00000000000E+00 -0.22287511038E+03  0.14583887397E+04  0.14412579232E+04 0.  0.
        5    1    3    3  502    0  0.40620680017E+03 -0.21422425528E+03  0.45049001401E+03  0.64331900234E+03  0.46999998093E+01 0.  1.
       -5    1    3    3    0  502 -0.40620680017E+03  0.21422425528E+03 -0.67336512438E+03  0.81506973738E+03  0.46999998093E+01 0. -1.
</event>
<event>
 5   0  0.8306301E-04  0.1463969E+04  0.7818609E-02  0.8908773E-01
       -1   -1    0    0    0  501  0.00000000000E+00  0.00000000000E+00  0.47606098047E+03  0.47606098050E+03  0.50400001928E-02 0.  1.
        1   -1    0    0  501    0  0.00000000000E+00  0.00000000000E+00 -0.11254887955E+04  0.11254887955E+04  0.50400001928E-02 0. -1.
    10030    2    1    2    0    0  0.00000000000E+00  0.00000000000E+00 -0.64942781499E+03  0.16015497760E+04  0.14639689881E+04 0.  0.
        4    1    3    3  502    0 -0.59343062954E+03  0.24990591354E+03  0.56120552594E+02  0.64634666165E+03  0.12699999809E+01 0. -1.
       -4    1    3    3    0  502  0.59343062954E+03 -0.24990591354E+03 -0.70554836758E+03  0.95520311432E+03  0.12699999809E+01 0.  1.
</event>
<event>
 5   0  0.8191876E-04  0.1482870E+04  0.7818609E-02  0.8895925E-01
       -1   -1    0    0    0  501  0.00000000000E+00  0.00000000000E+00  0.67487666310E+03  0.67487666311E+03  0.50400001928E-02 0.  1.
        1   -1    0    0  501    0  0.00000000000E+00  0.00000000000E+00 -0.81455760862E+03  0.81455760863E+03  0.50400001928E-02 0. -1.
    10030    2    1    2    0    0  0.00000000000E+00  0.00000000000E+00 -0.13968094552E+03  0.14894342717E+04  0.14828700831E+04 0.  0.
        2    1    3    3  502    0  0.29693376145E+03 -0.67803701226E+03 -0.26965779792E+02  0.74069629537E+03  0.25500000920E-02 0. -1.
       -2    1    3    3    0  502 -0.29693376145E+03  0.67803701226E+03 -0.11271516573E+03  0.74873797638E+03  0.25500000920E-02 0.  1.
</event>
<event>
 5   0  0.1500956E-03  0.1516565E+04  0.7818609E-02  0.8873512E-01
       -2   -1    0    0    0  501  0.00000000000E+00  0.00000000000E+00  0.18780137835E+03  0.18780137837E+03  0.25500000920E-02 0. -1.
        2   -1    0    0  501    0  0.00000000000E+00  0.00000000000E+00 -0.30617037277E+04  0.30617037277E+04  0.25500000920E-02 0.  1.
    10030    2    1    2    0    0  0.00000000000E+00  0.00000000000E+00 -0.28739023493E+04  0.32495051060E+04  0.15165647763E+04 0.  0.
        4    1    3    3  502    0  0.16153331326E+03 -0.46888246280E+03 -0.26660451487E+04  0.27117784060E+04  0.12699999809E+01 0.  1.
       -4    1    3    3    0  502 -0.16153331326E+03  0.46888246280E+03 -0.20785720060E+03  0.53772670006E+03  0.12699999809E+01 0. -1.
</event>
<event>
 5   0  0.5603875E-04  0.1519708E+04  0.7818609E-02  0.8871452E-01
       -3   -1    0    0    0  501  0.00000000000E+00  0.00000000000E+00  0.13865860721E+04  0.13865860758E+04  0.10100000352E+00 0. -1.
        3   -1    0    0  501    0  0.00000000000E+00  0.00000000000E+00 -0.41640268029E+03  0.41640269254E+03  0.10100000352E+00 0.  1.
    10030    2    1    2    0    0  0.00000000000E+00  0.00000000000E+00  0.97018339178E+03  0.18029887683E+04  0.15197080920E+04 0.  0.
        2    1    3    3  502    0 -0.60381309509E+03 -0.99024971608E+02 -0.49425374551E+02  0.61387219066E+03  0.25500000920E-02 0.  1.
       -2    1    3    3    0  502  0.60381309509E+03  0.99024971608E+02  0.10196087663E+04  0.11891165776E+04  0.25500000920E-02 0. -1.
</event>
<event>
 5   0  0.1500956E-03  0.1305277E+04  0.7818609E-02  0.9025391E-01
       -2   -1    0    0    0  501  0.00000000000E+00  0.00000000000E+00  0.19540156145E+03  0.19540156147E+03  0.25500000920E-02 0. -1.
        2   -1    0    0  501    0  0.00000000000E+00  0.00000000000E+00 -0.21798032970E+04  0.21798032970E+04  0.25500000920E-02 0.  1.
    10030    2    1    2    0    0  0.00000000000E+00  0.00000000000E+00 -0.19844017355E+04  0.23752048584E+04  0.13052769329E+04 0.  0.
        4    1    3    3  502    0  0.52074083325E+03 -0.37737142771E+03 -0.78993512411E+03  0.10186163768E+04  0.12699999809E+01 0. -1.
       -4    1    3    3    0  502 -0.52074083325E+03  0.37737142771E+03 -0.11944666114E+04  0.13565884817E+04  0.12699999809E+01 0.  1.
</event>
<event>
 5   0  0.1500956E-03  0.1437166E+04  0.7818609E-02  0.8927346E-01
        2   -1    0    0  501    0  0.00000000000E+00  0.00000000000E+00  0.73590492991E+03  0.73590492992E+03  0.25500000920E-02 0.  1.
       -2   -1    0    0    0  501  0.00000000000E+00  0.00000000000E+00 -0.70166919770E+03  0.70166919770E+03  0.25500000920E-02 0. -1.
    10030    2    1    2    0    0  0.00000000000E+00  0.00000000000E+00  0.34235732215E+02  0.14375741276E+04  0.14371664090E+04 0.  0.
        4    1    3    3  502    0  0.15528778545E+03 -0.29530519243E+03  0.65372654145E+03  0.73394785706E+03  0.12699999809E+01 0.  1.
       -4    1    3    3    0  502 -0.15528778545E+03  0.29530519243E+03 -0.61949080924E+03  0.70362627056E+03  0.12699999809E+01 0. -1.
</event>
<event>
 5   0  0.1484056E-03  0.1504582E+04  0.7818609E-02  0.8881412E-01
       -2   -1    0    0    0  501  0.00000000000E+00  0.00000000000E+00  0.32344885363E+03  0.32344885364E+03  0.25500000920E-02 0. -1.
        2   -1    0    0  501    0  0.00000000000E+00  0.00000000000E+00 -0.17497101705E+04  0.17497101705E+04  0.25500000920E-02 0.  1.
    10030    2    1    2    0    0  0.00000000000E+00  0.00000000000E+00 -0.14262613169E+04  0.20731590241E+04  0.15045820002E+04 0.  0.
        5    1    3    3  502    0 -0.26383640890E+03  0.38440091021E+02  0.25614164772E+03  0.36975387077E+03  0.46999998093E+01 0. -1.
       -5    1    3    3    0  502  0.26383640890E+03 -0.38440091021E+02 -0.16824029646E+04  0.17034051534E+04  0.46999998093E+01 0.  1.
</event>
<event>
 5   0  0.8191876E-04  0.1500362E+04  0.7818609E-02  0.8884212E-01
       -1   -1    0    0    0  501  0.00000000000E+00  0.00000000000E+00  0.37861686315E+03  0.37861686318E+03  0.50400001928E-02 0. -1.
        1   -1    0    0  501    0  0.00000000000E+00  0.00000000000E+00 -0.14863875868E+04  0.14863875868E+04  0.50400001928E-02 0.  1.
    10030    2    1    2    0    0  0.00000000000E+00  0.00000000000E+00 -0.11077707236E+04  0.18650044500E+04  0.15003618305E+04 0.  0.
        2    1    3    3  502    0 -0.51834033061E+03  0.22833767002E+03  0.57552905599E+02  0.56932163742E+03  0.25500000920E-02 0. -1.
       -2    1    3    3    0  502  0.51834033061E+03 -0.22833767002E+03 -0.11653236292E+04  0.12956828126E+04  0.25500000920E-02 0.  1.
</event>
<event>
 5   0  0.7870317E-04  0.1541992E+04  0.7818609E-02  0.8856999E-01
       -1   -1    0    0    0  501  0.00000000000E+00  0.00000000000E+00  0.35800838599E+03  0.35800838603E+03  0.50400001928E-02 0.  1.
        1   -1    0    0  501    0  0.00000000000E+00  0.00000000000E+00 -0.16603931701E+04  0.16603931701E+04  0.50400001928E-02 0. -1.
    10030    2    1    2    0    0  0.00000000000E+00  0.00000000000E+00 -0.13023847841E+04  0.20184015561E+04  0.15419918015E+04 0.  0.
        1    1    3    3  502    0  0.41434507069E+03 -0.29798250181E+03  0.10524372945E+03  0.52110618074E+03  0.50400001928E-02 0.  1.
       -1    1    3    3    0  502 -0.41434507069E+03  0.29798250181E+03 -0.14076285135E+04  0.14972953754E+04  0.50400001928E-02 0. -1.
</event>
<event>
 5   0  0.8058234E-04  0.1573558E+04  0.7818609E-02  0.8836959E-01
       -1   -1    0    0    0  501  0.00000000000E+00  0.00000000000E+00  0.32280324292E+03  0.32280324296E+03  0.50400001928E-02 0.  1.
        1   -1    0    0  501    0  0.00000000000E+00  0.00000000000E+00 -0.19176434071E+04  0.19176434071E+04  0.50400001928E-02 0. -1.
    10030    2    1    2    0    0  0.00000000000E+00  0.00000000000E+00 -0.15948401642E+04  0.22404466501E+04  0.15735584014E+04 0.  0.
        5    1    3    3  502    0  0.67197856151E+03  0.38953057954E+03 -0.97588056349E+03  0.12472586836E+04  0.46999998093E+01 0.  1.
       -5    1    3    3    0  502 -0.67197856151E+03 -0.38953057954E+03 -0.61895960070E+03  0.99318796651E+03  0.46999998093E+01 0. -1.
</event>
<event>
 5   0  0.1511546E-03  0.1474450E+04  0.7818609E-02  0.8901623E-01
       -2   -1    0    0    0  501  0.00000000000E+00  0.00000000000E+00  0.26755068627E+03  0.26755068628E+03  0.25500000920E-02 0.  1.
        2   -1    0    0  501    0  0.00000000000E+00  0.00000000000E+00 -0.20313946569E+04  0.20313946569E+04  0.25500000920E-02 0. -1.
    10030    2    1    2    0    0  0.00000000000E+00  0.00000000000E+00 -0.17638439706E+04  0.22989453432E+04  0.14744504530E+04 0.  0.
        1    1    3    3  502    0 -0.42148446221E+03  0.18335071894E+03 -0.17806344385E+04  0.18390012620E+04  0.50400001928E-02 0. -1.
       -1    1    3    3    0  502  0.42148446221E+03 -0.18335071894E+03  0.16790467832E+02  0.45994408123E+03  0.50400001928E-02 0.  1.
</event>
<event>
 5   0  0.1484056E-03  0.1482794E+04  0.7818609E-02  0.8895976E-01
        2   -1    0    0  501    0  0.00000000000E+00  0.00000000000E+00  0.11075877586E+04  0.11075877586E+04  0.25500000920E-02 0.  1.
       -2   -1    0    0    0  501  0.00000000000E+00  0.00000000000E+00 -0.49627637577E+03  0.49627637578E+03  0.25500000920E-02 0. -1.
    10030    2    1    2    0    0  0.00000000000E+00  0.00000000000E+00  0.61131138285E+03  0.16038641344E+04  0.14827941714E+04 0.  0.
        5    1    3    3  502    0  0.67169671492E+03 -0.20891727186E+02 -0.33014063134E+02  0.67284839263E+03  0.46999998093E+01 0. -1.
       -5    1    3    3    0  502 -0.67169671492E+03  0.20891727186E+02  0.64432544598E+03  0.93101574178E+03  0.46999998093E+01 0.  1.
</event>
<event>
 5   0  0.1500956E-03  0.1401752E+04  0.7818609E-02  0.8952551E-01
       -2   -1    0    0    0  501  0.00000000000E+00  0.00000000000E+00  0.43419222078E+03  0.43419222078E+03  0.25500000920E-02 0.  1.
        2   -1    0    0  501    0  0.00000000000E+00  0.00000000000E+00 -0.11313589300E+04  0.11313589300E+04  0.25500000920E-02 0. -1.
    10030    2    1    2    0    0  0.00000000000E+00  0.00000000000E+00 -0.69716670922E+03  0.15655511508E+04  0.14017521126E+04 0.  0.
        4    1    3    3  502    0 -0.27899572492E+03 -0.54905564513E+03 -0.72222857725E+03  0.94916618496E+03  0.12699999809E+01 0. -1.
       -4    1    3    3    0  502  0.27899572492E+03  0.54905564513E+03  0.25061868026E+02  0.61638496583E+03  0.12699999809E+01 0.  1.
</event>
<event>
 5   0  0.8058234E-04  0.1504934E+04  0.7818609E-02  0.8881178E-01
       -1   -1    0    0    0  501  0.00000000000E+00  0.00000000000E+00  0.66504670917E+03  0.66504670919E+03  0.50400001928E-02 0.  1.
        1   -1    0    0  501    0  0.00000000000E+00  0.00000000000E+00 -0.85137870433E+03  0.85137870435E+03  0.50400001928E-02 0. -1.
    10030    2    1    2    0    0  0.00000000000E+00  0.00000000000E+00 -0.18633199516E+03  0.15164254135E+04  0.15049340259E+04 0.  0.
        5    1    3    3  502    0  0.69923448904E+02 -0.54510795337E+03 -0.61104820812E+03  0.82184790088E+03  0.46999998093E+01 0. -1.
       -5    1    3    3    0  502 -0.69923448904E+02  0.54510795337E+03  0.42471621295E+03  0.69457751265E+03  0.46999998093E+01 0.  1.
</event>
<event>
 5   0  0.7870317E-04  0.1119436E+04  0.7818609E-02  0.9186453E-01
       -1   -1    0    0    0  501  0.00000000000E+00  0.00000000000E+00  0.15063957943E+04  0.15063957943E+04  0.50400001928E-02 0. -1.
        1   -1    0    0  501    0  0.00000000000E+00  0.00000000000E+00 -0.20796928820E+03  0.20796928826E+03  0.50400001928E-02 0.  1.
    10030    2    1    2    0    0  0.00000000000E+00  0.00000000000E+00  0.12984265061E+04  0.17143650826E+04  0.11194356813E+04 0.  0.
        1    1    3    3  502    0  0.12148428006E+03  0.71498020913E+02  0.14787666272E+04  0.14854700048E+04  0.50400001928E-02 0. -1.
       -1    1    3    3    0  502 -0.12148428006E+03 -0.71498020913E+02 -0.18034012116E+03  0.22889507776E+03  0.50400001928E-02 0.  1.
</event>
<event>
 5   0  0.8191876E-04  0.1480453E+04  0.7818609E-02  0.8897556E-01
        1   -1    0    0  501    0  0.00000000000E+00  0.00000000000E+00  0.14957612472E+04  0.14957612472E+04  0.50400001928E-02 0. -1.
       -1   -1    0    0    0  501  0.00000000000E+00  0.00000000000E+00 -0.36632550389E+03  0.36632550392E+03  0.50400001928E-02 0.  1.
    10030    2    1    2    0    0  0.00000000000E+00  0.00000000000E+00  0.11294357433E+04  0.18620867511E+04  0.14804532990E+04 0.  0.
        2    1    3    3  502    0 -0.36443951175E+03 -0.50928494072E+02  0.13725677476E+04  0.14210390885E+04  0.25500000920E-02 0. -1.
       -2    1    3    3    0  502  0.36443951175E+03  0.50928494072E+02 -0.24313200427E+03  0.44104766267E+03  0.25500000920E-02 0.  1.
</event>
<event>
 5   0  0.8191876E-04  0.1348389E+04  0.7818609E-02  0.8992048E-01
       -1   -1    0    0    0  501  0.00000000000E+00  0.00000000000E+00  0.60950661048E+03  0.60950661050E+03  0.50400001928E-02 0.  1.
        1   -1    0    0  501    0  0.00000000000E+00  0.00000000000E+00 -0.74574817553E+03  0.74574817554E+03  0.50400001928E-02 0. -1.
    10030    2    1    2    0    0  0.00000000000E+00  0.00000000000E+00 -0.13624156504E+03  0.13552547860E+04  0.13483893247E+04 0.  0.
        2    1    3    3  502    0 -0.56373218370E+03  0.68364154483E+02  0.29714506308E+03  0.64090781013E+03  0.25500000920E-02 0.  1.
       -2    1    3    3    0  502  0.56373218370E+03 -0.68364154483E+02 -0.43338662812E+03  0.71434697592E+03  0.25500000920E-02 0. -1.
</event>
<event>
 5   0  0.8058234E-04  0.9752786E+03  0.7818609E-02  0.9336082E-01
       -1   -1    0    0    0  501  0.00000000000E+00  0.00000000000E+00  0.29148763770E+03  0.29148763775E+03  0.50400001928E-02 0.  1.
        1   -1    0    0  501    0  0.00000000000E+00  0.00000000000E+00 -0.81578782682E+03  0.81578782684E+03  0.50400001928E-02 0. -1.
    10030    2    1    2    0    0  0.00000000000E+00  0.00000000000E+00 -0.52430018912E+03  0.11072754646E+04  0.97527855824E+03 0.  0.
        5    1    3    3  502    0  0.12462424100E+03  0.14068983415E+03 -0.77298514026E+03  0.79552055155E+03  0.46999998093E+01 0. -1.
       -5    1    3    3    0  502 -0.12462424100E+03 -0.14068983415E+03  0.24868495114E+03  0.31175491303E+03  0.46999998093E+01 0.  1.
</event>
<event>
 5   0  0.1511546E-03  0.1564034E+04  0.7818609E-02  0.8842953E-01
       -2   -1    0    0    0  501  0.00000000000E+00  0.00000000000E+00  0.54647764203E+03  0.54647764203E+03  0.25500000920E-02 0.  1.
        2   -1    0    0  501    0  0.00000000000E+00  0.00000000000E+00 -0.11190768056E+04  0.11190768056E+04  0.25500000920E-02 0. -1.
    10030    2    1    2    0    0  0.00000000000E+00  0.00000000000E+00 -0.57259916355E+03  0.16655544476E+04  0.15640338282E+04 0.  0.
        1    1    3    3  502    0 -0.13164705258E+03 -0.39267730437E+03  0.42010075156E+03  0.58992461663E+03  0.50400001928E-02 0.  1.
       -1    1    3    3    0  502  0.13164705258E+03  0.39267730437E+03 -0.99269991511E+03  0.10756298310E+04  0.50400001928E-02 0. -1.
</event>
<event>
 5   0  0.8191876E-04  0.1208428E+04  0.7818609E-02  0.9105512E-01
        1   -1    0    0  501    0  0.00000000000E+00  0.00000000000E+00  0.10740092883E+04  0.10740092883E+04  0.50400001928E-02 0. -1.
       -1   -1    0    0    0  501  0.00000000000E+00  0.00000000000E+00 -0.33991734080E+03  0.33991734084E+03  0.50400001928E-02 0.  1.
    10030    2    1    2    0    0  0.00000000000E+00  0.00000000000E+00  0.73409194750E+03  0.14139266291E+04  0.12084277079E+04 0.  0.
        2    1    3    3  502    0 -0.34895754199E+03  0.16263640731E+02  0.94387053642E+03  0.10064429749E+04  0.25500000920E-02 0. -1.
       -2    1    3    3    0  502  0.34895754199E+03 -0.16263640731E+02 -0.20977858893E+03  0.40748365428E+03  0.25500000920E-02 0.  1.
</event>
<event>
 5   0  0.7870317E-04  0.1474867E+04  0.7818609E-02  0.8901340E-01
        1   -1    0    0  501    0  0.00000000000E+00  0.00000000000E+00  0.58124556471E+03  0.58124556473E+03  0.50400001928E-02 0. -1.
       -1   -1    0    0    0  501  0.00000000000E+00  0.00000000000E+00 -0.93559166293E+03  0.93559166294E+03  0.50400001928E-02 0.  1.
    10030    2    1    2    0    0  0.00000000000E+00  0.00000000000E+00 -0.35434609822E+03  0.15168372277E+04  0.14748674578E+04 0.  0.
        1    1    3    3  502    0  0.16885488546E+03 -0.20904957655E+02 -0.91512886080E+03  0.93081137805E+03  0.50400001928E-02 0.  1.
       -1    1    3    3    0  502 -0.16885488546E+03  0.20904957655E+02  0.56078276259E+03  0.58602584963E+03  0.50400001928E-02 0. -1.
</event>
<event>
 5   0  0.1500956E-03  0.1484900E+04  0.7818609E-02  0.8894557E-01
       -2   -1    0    0    0  501  0.00000000000E+00  0.00000000000E+00  0.27947094029E+03  0.27947094030E+03  0.25500000920E-02 0.  1.
        2   -1    0    0  501    0  0.00000000000E+00  0.00000000000E+00 -0.19724126340E+04  0.19724126340E+04  0.25500000920E-02 0. -1.
    10030    2    1    2    0    0  0.00000000000E+00  0.00000000000E+00 -0.16929416937E+04  0.22518835743E+04  0.14849000148E+04 0.  0.
        4    1    3    3  502    0  0.32160957906E+03 -0.59963647457E+03 -0.12969411421E+04  0.14646004786E+04  0.12699999809E+01 0. -1.
       -4    1    3    3    0  502 -0.32160957906E+03  0.59963647457E+03 -0.39600055162E+03  0.78728309569E+03  0.12699999809E+01 0.  1.
</event>
<event>
 5   0  0.8058234E-04  0.1501259E+04  0.7818609E-02  0.8883616E-01
       -1   -1    0    0    0  501  0.00000000000E+00  0.00000000000E+00  0.10104124769E+04  0.10104124769E+04  0.50400001928E-02 0. -1.
        1   -1    0    0  501    0  0.00000000000E+00  0.00000000000E+00 -0.55763836052E+03  0.55763836054E+03  0.50400001928E-02 0.  1.
    10030    2    1    2    0    0  0.00000000000E+00  0.00000000000E+00  0.45277411641E+03  0.15680508375E+04  0.15012591477E+04 0.  0.
        5    1    3    3  502    0 -0.16767211766E+03  0.71875850409E+03  0.83574460131E+02  0.74278833232E+03  0.46999998093E+01 0.  1.
       -5    1    3    3    0  502  0.16767211766E+03 -0.71875850409E+03  0.36919965628E+03  0.82526250517E+03  0.46999998093E+01 0. -1.
</event>
<event>
 5   0  0.8058234E-04  0.1478016E+04  0.7818609E-02  0.8899205E-01
        1   -1    0    0  501    0  0.00000000000E+00  0.00000000000E+00  0.66705156359E+03  0.66705156361E+03  0.50400001928E-02 0.  1.
       -1   -1    0    0    0  501  0.00000000000E+00  0.00000000000E+00 -0.81872632767E+03  0.81872632769E+03  0.50400001928E-02 0. -1.
    10030    2    1    2    0    0  0.00000000000E+00  0.00000000000E+00 -0.15167476408E+03  0.14857778913E+04  0.14780158011E+04 0.  0.
        5    1    3    3  502    0 -0.61855968756E+03  0.28709435058E+03  0.21038821759E+03  0.71366977329E+03  0.46999998093E+01 0.  1.
       -5    1    3    3    0  502  0.61855968756E+03 -0.28709435058E+03 -0.36206298167E+03  0.77210811801E+03  0.46999998093E+01 0. -1.
</event>
<event>
 5   0  0.8191876E-04  0.1513780E+04  0.7818609E-02  0.8875341E-01
       -1   -1    0    0    0  501  0.00000000000E+00  0.00000000000E+00  0.30047697473E+03  0.30047697477E+03  0.50400001928E-02 0. -1.
        1   -1    0    0  501    0  0.00000000000E+00  0.00000000000E+00 -0.19065774865E+04  0.19065774865E+04  0.50400001928E-02 0.  1.
    10030    2    1    2    0    0  0.00000000000E+00  0.00000000000E+00 -0.16061005118E+04  0.22070544613E+04  0.15137802156E+04 0.  0.
        2    1    3    3  502    0 -0.64402318901E+02 -0.47509072631E+03  0.50860213380E+02  0.48212614347E+03  0.25500000920E-02 0. -1.
       -2    1    3    3    0  502  0.64402318901E+02  0.47509072631E+03 -0.16569607252E+04  0.17249283178E+04  0.25500000920E-02 0.  1.
</event>
<event>
 5   0  0.1511546E-03  0.1501532E+04  0.7818609E-02  0.8883435E-01
       -2   -1    0    0    0  501  0.00000000000E+00  0.00000000000E+00  0.16477877381E+04  0.16477877381E+04  0.25500000920E-02 0.  1.
        2   -1    0    0  501    0  0.00000000000E+00  0.00000000000E+00 -0.34206458356E+03  0.34206458357E+03  0.25500000920E-02 0. -1.
    10030    2    1    2    0    0  0.00000000000E+00  0.00000000000E+00  0.13057231545E+04  0.19898523217E+04  0.15015323192E+04 0.  0.
        1    1    3    3  502    0 -0.42349738653E+03  0.55673583942E+03  0.29152491356E+03  0.75782029964E+03  0.50400001928E-02 0. -1.
       -1    1    3    3    0  502  0.42349738653E+03 -0.55673583942E+03  0.10141982410E+04  0.12320320220E+04  0.50400001928E-02 0.  1.
</event>
<event>
 5   0  0.8306301E-04  0.1513454E+04  0.7818609E-02  0.8875555E-01
        1   -1    0    0  501    0  0.00000000000E+00  0.00000000000E+00  0.10459442556E+04  0.10459442556E+04  0.50400001928E-02 0. -1.
       -1   -1    0    0    0  501  0.00000000000E+00  0.00000000000E+00 -0.54748244740E+03  0.54748244742E+03  0.50400001928E-02 0.  1.
    10030    2    1    2    0    0  0.00000000000E+00  0.00000000000E+00  0.49846180817E+03  0.15934267030E+04  0.15134544868E+04 0.  0.
        4    1    3    3  502    0 -0.65692694732E+03  0.37546980294E+03  0.23849807237E+03  0.79335586621E+03  0.12699999809E+01 0.  1.
       -4    1    3    3    0  502  0.65692694732E+03 -0.37546980294E+03  0.25996373580E+03  0.80007083678E+03  0.12699999809E+01 0. -1.
</event>
<event>
 5   0  0.1511546E-03  0.1670295E+04  0.7818609E-02  0.8778490E-01
       -2   -1    0    0    0  501  0.00000000000E+00  0.00000000000E+00  0.10626714525E+04  0.10626714525E+04  0.25500000920E-02 0.  1.
        2   -1    0    0  501    0  0.00000000000E+00  0.00000000000E+00 -0.65633764915E+03  0.65633764915E+03  0.25500000920E-02 0. -1.
    10030    2    1    2    0    0  0.00000000000E+00  0.00000000000E+00  0.40633380333E+03  0.17190091016E+04  0.16702949236E+04 0.  0.
        1    1    3    3  502    0  0.31029928261E+03 -0.68730934850E+02  0.99800064259E+03  0.10473847759E+04  0.50400001928E-02 0.  1.
       -1    1    3    3    0  502 -0.31029928261E+03  0.68730934850E+02 -0.59166683926E+03  0.67162432572E+03  0.50400001928E-02 0. -1.
</event>
<event>
 5   0  0.1552067E-03  0.1481953E+04  0.7818609E-02  0.8896543E-01
       -2   -1    0    0    0  501  0.00000000000E+00  0.00000000000E+00  0.81616216864E+03  0.81616216865E+03  0.25500000920E-02 0.  1.
        2   -1    0    0  501    0  0.00000000000E+00  0.00000000000E+00 -0.67271699211E+03  0.67271699212E+03  0.25500000920E-02 0. -1.
    10030    2    1    2    0    0  0.00000000000E+00  0.00000000000E+00  0.14344517653E+03  0.14888791608E+04  0.14819529806E+04 0.  0.
        3    1    3    3  502    0 -0.15212263347E+03 -0.51934574143E+03 -0.43679005105E+03  0.69544723283E+03  0.10100000352E+00 0. -1.
       -3    1    3    3    0  502  0.15212263347E+03  0.51934574143E+03  0.58023522757E+03  0.79343192794E+03  0.10100000352E+00 0.  1.
</event>
<event>
 5   0  0.1552067E-03  0.1527422E+04  0.7818609E-02  0.8866419E-01
        2   -1    0    0  501    0  0.00000000000E+00  0.00000000000E+00  0.13854615941E+04  0.13854615941E+04  0.25500000920E-02 0. -1.
       -2   -1    0    0    0  501  0.00000000000E+00  0.00000000000E+00 -0.42098226437E+03  0.42098226437E+03  0.25500000920E-02 0.  1.
    10030    2    1    2    0    0  0.00000000000E+00  0.00000000000E+00  0.96447932975E+03  0.18064438585E+04  0.15274223504E+04 0.  0.
        3    1    3    3  502    0 -0.30988605138E+02  0.44171733406E+03 -0.25366562843E+03  0.51031437183E+03  0.10100000352E+00 0.  1.
       -3    1    3    3    0  502  0.30988605138E+02 -0.44171733406E+03  0.12181449582E+04  0.12961294867E+04  0.10100000352E+00 0. -1.
</event>
<event>
 5   0  0.7870317E-04  0.1501708E+04  0.7818609E-02  0.8883318E-01
        1   -1    0    0  501    0  0.00000000000E+00  0.00000000000E+00  0.15887474556E+04  0.15887474556E+04  0.50400001928E-02 0. -1.
       -1   -1    0    0    0  501  0.00000000000E+00  0.00000000000E+00 -0.35485922284E+03  0.35485922287E+03  0.50400001928E-02 0.  1.
    10030    2    1    2    0    0  0.00000000000E+00  0.00000000000E+00  0.12338882327E+04  0.19436066784E+04  0.15017079442E+04 0.  0.
        1    1    3    3  502    0  0.53713404169E+03  0.22753220256E+03  0.50735869939E+01  0.58336062881E+03  0.50400001928E-02 0.  1.
       -1    1    3    3    0  502 -0.53713404169E+03 -0.22753220256E+03  0.12288146457E+04  0.13602460496E+04  0.50400001928E-02 0. -1.
</event>
<event>
 5   0  0.8058234E-04  0.1508603E+04  0.7818609E-02  0.8878752E-01
        1   -1    0    0  501    0  0.00000000000E+00  0.00000000000E+00  0.15742476913E+04  0.15742476913E+04  0.50400001928E-02 0. -1.
       -1   -1    0    0    0  501  0.00000000000E+00  0.00000000000E+00 -0.36142381294E+03  0.36142381297E+03  0.50400001928E-02 0.  1.
    10030    2    1    2    0    0  0.00000000000E+00  0.00000000000E+00  0.12128238784E+04  0.19356715043E+04  0.15086028014E+04 0.  0.
        5    1    3    3  502    0  0.47555993594E+03 -0.35230800917E+03  0.12064125247E+04  0.13437750763E+04  0.46999998093E+01 0. -1.
       -5    1    3    3    0  502 -0.47555993594E+03  0.35230800917E+03  0.64113536839E+01  0.59189642797E+03  0.46999998093E+01 0.  1.
</event>
<event>
 5   0  0.1552067E-03  0.1446802E+04  0.7818609E-02  0.8920620E-01
        2   -1    0    0  501    0  0.00000000000E+00  0.00000000000E+00  0.15751596948E+04  0.15751596948E+04  0.25500000920E-02 0.  1.
       -2   -1    0    0    0  501  0.00000000000E+00  0.00000000000E+00 -0.33222609588E+03  0.33222609589E+03  0.25500000920E-02 0. -1.
    10030    2    1    2    0    0  0.00000000000E+00  0.00000000000E+00  0.12429335989E+04  0.19073857907E+04  0.14468022060E+04 0.  0.
        3    1    3    3  502    0  0.45683825469E+03 -0.54837735035E+03  0.77684289270E+03  0.10549425574E+04  0.10100000352E+00 0.  1.
       -3    1    3    3    0  502 -0.45683825469E+03  0.54837735035E+03  0.46609070624E+03  0.85244323328E+03  0.10100000352E+00 0. -1.
</event>
<event>
 5   0  0.8058234E-04  0.1552485E+04  0.7818609E-02  0.8850282E-01
        1   -1    0    0  501    0  0.00000000000E+00  0.00000000000E+00  0.98104673493E+03  0.98104673494E+03  0.50400001928E-02 0. -1.
       -1   -1    0    0    0  501  0.00000000000E+00  0.00000000000E+00 -0.61419348931E+03  0.61419348933E+03  0.50400001928E-02 0.  1.
    10030    2    1    2    0    0  0.00000000000E+00  0.00000000000E+00  0.36685324562E+03  0.15952402243E+04  0.15524851269E+04 0.  0.
        5    1    3    3  502    0 -0.47837398898E+03  0.23946022537E+03 -0.39451088974E+03  0.66471332542E+03  0.46999998093E+01 0.  1.
       -5    1    3    3    0  502  0.47837398898E+03 -0.23946022537E+03  0.76136413536E+03  0.93052689885E+03  0.46999998093E+01 0. -1.
</event>
<event>
 5   0  0.1526126E-03  0.1490134E+04  0.7818609E-02  0.8891040E-01
        2   -1    0    0  501    0  0.00000000000E+00  0.00000000000E+00  0.21861307895E+04  0.21861307895E+04  0.25500000920E-02 0.  1.
       -2   -1    0    0    0  501  0.00000000000E+00  0.00000000000E+00 -0.25393038509E+03  0.25393038510E+03  0.25500000920E-02 0. -1.
    10030    2    1    2    0    0  0.00000000000E+00  0.00000000000E+00  0.19322004044E+04  0.24400611746E+04  0.14901342668E+04 0.  0.
        2    1    3    3  502    0  0.74627964645E+02  0.24489690273E+03 -0.17964403701E+03  0.31275518559E+03  0.25500000920E-02 0. -1.
       -2    1    3    3    0  502 -0.74627964645E+02 -0.24489690273E+03  0.21118444415E+04  0.21273059890E+04  0.25500000920E-02 0.  1.
</event>
<event>
 5   0  0.8365016E-04  0.1494830E+04  0.7818609E-02  0.8887898E-01
        1   -1    0    0  501    0  0.00000000000E+00  0.00000000000E+00  0.89453242358E+03  0.89453242360E+03  0.50400001928E-02 0. -1.
       -1   -1    0    0    0  501  0.00000000000E+00  0.00000000000E+00 -0.62449285773E+03  0.62449285775E+03  0.50400001928E-02 0.  1.
    10030    2    1    2    0    0  0.00000000000E+00  0.00000000000E+00  0.27003956585E+03  0.15190252813E+04  0.14948299028E+04 0.  0.
        3    1    3    3  502    0 -0.18837298929E+03  0.23705066126E+03  0.82941897287E+03  0.88295710080E+03  0.10100000352E+00 0. -1.
       -3    1    3    3    0  502  0.18837298929E+03 -0.23705066126E+03 -0.55937940703E+03  0.63606818055E+03  0.10100000352E+00 0.  1.
</event>
<event>
 5   0  0.7870317E-04  0.1502510E+04  0.7818609E-02  0.8882786E-01
       -1   -1    0    0    0  501  0.00000000000E+00  0.00000000000E+00  0.33112544103E+03  0.33112544106E+03  0.50400001928E-02 0. -1.
        1   -1    0    0  501    0  0.00000000000E+00  0.00000000000E+00 -0.17044415094E+04  0.17044415094E+04  0.50400001928E-02 0.  1.
    10030    2    1    2    0    0  0.00000000000E+00  0.00000000000E+00 -0.13733160684E+04  0.20355669505E+04  0.15025098290E+04 0.  0.
        1    1    3    3  502    0  0.34049066687E+03  0.56320337079E+03 -0.11774766878E+04  0.13489193013E+04  0.50400001928E-02 0.  1.
       -1    1    3    3    0  502 -0.34049066687E+03 -0.56320337079E+03 -0.19583938057E+03  0.68664764916E+03  0.50400001928E-02 0. -1.
</event>
<event>
 5   0  0.8306301E-04  0.1495336E+04  0.7818609E-02  0.8887560E-01
        1   -1    0    0  501    0  0.00000000000E+00  0.00000000000E+00  0.12163671854E+04  0.12163671854E+04  0.50400001928E-02 0. -1.
       -1   -1    0    0    0  501  0.00000000000E+00  0.00000000000E+00 -0.45957117483E+03  0.45957117486E+03  0.50400001928E-02 0.  1.
    10030    2    1    2    0    0  0.00000000000E+00  0.00000000000E+00  0.75679601053E+03  0.16759383602E+04  0.14953358104E+04 0.  0.
        4    1    3    3  502    0  0.49471734761E+03  0.55924908553E+03  0.42181839494E+03  0.85757633182E+03  0.12699999809E+01 0.  1.
       -4    1    3    3    0  502 -0.49471734761E+03 -0.55924908553E+03  0.33497761560E+03  0.81836202841E+03  0.12699999809E+01 0. -1.
</event>
<event>
 5   0  0.1500956E-03  0.1510949E+04  0.7818609E-02  0.8877204E-01
       -2   -1    0    0    0  501  0.00000000000E+00  0.00000000000E+00  0.39761902579E+03  0.39761902580E+03  0.25500000920E-02 0.  1.
        2   -1    0    0  501    0  0.00000000000E+00  0.00000000000E+00 -0.14353990249E+04  0.14353990249E+04  0.25500000920E-02 0. -1.
    10030    2    1    2    0    0  0.00000000000E+00  0.00000000000E+00 -0.10377799991E+04  0.18330180507E+04  0.15109493200E+04 0.  0.
        4    1    3    3  502    0  0.51443708857E+03 -0.28863325861E+03 -0.10915020368E+04  0.12406985876E+04  0.12699999809E+01 0. -1.
       -4    1    3    3    0  502 -0.51443708857E+03  0.28863325861E+03  0.53722037726E+02  0.59231946305E+03  0.12699999809E+01 0.  1.
</event>
<event>
 5   0  0.8365016E-04  0.1191232E+04  0.7818609E-02  0.9120566E-01
       -1   -1    0    0    0  501  0.00000000000E+00  0.00000000000E+00  0.28625017660E+03  0.28625017664E+03  0.50400001928E-02 0.  1.
        1   -1    0    0  501    0  0.00000000000E+00  0.00000000000E+00 -0.12393289819E+04  0.12393289819E+04  0.50400001928E-02 0. -1.
    10030    2    1    2    0    0  0.00000000000E+00  0.00000000000E+00 -0.95307880527E+03  0.15255791585E+04  0.11912315308E+04 0.  0.
        3    1    3    3  502    0 -0.43692752809E+03 -0.10456689173E+03 -0.97734387450E+03  0.10756583839E+04  0.10100000352E+00 0. -1.
       -3    1    3    3    0  502  0.43692752809E+03  0.10456689173E+03  0.24265069223E+02  0.44992077462E+03  0.10100000352E+00 0.  1.
</event>
<event>
 5   0  0.8058234E-04  0.1524522E+04  0.7818609E-02  0.8868308E-01
        1   -1    0    0  501    0  0.00000000000E+00  0.00000000000E+00  0.13042494401E+04  0.13042494401E+04  0.50400001928E-02 0. -1.
       -1   -1    0    0    0  501  0.00000000000E+00  0.00000000000E+00 -0.44549878267E+03  0.44549878270E+03  0.50400001928E-02 0.  1.
    10030    2    1    2    0    0  0.00000000000E+00  0.00000000000E+00  0.85875065742E+03  0.17497482228E+04  0.15245216140E+04 0.  0.
        5    1    3    3  502    0 -0.21124673344E+03 -0.73079809797E+03  0.37399299087E+03  0.84769327566E+03  0.46999998093E+01 0.  1.
       -5    1    3    3    0  502  0.21124673344E+03  0.73079809797E+03  0.48475766656E+03  0.90205494714E+03  0.46999998093E+01 0. -1.
</event>
<event>
 5   0  0.8306301E-04  0.1493158E+04  0.7818609E-02  0.8889016E-01
       -1   -1    0    0    0  501  0.00000000000E+00  0.00000000000E+00  0.94510095067E+03  0.94510095069E+03  0.50400001928E-02 0. -1.
        1   -1    0    0  501    0  0.00000000000E+00  0.00000000000E+00 -0.58975728365E+03  0.58975728368E+03  0.50400001928E-02 0.  1.
    10030    2    1    2    0    0  0.00000000000E+00  0.00000000000E+00  0.35534366702E+03  0.15348582344E+04  0.14931579548E+04 0.  0.
        4    1    3    3  502    0  0.38663343629E+03 -0.38688010345E+03  0.70001374170E+03  0.88835943175E+03  0.12699999809E+01 0. -1.
       -4    1    3    3    0  502 -0.38663343629E+03  0.38688010345E+03 -0.34467007468E+03  0.64649880262E+03  0.12699999809E+01 0.  1.
</event>
<event>
 5   0  0.1526126E-03  0.1456487E+04  0.7818609E-02  0.8913916E-01
        2   -1    0    0  501    0  0.00000000000E+00  0.00000000000E+00  0.11078464992E+04  0.11078464992E+04  0.25500000920E-02 0. -1.
       -2   -1    0    0    0  501  0.00000000000E+00  0.00000000000E+00 -0.47871100950E+03  0.47871100951E+03  0.25500000920E-02 0.  1.
    10030    2    1    2    0    0  0.00000000000E+00  0.00000000000E+00  0.62913548965E+03  0.15865575087E+04  0.14564866165E+04 0.  0.
        2    1    3    3  502    0 -0.60944982780E+03 -0.46829516299E+02 -0.11665960178E+03  0.62227932546E+03  0.25500000920E-02 0.  1.
       -2    1    3    3    0  502  0.60944982780E+03  0.46829516299E+02  0.74579509143E+03  0.96427818321E+03  0.25500000920E-02 0. -1.
</event>
<event>
 5   0  0.1500956E-03  0.1502808E+04  0.7818609E-02  0.8882588E-01
        2   -1    0    0  501    0  0.00000000000E+00  0.00000000000E+00  0.27052519541E+04  0.27052519541E+04  0.25500000920E-02 0.  1.
       -2   -1    0    0    0  501  0.00000000000E+00  0.00000000000E+00 -0.20870815798E+03  0.20870815800E+03  0.25500000920E-02 0. -1.
    10030    2    1    2    0    0  0.00000000000E+00  0.00000000000E+00  0.24965437961E+04  0.29139601121E+04  0.15028082409E+04 0.  0.
        4    1    3    3  502    0 -0.21633150485E+03  0.17484675686E+03 -0.10520124948E+03  0.29738800273E+03  0.12699999809E+01 0. -1.
       -4    1    3    3    0  502  0.21633150485E+03 -0.17484675686E+03  0.26017450456E+04  0.26165721094E+04  0.12699999809E+01 0.  1.
</event>
<event>
 5   0  0.1500956E-03  0.1514488E+04  0.7818609E-02  0.8874875E-01
        2   -1    0    0  501    0  0.00000000000E+00  0.00000000000E+00  0.50088394869E+03  0.50088394869E+03  0.25500000920E-02 0.  1.
       -2   -1    0    0    0  501  0.00000000000E+00  0.00000000000E+00 -0.11448133543E+04  0.11448133543E+04  0.25500000920E-02 0. -1.
    10030    2    1    2    0    0  0.00000000000E+00  0.00000000000E+00 -0.64392940558E+03  0.16456973030E+04  0.15144882085E+04 0.  0.
        4    1    3    3  502    0  0.43754216322E+03  0.23327994675E+03 -0.94387212741E+03  0.10661889532E+04  0.12699999809E+01 0. -1.
       -4    1    3    3    0  502 -0.43754216322E+03 -0.23327994675E+03  0.29994272183E+03  0.57950834975E+03  0.12699999809E+01 0.  1.
</event>
<event>
 5   0  0.8306301E-04  0.1511061E+04  0.7818609E-02  0.8877130E-01
        1   -1    0    0  501    0  0.00000000000E+00  0.00000000000E+00  0.58757951225E+03  0.58757951227E+03  0.50400001928E-02 0.  1.
       -1   -1    0    0    0  501  0.00000000000E+00  0.00000000000E+00 -0.97148824981E+03  0.97148824983E+03  0.50400001928E-02 0. -1.
    10030    2    1    2    0    0  0.00000000000E+00  0.00000000000E+00 -0.38390873757E+03  0.15590677621E+04  0.15110613383E+04 0.  0.
        4    1    3    3  502    0  0.99821172869E+02 -0.68440285266E+03  0.12176725439E+03  0.70228228543E+03  0.12699999809E+01 0.  1.
       -4    1    3    3    0  502 -0.99821172869E+02  0.68440285266E+03 -0.50567599196E+03  0.85678547667E+03  0.12699999809E+01 0. -1.
</event>
<event>
 5   0  0.1526126E-03  0.1551453E+04  0.7818609E-02  0.8850940E-01
        2   -1    0    0  501    0  0.00000000000E+00  0.00000000000E+00  0.67611518637E+03  0.67611518638E+03  0.25500000920E-02 0.  1.
       -2   -1    0    0    0  501  0.00000000000E+00  0.00000000000E+00 -0.89001387897E+03  0.89001387898E+03  0.25500000920E-02 0. -1.
    10030    2    1    2    0    0  0.00000000000E+00  0.00000000000E+00 -0.21389869260E+03  0.15661290654E+04  0.15514533827E+04 0.  0.
        2    1    3    3  502    0  0.54692916882E+03  0.45914167185E+03  0.19891734037E+03  0.74128988853E+03  0.25500000920E-02 0.  1.
       -2    1    3    3    0  502 -0.54692916882E+03 -0.45914167185E+03 -0.41281603297E+03  0.82483917682E+03  0.25500000920E-02 0. -1.
</event>
<event>
 5   0  0.1500956E-03  0.1505283E+04  0.7818609E-02  0.8880948E-01
       -2   -1    0    0    0  501  0.00000000000E+00  0.00000000000E+00  0.39026799314E+03  0.39026799315E+03  0.25500000920E-02 0.  1.
        2   -1    0    0  501    0  0.00000000000E+00  0.00000000000E+00 -0.14514870172E+04  0.14514870172E+04  0.25500000920E-02 0. -1.
    10030    2    1    2    0    0  0.00000000000E+00  0.00000000000E+00 -0.10612190241E+04  0.18417550104E+04  0.15052825984E+04 0.  0.
        4    1    3    3  502    0 -0.45062945845E+03 -0.58506267102E+03 -0.70834591858E+03  0.10232892021E+04  0.12699999809E+01 0.  1.
       -4    1    3    3    0  502  0.45062945845E+03  0.58506267102E+03 -0.35287310550E+03  0.81846580828E+03  0.12699999809E+01 0. -1.
</event>
<event>
 5   0  0.1484056E-03  0.1501887E+04  0.7818609E-02  0.8883199E-01
        2   -1    0    0  501    0  0.00000000000E+00  0.00000000000E+00  0.61645685602E+03  0.61645685603E+03  0.25500000920E-02 0.  1.
       -2   -1    0    0    0  501  0.00000000000E+00  0.00000000000E+00 -0.91476993750E+03  0.91476993751E+03  0.25500000920E-02 0. -1.
    10030    2    1    2    0    0  0.00000000000E+00  0.00000000000E+00 -0.29831308148E+03  0.15312267935E+04  0.15018870792E+04 0.  0.
        5    1    3    3  502    0  0.24114921060E+03  0.71115301661E+03 -0.15078615848E+03  0.76593087834E+03  0.46999998093E+01 0.  1.
       -5    1    3    3    0  502 -0.24114921060E+03 -0.71115301661E+03 -0.14752692300E+03  0.76529591519E+03  0.46999998093E+01 0. -1.
</event>
<event>
 5   0  0.5603875E-04  0.1492025E+04  0.7818609E-02  0.8889774E-01
       -4   -1    0    0    0  501  0.00000000000E+00  0.00000000000E+00  0.15574299365E+04  0.15574304543E+04  0.12699999809E+01 0. -1.
        4   -1    0    0  501    0  0.00000000000E+00  0.00000000000E+00 -0.35733998144E+03  0.35734223825E+03  0.12699999809E+01 0.  1.
    10030    2    1    2    0    0  0.00000000000E+00  0.00000000000E+00  0.12000899550E+04  0.19147726925E+04  0.14920249877E+04 0.  0.
        5    1    3    3  502    0  0.63594754289E+03  0.26968616399E+02  0.10076873316E+03  0.64446335129E+03  0.46999998093E+01 0.  1.
       -5    1    3    3    0  502 -0.63594754289E+03 -0.26968616399E+02  0.10993212219E+04  0.12703093412E+04  0.46999998093E+01 0. -1.
</event>
<event>
 5   0  0.1484056E-03  0.1601382E+04  0.7818609E-02  0.8819699E-01
        2   -1    0    0  501    0  0.00000000000E+00  0.00000000000E+00  0.10907040445E+04  0.10907040445E+04  0.25500000920E-02 0.  1.
       -2   -1    0    0    0  501  0.00000000000E+00  0.00000000000E+00 -0.58779109248E+03  0.58779109249E+03  0.25500000920E-02 0. -1.
    10030    2    1    2    0    0  0.00000000000E+00  0.00000000000E+00  0.50291295206E+03  0.16784951370E+04  0.16013820555E+04 0.  0.
        5    1    3    3  502    0 -0.86977690166E+02  0.25521842805E+03  0.10416718343E+04  0.10760129483E+04  0.46999998093E+01 0.  1.
       -5    1    3    3    0  502  0.86977690166E+02 -0.25521842805E+03 -0.53875888220E+03  0.60248218874E+03  0.46999998093E+01 0. -1.
</event>
<event>
 5   0  0.8058234E-04  0.1523421E+04  0.7818609E-02  0.8869026E-01
        1   -1    0    0  501    0  0.00000000000E+00  0.00000000000E+00  0.65711143152E+03  0.65711143154E+03  0.50400001928E-02 0. -1.
       -1   -1    0    0    0  501  0.00000000000E+00  0.00000000000E+00 -0.88295964128E+03  0.88295964129E+03  0.50400001928E-02 0.  1.
    10030    2    1    2    0    0  0.00000000000E+00  0.00000000000E+00 -0.22584820976E+03  0.15400710728E+04  0.15234209843E+04 0.  0.
        5    1    3    3  502    0 -0.54716061723E+03 -0.44992714896E+03 -0.39591501582E+03  0.81153556310E+03  0.46999998093E+01 0.  1.
       -5    1    3    3    0  502  0.54716061723E+03  0.44992714896E+03  0.17006680607E+03  0.72853550973E+03  0.46999998093E+01 0. -1.
</event>
<event>
 5   0  0.8191876E-04  0.1479370E+04  0.7818609E-02  0.8898289E-01
       -1   -1    0    0    0  501  0.00000000000E+00  0.00000000000E+00  0.62440746718E+03  0.62440746720E+03  0.50400001928E-02 0. -1.
        1   -1    0    0  501    0  0.00000000000E+00  0.00000000000E+00 -0.87624465044E+03  0.87624465046E+03  0.50400001928E-02 0.  1.
    10030    2    1    2    0    0  0.00000000000E+00  0.00000000000E+00 -0.25183718326E+03  0.15006521177E+04  0.14793697345E+04 0.  0.
        2    1    3    3  502    0 -0.36663908011E+03 -0.59436746322E+03 -0.37322252805E+03  0.79182823380E+03  0.25500000920E-02 0. -1.
       -2    1    3    3    0  502  0.36663908011E+03  0.59436746322E+03  0.12138534479E+03  0.70882388386E+03  0.25500000920E-02 0.  1.
</event>
<event>
 5   0  0.1511546E-03  0.1487267E+04  0.7818609E-02  0.8892965E-01
        2   -1    0    0  501    0  0.00000000000E+00  0.00000000000E+00  0.10714467470E+04  0.10714467470E+04  0.25500000920E-02 0.  1.
       -2   -1    0    0    0  501  0.00000000000E+00  0.00000000000E+00 -0.51611582781E+03  0.51611582782E+03  0.25500000920E-02 0. -1.
    10030    2    1    2    0    0  0.00000000000E+00  0.00000000000E+00  0.55533091920E+03  0.15875625748E+04  0.14872667882E+04 0.  0.
        1    1    3    3  502    0  0.52380983795E+03  0.26948548730E+03  0.76213510383E+03  0.96324923603E+03  0.50400001928E-02 0.  1.
       -1    1    3    3    0  502 -0.52380983795E+03 -0.26948548730E+03 -0.20680418463E+03  0.62431333880E+03  0.50400001928E-02 0. -1.
</event>
<event>
 5   0  0.8306301E-04  0.1519361E+04  0.7818609E-02  0.8871679E-01
        1   -1    0    0  501    0  0.00000000000E+00  0.00000000000E+00  0.13077457564E+04  0.13077457564E+04  0.50400001928E-02 0.  1.
       -1   -1    0    0    0  501  0.00000000000E+00  0.00000000000E+00 -0.44130466925E+03  0.44130466928E+03  0.50400001928E-02 0. -1.
    10030    2    1    2    0    0  0.00000000000E+00  0.00000000000E+00  0.86644108714E+03  0.17490504257E+04  0.15193607979E+04 0.  0.
        4    1    3    3  502    0  0.35859526413E+03 -0.52217956768E+02  0.12018361769E+04  0.12552804816E+04  0.12699999809E+01 0.  1.
       -4    1    3    3    0  502 -0.35859526413E+03  0.52217956768E+02 -0.33539508981E+03  0.49376994403E+03  0.12699999809E+01 0. -1.
</event>
<event>
 5   0  0.1552067E-03  0.1520379E+04  0.7818609E-02  0.8871013E-01
       -2   -1    0    0    0  501  0.00000000000E+00  0.00000000000E+00  0.61872380489E+03  0.61872380490E+03  0.25500000920E-02 0. -1.
        2   -1    0    0  501    0  0.00000000000E+00  0.00000000000E+00 -0.93400028772E+03  0.93400028772E+03  0.25500000920E-02 0.  1.
    10030    2    1    2    0    0  0.00000000000E+00  0.00000000000E+00 -0.31527648283E+03  0.15527240926E+04  0.15203791787E+04 0.  0.
        3    1    3    3  502    0 -0.55650185800E+03 -0.48644500313E+03 -0.33908376401E+03  0.81320407540E+03  0.10100000352E+00 0.  1.
       -3    1    3    3    0  502  0.55650185800E+03  0.48644500313E+03  0.23807281186E+02  0.73952001722E+03  0.10100000352E+00 0. -1.
</event>
<event>
 5   0  0.8058234E-04  0.1509377E+04  0.7818609E-02  0.8878241E-01
        1   -1    0    0  501    0  0.00000000000E+00  0.00000000000E+00  0.10559852585E+04  0.10559852586E+04  0.50400001928E-02 0. -1.
       -1   -1    0    0    0  501  0.00000000000E+00  0.00000000000E+00 -0.53935864909E+03  0.53935864912E+03  0.50400001928E-02 0.  1.
    10030    2    1    2    0    0  0.00000000000E+00  0.00000000000E+00  0.51662660945E+03  0.15953439077E+04  0.15093770669E+04 0.  0.
        5    1    3    3  502    0  0.78136246561E+02  0.74959130418E+03  0.29979520989E+03  0.81110520539E+03  0.46999998093E+01 0.  1.
       -5    1    3    3    0  502 -0.78136246561E+02 -0.74959130418E+03  0.21683139956E+03  0.78423870229E+03  0.46999998093E+01 0. -1.
</event>
<event>
 5   0  0.8365016E-04  0.1499959E+04  0.7818609E-02  0.8884480E-01
       -1   -1    0    0    0  501  0.00000000000E+00  0.00000000000E+00  0.40929431209E+03  0.40929431213E+03  0.50400001928E-02 0. -1.
        1   -1    0    0  501    0  0.00000000000E+00  0.00000000000E+00 -0.13742415782E+04  0.13742415782E+04  0.50400001928E-02 0.  1.
    10030    2    1    2    0    0  0.00000000000E+00  0.00000000000E+00 -0.96494726614E+03  0.17835358904E+04  0.14999590147E+04 0.  0.
        3    1    3    3  502    0  0.68202338333E+03 -0.30505619285E+03 -0.40491948451E+03  0.84980878752E+03  0.10100000352E+00 0.  1.
       -3    1    3    3    0  502 -0.68202338333E+03  0.30505619285E+03 -0.56002778163E+03  0.93372710285E+03  0.10100000352E+00 0. -1.
</event>
<event>
 5   0  0.5603875E-04  0.1492667E+04  0.7818609E-02  0.8889344E-01
       -3   -1    0    0    0  501  0.00000000000E+00  0.00000000000E+00  0.57330200037E+03  0.57330200927E+03  0.10100000352E+00 0. -1.
        3   -1    0    0  501    0  0.00000000000E+00  0.00000000000E+00 -0.97158820659E+03  0.97158821184E+03  0.10100000352E+00 0.  1.
    10030    2    1    2    0    0  0.00000000000E+00  0.00000000000E+00 -0.39828620622E+03  0.15448902211E+04  0.14926667053E+04 0.  0.
        1    1    3    3  502    0 -0.12876530700E+01 -0.67128362977E+03 -0.53672985448E+03  0.85947792663E+03  0.50400001928E-02 0.  1.
       -1    1    3    3    0  502  0.12876530700E+01  0.67128362977E+03  0.13844364826E+03  0.68541229448E+03  0.50400001928E-02 0. -1.
</event>
<event>
 5   0  0.1526126E-03  0.1603806E+04  0.7818609E-02  0.8818213E-01
       -2   -1    0    0    0  501  0.00000000000E+00  0.00000000000E+00  0.30123739378E+03  0.30123739379E+03  0.25500000920E-02 0.  1.
        2   -1    0    0  501    0  0.00000000000E+00  0.00000000000E+00 -0.21346903271E+04  0.21346903271E+04  0.25500000920E-02 0. -1.
    10030    2    1    2    0    0  0.00000000000E+00  0.00000000000E+00 -0.18334529333E+04  0.24359277209E+04  0.16038061612E+04 0.  0.
        2    1    3    3  502    0  0.72455866890E+03  0.37219022535E+02 -0.14355349451E+04  0.16084561227E+04  0.25500000920E-02 0. -1.
       -2    1    3    3    0  502 -0.72455866890E+03 -0.37219022535E+02 -0.39791798823E+03  0.82747159811E+03  0.25500000920E-02 0.  1.
</event>
<event>
 5   0  0.1484056E-03  0.1579452E+04  0.7818609E-02  0.8833272E-01
        2   -1    0    0  501    0  0.00000000000E+00  0.00000000000E+00  0.10886230602E+04  0.10886230602E+04  0.25500000920E-02 0.  1.
       -2   -1    0    0    0  501  0.00000000000E+00  0.00000000000E+00 -0.57289561120E+03  0.57289561121E+03  0.25500000920E-02 0. -1.
    10030    2    1    2    0    0  0.00000000000E+00  0.00000000000E+00  0.51572744899E+03  0.16615186714E+04  0.15794522765E+04 0.  0.
        5    1    3    3  502    0 -0.23485177483E+03  0.52094443391E+03 -0.31553276720E+03  0.65277980709E+03  0.46999998093E+01 0. -1.
       -5    1    3    3    0  502  0.23485177483E+03 -0.52094443391E+03  0.83126021619E+03  0.10087388643E+04  0.46999998093E+01 0.  1.
</event>
<event>
 5   0  0.8306301E-04  0.1506555E+04  0.7818609E-02  0.8880106E-01
        1   -1    0    0  501    0  0.00000000000E+00  0.00000000000E+00  0.74150562882E+03  0.74150562884E+03  0.50400001928E-02 0. -1.
       -1   -1    0    0    0  501  0.00000000000E+00  0.00000000000E+00 -0.76523595589E+03  0.76523595590E+03  0.50400001928E-02 0.  1.
    10030    2    1    2    0    0  0.00000000000E+00  0.00000000000E+00 -0.23730327065E+02  0.15067415847E+04  0.15065547035E+04 0.  0.
        4    1    3    3  502    0 -0.40577562451E+03  0.29022558682E+02  0.62219217655E+03  0.74338474817E+03  0.12699999809E+01 0. -1.
       -4    1    3    3    0  502  0.40577562451E+03 -0.29022558682E+02 -0.64592250361E+03  0.76335683657E+03  0.12699999809E+01 0.  1.
</event>
<event>
 5   0  0.1500956E-03  0.1526178E+04  0.7818609E-02  0.8867229E-01
        2   -1    0    0  501    0  0.00000000000E+00  0.00000000000E+00  0.18437618997E+04  0.18437618997E+04  0.25500000920E-02 0.  1.
       -2   -1    0    0    0  501  0.00000000000E+00  0.00000000000E+00 -0.31582430685E+03  0.31582430686E+03  0.25500000920E-02 0. -1.
    10030    2    1    2    0    0  0.00000000000E+00  0.00000000000E+00  0.15279375929E+04  0.21595862066E+04  0.15261780027E+04 0.  0.
        4    1    3    3  502    0 -0.15580380541E+03  0.73047887588E+03  0.98513470058E+03  0.12362710888E+04  0.12699999809E+01 0.  1.
       -4    1    3    3    0  502  0.15580380541E+03 -0.73047887588E+03  0.54280289228E+03  0.92331511774E+03  0.12699999809E+01 0. -1.
</event>
<event>
 5   0  0.8058234E-04  0.1293974E+04  0.7818609E-02  0.9034358E-01
        1   -1    0    0  501    0  0.00000000000E+00  0.00000000000E+00  0.84977963254E+03  0.84977963255E+03  0.50400001928E-02 0. -1.
       -1   -1    0    0    0  501  0.00000000000E+00  0.00000000000E+00 -0.49258909568E+03  0.49258909570E+03  0.50400001928E-02 0.  1.
    10030    2    1    2    0    0  0.00000000000E+00  0.00000000000E+00  0.35719053686E+03  0.13423687283E+04  0.12939740040E+04 0.  0.
        5    1    3    3  502    0  0.32482861432E+03 -0.54686163466E+03  0.30133690390E+03  0.70384465317E+03  0.46999998093E+01 0.  1.
       -5    1    3    3    0  502 -0.32482861432E+03  0.54686163466E+03  0.55853632960E+02  0.63852407508E+03  0.46999998093E+01 0. -1.
</event>
<event>
 5   0  0.1526126E-03  0.1385753E+04  0.7818609E-02  0.8964197E-01
        2   -1    0    0  501    0  0.00000000000E+00  0.00000000000E+00  0.13042653623E+04  0.13042653623E+04  0.25500000920E-02 0. -1.
       -2   -1    0    0    0  501  0.00000000000E+00  0.00000000000E+00 -0.36808271480E+03  0.36808271481E+03  0.25500000920E-02 0.  1.
    10030    2    1    2    0    0  0.00000000000E+00  0.00000000000E+00  0.93618264753E+03  0.16723480771E+04  0.13857525542E+04 0.  0.
        2    1    3    3  502    0  0.12309281598E+02  0.40455837435E+03 -0.21058409155E+03  0.45625065073E+03  0.25500000920E-02 0.  1.
       -2    1    3    3    0  502 -0.12309281598E+02 -0.40455837435E+03  0.11467667391E+04  0.12160974264E+04  0.25500000920E-02 0. -1.
</event>
<event>
 5   0  0.1552067E-03  0.1521911E+04  0.7818609E-02  0.8870012E-01
        2   -1    0    0  501    0  0.00000000000E+00  0.00000000000E+00  0.14989015220E+04  0.14989015221E+04  0.25500000920E-02 0. -1.
       -2   -1    0    0    0  501  0.00000000000E+00  0.00000000000E+00 -0.38631846976E+03  0.38631846977E+03  0.25500000920E-02 0.  1.
    10030    2    1    2    0    0  0.00000000000E+00  0.00000000000E+00  0.11125830523E+04  0.18852199918E+04  0.15219110911E+04 0.  0.
        3    1    3    3  502    0  0.23217047349E+03 -0.58329949507E+03  0.10889577852E+04  0.12569687736E+04  0.10100000352E+00 0. -1.
       -3    1    3    3    0  502 -0.23217047349E+03  0.58329949507E+03  0.23625267067E+02  0.62825121818E+03  0.10100000352E+00 0.  1.
</event>
<event>
 5   0  0.8191876E-04  0.1500386E+04  0.7818609E-02  0.8884196E-01
       -1   -1    0    0    0  501  0.00000000000E+00  0.00000000000E+00  0.42057385169E+03  0.42057385172E+03  0.50400001928E-02 0.  1.
        1   -1    0    0  501    0  0.00000000000E+00  0.00000000000E+00 -0.13381475041E+04  0.13381475042E+04  0.50400001928E-02 0. -1.
    10030    2    1    2    0    0  0.00000000000E+00  0.00000000000E+00 -0.91757365245E+03  0.17587213559E+04  0.15003864169E+04 0.  0.
        2    1    3    3  502    0  0.24515253897E+02  0.27023240691E+03  0.36103758510E+03  0.45163557132E+03  0.25500000920E-02 0.  1.
       -2    1    3    3    0  502 -0.24515253897E+02 -0.27023240691E+03 -0.12786112375E+04  0.13070857846E+04  0.25500000920E-02 0. -1.
</event>
<event>
 5   0  0.8058234E-04  0.1003390E+04  0.7818609E-02  0.9304835E-01
       -1   -1    0    0    0  501  0.00000000000E+00  0.00000000000E+00  0.15617330486E+03  0.15617330494E+03  0.50400001928E-02 0. -1.
        1   -1    0    0  501    0  0.00000000000E+00  0.00000000000E+00 -0.16116562700E+04  0.16116562700E+04  0.50400001928E-02 0.  1.
    10030    2    1    2    0    0  0.00000000000E+00  0.00000000000E+00 -0.14554829652E+04  0.17678295750E+04  0.10033896274E+04 0.  0.
        5    1    3    3  502    0 -0.22933676848E+03  0.41389836516E+03 -0.43414820520E+03  0.64219464661E+03  0.46999998093E+01 0. -1.
       -5    1    3    3    0  502  0.22933676848E+03 -0.41389836516E+03 -0.10213347600E+04  0.11256349284E+04  0.46999998093E+01 0.  1.
</event>
<event>
 5   0  0.1552067E-03  0.1435707E+04  0.7818609E-02  0.8928370E-01
        2   -1    0    0  501    0  0.00000000000E+00  0.00000000000E+00  0.14513419112E+04  0.14513419112E+04  0.25500000920E-02 0. -1.
       -2   -1    0    0    0  501  0.00000000000E+00  0.00000000000E+00 -0.35505999103E+03  0.35505999104E+03  0.25500000920E-02 0.  1.
    10030    2    1    2    0    0  0.00000000000E+00  0.00000000000E+00  0.10962819201E+04  0.18064019022E+04  0.14357067193E+04 0.  0.
        3    1    3    3  502    0  0.19932820636E+03 -0.27681519877E+02  0.14151249212E+04  0.14293622890E+04  0.10100000352E+00 0. -1.
       -3    1    3    3    0  502 -0.19932820636E+03  0.27681519877E+02 -0.31884300108E+03  0.37703961321E+03  0.10100000352E+00 0.  1.
</event>
<event>
 5   0  0.1552067E-03  0.1481666E+04  0.7818609E-02  0.8896737E-01
        2   -1    0    0  501    0  0.00000000000E+00  0.00000000000E+00  0.61814992095E+03  0.61814992095E+03  0.25500000920E-02 0. -1.
       -2   -1    0    0    0  501  0.00000000000E+00  0.00000000000E+00 -0.88786485192E+03  0.88786485192E+03  0.25500000920E-02 0.  1.
    10030    2    1    2    0    0  0.00000000000E+00  0.00000000000E+00 -0.26971493097E+03  0.15060147729E+04  0.14816660731E+04 0.  0.
        3    1    3    3  502    0 -0.51726887256E+03  0.39278846530E+03 -0.49706118510E+03  0.81787511084E+03  0.10100000352E+00 0.  1.
       -3    1    3    3    0  502  0.51726887256E+03 -0.39278846530E+03  0.22734625413E+03  0.68813966203E+03  0.10100000352E+00 0. -1.
</event>
<event>
 5   0  0.1526126E-03  0.1516424E+04  0.7818609E-02  0.8873604E-01
       -2   -1    0    0    0  501  0.00000000000E+00  0.00000000000E+00  0.74781726759E+03  0.74781726760E+03  0.25500000920E-02 0.  1.
        2   -1    0    0  501    0  0.00000000000E+00  0.00000000000E+00 -0.76875111490E+03  0.76875111491E+03  0.25500000920E-02 0. -1.
    10030    2    1    2    0    0  0.00000000000E+00  0.00000000000E+00 -0.20933847313E+02  0.15165683825E+04  0.15164238962E+04 0.  0.
        2    1    3    3  502    0 -0.68876730163E+02  0.27480421291E+03 -0.71382903510E+03  0.76799300176E+03  0.25500000920E-02 0. -1.
       -2    1    3    3    0  502  0.68876730163E+02 -0.27480421291E+03  0.69289518779E+03  0.74857538075E+03  0.25500000920E-02 0.  1.
</event>
<event>
 5   0  0.7870317E-04  0.1558875E+04  0.7818609E-02  0.8846219E-01
       -1   -1    0    0    0  501  0.00000000000E+00  0.00000000000E+00  0.17724786471E+04  0.17724786471E+04  0.50400001928E-02 0. -1.
        1   -1    0    0  501    0  0.00000000000E+00  0.00000000000E+00 -0.34275338861E+03  0.34275338864E+03  0.50400001928E-02 0.  1.
    10030    2    1    2    0    0  0.00000000000E+00  0.00000000000E+00  0.14297252585E+04  0.21152320357E+04  0.15588753158E+04 0.  0.
        1    1    3    3  502    0 -0.28637928961E+03  0.10475000276E+03  0.16881814243E+04  0.17155005630E+04  0.50400001928E-02 0. -1.
       -1    1    3    3    0  502  0.28637928961E+03 -0.10475000276E+03 -0.25845616578E+03  0.39973147268E+03  0.50400001928E-02 0.  1.
</event>
<event>
 5   0  0.1500956E-03  0.1451260E+04  0.7818609E-02  0.8917528E-01
        2   -1    0    0  501    0  0.00000000000E+00  0.00000000000E+00  0.12859290583E+04  0.12859290583E+04  0.25500000920E-02 0.  1.
       -2   -1    0    0    0  501  0.00000000000E+00  0.00000000000E+00 -0.40946162893E+03  0.40946162894E+03  0.25500000920E-02 0. -1.
    10030    2    1    2    0    0  0.00000000000E+00  0.00000000000E+00  0.87646742941E+03  0.16953906873E+04  0.14512596004E+04 0.  0.
        4    1    3    3  502    0  0.58557021088E+03  0.42400630360E+03  0.51084380415E+03  0.88523263750E+03  0.12699999809E+01 0. -1.
       -4    1    3    3    0  502 -0.58557021088E+03 -0.42400630360E+03  0.36562362526E+03  0.81015804977E+03  0.12699999809E+01 0.  1.
</event>
<event>
 5   0  0.1552067E-03  0.1567627E+04  0.7818609E-02  0.8840686E-01
       -2   -1    0    0    0  501  0.00000000000E+00  0.00000000000E+00  0.53358762085E+03  0.53358762086E+03  0.25500000920E-02 0.  1.
        2   -1    0    0  501    0  0.00000000000E+00  0.00000000000E+00 -0.11513831294E+04  0.11513831294E+04  0.25500000920E-02 0. -1.
    10030    2    1    2    0    0  0.00000000000E+00  0.00000000000E+00 -0.61779550851E+03  0.16849707502E+04  0.15676272321E+04 0.  0.
        3    1    3    3  502    0  0.15336008884E+03 -0.76136616628E+03 -0.19531857176E+03  0.80084150160E+03  0.10100000352E+00 0.  1.
       -3    1    3    3    0  502 -0.15336008884E+03  0.76136616628E+03 -0.42247693675E+03  0.88412924863E+03  0.10100000352E+00 0. -1.
</event>
<event>
 5   0  0.8191876E-04  0.1504709E+04  0.7818609E-02  0.8881328E-01
       -1   -1    0    0    0  501  0.00000000000E+00  0.00000000000E+00  0.38744054220E+03  0.38744054223E+03  0.50400001928E-02 0.  1.
        1   -1    0    0  501    0  0.00000000000E+00  0.00000000000E+00 -0.14609655129E+04  0.14609655129E+04  0.50400001928E-02 0. -1.
    10030    2    1    2    0    0  0.00000000000E+00  0.00000000000E+00 -0.10735249707E+04  0.18484060552E+04  0.15047089692E+04 0.  0.
        2    1    3    3  502    0 -0.35681900404E+03  0.58175154152E+02  0.27374256938E+03  0.45347452465E+03  0.25500000920E-02 0.  1.
       -2    1    3    3    0  502  0.35681900404E+03 -0.58175154152E+02 -0.13472675401E+04  0.13949315305E+04  0.25500000920E-02 0. -1.
</event>
<event>
 5   0  0.7870317E-04  0.1370378E+04  0.7818609E-02  0.8975544E-01
        1   -1    0    0  501    0  0.00000000000E+00  0.00000000000E+00  0.75269101137E+03  0.75269101138E+03  0.50400001928E-02 0.  1.
       -1   -1    0    0    0  501  0.00000000000E+00  0.00000000000E+00 -0.62374029515E+03  0.62374029517E+03  0.50400001928E-02 0. -1.
    10030    2    1    2    0    0  0.00000000000E+00  0.00000000000E+00  0.12895071622E+03  0.13764313066E+04  0.13703776321E+04 0.  0.
        1    1    3    3  502    0  0.39970530300E+03  0.32032186203E+03 -0.39263205392E+03  0.64539162865E+03  0.50400001928E-02 0. -1.
       -1    1    3    3    0  502 -0.39970530300E+03 -0.32032186203E+03  0.52158277014E+03  0.73103967790E+03  0.50400001928E-02 0.  1.
</event>
<event>
 5   0  0.1511546E-03  0.1488888E+04  0.7818609E-02  0.8891876E-01
       -2   -1    0    0    0  501  0.00000000000E+00  0.00000000000E+00  0.71727325771E+03  0.71727325772E+03  0.25500000920E-02 0.  1.
        2   -1    0    0  501    0  0.00000000000E+00  0.00000000000E+00 -0.77264351625E+03  0.77264351626E+03  0.25500000920E-02 0. -1.
    10030    2    1    2    0    0  0.00000000000E+00  0.00000000000E+00 -0.55370258538E+02  0.14899167740E+04  0.14888875471E+04 0.  0.
        1    1    3    3  502    0 -0.34730718689E+03  0.19591264170E+02 -0.68631214393E+03  0.76943515557E+03  0.50400001928E-02 0. -1.
       -1    1    3    3    0  502  0.34730718689E+03 -0.19591264170E+02  0.63094188539E+03  0.72048161841E+03  0.50400001928E-02 0.  1.
</event>
<event>
 5   0  0.8058234E-04  0.1460265E+04  0.7818609E-02  0.8911315E-01
       -1   -1    0    0    0  501  0.00000000000E+00  0.00000000000E+00  0.11299217350E+04  0.11299217350E+04  0.50400001928E-02 0. -1.
        1   -1    0    0  501    0  0.00000000000E+00  0.00000000000E+00 -0.47179676522E+03  0.47179676524E+03  0.50400001928E-02 0.  1.
    10030    2    1    2    0    0  0.00000000000E+00  0.00000000000E+00  0.65812496978E+03  0.16017185003E+04  0.14602649342E+04 0.  0.
        5    1    3    3  502    0  0.48707495960E+03 -0.50731417076E+03  0.11394858926E+03  0.71247179250E+03  0.46999998093E+01 0.  1.
       -5    1    3    3    0  502 -0.48707495960E+03  0.50731417076E+03  0.54417638052E+03  0.88924670775E+03  0.46999998093E+01 0. -1.
</event>
<event>
 5   0  0.7870317E-04  0.1495305E+04  0.7818609E-02  0.8887581E-01
       -1   -1    0    0    0  501  0.00000000000E+00  0.00000000000E+00  0.10435490504E+04  0.10435490504E+04  0.50400001928E-02 0.  1.
        1   -1    0    0  501    0  0.00000000000E+00  0.00000000000E+00 -0.53565688612E+03  0.53565688614E+03  0.50400001928E-02 0. -1.
    10030    2    1    2    0    0  0.00000000000E+00  0.00000000000E+00  0.50789216429E+03  0.15792059366E+04  0.14953049654E+04 0.  0.
        1    1    3    3  502    0 -0.28876468405E+03 -0.49048305743E+03 -0.25804988816E+03  0.62493873074E+03  0.50400001928E-02 0. -1.
       -1    1    3    3    0  502  0.28876468405E+03  0.49048305743E+03  0.76594205245E+03  0.95426720583E+03  0.50400001928E-02 0.  1.
</event>
<event>
 5   0  0.1552067E-03  0.1513827E+04  0.7818609E-02  0.8875310E-01
        2   -1    0    0  501    0  0.00000000000E+00  0.00000000000E+00  0.15897280608E+04  0.15897280608E+04  0.25500000920E-02 0.  1.
       -2   -1    0    0    0  501  0.00000000000E+00  0.00000000000E+00 -0.36038742909E+03  0.36038742910E+03  0.25500000920E-02 0. -1.
    10030    2    1    2    0    0  0.00000000000E+00  0.00000000000E+00  0.12293406317E+04  0.19501154899E+04  0.15138269502E+04 0.  0.
        3    1    3    3  502    0 -0.23654533309E+03  0.47877288862E+02  0.15388350659E+04  0.15576454345E+04  0.10100000352E+00 0.  1.
       -3    1    3    3    0  502  0.23654533309E+03 -0.47877288862E+02 -0.30949443419E+03  0.39247005541E+03  0.10100000352E+00 0. -1.
</event>
<event>
 5   0  0.7870317E-04  0.1521181E+04  0.7818609E-02  0.8870489E-01
       -1   -1    0    0    0  501  0.00000000000E+00  0.00000000000E+00  0.30342304822E+03  0.30342304826E+03  0.50400001928E-02 0. -1.
        1   -1    0    0  501    0  0.00000000000E+00  0.00000000000E+00 -0.19065717692E+04  0.19065717692E+04  0.50400001928E-02 0.  1.
    10030    2    1    2    0    0  0.00000000000E+00  0.00000000000E+00 -0.16031487210E+04  0.22099948175E+04  0.15211808806E+04 0.  0.
        1    1    3    3  502    0  0.53332189114E+02 -0.72309798167E+03 -0.46779719097E+03  0.86287265886E+03  0.50400001928E-02 0. -1.
       -1    1    3    3    0  502 -0.53332189114E+02  0.72309798167E+03 -0.11353515300E+04  0.13471221586E+04  0.50400001928E-02 0.  1.
</event>
<event>
 5   0  0.7870317E-04  0.1532381E+04  0.7818609E-02  0.8863201E-01
       -1   -1    0    0    0  501  0.00000000000E+00  0.00000000000E+00  0.80243163055E+03  0.80243163057E+03  0.50400001928E-02 0.  1.
        1   -1    0    0  501    0  0.00000000000E+00  0.00000000000E+00 -0.73158656395E+03  0.73158656396E+03  0.50400001928E-02 0. -1.
    10030    2    1    2    0    0  0.00000000000E+00  0.00000000000E+00  0.70845066603E+02  0.15340181945E+04  0.15323814139E+04 0.  0.
        1    1    3    3  502    0  0.22463646866E+03  0.50601250757E+03 -0.49480158911E+03  0.74252192795E+03  0.50400001928E-02 0. -1.
       -1    1    3    3    0  502 -0.22463646866E+03 -0.50601250757E+03  0.56564665571E+03  0.79149626658E+03  0.50400001928E-02 0.  1.
</event>
<event>
 5   0  0.8191876E-04  0.1518730E+04  0.7818609E-02  0.8872092E-01
       -1   -1    0    0    0  501  0.00000000000E+00  0.00000000000E+00  0.72041710114E+03  0.72041710116E+03  0.50400001928E-02 0.  1.
        1   -1    0    0  501    0  0.00000000000E+00  0.00000000000E+00 -0.80041860520E+03  0.80041860522E+03  0.50400001928E-02 0. -1.
    10030    2    1    2    0    0  0.00000000000E+00  0.00000000000E+00 -0.80001504058E+02  0.15208357064E+04  0.15187300633E+04 0.  0.
        2    1    3    3  502    0  0.31700298185E+03 -0.28278061386E+03  0.59029982130E+03  0.72726174457E+03  0.25500000920E-02 0.  1.
       -2    1    3    3    0  502 -0.31700298185E+03  0.28278061386E+03 -0.67030132536E+03  0.79357396181E+03  0.25500000920E-02 0. -1.
</event>
<event>
 5   0  0.1511546E-03  0.1481416E+04  0.7818609E-02  0.8896906E-01
       -2   -1    0    0    0  501  0.00000000000E+00  0.00000000000E+00  0.50840909934E+03  0.50840909934E+03  0.25500000920E-02 0. -1.
        2   -1    0    0  501    0  0.00000000000E+00  0.00000000000E+00 -0.10791472941E+04  0.10791472941E+04  0.25500000920E-02 0.  1.
    10030    2    1    2    0    0  0.00000000000E+00  0.00000000000E+00 -0.57073819477E+03  0.15875563935E+04  0.14814159495E+04 0.  0.
        1    1    3    3  502    0 -0.36816148402E+03  0.58910331457E+03 -0.99269860361E+01  0.69475473272E+03  0.50400001928E-02 0.  1.
       -1    1    3    3    0  502  0.36816148402E+03 -0.58910331457E+03 -0.56081120874E+03  0.89280166074E+03  0.50400001928E-02 0. -1.
</event>
<event>
 5   0  0.5603875E-04  0.1507013E+04  0.7818609E-02  0.8879803E-01
       -3   -1    0    0    0  501  0.00000000000E+00  0.00000000000E+00  0.73776693385E+03  0.73776694077E+03  0.10100000352E+00 0.  1.
        3   -1    0    0  501    0  0.00000000000E+00  0.00000000000E+00 -0.76958202738E+03  0.76958203401E+03  0.10100000352E+00 0. -1.
    10030    2    1    2    0    0  0.00000000000E+00  0.00000000000E+00 -0.31815093531E+02  0.15073489748E+04  0.15070131823E+04 0.  0.
        1    1    3    3  502    0 -0.40132847605E+03  0.49513387132E+03  0.38611494988E+03  0.74518913758E+03  0.50400001928E-02 0.  1.
       -1    1    3    3    0  502  0.40132847605E+03 -0.49513387132E+03 -0.41793004341E+03  0.76215983720E+03  0.50400001928E-02 0. -1.
</event>
<event>
 5   0  0.1552067E-03  0.1493873E+04  0.7818609E-02  0.8888537E-01
       -2   -1    0    0    0  501  0.00000000000E+00  0.00000000000E+00  0.22869582125E+03  0.22869582126E+03  0.25500000920E-02 0.  1.
        2   -1    0    0  501    0  0.00000000000E+00  0.00000000000E+00 -0.24395473698E+04  0.24395473698E+04  0.25500000920E-02 0. -1.
    10030    2    1    2    0    0  0.00000000000E+00  0.00000000000E+00 -0.22108515485E+04  0.26682431910E+04  0.14938732064E+04 0.  0.
        3    1    3    3  502    0 -0.63186265294E+03  0.38395893782E+03 -0.12947835978E+04  0.14910196020E+04  0.10100000352E+00 0.  1.
       -3    1    3    3    0  502  0.63186265294E+03 -0.38395893782E+03 -0.91606795068E+03  0.11772235890E+04  0.10100000352E+00 0. -1.
</event>
<event>
 5   0  0.1526126E-03  0.1493364E+04  0.7818609E-02  0.8888877E-01
       -2   -1    0    0    0  501  0.00000000000E+00  0.00000000000E+00  0.75279443616E+03  0.75279443616E+03  0.25500000920E-02 0. -1.
        2   -1    0    0  501    0  0.00000000000E+00  0.00000000000E+00 -0.74061967307E+03  0.74061967307E+03  0.25500000920E-02 0.  1.
    10030    2    1    2    0    0  0.00000000000E+00  0.00000000000E+00  0.12174763090E+02  0.14934141092E+04  0.14933644822E+04 0.  0.
        2    1    3    3  502    0 -0.19423786673E+03  0.19250501690E+03  0.70091104576E+03  0.75237146708E+03  0.25500000920E-02 0. -1.
       -2    1    3    3    0  502  0.19423786673E+03 -0.19250501690E+03 -0.68873628267E+03  0.74104264215E+03  0.25500000920E-02 0.  1.
</event>
<event>
 5   0  0.1511546E-03  0.1505396E+04  0.7818609E-02  0.8880873E-01
        2   -1    0    0  501    0  0.00000000000E+00  0.00000000000E+00  0.11014474672E+04  0.11014474672E+04  0.25500000920E-02 0. -1.
       -2   -1    0    0    0  501  0.00000000000E+00  0.00000000000E+00 -0.51437230928E+03  0.51437230929E+03  0.25500000920E-02 0.  1.
    10030    2    1    2    0    0  0.00000000000E+00  0.00000000000E+00  0.58707515791E+03  0.16158197765E+04  0.15053957317E+04 0.  0.
        1    1    3    3  502    0 -0.20182385047E+03 -0.37644957204E+03 -0.37168703550E+03  0.56621409316E+03  0.50400001928E-02 0.  1.
       -1    1    3    3    0  502  0.20182385047E+03  0.37644957204E+03  0.95876219341E+03  0.10496056833E+04  0.50400001928E-02 0. -1.
</event>
<event>
 5   0  0.1552067E-03  0.1531102E+04  0.7818609E-02  0.8864030E-01
       -2   -1    0    0    0  501  0.00000000000E+00  0.00000000000E+00  0.66495681729E+03  0.66495681730E+03  0.25500000920E-02 0. -1.
        2   -1    0    0  501    0  0.00000000000E+00  0.00000000000E+00 -0.88136324827E+03  0.88136324828E+03  0.25500000920E-02 0.  1.
    10030    2    1    2    0    0  0.00000000000E+00  0.00000000000E+00 -0.21640643098E+03  0.15463200656E+04  0.15311022180E+04 0.  0.
        3    1    3    3  502    0 -0.21236645976E+03  0.68479451338E+03 -0.37924621853E+03  0.81109231488E+03  0.10100000352E+00 0.  1.
       -3    1    3    3    0  502  0.21236645976E+03 -0.68479451338E+03  0.16283978755E+03  0.73522775070E+03  0.10100000352E+00 0. -1.
</event>
<event>
 5   0  0.7870317E-04  0.1485408E+04  0.7818609E-02  0.8894215E-01
        1   -1    0    0  501    0  0.00000000000E+00  0.00000000000E+00  0.87120840288E+03  0.87120840289E+03  0.50400001928E-02 0.  1.
       -1   -1    0    0    0  501  0.00000000000E+00  0.00000000000E+00 -0.63315408174E+03  0.63315408176E+03  0.50400001928E-02 0. -1.
    10030    2    1    2    0    0  0.00000000000E+00  0.00000000000E+00  0.23805432114E+03  0.15043624847E+04  0.14854078987E+04 0.  0.
        1    1    3    3  502    0  0.23934489275E+02 -0.35893033796E+03 -0.53903756325E+03  0.64804732999E+03  0.50400001928E-02 0. -1.
       -1    1    3    3    0  502 -0.23934489275E+02  0.35893033796E+03  0.77709188440E+03  0.85631515466E+03  0.50400001928E-02 0.  1.
</event>
<event>
 5   0  0.5603875E-04  0.1526973E+04  0.7818609E-02  0.8866712E-01
       -3   -1    0    0    0  501  0.00000000000E+00  0.00000000000E+00  0.47303364715E+03  0.47303365793E+03  0.10100000352E+00 0.  1.
        3   -1    0    0  501    0  0.00000000000E+00  0.00000000000E+00 -0.12322836369E+04  0.12322836410E+04  0.10100000352E+00 0. -1.
    10030    2    1    2    0    0  0.00000000000E+00  0.00000000000E+00 -0.75924998974E+03  0.17053172989E+04  0.15269730001E+04 0.  0.
        4    1    3    3  502    0 -0.32962597019E+03 -0.51483526651E+03  0.13118116241E+03  0.62523494955E+03  0.12699999809E+01 0.  1.
       -4    1    3    3    0  502  0.32962597019E+03  0.51483526651E+03 -0.89043115215E+03  0.10800823494E+04  0.12699999809E+01 0. -1.
</event>
<event>
 5   0  0.5603875E-04  0.1508014E+04  0.7818609E-02  0.8879141E-01
       -3   -1    0    0    0  501  0.00000000000E+00  0.00000000000E+00  0.10277630927E+04  0.10277630976E+04  0.10100000352E+00 0. -1.
        3   -1    0    0  501    0  0.00000000000E+00  0.00000000000E+00 -0.55316876894E+03  0.55316877816E+03  0.10100000352E+00 0.  1.
    10030    2    1    2    0    0  0.00000000000E+00  0.00000000000E+00  0.47459432372E+03  0.15809318758E+04  0.15080138672E+04 0.  0.
        5    1    3    3  502    0 -0.66156553103E+02  0.37903785006E+03  0.91707832031E+03  0.99453562876E+03  0.46999998093E+01 0. -1.
       -5    1    3    3    0  502  0.66156553103E+02 -0.37903785006E+03 -0.44248399659E+03  0.58639624703E+03  0.46999998093E+01 0.  1.
</event>
<event>
 5   0  0.1500956E-03  0.1527816E+04  0.7818609E-02  0.8866164E-01
       -2   -1    0    0    0  501  0.00000000000E+00  0.00000000000E+00  0.35705654265E+03  0.35705654266E+03  0.25500000920E-02 0.  1.
        2   -1    0    0  501    0  0.00000000000E+00  0.00000000000E+00 -0.16343496660E+04  0.16343496660E+04  0.25500000920E-02 0. -1.
    10030    2    1    2    0    0  0.00000000000E+00  0.00000000000E+00 -0.12772931233E+04  0.19914062086E+04  0.15278157497E+04 0.  0.
        4    1    3    3  502    0 -0.39042374312E+03 -0.62991428687E+03 -0.39713851957E+03  0.84079921778E+03  0.12699999809E+01 0. -1.
       -4    1    3    3    0  502  0.39042374312E+03  0.62991428687E+03 -0.88015460376E+03  0.11506069909E+04  0.12699999809E+01 0.  1.
</event>
<event>
 5   0  0.1526126E-03  0.1508875E+04  0.7818609E-02  0.8878572E-01
        2   -1    0    0  501    0  0.00000000000E+00  0.00000000000E+00  0.14558811292E+04  0.14558811292E+04  0.25500000920E-02 0. -1.
       -2   -1    0    0    0  501  0.00000000000E+00  0.00000000000E+00 -0.39094948690E+03  0.39094948690E+03  0.25500000920E-02 0.  1.
    10030    2    1    2    0    0  0.00000000000E+00  0.00000000000E+00  0.10649316423E+04  0.18468306161E+04  0.15088750518E+04 0.  0.
        2    1    3    3  502    0  0.22291455736E+02 -0.75406034354E+03  0.52207499046E+03  0.91742367877E+03  0.25500000920E-02 0.  1.
       -2    1    3    3    0  502 -0.22291455736E+02  0.75406034354E+03  0.54285665184E+03  0.92940693733E+03  0.25500000920E-02 0. -1.
</event>
<event>
 5   0  0.8191876E-04  0.2050791E+04  0.7818609E-02  0.8583235E-01
       -1   -1    0    0    0  501  0.00000000000E+00  0.00000000000E+00  0.89036836614E+03  0.89036836616E+03  0.50400001928E-02 0.  1.
        1   -1    0    0  501    0  0.00000000000E+00  0.00000000000E+00 -0.11809001838E+04  0.11809001838E+04  0.50400001928E-02 0. -1.
    10030    2    1    2    0    0  0.00000000000E+00  0.00000000000E+00 -0.29053181768E+03  0.20712685500E+04  0.20507912300E+04 0.  0.
        2    1    3    3  502    0 -0.50947248964E+03 -0.23325613310E+03  0.72206699214E+03  0.91397559184E+03  0.25500000920E-02 0.  1.
       -2    1    3    3    0  502  0.50947248964E+03  0.23325613310E+03 -0.10125988098E+04  0.11572929582E+04  0.25500000920E-02 0. -1.
</event>
<event>
 5   0  0.5603875E-04  0.1466357E+04  0.7818609E-02  0.8907138E-01
       -4   -1    0    0    0  501  0.00000000000E+00  0.00000000000E+00  0.65547390733E+03  0.65547513766E+03  0.12699999809E+01 0.  1.
        4   -1    0    0  501    0  0.00000000000E+00  0.00000000000E+00 -0.82009259232E+03  0.82009357568E+03  0.12699999809E+01 0. -1.
    10030    2    1    2    0    0  0.00000000000E+00  0.00000000000E+00 -0.16461868499E+03  0.14755687133E+04  0.14663572949E+04 0.  0.
        5    1    3    3  502    0  0.16764700363E+03 -0.66409474183E+03  0.18087038418E+03  0.70842327024E+03  0.46999998093E+01 0.  1.
       -5    1    3    3    0  502 -0.16764700363E+03  0.66409474183E+03 -0.34548906917E+03  0.76714544310E+03  0.46999998093E+01 0. -1.
</event>
<event>
 5   0  0.1511546E-03  0.1517619E+04  0.7818609E-02  0.8872820E-01
        2   -1    0    0  501    0  0.00000000000E+00  0.00000000000E+00  0.76897121740E+03  0.76897121740E+03  0.25500000920E-02 0. -1.
       -2   -1    0    0    0  501  0.00000000000E+00  0.00000000000E+00 -0.74878239493E+03  0.74878239493E+03  0.25500000920E-02 0.  1.
    10030    2    1    2    0    0  0.00000000000E+00  0.00000000000E+00  0.20188822466E+02  0.15177536123E+04  0.15176193328E+04 0.  0.
        1    1    3    3  502    0  0.30460190264E+03  0.56326584211E+03  0.41724390812E+03  0.76429261862E+03  0.50400001928E-02 0. -1.
       -1    1    3    3    0  502 -0.30460190264E+03 -0.56326584211E+03 -0.39705508566E+03  0.75346099372E+03  0.50400001928E-02 0.  1.
</event>
<event>
 5   0  0.7870317E-04  0.1183380E+04  0.7818609E-02  0.9127529E-01
       -1   -1    0    0    0  501  0.00000000000E+00  0.00000000000E+00  0.16979226820E+03  0.16979226827E+03  0.50400001928E-02 0.  1.
        1   -1    0    0  501    0  0.00000000000E+00  0.00000000000E+00 -0.20619147767E+04  0.20619147767E+04  0.50400001928E-02 0. -1.
    10030    2    1    2    0    0  0.00000000000E+00  0.00000000000E+00 -0.18921225085E+04  0.22317070450E+04  0.11833802210E+04 0.  0.
        1    1    3    3  502    0  0.67756195202E+02 -0.54308603844E+03 -0.13701267146E+04  0.14753916637E+04  0.50400001928E-02 0. -1.
       -1    1    3    3    0  502 -0.67756195202E+02  0.54308603844E+03 -0.52199579392E+03  0.75631538133E+03  0.50400001928E-02 0.  1.
</event>
<event>
 5   0  0.8058234E-04  0.1500762E+04  0.7818609E-02  0.8883946E-01
        1   -1    0    0  501    0  0.00000000000E+00  0.00000000000E+00  0.69489064690E+03  0.69489064692E+03  0.50400001928E-02 0. -1.
       -1   -1    0    0    0  501  0.00000000000E+00  0.00000000000E+00 -0.81030286724E+03  0.81030286726E+03  0.50400001928E-02 0.  1.
    10030    2    1    2    0    0  0.00000000000E+00  0.00000000000E+00 -0.11541222034E+03  0.15051935142E+04  0.15007623178E+04 0.  0.
        5    1    3    3  502    0  0.44475722425E+03  0.28136071175E+03 -0.59414698111E+03  0.79372889818E+03  0.46999998093E+01 0.  1.
       -5    1    3    3    0  502 -0.44475722425E+03 -0.28136071175E+03  0.47873476077E+03  0.71146461599E+03  0.46999998093E+01 0. -1.
</event>
<event>
 5   0  0.7870317E-04  0.1482236E+04  0.7818609E-02  0.8896352E-01
       -1   -1    0    0    0  501  0.00000000000E+00  0.00000000000E+00  0.23912510156E+03  0.23912510161E+03  0.50400001928E-02 0.  1.
        1   -1    0    0  501    0  0.00000000000E+00  0.00000000000E+00 -0.22969408823E+04  0.22969408823E+04  0.50400001928E-02 0. -1.
    10030    2    1    2    0    0  0.00000000000E+00  0.00000000000E+00 -0.20578157807E+04  0.25360659839E+04  0.14822364478E+04 0.  0.
        1    1    3    3  502    0 -0.65823147705E+03 -0.32817593803E+03 -0.11846731137E+04  0.13944240782E+04  0.50400001928E-02 0.  1.
       -1    1    3    3    0  502  0.65823147705E+03  0.32817593803E+03 -0.87314266702E+03  0.11416419056E+04  0.50400001928E-02 0. -1.
</event>
<event>
 5   0  0.8365016E-04  0.1434396E+04  0.7818609E-02  0.8929290E-01
       -1   -1    0    0    0  501  0.00000000000E+00  0.00000000000E+00  0.55814909766E+03  0.55814909769E+03  0.50400001928E-02 0.  1.
        1   -1    0    0  501    0  0.00000000000E+00  0.00000000000E+00 -0.92156951089E+03  0.92156951091E+03  0.50400001928E-02 0. -1.
    10030    2    1    2    0    0  0.00000000000E+00  0.00000000000E+00 -0.36342041323E+03  0.14797186086E+04  0.14343963064E+04 0.  0.
        3    1    3    3  502    0  0.21737587882E+03 -0.57273970583E+03  0.20302164735E+03  0.64536876499E+03  0.10100000352E+00 0.  1.
       -3    1    3    3    0  502 -0.21737587882E+03  0.57273970583E+03 -0.56644206058E+03  0.83434984361E+03  0.10100000352E+00 0. -1.
</event>
<event>
 5   0  0.1552067E-03  0.1488038E+04  0.7818609E-02  0.8892447E-01
        2   -1    0    0  501    0  0.00000000000E+00  0.00000000000E+00  0.13722415090E+04  0.13722415090E+04  0.25500000920E-02 0.  1.
       -2   -1    0    0    0  501  0.00000000000E+00  0.00000000000E+00 -0.40340161270E+03  0.40340161271E+03  0.25500000920E-02 0. -1.
    10030    2    1    2    0    0  0.00000000000E+00  0.00000000000E+00  0.96883989634E+03  0.17756431218E+04  0.14880382223E+04 0.  0.
        3    1    3    3  502    0 -0.38454428018E+03 -0.50279230261E+03  0.17834519458E+02  0.63323967285E+03  0.10100000352E+00 0. -1.
       -3    1    3    3    0  502  0.38454428018E+03  0.50279230261E+03  0.95100537689E+03  0.11424034489E+04  0.10100000352E+00 0.  1.
</event>
<event>
 5   0  0.1511546E-03  0.1400964E+04  0.7818609E-02  0.8953121E-01
       -2   -1    0    0    0  501  0.00000000000E+00  0.00000000000E+00  0.62845812945E+03  0.62845812945E+03  0.25500000920E-02 0. -1.
        2   -1    0    0  501    0  0.00000000000E+00  0.00000000000E+00 -0.78076019150E+03  0.78076019151E+03  0.25500000920E-02 0.  1.
    10030    2    1    2    0    0  0.00000000000E+00  0.00000000000E+00 -0.15230206206E+03  0.14092183210E+04  0.14009640816E+04 0.  0.
        1    1    3    3  502    0  0.10075216406E+03 -0.62943707814E+03  0.21596150688E+03  0.67303893377E+03  0.50400001928E-02 0. -1.
       -1    1    3    3    0  502 -0.10075216406E+03  0.62943707814E+03 -0.36826356893E+03  0.73617938719E+03  0.50400001928E-02 0.  1.
</event>
<event>
 5   0  0.5603875E-04  0.1496785E+04  0.7818609E-02  0.8886593E-01
       -3   -1    0    0    0  501  0.00000000000E+00  0.00000000000E+00  0.10394779505E+04  0.10394779554E+04  0.10100000352E+00 0.  1.
        3   -1    0    0  501    0  0.00000000000E+00  0.00000000000E+00 -0.53882011486E+03  0.53882012432E+03  0.10100000352E+00 0. -1.
    10030    2    1    2    0    0  0.00000000000E+00  0.00000000000E+00  0.50065783564E+03  0.15782980797E+04  0.14967854088E+04 0.  0.
        1    1    3    3  502    0 -0.23083400196E+02  0.74778130727E+03  0.27093577577E+03  0.79568581833E+03  0.50400001928E-02 0. -1.
       -1    1    3    3    0  502  0.23083400196E+02 -0.74778130727E+03  0.22972205987E+03  0.78261226140E+03  0.50400001928E-02 0.  1.
</event>
<event>
 5   0  0.1500956E-03  0.1504260E+04  0.7818609E-02  0.8881625E-01
        2   -1    0    0  501    0  0.00000000000E+00  0.00000000000E+00  0.20822553725E+04  0.20822553725E+04  0.25500000920E-02 0. -1.
       -2   -1    0    0    0  501  0.00000000000E+00  0.00000000000E+00 -0.27167645597E+03  0.27167645599E+03  0.25500000920E-02 0.  1.
    10030    2    1    2    0    0  0.00000000000E+00  0.00000000000E+00  0.18105789165E+04  0.23539318285E+04  0.15042602967E+04 0.  0.
        4    1    3    3  502    0  0.58212114035E+03  0.16228603963E+03  0.16059765897E+04  0.17159149746E+04  0.12699999809E+01 0. -1.
       -4    1    3    3    0  502 -0.58212114035E+03 -0.16228603963E+03  0.20460232681E+03  0.63801685381E+03  0.12699999809E+01 0.  1.
</event>
<event>
 5   0  0.8191876E-04  0.1508978E+04  0.7818609E-02  0.8878505E-01
        1   -1    0    0  501    0  0.00000000000E+00  0.00000000000E+00  0.46468382124E+03  0.46468382127E+03  0.50400001928E-02 0. -1.
       -1   -1    0    0    0  501  0.00000000000E+00  0.00000000000E+00 -0.12250339030E+04  0.12250339030E+04  0.50400001928E-02 0.  1.
    10030    2    1    2    0    0  0.00000000000E+00  0.00000000000E+00 -0.76035008172E+03  0.16897177242E+04  0.15089777138E+04 0.  0.
        2    1    3    3  502    0 -0.52483957391E+03 -0.51334454166E+03 -0.18533960508E+03  0.75718555587E+03  0.25500000920E-02 0.  1.
       -2    1    3    3    0  502  0.52483957391E+03  0.51334454166E+03 -0.57501047664E+03  0.93253216837E+03  0.25500000920E-02 0. -1.
</event>
<event>
 5   0  0.1484056E-03  0.1495884E+04  0.7818609E-02  0.8887195E-01
        2   -1    0    0  501    0  0.00000000000E+00  0.00000000000E+00  0.51658411649E+03  0.51658411649E+03  0.25500000920E-02 0. -1.
       -2   -1    0    0    0  501  0.00000000000E+00  0.00000000000E+00 -0.10829163187E+04  0.10829163187E+04  0.25500000920E-02 0.  1.
    10030    2    1    2    0    0  0.00000000000E+00  0.00000000000E+00 -0.56633220225E+03  0.15995004352E+04  0.14958841797E+04 0.  0.
        5    1    3    3  502    0  0.16402210982E+03 -0.25706259180E+03  0.44708247083E+03  0.54119243743E+03  0.46999998093E+01 0. -1.
       -5    1    3    3    0  502 -0.16402210982E+03  0.25706259180E+03 -0.10134146731E+04  0.10583079978E+04  0.46999998093E+01 0.  1.
</event>
<event>
 5   0  0.1484056E-03  0.1348486E+04  0.7818609E-02  0.8991975E-01
        2   -1    0    0  501    0  0.00000000000E+00  0.00000000000E+00  0.13621681494E+04  0.13621681494E+04  0.25500000920E-02 0.  1.
       -2   -1    0    0    0  501  0.00000000000E+00  0.00000000000E+00 -0.33373537424E+03  0.33373537425E+03  0.25500000920E-02 0. -1.
    10030    2    1    2    0    0  0.00000000000E+00  0.00000000000E+00  0.10284327752E+04  0.16959035237E+04  0.13484861099E+04 0.  0.
        5    1    3    3  502    0 -0.21404354107E+03 -0.36386629215E+03  0.11753645143E+04  0.12488863629E+04  0.46999998093E+01 0.  1.
       -5    1    3    3    0  502  0.21404354107E+03  0.36386629215E+03 -0.14693173911E+03  0.44701716074E+03  0.46999998093E+01 0. -1.
</event>
<event>
 5   0  0.1552067E-03  0.1512399E+04  0.7818609E-02  0.8876249E-01
       -2   -1    0    0    0  501  0.00000000000E+00  0.00000000000E+00  0.52082356859E+03  0.52082356859E+03  0.25500000920E-02 0. -1.
        2   -1    0    0  501    0  0.00000000000E+00  0.00000000000E+00 -0.10979488500E+04  0.10979488500E+04  0.25500000920E-02 0.  1.
    10030    2    1    2    0    0  0.00000000000E+00  0.00000000000E+00 -0.57712528141E+03  0.16187724186E+04  0.15123989397E+04 0.  0.
        3    1    3    3  502    0  0.12121561026E+03 -0.40508323759E+03  0.38247120074E+03  0.57014900082E+03  0.10100000352E+00 0. -1.
       -3    1    3    3    0  502 -0.12121561026E+03  0.40508323759E+03 -0.95959648215E+03  0.10486234178E+04  0.10100000352E+00 0.  1.
</event>
<event>
 5   0  0.1484056E-03  0.1532670E+04  0.7818609E-02  0.8863014E-01
       -2   -1    0    0    0  501  0.00000000000E+00  0.00000000000E+00  0.42384924279E+03  0.42384924280E+03  0.25500000920E-02 0. -1.
        2   -1    0    0  501    0  0.00000000000E+00  0.00000000000E+00 -0.13855617445E+04  0.13855617445E+04  0.25500000920E-02 0.  1.
    10030    2    1    2    0    0  0.00000000000E+00  0.00000000000E+00 -0.96171250171E+03  0.18094109873E+04  0.15326699531E+04 0.  0.
        5    1    3    3  502    0  0.13765488546E+03 -0.66302659069E+03 -0.90437033980E+03  0.11298057041E+04  0.46999998093E+01 0.  1.
       -5    1    3    3    0  502 -0.13765488546E+03  0.66302659069E+03 -0.57342161912E+02  0.67960528322E+03  0.46999998093E+01 0. -1.
</event>
<event>
 5   0  0.1526126E-03  0.1615572E+04  0.7818609E-02  0.8811038E-01
       -2   -1    0    0    0  501  0.00000000000E+00  0.00000000000E+00  0.71962167137E+03  0.71962167138E+03  0.25500000920E-02 0. -1.
        2   -1    0    0  501    0  0.00000000000E+00  0.00000000000E+00 -0.90675164914E+03  0.90675164914E+03  0.25500000920E-02 0.  1.
    10030    2    1    2    0    0  0.00000000000E+00  0.00000000000E+00 -0.18712997777E+03  0.16263733205E+04  0.16155718954E+04 0.  0.
        2    1    3    3  502    0  0.53445961443E+03  0.34720962133E+03  0.40605607133E+03  0.75570042588E+03  0.25500000920E-02 0. -1.
       -2    1    3    3    0  502 -0.53445961443E+03 -0.34720962133E+03 -0.59318604910E+03  0.87067289464E+03  0.25500000920E-02 0.  1.
</event>
<event>
 5   0  0.1484056E-03  0.1492462E+04  0.7818609E-02  0.8889481E-01
       -2   -1    0    0    0  501  0.00000000000E+00  0.00000000000E+00  0.11877485969E+04  0.11877485969E+04  0.25500000920E-02 0. -1.
        2   -1    0    0  501    0  0.00000000000E+00  0.00000000000E+00 -0.46883686991E+03  0.46883686991E+03  0.25500000920E-02 0.  1.
    10030    2    1    2    0    0  0.00000000000E+00  0.00000000000E+00  0.71891172696E+03  0.16565854668E+04  0.14924615029E+04 0.  0.
        5    1    3    3  502    0 -0.19583334969E+03 -0.41921538114E+03 -0.29036987925E+03  0.54628654881E+03  0.46999998093E+01 0.  1.
       -5    1    3    3    0  502  0.19583334969E+03  0.41921538114E+03  0.10092816062E+04  0.11102989180E+04  0.46999998093E+01 0. -1.
</event>
<event>
 5   0  0.1526126E-03  0.1466141E+04  0.7818609E-02  0.8907286E-01
       -2   -1    0    0    0  501  0.00000000000E+00  0.00000000000E+00  0.47933267019E+03  0.47933267020E+03  0.25500000920E-02 0.  1.
        2   -1    0    0  501    0  0.00000000000E+00  0.00000000000E+00 -0.11211264729E+04  0.11211264729E+04  0.25500000920E-02 0. -1.
    10030    2    1    2    0    0  0.00000000000E+00  0.00000000000E+00 -0.64179380269E+03  0.16004591431E+04  0.14661412563E+04 0.  0.
        2    1    3    3  502    0  0.10328860449E+03  0.68758066935E+03 -0.67330327056E+02  0.69854784061E+03  0.25500000920E-02 0.  1.
       -2    1    3    3    0  502 -0.10328860449E+03 -0.68758066935E+03 -0.57446347564E+03  0.90191130247E+03  0.25500000920E-02 0. -1.
</event>
<event>
 5   0  0.1500956E-03  0.1509382E+04  0.7818609E-02  0.8878238E-01
       -2   -1    0    0    0  501  0.00000000000E+00  0.00000000000E+00  0.56255958600E+03  0.56255958600E+03  0.25500000920E-02 0.  1.
        2   -1    0    0  501    0  0.00000000000E+00  0.00000000000E+00 -0.10124407020E+04  0.10124407020E+04  0.25500000920E-02 0. -1.
    10030    2    1    2    0    0  0.00000000000E+00  0.00000000000E+00 -0.44988111597E+03  0.15750002880E+04  0.15093816246E+04 0.  0.
        4    1    3    3  502    0  0.58342223407E+03  0.39942636372E+03  0.50413366991E+02  0.70884839262E+03  0.12699999809E+01 0. -1.
       -4    1    3    3    0  502 -0.58342223407E+03 -0.39942636372E+03 -0.50029448296E+03  0.86615189535E+03  0.12699999809E+01 0.  1.
</event>
<event>
 5   0  0.1511546E-03  0.1510873E+04  0.7818609E-02  0.8877254E-01
        2   -1    0    0  501    0  0.00000000000E+00  0.00000000000E+00  0.12592347946E+04  0.12592347946E+04  0.25500000920E-02 0. -1.
       -2   -1    0    0    0  501  0.00000000000E+00  0.00000000000E+00 -0.45319946814E+03  0.45319946814E+03  0.25500000920E-02 0.  1.
    10030    2    1    2    0    0  0.00000000000E+00  0.00000000000E+00  0.80603532651E+03  0.17124342628E+04  0.15108733093E+04 0.  0.
        1    1    3    3  502    0 -0.70227915223E+03  0.76940924448E+02  0.99805095444E+02  0.71349630035E+03  0.50400001928E-02 0.  1.
       -1    1    3    3    0  502  0.70227915223E+03 -0.76940924448E+02  0.70623023106E+03  0.99893796244E+03  0.50400001928E-02 0. -1.
</event>
<event>
 5   0  0.7870317E-04  0.1492590E+04  0.7818609E-02  0.8889396E-01
       -1   -1    0    0    0  501  0.00000000000E+00  0.00000000000E+00  0.11950399005E+04  0.11950399006E+04  0.50400001928E-02 0.  1.
        1   -1    0    0  501    0  0.00000000000E+00  0.00000000000E+00 -0.46605643697E+03  0.46605643700E+03  0.50400001928E-02 0. -1.
    10030    2    1    2    0    0  0.00000000000E+00  0.00000000000E+00  0.72898346357E+03  0.16610963376E+04  0.14925897469E+04 0.  0.
        1    1    3    3  502    0 -0.65924863562E+03  0.22449470417E+03  0.66300797129E+03  0.96155405765E+03  0.50400001928E-02 0.  1.
       -1    1    3    3    0  502  0.65924863562E+03 -0.22449470417E+03  0.65975492287E+02  0.69954227991E+03  0.50400001928E-02 0. -1.
</event>
<event>
 5   0  0.8058234E-04  0.1412714E+04  0.7818609E-02  0.8944666E-01
       -1   -1    0    0    0  501  0.00000000000E+00  0.00000000000E+00  0.11519430069E+04  0.11519430069E+04  0.50400001928E-02 0. -1.
        1   -1    0    0  501    0  0.00000000000E+00  0.00000000000E+00 -0.43312947148E+03  0.43312947151E+03  0.50400001928E-02 0.  1.
    10030    2    1    2    0    0  0.00000000000E+00  0.00000000000E+00  0.71881353537E+03  0.15850724784E+04  0.14127143600E+04 0.  0.
        5    1    3    3  502    0  0.10726770619E+03  0.30669353748E+02  0.11419771813E+04  0.11474236108E+04  0.46999998093E+01 0. -1.
       -5    1    3    3    0  502 -0.10726770619E+03 -0.30669353748E+02 -0.42316364592E+03  0.43764886756E+03  0.46999998093E+01 0.  1.
</event>
<event>
 5   0  0.8191876E-04  0.1532244E+04  0.7818609E-02  0.8863290E-01
       -1   -1    0    0    0  501  0.00000000000E+00  0.00000000000E+00  0.12491024920E+04  0.12491024921E+04  0.50400001928E-02 0. -1.
        1   -1    0    0  501    0  0.00000000000E+00  0.00000000000E+00 -0.46989182407E+03  0.46989182410E+03  0.50400001928E-02 0.  1.
    10030    2    1    2    0    0  0.00000000000E+00  0.00000000000E+00  0.77921066798E+03  0.17189943162E+04  0.15322441691E+04 0.  0.
        2    1    3    3  502    0  0.70283641787E+03 -0.13810166561E+03  0.69456683864E+03  0.99773453066E+03  0.25500000920E-02 0. -1.
       -2    1    3    3    0  502 -0.70283641787E+03  0.13810166561E+03  0.84643829337E+02  0.72125978550E+03  0.25500000920E-02 0.  1.
</event>
<event>
 5   0  0.8058234E-04  0.1549448E+04  0.7818609E-02  0.8852220E-01
        1   -1    0    0  501    0  0.00000000000E+00  0.00000000000E+00  0.17650919648E+04  0.17650919648E+04  0.50400001928E-02 0. -1.
       -1   -1    0    0    0  501  0.00000000000E+00  0.00000000000E+00 -0.34003736325E+03  0.34003736329E+03  0.50400001928E-02 0.  1.
    10030    2    1    2    0    0  0.00000000000E+00  0.00000000000E+00  0.14250546016E+04  0.21051293281E+04  0.15494479245E+04 0.  0.
        5    1    3    3  502    0 -0.54928794897E+03 -0.37933607299E+03  0.12466649496E+04  0.14141459238E+04  0.46999998093E+01 0. -1.
       -5    1    3    3    0  502  0.54928794897E+03  0.37933607299E+03  0.17838965197E+03  0.69098340435E+03  0.46999998093E+01 0.  1.
</event>
<event>
 5   0  0.1511546E-03  0.1502596E+04  0.7818609E-02  0.8882728E-01
       -2   -1    0    0    0  501  0.00000000000E+00  0.00000000000E+00  0.34407631460E+03  0.34407631461E+03  0.25500000920E-02 0. -1.
        2   -1    0    0  501    0  0.00000000000E+00  0.00000000000E+00 -0.16404760465E+04  0.16404760465E+04  0.25500000920E-02 0.  1.
    10030    2    1    2    0    0  0.00000000000E+00  0.00000000000E+00 -0.12963997319E+04  0.19845523611E+04  0.15025963560E+04 0.  0.
        1    1    3    3  502    0  0.47059379132E+03 -0.15523194094E+03 -0.13940353658E+04  0.14794898016E+04  0.50400001928E-02 0.  1.
       -1    1    3    3    0  502 -0.47059379132E+03  0.15523194094E+03  0.97635633958E+02  0.50506255945E+03  0.50400001928E-02 0. -1.
</event>
<event>
 5   0  0.1500956E-03  0.1407246E+04  0.7818609E-02  0.8948590E-01
        2   -1    0    0  501    0  0.00000000000E+00  0.00000000000E+00  0.69310570723E+03  0.69310570724E+03  0.25500000920E-02 0.  1.
       -2   -1    0    0    0  501  0.00000000000E+00  0.00000000000E+00 -0.71430013002E+03  0.71430013002E+03  0.25500000920E-02 0. -1.
    10030    2    1    2    0    0  0.00000000000E+00  0.00000000000E+00 -0.21194422787E+02  0.14074058373E+04  0.14072462426E+04 0.  0.
        4    1    3    3  502    0  0.15189601684E+03  0.23048516290E+03 -0.65788624311E+03  0.71345058135E+03  0.12699999809E+01 0. -1.
       -4    1    3    3    0  502 -0.15189601684E+03 -0.23048516290E+03  0.63669182032E+03  0.69395525592E+03  0.12699999809E+01 0.  1.
</event>
<event>
 5   0  0.8306301E-04  0.1508679E+04  0.7818609E-02  0.8878702E-01
        1   -1    0    0  501    0  0.00000000000E+00  0.00000000000E+00  0.53317474692E+03  0.53317474695E+03  0.50400001928E-02 0. -1.
       -1   -1    0    0    0  501  0.00000000000E+00  0.00000000000E+00 -0.10672443613E+04  0.10672443613E+04  0.50400001928E-02 0.  1.
    10030    2    1    2    0    0  0.00000000000E+00  0.00000000000E+00 -0.53406961436E+03  0.16004191082E+04  0.15086785506E+04 0.  0.
        4    1    3    3  502    0  0.86671949636E+01  0.54888113761E+03  0.28180472353E+03  0.61705845639E+03  0.12699999809E+01 0. -1.
       -4    1    3    3    0  502 -0.86671949636E+01 -0.54888113761E+03 -0.81587433790E+03  0.98336065186E+03  0.12699999809E+01 0.  1.
</event>
<event>
 5   0  0.8191876E-04  0.1462915E+04  0.7818609E-02  0.8909495E-01
        1   -1    0    0  501    0  0.00000000000E+00  0.00000000000E+00  0.46591862065E+03  0.46591862068E+03  0.50400001928E-02 0. -1.
       -1   -1    0    0    0  501  0.00000000000E+00  0.00000000000E+00 -0.11483344081E+04  0.11483344082E+04  0.50400001928E-02 0.  1.
    10030    2    1    2    0    0  0.00000000000E+00  0.00000000000E+00 -0.68241578750E+03  0.16142530288E+04  0.14629154227E+04 0.  0.
        2    1    3    3  502    0  0.70184197102E+03 -0.16419861614E+03 -0.47852880642E+03  0.86517810675E+03  0.25500000920E-02 0.  1.
       -2    1    3    3    0  502 -0.70184197102E+03  0.16419861614E+03 -0.20388698108E+03  0.74907492208E+03  0.25500000920E-02 0. -1.
</event>
<event>
 5   0  0.8191876E-04  0.1488985E+04  0.7818609E-02  0.8891811E-01
       -1   -1    0    0    0  501  0.00000000000E+00  0.00000000000E+00  0.70342637272E+03  0.70342637274E+03  0.50400001928E-02 0.  1.
        1   -1    0    0  501    0  0.00000000000E+00  0.00000000000E+00 -0.78795641868E+03  0.78795641869E+03  0.50400001928E-02 0. -1.
    10030    2    1    2    0    0  0.00000000000E+00  0.00000000000E+00 -0.84530045956E+02  0.14913827914E+04  0.14889853263E+04 0.  0.
        2    1    3    3  502    0 -0.97391153736E+02 -0.70144788372E+02  0.69367240855E+03  0.70397921742E+03  0.25500000920E-02 0.  1.
       -2    1    3    3    0  502  0.97391153736E+02  0.70144788372E+02 -0.77820245451E+03  0.78740357401E+03  0.25500000920E-02 0. -1.
</event>
<event>
 5   0  0.1526126E-03  0.1483203E+04  0.7818609E-02  0.8895700E-01
       -2   -1    0    0    0  501  0.00000000000E+00  0.00000000000E+00  0.25370881027E+03  0.25370881028E+03  0.25500000920E-02 0.  1.
        2   -1    0    0  501    0  0.00000000000E+00  0.00000000000E+00 -0.21677333136E+04  0.21677333136E+04  0.25500000920E-02 0. -1.
    10030    2    1    2    0    0  0.00000000000E+00  0.00000000000E+00 -0.19140245033E+04  0.24214421239E+04  0.14832033441E+04 0.  0.
        2    1    3    3  502    0 -0.24916623017E+03  0.58081328298E+03 -0.32357033853E+03  0.71001805887E+03  0.25500000920E-02 0.  1.
       -2    1    3    3    0  502  0.24916623017E+03 -0.58081328298E+03 -0.15904541648E+04  0.17114240650E+04  0.25500000920E-02 0. -1.
</event>
<event>
 5   0  0.7870317E-04  0.1398670E+04  0.7818609E-02  0.8954782E-01
       -1   -1    0    0    0  501  0.00000000000E+00  0.00000000000E+00  0.18265703453E+04  0.18265703453E+04  0.50400001928E-02 0.  1.
        1   -1    0    0  501    0  0.00000000000E+00  0.00000000000E+00 -0.26775298803E+03  0.26775298807E+03  0.50400001928E-02 0. -1.
    10030    2    1    2    0    0  0.00000000000E+00  0.00000000000E+00  0.15588173573E+04  0.20943233334E+04  0.13986703226E+04 0.  0.
        1    1    3    3  502    0 -0.60784969536E+03  0.76600508463E+02  0.27445878855E+03  0.67132444964E+03  0.50400001928E-02 0. -1.
       -1    1    3    3    0  502  0.60784969536E+03 -0.76600508463E+02  0.12843585687E+04  0.14229988838E+04  0.50400001928E-02 0.  1.
</event>
<event>
 5   0  0.8191876E-04  0.1493111E+04  0.7818609E-02  0.8889047E-01
       -1   -1    0    0    0  501  0.00000000000E+00  0.00000000000E+00  0.42300448226E+03  0.42300448229E+03  0.50400001928E-02 0.  1.
        1   -1    0    0  501    0  0.00000000000E+00  0.00000000000E+00 -0.13175862641E+04  0.13175862641E+04  0.50400001928E-02 0. -1.
    10030    2    1    2    0    0  0.00000000000E+00  0.00000000000E+00 -0.89458178187E+03  0.17405907464E+04  0.14931107066E+04 0.  0.
        2    1    3    3  502    0 -0.14627117168E+03 -0.22161011885E+03 -0.12606777672E+04  0.12883379732E+04  0.25500000920E-02 0. -1.
       -2    1    3    3    0  502  0.14627117168E+03  0.22161011885E+03  0.36609598532E+03  0.45225277325E+03  0.25500000920E-02 0.  1.
</event>
<event>
 5   0  0.8365016E-04  0.1384070E+04  0.7818609E-02  0.8965431E-01
       -1   -1    0    0    0  501  0.00000000000E+00  0.00000000000E+00  0.69069436607E+03  0.69069436609E+03  0.50400001928E-02 0. -1.
        1   -1    0    0  501    0  0.00000000000E+00  0.00000000000E+00 -0.69337824848E+03  0.69337824850E+03  0.50400001928E-02 0.  1.
    10030    2    1    2    0    0  0.00000000000E+00  0.00000000000E+00 -0.26838824165E+01  0.13840726146E+04  0.13840700124E+04 0.  0.
        3    1    3    3  502    0  0.16606389618E+03 -0.24733168499E+03  0.62328893113E+03  0.69082507329E+03  0.10100000352E+00 0. -1.
       -3    1    3    3    0  502 -0.16606389618E+03  0.24733168499E+03 -0.62597281355E+03  0.69324754130E+03  0.10100000352E+00 0.  1.
</event>
<event>
 5   0  0.8306301E-04  0.1450366E+04  0.7818609E-02  0.8918147E-01
        1   -1    0    0  501    0  0.00000000000E+00  0.00000000000E+00  0.27245634915E+04  0.27245634915E+04  0.50400001928E-02 0.  1.
       -1   -1    0    0    0  501  0.00000000000E+00  0.00000000000E+00 -0.19301809709E+03  0.19301809715E+03  0.50400001928E-02 0. -1.
    10030    2    1    2    0    0  0.00000000000E+00  0.00000000000E+00  0.25315453944E+04  0.29175815887E+04  0.14503655548E+04 0.  0.
        4    1    3    3  502    0  0.55031942768E+03 -0.15988864873E+03  0.37185208875E+03  0.68314818398E+03  0.12699999809E+01 0. -1.
       -4    1    3    3    0  502 -0.55031942768E+03  0.15988864873E+03  0.21596933057E+04  0.22344334047E+04  0.12699999809E+01 0.  1.
</event>
<event>
 5   0  0.1500956E-03  0.1490543E+04  0.7818609E-02  0.8890766E-01
       -2   -1    0    0    0  501  0.00000000000E+00  0.00000000000E+00  0.44500673918E+03  0.44500673918E+03  0.25500000920E-02 0. -1.
        2   -1    0    0  501    0  0.00000000000E+00  0.00000000000E+00 -0.12481380758E+04  0.12481380758E+04  0.25500000920E-02 0.  1.
    10030    2    1    2    0    0  0.00000000000E+00  0.00000000000E+00 -0.80313133661E+03  0.16931448150E+04  0.14905433307E+04 0.  0.
        4    1    3    3  502    0  0.52401687982E+03 -0.46444120973E+03 -0.69145779457E+03  0.98408069903E+03  0.12699999809E+01 0.  1.
       -4    1    3    3    0  502 -0.52401687982E+03  0.46444120973E+03 -0.11167354204E+03  0.70906411595E+03  0.12699999809E+01 0. -1.
</event>
<event>
 5   0  0.1526126E-03  0.1518614E+04  0.7818609E-02  0.8872169E-01
        2   -1    0    0  501    0  0.00000000000E+00  0.00000000000E+00  0.12058593033E+04  0.12058593033E+04  0.25500000920E-02 0.  1.
       -2   -1    0    0    0  501  0.00000000000E+00  0.00000000000E+00 -0.47812112585E+03  0.47812112586E+03  0.25500000920E-02 0. -1.
    10030    2    1    2    0    0  0.00000000000E+00  0.00000000000E+00  0.72773817749E+03  0.16839804292E+04  0.15186135884E+04 0.  0.
        2    1    3    3  502    0 -0.14543282855E+03 -0.97009355124E+02 -0.45550122928E+03  0.48789639523E+03  0.25500000920E-02 0. -1.
       -2    1    3    3    0  502  0.14543282855E+03  0.97009355124E+02  0.11832394068E+04  0.11960840340E+04  0.25500000920E-02 0.  1.
</event>
<event>
 5   0  0.1484056E-03  0.1393361E+04  0.7818609E-02  0.8958638E-01
       -2   -1    0    0    0  501  0.00000000000E+00  0.00000000000E+00  0.68326180403E+03  0.68326180404E+03  0.25500000920E-02 0.  1.
        2   -1    0    0  501    0  0.00000000000E+00  0.00000000000E+00 -0.71036313865E+03  0.71036313865E+03  0.25500000920E-02 0. -1.
    10030    2    1    2    0    0  0.00000000000E+00  0.00000000000E+00 -0.27101334618E+02  0.13936249427E+04  0.13933614027E+04 0.  0.
        5    1    3    3  502    0 -0.13560906752E+03 -0.63823129654E+03 -0.25775438355E+03  0.70156141522E+03  0.46999998093E+01 0.  1.
       -5    1    3    3    0  502  0.13560906752E+03  0.63823129654E+03  0.23065304894E+03  0.69206352748E+03  0.46999998093E+01 0. -1.
</event>
<event>
 5   0  0.1552067E-03  0.1503435E+04  0.7818609E-02  0.8882172E-01
       -2   -1    0    0    0  501  0.00000000000E+00  0.00000000000E+00  0.67846021293E+03  0.67846021294E+03  0.25500000920E-02 0.  1.
        2   -1    0    0  501    0  0.00000000000E+00  0.00000000000E+00 -0.83288517620E+03  0.83288517621E+03  0.25500000920E-02 0. -1.
    10030    2    1    2    0    0  0.00000000000E+00  0.00000000000E+00 -0.15442496327E+03  0.15113453891E+04  0.15034353382E+04 0.  0.
        3    1    3    3  502    0  0.40917624628E+03 -0.60143479900E+03  0.11333804502E+03  0.73620278499E+03  0.10100000352E+00 0.  1.
       -3    1    3    3    0  502 -0.40917624628E+03  0.60143479900E+03 -0.26776300829E+03  0.77514260416E+03  0.10100000352E+00 0. -1.
</event>
<event>
 5   0  0.1511546E-03  0.1496305E+04  0.7818609E-02  0.8886914E-01
       -2   -1    0    0    0  501  0.00000000000E+00  0.00000000000E+00  0.70219894802E+03  0.70219894802E+03  0.25500000920E-02 0. -1.
        2   -1    0    0  501    0  0.00000000000E+00  0.00000000000E+00 -0.79711328684E+03  0.79711328684E+03  0.25500000920E-02 0.  1.
    10030    2    1    2    0    0  0.00000000000E+00  0.00000000000E+00 -0.94914338823E+02  0.14993122349E+04  0.14963049308E+04 0.  0.
        1    1    3    3  502    0  0.32786833819E+03  0.59114100610E+03  0.27379095319E+03  0.72931942408E+03  0.50400001928E-02 0.  1.
       -1    1    3    3    0  502 -0.32786833819E+03 -0.59114100610E+03 -0.36870529201E+03  0.76999281078E+03  0.50400001928E-02 0. -1.
</event>
<event>
 5   0  0.8365016E-04  0.1550758E+04  0.7818609E-02  0.8851384E-01
        1   -1    0    0  501    0  0.00000000000E+00  0.00000000000E+00  0.12140337473E+04  0.12140337473E+04  0.50400001928E-02 0.  1.
       -1   -1    0    0    0  501  0.00000000000E+00  0.00000000000E+00 -0.49521889120E+03  0.49521889122E+03  0.50400001928E-02 0. -1.
    10030    2    1    2    0    0  0.00000000000E+00  0.00000000000E+00  0.71881485608E+03  0.17092526385E+04  0.15507578099E+04 0.  0.
        3    1    3    3  502    0 -0.75337884122E+03 -0.18095944344E+03  0.39222348020E+03  0.86842689226E+03  0.10100000352E+00 0.  1.
       -3    1    3    3    0  502  0.75337884122E+03  0.18095944344E+03  0.32659137588E+03  0.84082574626E+03  0.10100000352E+00 0. -1.
</event>
<event>
 5   0  0.8365016E-04  0.1528906E+04  0.7818609E-02  0.8865455E-01
        1   -1    0    0  501    0  0.00000000000E+00  0.00000000000E+00  0.13934125727E+04  0.13934125727E+04  0.50400001928E-02 0. -1.
       -1   -1    0    0    0  501  0.00000000000E+00  0.00000000000E+00 -0.41939374203E+03  0.41939374206E+03  0.50400001928E-02 0.  1.
    10030    2    1    2    0    0  0.00000000000E+00  0.00000000000E+00  0.97401883071E+03  0.18128063148E+04  0.15289061621E+04 0.  0.
        3    1    3    3  502    0 -0.33949482296E+03 -0.46641938001E+03 -0.10771081688E+03  0.58686063349E+03  0.10100000352E+00 0.  1.
       -3    1    3    3    0  502  0.33949482296E+03  0.46641938001E+03  0.10817296476E+04  0.12259456813E+04  0.10100000352E+00 0. -1.
</event>
<event>
 5   0  0.1484056E-03  0.1465376E+04  0.7818609E-02  0.8907810E-01
        2   -1    0    0  501    0  0.00000000000E+00  0.00000000000E+00  0.14198453266E+04  0.14198453266E+04  0.25500000920E-02 0. -1.
       -2   -1    0    0    0  501  0.00000000000E+00  0.00000000000E+00 -0.37809148778E+03  0.37809148779E+03  0.25500000920E-02 0.  1.
    10030    2    1    2    0    0  0.00000000000E+00  0.00000000000E+00  0.10417538388E+04  0.17979368144E+04  0.14653756269E+04 0.  0.
        5    1    3    3  502    0  0.24705526362E+03 -0.52221051954E+03 -0.32024243064E+02  0.57860847915E+03  0.46999998093E+01 0.  1.
       -5    1    3    3    0  502 -0.24705526362E+03  0.52221051954E+03  0.10737780819E+04  0.12193283353E+04  0.46999998093E+01 0. -1.
</event>
<event>
 5   0  0.8306301E-04  0.1451440E+04  0.7818609E-02  0.8917403E-01
       -1   -1    0    0    0  501  0.00000000000E+00  0.00000000000E+00  0.32352582168E+03  0.32352582172E+03  0.50400001928E-02 0.  1.
        1   -1    0    0  501    0  0.00000000000E+00  0.00000000000E+00 -0.16279063754E+04  0.16279063754E+04  0.50400001928E-02 0. -1.
    10030    2    1    2    0    0  0.00000000000E+00  0.00000000000E+00 -0.13043805537E+04  0.19514321971E+04  0.14514403161E+04 0.  0.
        4    1    3    3  502    0 -0.29110451704E+03  0.56787027228E+01  0.24155417695E+03  0.37831748679E+03  0.12699999809E+01 0.  1.
       -4    1    3    3    0  502  0.29110451704E+03 -0.56787027228E+01 -0.15459347307E+04  0.15731147103E+04  0.12699999809E+01 0. -1.
</event>
<event>
 5   0  0.1511546E-03  0.1495123E+04  0.7818609E-02  0.8887703E-01
       -2   -1    0    0    0  501  0.00000000000E+00  0.00000000000E+00  0.71507625107E+03  0.71507625108E+03  0.25500000920E-02 0. -1.
        2   -1    0    0  501    0  0.00000000000E+00  0.00000000000E+00 -0.78152233025E+03  0.78152233025E+03  0.25500000920E-02 0.  1.
    10030    2    1    2    0    0  0.00000000000E+00  0.00000000000E+00 -0.66446079177E+02  0.14965985813E+04  0.14951228151E+04 0.  0.
        1    1    3    3  502    0 -0.12340690803E+03  0.46363729279E+03  0.54063093361E+03  0.72282128540E+03  0.50400001928E-02 0. -1.
       -1    1    3    3    0  502  0.12340690803E+03 -0.46363729279E+03 -0.60707701279E+03  0.77377729593E+03  0.50400001928E-02 0.  1.
</event>
<event>
 5   0  0.1552067E-03  0.1089904E+04  0.7818609E-02  0.9215089E-01
        2   -1    0    0  501    0  0.00000000000E+00  0.00000000000E+00  0.12329838117E+04  0.12329838117E+04  0.25500000920E-02 0. -1.
       -2   -1    0    0    0  501  0.00000000000E+00  0.00000000000E+00 -0.24085670426E+03  0.24085670428E+03  0.25500000920E-02 0.  1.
    10030    2    1    2    0    0  0.00000000000E+00  0.00000000000E+00  0.99212710745E+03  0.14738405160E+04  0.10899035137E+04 0.  0.
        3    1    3    3  502    0 -0.34339236234E+03 -0.31780882108E+03  0.87385617472E+03  0.99123427381E+03  0.10100000352E+00 0. -1.
       -3    1    3    3    0  502  0.34339236234E+03  0.31780882108E+03  0.11827093273E+03  0.48260624219E+03  0.10100000352E+00 0.  1.
</event>
<event>
 5   0  0.8365016E-04  0.1447269E+04  0.7818609E-02  0.8920296E-01
        1   -1    0    0  501    0  0.00000000000E+00  0.00000000000E+00  0.58637889054E+03  0.58637889056E+03  0.50400001928E-02 0.  1.
       -1   -1    0    0    0  501  0.00000000000E+00  0.00000000000E+00 -0.89301788432E+03  0.89301788434E+03  0.50400001928E-02 0. -1.
    10030    2    1    2    0    0  0.00000000000E+00  0.00000000000E+00 -0.30663899378E+03  0.14793967749E+04  0.14472689263E+04 0.  0.
        3    1    3    3  502    0 -0.15045135662E+03  0.69781701458E+03 -0.27453793888E+03  0.76482369644E+03  0.10100000352E+00 0.  1.
       -3    1    3    3    0  502  0.15045135662E+03 -0.69781701458E+03 -0.32101054897E+02  0.71457307847E+03  0.10100000352E+00 0. -1.
</event>
<event>
 5   0  0.1552067E-03  0.1486816E+04  0.7818609E-02  0.8893268E-01
        2   -1    0    0  501    0  0.00000000000E+00  0.00000000000E+00  0.59364588629E+03  0.59364588630E+03  0.25500000920E-02 0. -1.
       -2   -1    0    0    0  501  0.00000000000E+00  0.00000000000E+00 -0.93095171390E+03  0.93095171390E+03  0.25500000920E-02 0.  1.
    10030    2    1    2    0    0  0.00000000000E+00  0.00000000000E+00 -0.33730582761E+03  0.15245976002E+04  0.14868162702E+04 0.  0.
        3    1    3    3  502    0 -0.52383043478E+03 -0.49911634284E+03  0.63898527321E+01  0.72357189588E+03  0.10100000352E+00 0. -1.
       -3    1    3    3    0  502  0.52383043478E+03  0.49911634284E+03 -0.34369568034E+03  0.80102570432E+03  0.10100000352E+00 0.  1.
</event>
<event>
 5   0  0.1511546E-03  0.1560986E+04  0.7818609E-02  0.8844881E-01
        2   -1    0    0  501    0  0.00000000000E+00  0.00000000000E+00  0.11097724357E+04  0.11097724357E+04  0.25500000920E-02 0. -1.
       -2   -1    0    0    0  501  0.00000000000E+00  0.00000000000E+00 -0.54891352294E+03  0.54891352295E+03  0.25500000920E-02 0.  1.
    10030    2    1    2    0    0  0.00000000000E+00  0.00000000000E+00  0.56085891271E+03  0.16586859586E+04  0.15609857108E+04 0.  0.
        1    1    3    3  502    0  0.60393452937E+03  0.91584401093E+02 -0.23582303927E+03  0.65478021058E+03  0.50400001928E-02 0.  1.
       -1    1    3    3    0  502 -0.60393452937E+03 -0.91584401093E+02  0.79668195199E+03  0.10039057480E+04  0.50400001928E-02 0. -1.
</event>
<event>
 5   0  0.8191876E-04  0.1555308E+04  0.7818609E-02  0.8848485E-01
        1   -1    0    0  501    0  0.00000000000E+00  0.00000000000E+00  0.89823563544E+03  0.89823563545E+03  0.50400001928E-02 0. -1.
       -1   -1    0    0    0  501  0.00000000000E+00  0.00000000000E+00 -0.67325927323E+03  0.67325927325E+03  0.50400001928E-02 0.  1.
    10030    2    1    2    0    0  0.00000000000E+00  0.00000000000E+00  0.22497636221E+03  0.15714949087E+04  0.15553076495E+04 0.  0.
        2    1    3    3  502    0  0.19273388458E+03  0.60129129849E+03 -0.34616114700E+03  0.72008688059E+03  0.25500000920E-02 0.  1.
       -2    1    3    3    0  502 -0.19273388458E+03 -0.60129129849E+03  0.57113750920E+03  0.85140802811E+03  0.25500000920E-02 0. -1.
</event>
<event>
 5   0  0.1500956E-03  0.1492522E+04  0.7818609E-02  0.8889441E-01
       -2   -1    0    0    0  501  0.00000000000E+00  0.00000000000E+00  0.42338802883E+03  0.42338802884E+03  0.25500000920E-02 0. -1.
        2   -1    0    0  501    0  0.00000000000E+00  0.00000000000E+00 -0.13153543052E+04  0.13153543052E+04  0.25500000920E-02 0.  1.
    10030    2    1    2    0    0  0.00000000000E+00  0.00000000000E+00 -0.89196627640E+03  0.17387423341E+04  0.14925217138E+04 0.  0.
        4    1    3    3  502    0  0.10996335991E+03  0.27649424667E+03  0.35128736176E+03  0.46037531688E+03  0.12699999809E+01 0. -1.
       -4    1    3    3    0  502 -0.10996335991E+03 -0.27649424667E+03 -0.12432536382E+04  0.12783670172E+04  0.12699999809E+01 0.  1.
</event>
<event>
 5   0  0.1526126E-03  0.1535481E+04  0.7818609E-02  0.8861196E-01
        2   -1    0    0  501    0  0.00000000000E+00  0.00000000000E+00  0.81247380217E+03  0.81247380217E+03  0.25500000920E-02 0. -1.
       -2   -1    0    0    0  501  0.00000000000E+00  0.00000000000E+00 -0.72546977373E+03  0.72546977373E+03  0.25500000920E-02 0.  1.
    10030    2    1    2    0    0  0.00000000000E+00  0.00000000000E+00  0.87004028440E+02  0.15379435759E+04  0.15354806224E+04 0.  0.
        2    1    3    3  502    0 -0.10559382758E+02 -0.35231062855E+03  0.72664508928E+03  0.80761832900E+03  0.25500000920E-02 0. -1.
       -2    1    3    3    0  502  0.10559382758E+02  0.35231062855E+03 -0.63964106084E+03  0.73032524691E+03  0.25500000920E-02 0.  1.
</event>
<event>
 5   0  0.8365016E-04  0.1498607E+04  0.7818609E-02  0.8885379E-01
        1   -1    0    0  501    0  0.00000000000E+00  0.00000000000E+00  0.11732292762E+04  0.11732292762E+04  0.50400001928E-02 0. -1.
       -1   -1    0    0    0  501  0.00000000000E+00  0.00000000000E+00 -0.47855611940E+03  0.47855611943E+03  0.50400001928E-02 0.  1.
    10030    2    1    2    0    0  0.00000000000E+00  0.00000000000E+00  0.69467315679E+03  0.16517853956E+04  0.14986074197E+04 0.  0.
        3    1    3    3  502    0  0.38524162705E+03  0.47444951311E+03 -0.13049884761E+03  0.62493472550E+03  0.10100000352E+00 0.  1.
       -3    1    3    3    0  502 -0.38524162705E+03 -0.47444951311E+03  0.82517200440E+03  0.10268506701E+04  0.10100000352E+00 0. -1.
</event>
<event>
 5   0  0.8306301E-04  0.1513904E+04  0.7818609E-02  0.8875259E-01
        1   -1    0    0  501    0  0.00000000000E+00  0.00000000000E+00  0.12164474099E+04  0.12164474099E+04  0.50400001928E-02 0. -1.
       -1   -1    0    0    0  501  0.00000000000E+00  0.00000000000E+00 -0.47102425728E+03  0.47102425731E+03  0.50400001928E-02 0.  1.
    10030    2    1    2    0    0  0.00000000000E+00  0.00000000000E+00  0.74542315259E+03  0.16874716672E+04  0.15139038778E+04 0.  0.
        4    1    3    3  502    0  0.64843994299E+03 -0.37009164502E+03  0.23379373570E+03  0.78237031458E+03  0.12699999809E+01 0. -1.
       -4    1    3    3    0  502 -0.64843994299E+03  0.37009164502E+03  0.51162941689E+03  0.90510135261E+03  0.12699999809E+01 0.  1.
</event>
<event>
 5   0  0.8058234E-04  0.1517123E+04  0.7818609E-02  0.8873146E-01
        1   -1    0    0  501    0  0.00000000000E+00  0.00000000000E+00  0.99951453317E+03  0.99951453318E+03  0.50400001928E-02 0.  1.
       -1   -1    0    0    0  501  0.00000000000E+00  0.00000000000E+00 -0.57569473840E+03  0.57569473842E+03  0.50400001928E-02 0. -1.
    10030    2    1    2    0    0  0.00000000000E+00  0.00000000000E+00  0.42381979477E+03  0.15752092716E+04  0.15171226156E+04 0.  0.
        5    1    3    3  502    0 -0.14903232039E+03 -0.67407061633E+03  0.53828796752E+03  0.87541867372E+03  0.46999998093E+01 0.  1.
       -5    1    3    3    0  502  0.14903232039E+03  0.67407061633E+03 -0.11446817275E+03  0.69979059789E+03  0.46999998093E+01 0. -1.
</event>
<event>
 5   0  0.8306301E-04  0.1440503E+04  0.7818609E-02  0.8925011E-01
       -1   -1    0    0    0  501  0.00000000000E+00  0.00000000000E+00  0.30650386567E+03  0.30650386571E+03  0.50400001928E-02 0.  1.
        1   -1    0    0  501    0  0.00000000000E+00  0.00000000000E+00 -0.16925150988E+04  0.16925150988E+04  0.50400001928E-02 0. -1.
    10030    2    1    2    0    0  0.00000000000E+00  0.00000000000E+00 -0.13860112331E+04  0.19990189645E+04  0.14405032739E+04 0.  0.
        4    1    3    3  502    0 -0.14955096183E+03  0.42535113496E+03 -0.14724459726E+04  0.15399311131E+04  0.12699999809E+01 0. -1.
       -4    1    3    3    0  502  0.14955096183E+03 -0.42535113496E+03  0.86434739440E+02  0.45908785137E+03  0.12699999809E+01 0.  1.
</event>
<event>
 5   0  0.7870317E-04  0.1491711E+04  0.7818609E-02  0.8889984E-01
       -1   -1    0    0    0  501  0.00000000000E+00  0.00000000000E+00  0.49766588470E+03  0.49766588472E+03  0.50400001928E-02 0. -1.
        1   -1    0    0  501    0  0.00000000000E+00  0.00000000000E+00 -0.11178189505E+04  0.11178189505E+04  0.50400001928E-02 0.  1.
    10030    2    1    2    0    0  0.00000000000E+00  0.00000000000E+00 -0.62015306582E+03  0.16154848353E+04  0.14917109063E+04 0.  0.
        1    1    3    3  502    0 -0.28247648723E+03  0.64584205225E+03 -0.46142889430E+02  0.70642344848E+03  0.50400001928E-02 0.  1.
       -1    1    3    3    0  502  0.28247648723E+03 -0.64584205225E+03 -0.57401017639E+03  0.90906138677E+03  0.50400001928E-02 0. -1.
</event>
<event>
 5   0  0.1484056E-03  0.1456276E+04  0.7818609E-02  0.8914061E-01
        2   -1    0    0  501    0  0.00000000000E+00  0.00000000000E+00  0.74543272721E+03  0.74543272721E+03  0.25500000920E-02 0. -1.
       -2   -1    0    0    0  501  0.00000000000E+00  0.00000000000E+00 -0.71124455238E+03  0.71124455238E+03  0.25500000920E-02 0.  1.
    10030    2    1    2    0    0  0.00000000000E+00  0.00000000000E+00  0.34188174831E+02  0.14566772796E+04  0.14562760266E+04 0.  0.
        5    1    3    3  502    0  0.33155681807E+03  0.59017926326E+03 -0.25116144186E+03  0.72204269006E+03  0.46999998093E+01 0.  1.
       -5    1    3    3    0  502 -0.33155681807E+03 -0.59017926326E+03  0.28534961669E+03  0.73463458953E+03  0.46999998093E+01 0. -1.
</event>
<event>
 5   0  0.8306301E-04  0.1488933E+04  0.7818609E-02  0.8891846E-01
       -1   -1    0    0    0  501  0.00000000000E+00  0.00000000000E+00  0.51050051730E+03  0.51050051732E+03  0.50400001928E-02 0. -1.
        1   -1    0    0  501    0  0.00000000000E+00  0.00000000000E+00 -0.10856612736E+04  0.10856612736E+04  0.50400001928E-02 0.  1.
    10030    2    1    2    0    0  0.00000000000E+00  0.00000000000E+00 -0.57516075631E+03  0.15961617909E+04  0.14889333656E+04 0.  0.
        4    1    3    3  502    0  0.85432551968E+02 -0.15894414468E+03 -0.10618609434E+04  0.10770850654E+04  0.12699999809E+01 0.  1.
       -4    1    3    3    0  502 -0.85432551968E+02  0.15894414468E+03  0.48670018706E+03  0.51907672558E+03  0.12699999809E+01 0. -1.
</event>
<event>
 5   0  0.5603875E-04  0.1528512E+04  0.7818609E-02  0.8865711E-01
       -4   -1    0    0    0  501  0.00000000000E+00  0.00000000000E+00  0.88274022176E+03  0.88274113533E+03  0.12699999809E+01 0.  1.
        4   -1    0    0  501    0  0.00000000000E+00  0.00000000000E+00 -0.66167357657E+03  0.66167479538E+03  0.12699999809E+01 0. -1.
    10030    2    1    2    0    0  0.00000000000E+00  0.00000000000E+00  0.22106664519E+03  0.15444159307E+04  0.15285123831E+04 0.  0.
        1    1    3    3  502    0  0.45472049843E+03  0.16626077448E+03  0.70801841640E+03  0.85773157503E+03  0.50400001928E-02 0.  1.
       -1    1    3    3    0  502 -0.45472049843E+03 -0.16626077448E+03 -0.48695177121E+03  0.68668435568E+03  0.50400001928E-02 0. -1.
</event>
<event>
 5   0  0.1552067E-03  0.1489739E+04  0.7818609E-02  0.8891305E-01
       -2   -1    0    0    0  501  0.00000000000E+00  0.00000000000E+00  0.18907431582E+03  0.18907431584E+03  0.25500000920E-02 0. -1.
        2   -1    0    0  501    0  0.00000000000E+00  0.00000000000E+00 -0.29344581814E+04  0.29344581814E+04  0.25500000920E-02 0.  1.
    10030    2    1    2    0    0  0.00000000000E+00  0.00000000000E+00 -0.27453838656E+04  0.31235324973E+04  0.14897391355E+04 0.  0.
        3    1    3    3  502    0 -0.38277408825E+03  0.26228980998E+03 -0.25944006188E+04  0.26355694883E+04  0.10100000352E+00 0.  1.
       -3    1    3    3    0  502  0.38277408825E+03 -0.26228980998E+03 -0.15098324686E+03  0.48796300894E+03  0.10100000352E+00 0. -1.
</event>
<event>
 5   0  0.1552067E-03  0.1560082E+04  0.7818609E-02  0.8845454E-01
        2   -1    0    0  501    0  0.00000000000E+00  0.00000000000E+00  0.91391673116E+03  0.91391673116E+03  0.25500000920E-02 0. -1.
       -2   -1    0    0    0  501  0.00000000000E+00  0.00000000000E+00 -0.66577591211E+03  0.66577591211E+03  0.25500000920E-02 0.  1.
    10030    2    1    2    0    0  0.00000000000E+00  0.00000000000E+00  0.24814081905E+03  0.15796926433E+04  0.15600817226E+04 0.  0.
        3    1    3    3  502    0 -0.61448884545E+02  0.74637352451E+03  0.34502045374E+03  0.82455353204E+03  0.10100000352E+00 0. -1.
       -3    1    3    3    0  502  0.61448884545E+02 -0.74637352451E+03 -0.96879634689E+02  0.75513911124E+03  0.10100000352E+00 0.  1.
</event>
<event>
 5   0  0.8058234E-04  0.1508516E+04  0.7818609E-02  0.8878809E-01
        1   -1    0    0  501    0  0.00000000000E+00  0.00000000000E+00  0.15436399269E+04  0.15436399270E+04  0.50400001928E-02 0.  1.
       -1   -1    0    0    0  501  0.00000000000E+00  0.00000000000E+00 -0.36854803743E+03  0.36854803746E+03  0.50400001928E-02 0. -1.
    10030    2    1    2    0    0  0.00000000000E+00  0.00000000000E+00  0.11750918895E+04  0.19121879644E+04  0.15085164442E+04 0.  0.
        5    1    3    3  502    0 -0.49919494210E+03 -0.56529203045E+03  0.60214838135E+03  0.96506757953E+03  0.46999998093E+01 0.  1.
       -5    1    3    3    0  502  0.49919494210E+03  0.56529203045E+03  0.57294350818E+03  0.94712038488E+03  0.46999998093E+01 0. -1.
</event>
<event>
 5   0  0.1484056E-03  0.1500156E+04  0.7818609E-02  0.8884349E-01
        2   -1    0    0  501    0  0.00000000000E+00  0.00000000000E+00  0.29528005162E+03  0.29528005163E+03  0.25500000920E-02 0.  1.
       -2   -1    0    0    0  501  0.00000000000E+00  0.00000000000E+00 -0.19053687165E+04  0.19053687165E+04  0.25500000920E-02 0. -1.
    10030    2    1    2    0    0  0.00000000000E+00  0.00000000000E+00 -0.16100886648E+04  0.22006487681E+04  0.15001564891E+04 0.  0.
        5    1    3    3  502    0 -0.10249286096E+03 -0.59454554885E+03 -0.15129622399E+03  0.62201433553E+03  0.46999998093E+01 0.  1.
       -5    1    3    3    0  502  0.10249286096E+03  0.59454554885E+03 -0.14587924409E+04  0.15786344326E+04  0.46999998093E+01 0. -1.
</event>
<event>
 5   0  0.1552067E-03  0.1495642E+04  0.7818609E-02  0.8887356E-01
       -2   -1    0    0    0  501  0.00000000000E+00  0.00000000000E+00  0.63913141742E+03  0.63913141743E+03  0.25500000920E-02 0. -1.
        2   -1    0    0  501    0  0.00000000000E+00  0.00000000000E+00 -0.87499443375E+03  0.87499443376E+03  0.25500000920E-02 0.  1.
    10030    2    1    2    0    0  0.00000000000E+00  0.00000000000E+00 -0.23586301633E+03  0.15141258512E+04  0.14956422469E+04 0.  0.
        3    1    3    3  502    0  0.75997580510E+02 -0.17835721942E+03  0.61324738292E+03  0.64316350396E+03  0.10100000352E+00 0. -1.
       -3    1    3    3    0  502 -0.75997580510E+02  0.17835721942E+03 -0.84911039925E+03  0.87096234723E+03  0.10100000352E+00 0.  1.
</event>
<event>
 5   0  0.8365016E-04  0.1412712E+04  0.7818609E-02  0.8944668E-01
        1   -1    0    0  501    0  0.00000000000E+00  0.00000000000E+00  0.91814718268E+03  0.91814718270E+03  0.50400001928E-02 0.  1.
       -1   -1    0    0    0  501  0.00000000000E+00  0.00000000000E+00 -0.54341896561E+03  0.54341896563E+03  0.50400001928E-02 0. -1.
    10030    2    1    2    0    0  0.00000000000E+00  0.00000000000E+00  0.37472821708E+03  0.14615661483E+04  0.14127117078E+04 0.  0.
        3    1    3    3  502    0 -0.57717225736E+03 -0.11767340747E+03  0.59067032227E+03  0.83418600162E+03  0.10100000352E+00 0.  1.
       -3    1    3    3    0  502  0.57717225736E+03  0.11767340747E+03 -0.21594210519E+03  0.62738014671E+03  0.10100000352E+00 0. -1.
</event>
<event>
 5   0  0.8365016E-04  0.1507147E+04  0.7818609E-02  0.8879714E-01
        1   -1    0    0  501    0  0.00000000000E+00  0.00000000000E+00  0.13840219437E+04  0.13840219437E+04  0.50400001928E-02 0.  1.
       -1   -1    0    0    0  501  0.00000000000E+00  0.00000000000E+00 -0.41030620361E+03  0.41030620364E+03  0.50400001928E-02 0. -1.
    10030    2    1    2    0    0  0.00000000000E+00  0.00000000000E+00  0.97371574006E+03  0.17943281473E+04  0.15071466942E+04 0.  0.
        3    1    3    3  502    0 -0.53423558850E+03  0.30456591163E+03  0.10054016315E+04  0.11785586576E+04  0.10100000352E+00 0.  1.
       -3    1    3    3    0  502  0.53423558850E+03 -0.30456591163E+03 -0.31685891472E+02  0.61576948971E+03  0.10100000352E+00 0. -1.
</event>
<event>
 5   0  0.8306301E-04  0.1396996E+04  0.7818609E-02  0.8955996E-01
       -1   -1    0    0    0  501  0.00000000000E+00  0.00000000000E+00  0.54008912663E+03  0.54008912665E+03  0.50400001928E-02 0.  1.
        1   -1    0    0  501    0  0.00000000000E+00  0.00000000000E+00 -0.90336782089E+03  0.90336782090E+03  0.50400001928E-02 0. -1.
    10030    2    1    2    0    0  0.00000000000E+00  0.00000000000E+00 -0.36327869426E+03  0.14434569476E+04  0.13969955439E+04 0.  0.
        4    1    3    3  502    0  0.44022476530E+02  0.56118330480E+02  0.53631539469E+03  0.54103887193E+03  0.12699999809E+01 0.  1.
       -4    1    3    3    0  502 -0.44022476530E+02 -0.56118330480E+02 -0.89959408895E+03  0.90241807563E+03  0.12699999809E+01 0. -1.
</event>
<event>
 5   0  0.1511546E-03  0.1235288E+04  0.7818609E-02  0.9082518E-01
        2   -1    0    0  501    0  0.00000000000E+00  0.00000000000E+00  0.49469658351E+03  0.49469658351E+03  0.25500000920E-02 0. -1.
       -2   -1    0    0    0  501  0.00000000000E+00  0.00000000000E+00 -0.77114783782E+03  0.77114783782E+03  0.25500000920E-02 0.  1.
    10030    2    1    2    0    0  0.00000000000E+00  0.00000000000E+00 -0.27645125431E+03  0.12658444213E+04  0.12352881457E+04 0.  0.
        1    1    3    3  502    0  0.29476861932E+03  0.19627169858E+03  0.38032841331E+03  0.51967376362E+03  0.50400001928E-02 0. -1.
       -1    1    3    3    0  502 -0.29476861932E+03 -0.19627169858E+03 -0.65677966762E+03  0.74617065771E+03  0.50400001928E-02 0.  1.
</event>
<event>
 5   0  0.5603875E-04  0.1469913E+04  0.7818609E-02  0.8904710E-01
       -4   -1    0    0    0  501  0.00000000000E+00  0.00000000000E+00  0.61131975489E+03  0.61132107408E+03  0.12699999809E+01 0.  1.
        4   -1    0    0  501    0  0.00000000000E+00  0.00000000000E+00 -0.88359598001E+03  0.88359689270E+03  0.12699999809E+01 0. -1.
    10030    2    1    2    0    0  0.00000000000E+00  0.00000000000E+00 -0.27227622513E+03  0.14949179668E+04  0.14699133936E+04 0.  0.
        4    1    3    3  502    0  0.79339136774E+02  0.49942357522E+03 -0.67854077153E+03  0.84624925267E+03  0.12699999809E+01 0. -1.
       -4    1    3    3    0  502 -0.79339136774E+02 -0.49942357522E+03  0.40626454640E+03  0.64866871412E+03  0.12699999809E+01 0.  1.
</event>
<event>
 5   0  0.1526126E-03  0.1504046E+04  0.7818609E-02  0.8881767E-01
       -2   -1    0    0    0  501  0.00000000000E+00  0.00000000000E+00  0.59254117822E+03  0.59254117822E+03  0.25500000920E-02 0. -1.
        2   -1    0    0  501    0  0.00000000000E+00  0.00000000000E+00 -0.95442953105E+03  0.95442953105E+03  0.25500000920E-02 0.  1.
    10030    2    1    2    0    0  0.00000000000E+00  0.00000000000E+00 -0.36188835283E+03  0.15469707093E+04  0.15040462744E+04 0.  0.
        2    1    3    3  502    0  0.17226049410E+03 -0.67290007756E+03 -0.47738948619E+03  0.84283385892E+03  0.25500000920E-02 0.  1.
       -2    1    3    3    0  502 -0.17226049410E+03  0.67290007756E+03  0.11550113336E+03  0.70413685035E+03  0.25500000920E-02 0. -1.
</event>
<event>
 5   0  0.1552067E-03  0.1517294E+04  0.7818609E-02  0.8873033E-01
       -2   -1    0    0    0  501  0.00000000000E+00  0.00000000000E+00  0.43794778845E+03  0.43794778846E+03  0.25500000920E-02 0. -1.
        2   -1    0    0  501    0  0.00000000000E+00  0.00000000000E+00 -0.13141870333E+04  0.13141870333E+04  0.25500000920E-02 0.  1.
    10030    2    1    2    0    0  0.00000000000E+00  0.00000000000E+00 -0.87623924483E+03  0.17521348217E+04  0.15172940451E+04 0.  0.
        3    1    3    3  502    0  0.38945464375E+03 -0.62818383573E+03 -0.24060415470E+03  0.77729030644E+03  0.10100000352E+00 0.  1.
       -3    1    3    3    0  502 -0.38945464375E+03  0.62818383573E+03 -0.63563509013E+03  0.97484451531E+03  0.10100000352E+00 0. -1.
</event>
<event>
 5   0  0.8191876E-04  0.1439180E+04  0.7818609E-02  0.8925936E-01
        1   -1    0    0  501    0  0.00000000000E+00  0.00000000000E+00  0.13263159102E+04  0.13263159102E+04  0.50400001928E-02 0. -1.
       -1   -1    0    0    0  501  0.00000000000E+00  0.00000000000E+00 -0.39041207772E+03  0.39041207775E+03  0.50400001928E-02 0.  1.
    10030    2    1    2    0    0  0.00000000000E+00  0.00000000000E+00  0.93590383243E+03  0.17167279879E+04  0.14391799752E+04 0.  0.
        2    1    3    3  502    0 -0.65258591731E+03 -0.15617021252E+03  0.15792011555E+03  0.68934481767E+03  0.25500000920E-02 0. -1.
       -2    1    3    3    0  502  0.65258591731E+03  0.15617021252E+03  0.77798371688E+03  0.10273831702E+04  0.25500000920E-02 0.  1.
</event>
<event>
 5   0  0.7870317E-04  0.1562180E+04  0.7818609E-02  0.8844125E-01
       -1   -1    0    0    0  501  0.00000000000E+00  0.00000000000E+00  0.24622505850E+03  0.24622505856E+03  0.50400001928E-02 0. -1.
        1   -1    0    0  501    0  0.00000000000E+00  0.00000000000E+00 -0.24778219489E+04  0.24778219489E+04  0.50400001928E-02 0.  1.
    10030    2    1    2    0    0  0.00000000000E+00  0.00000000000E+00 -0.22315968904E+04  0.27240470075E+04  0.15621803409E+04 0.  0.
        1    1    3    3  502    0 -0.31630296216E+03  0.15269667210E+03  0.10075463782E+03  0.36539750219E+03  0.50400001928E-02 0. -1.
       -1    1    3    3    0  502  0.31630296216E+03 -0.15269667210E+03 -0.23323515282E+04  0.23586495053E+04  0.50400001928E-02 0.  1.
</event>
<event>
 5   0  0.1552067E-03  0.1456015E+04  0.7818609E-02  0.8914241E-01
        2   -1    0    0  501    0  0.00000000000E+00  0.00000000000E+00  0.20554627464E+04  0.20554627464E+04  0.25500000920E-02 0. -1.
       -2   -1    0    0    0  501  0.00000000000E+00  0.00000000000E+00 -0.25784698005E+03  0.25784698006E+03  0.25500000920E-02 0.  1.
    10030    2    1    2    0    0  0.00000000000E+00  0.00000000000E+00  0.17976157664E+04  0.23133097265E+04  0.14560149200E+04 0.  0.
        3    1    3    3  502    0  0.22575419551E+03  0.53740364761E+02  0.19951248726E+04  0.20085756772E+04  0.10100000352E+00 0. -1.
       -3    1    3    3    0  502 -0.22575419551E+03 -0.53740364761E+02 -0.19750910618E+03  0.30473404933E+03  0.10100000352E+00 0.  1.
</event>
<event>
 5   0  0.1484056E-03  0.1483213E+04  0.7818609E-02  0.8895693E-01
        2   -1    0    0  501    0  0.00000000000E+00  0.00000000000E+00  0.10385405713E+04  0.10385405713E+04  0.25500000920E-02 0. -1.
       -2   -1    0    0    0  501  0.00000000000E+00  0.00000000000E+00 -0.52957047543E+03  0.52957047544E+03  0.25500000920E-02 0.  1.
    10030    2    1    2    0    0  0.00000000000E+00  0.00000000000E+00  0.50897009582E+03  0.15681110467E+04  0.14832133010E+04 0.  0.
        5    1    3    3  502    0 -0.58459968427E+03 -0.13405994145E+03  0.71560308228E+03  0.93372304252E+03  0.46999998093E+01 0. -1.
       -5    1    3    3    0  502  0.58459968427E+03  0.13405994145E+03 -0.20663298646E+03  0.63438800418E+03  0.46999998093E+01 0.  1.
</event>
<event>
 5   0  0.8365016E-04  0.1447445E+04  0.7818609E-02  0.8920173E-01
       -1   -1    0    0    0  501  0.00000000000E+00  0.00000000000E+00  0.58497082377E+03  0.58497082380E+03  0.50400001928E-02 0.  1.
        1   -1    0    0  501    0  0.00000000000E+00  0.00000000000E+00 -0.89538570732E+03  0.89538570734E+03  0.50400001928E-02 0. -1.
    10030    2    1    2    0    0  0.00000000000E+00  0.00000000000E+00 -0.31041488355E+03  0.14803565311E+04  0.14474453563E+04 0.  0.
        3    1    3    3  502    0  0.41328829635E+03  0.16453398869E+03 -0.73906050807E+03  0.86260599009E+03  0.10100000352E+00 0. -1.
       -3    1    3    3    0  502 -0.41328829635E+03 -0.16453398869E+03  0.42864562453E+03  0.61775054105E+03  0.10100000352E+00 0.  1.
</event>
<event>
 5   0  0.8306301E-04  0.1514917E+04  0.7818609E-02  0.8874594E-01
       -1   -1    0    0    0  501  0.00000000000E+00  0.00000000000E+00  0.39680311843E+03  0.39680311847E+03  0.50400001928E-02 0.  1.
        1   -1    0    0  501    0  0.00000000000E+00  0.00000000000E+00 -0.14459136488E+04  0.14459136488E+04  0.50400001928E-02 0. -1.
    10030    2    1    2    0    0  0.00000000000E+00  0.00000000000E+00 -0.10491105304E+04  0.18427167673E+04  0.15149165586E+04 0.  0.
        4    1    3    3  502    0  0.28541904304E+02 -0.17834665371E+03 -0.14193354792E+04  0.14307819486E+04  0.12699999809E+01 0. -1.
       -4    1    3    3    0  502 -0.28541904304E+02  0.17834665371E+03  0.37022494881E+03  0.41193481864E+03  0.12699999809E+01 0.  1.
</event>
<event>
 5   0  0.8191876E-04  0.1421614E+04  0.7818609E-02  0.8938320E-01
       -1   -1    0    0    0  501  0.00000000000E+00  0.00000000000E+00  0.44486687181E+03  0.44486687184E+03  0.50400001928E-02 0.  1.
        1   -1    0    0  501    0  0.00000000000E+00  0.00000000000E+00 -0.11357248010E+04  0.11357248010E+04  0.50400001928E-02 0. -1.
    10030    2    1    2    0    0  0.00000000000E+00  0.00000000000E+00 -0.69085792920E+03  0.15805916729E+04  0.14216136458E+04 0.  0.
        2    1    3    3  502    0  0.13272901598E+02  0.21643790331E+03 -0.10980518204E+04  0.11192583867E+04  0.25500000920E-02 0. -1.
       -2    1    3    3    0  502 -0.13272901598E+02 -0.21643790331E+03  0.40719389119E+03  0.46133328617E+03  0.25500000920E-02 0.  1.
</event>
<event>
 5   0  0.1500956E-03  0.9486490E+03  0.7818609E-02  0.9366731E-01
       -2   -1    0    0    0  501  0.00000000000E+00  0.00000000000E+00  0.49655359568E+03  0.49655359569E+03  0.25500000920E-02 0. -1.
        2   -1    0    0  501    0  0.00000000000E+00  0.00000000000E+00 -0.45309050169E+03  0.45309050170E+03  0.25500000920E-02 0.  1.
    10030    2    1    2    0    0  0.00000000000E+00  0.00000000000E+00  0.43463093990E+02  0.94964409739E+03  0.94864897152E+03 0.  0.
        4    1    3    3  502    0  0.46215125738E+03  0.78211126912E+02 -0.51017513516E+02  0.47149248632E+03  0.12699999809E+01 0.  1.
       -4    1    3    3    0  502 -0.46215125738E+03 -0.78211126912E+02  0.94480607506E+02  0.47815161107E+03  0.12699999809E+01 0. -1.
</event>
<event>
 5   0  0.8058234E-04  0.1472166E+04  0.7818609E-02  0.8903176E-01
        1   -1    0    0  501    0  0.00000000000E+00  0.00000000000E+00  0.56235610792E+03  0.56235610794E+03  0.50400001928E-02 0.  1.
       -1   -1    0    0    0  501  0.00000000000E+00  0.00000000000E+00 -0.96347819266E+03  0.96347819267E+03  0.50400001928E-02 0. -1.
    10030    2    1    2    0    0  0.00000000000E+00  0.00000000000E+00 -0.40112208474E+03  0.15258343006E+04  0.14721655430E+04 0.  0.
        5    1    3    3  502    0 -0.49688518358E+03 -0.10460288739E+03 -0.75286559830E+03  0.90811086813E+03  0.46999998093E+01 0. -1.
       -5    1    3    3    0  502  0.49688518358E+03  0.10460288739E+03  0.35174351356E+03  0.61772343248E+03  0.46999998093E+01 0.  1.
</event>
<event>
 5   0  0.1484056E-03  0.1486677E+04  0.7818609E-02  0.8893362E-01
       -2   -1    0    0    0  501  0.00000000000E+00  0.00000000000E+00  0.44896854662E+03  0.44896854663E+03  0.25500000920E-02 0.  1.
        2   -1    0    0  501    0  0.00000000000E+00  0.00000000000E+00 -0.12307137998E+04  0.12307137998E+04  0.25500000920E-02 0. -1.
    10030    2    1    2    0    0  0.00000000000E+00  0.00000000000E+00 -0.78174525320E+03  0.16796823465E+04  0.14866765432E+04 0.  0.
        5    1    3    3  502    0 -0.60152012210E+03 -0.15274088039E+03  0.71352945342E+02  0.62471558860E+03  0.46999998093E+01 0.  1.
       -5    1    3    3    0  502  0.60152012210E+03  0.15274088039E+03 -0.85309819854E+03  0.10549667579E+04  0.46999998093E+01 0. -1.
</event>
<event>
 5   0  0.8191876E-04  0.1517840E+04  0.7818609E-02  0.8872676E-01
        1   -1    0    0  501    0  0.00000000000E+00  0.00000000000E+00  0.57184084914E+03  0.57184084916E+03  0.50400001928E-02 0.  1.
       -1   -1    0    0    0  501  0.00000000000E+00  0.00000000000E+00 -0.10072020053E+04  0.10072020053E+04  0.50400001928E-02 0. -1.
    10030    2    1    2    0    0  0.00000000000E+00  0.00000000000E+00 -0.43536115612E+03  0.15790428544E+04  0.15178395831E+04 0.  0.
        2    1    3    3  502    0 -0.60504357500E+03 -0.45593865983E+03 -0.17113894847E+03  0.77668933871E+03  0.25500000920E-02 0. -1.
       -2    1    3    3    0  502  0.60504357500E+03  0.45593865983E+03 -0.26422220765E+03  0.80235351573E+03  0.25500000920E-02 0.  1.
</event>
<event>
 5   0  0.1511546E-03  0.1489653E+04  0.7818609E-02  0.8891363E-01
        2   -1    0    0  501    0  0.00000000000E+00  0.00000000000E+00  0.71931416666E+03  0.71931416666E+03  0.25500000920E-02 0. -1.
       -2   -1    0    0    0  501  0.00000000000E+00  0.00000000000E+00 -0.77124399384E+03  0.77124399384E+03  0.25500000920E-02 0.  1.
    10030    2    1    2    0    0  0.00000000000E+00  0.00000000000E+00 -0.51929827178E+02  0.14905581605E+04  0.14896532895E+04 0.  0.
        1    1    3    3  502    0  0.53928810039E+03  0.89083068040E+02  0.48030614421E+03  0.72764101068E+03  0.50400001928E-02 0. -1.
       -1    1    3    3    0  502 -0.53928810039E+03 -0.89083068040E+02 -0.53223597139E+03  0.76291714983E+03  0.50400001928E-02 0.  1.
</event>
<event>
 5   0  0.8058234E-04  0.1508169E+04  0.7818609E-02  0.8879039E-01
       -1   -1    0    0    0  501  0.00000000000E+00  0.00000000000E+00  0.31753003020E+03  0.31753003024E+03  0.50400001928E-02 0.  1.
        1   -1    0    0  501    0  0.00000000000E+00  0.00000000000E+00 -0.17908333919E+04  0.17908333919E+04  0.50400001928E-02 0. -1.
    10030    2    1    2    0    0  0.00000000000E+00  0.00000000000E+00 -0.14733033617E+04  0.21083634221E+04  0.15081689309E+04 0.  0.
        5    1    3    3  502    0  0.74812518845E+02  0.64139744233E+03 -0.19228272798E+03  0.67378210831E+03  0.46999998093E+01 0.  1.
       -5    1    3    3    0  502 -0.74812518845E+02 -0.64139744233E+03 -0.12810206337E+04  0.14345813138E+04  0.46999998093E+01 0. -1.
</event>
<event>
 5   0  0.8191876E-04  0.1496666E+04  0.7818609E-02  0.8886673E-01
        1   -1    0    0  501    0  0.00000000000E+00  0.00000000000E+00  0.95782527769E+03  0.95782527771E+03  0.50400001928E-02 0. -1.
       -1   -1    0    0    0  501  0.00000000000E+00  0.00000000000E+00 -0.58466045188E+03  0.58466045190E+03  0.50400001928E-02 0.  1.
    10030    2    1    2    0    0  0.00000000000E+00  0.00000000000E+00  0.37316482581E+03  0.15424857296E+04  0.14966663753E+04 0.  0.
        2    1    3    3  502    0  0.29843066205E+03  0.15846213743E+03 -0.50156503585E+03  0.60476325471E+03  0.25500000920E-02 0.  1.
       -2    1    3    3    0  502 -0.29843066205E+03 -0.15846213743E+03  0.87472986166E+03  0.93772247490E+03  0.25500000920E-02 0. -1.
</event>
<event>
 5   0  0.1526126E-03  0.1447605E+04  0.7818609E-02  0.8920063E-01
        2   -1    0    0  501    0  0.00000000000E+00  0.00000000000E+00  0.70473772431E+03  0.70473772431E+03  0.25500000920E-02 0. -1.
       -2   -1    0    0    0  501  0.00000000000E+00  0.00000000000E+00 -0.74338292607E+03  0.74338292608E+03  0.25500000920E-02 0.  1.
    10030    2    1    2    0    0  0.00000000000E+00  0.00000000000E+00 -0.38645201767E+02  0.14481206504E+04  0.14476049069E+04 0.  0.
        2    1    3    3  502    0 -0.12810378212E+03 -0.13959406431E+03 -0.71813637422E+03  0.74270918519E+03  0.25500000920E-02 0.  1.
       -2    1    3    3    0  502  0.12810378212E+03  0.13959406431E+03  0.67949117245E+03  0.70541146520E+03  0.25500000920E-02 0. -1.
</event>
<event>
 5   0  0.1526126E-03  0.1402401E+04  0.7818609E-02  0.8952082E-01
        2   -1    0    0  501    0  0.00000000000E+00  0.00000000000E+00  0.11768039324E+04  0.11768039324E+04  0.25500000920E-02 0. -1.
       -2   -1    0    0    0  501  0.00000000000E+00  0.00000000000E+00 -0.41781171928E+03  0.41781171929E+03  0.25500000920E-02 0.  1.
    10030    2    1    2    0    0  0.00000000000E+00  0.00000000000E+00  0.75899221307E+03  0.15946156517E+04  0.14024014750E+04 0.  0.
        2    1    3    3  502    0 -0.69088626293E+03 -0.11327137298E+03  0.33504529163E+03  0.77615048779E+03  0.25500000920E-02 0. -1.
       -2    1    3    3    0  502  0.69088626293E+03  0.11327137298E+03  0.42394692144E+03  0.81846516386E+03  0.25500000920E-02 0.  1.
</event>
<event>
 5   0  0.1500956E-03  0.1506780E+04  0.7818609E-02  0.8879957E-01
        2   -1    0    0  501    0  0.00000000000E+00  0.00000000000E+00  0.89673312194E+03  0.89673312195E+03  0.25500000920E-02 0.  1.
       -2   -1    0    0    0  501  0.00000000000E+00  0.00000000000E+00 -0.63296033656E+03  0.63296033656E+03  0.25500000920E-02 0. -1.
    10030    2    1    2    0    0  0.00000000000E+00  0.00000000000E+00  0.26377278538E+03  0.15296934585E+04  0.15067800087E+04 0.  0.
        4    1    3    3  502    0  0.62322135954E+03  0.33680544720E+03 -0.12843473599E+03  0.71995823946E+03  0.12699999809E+01 0.  1.
       -4    1    3    3    0  502 -0.62322135954E+03 -0.33680544720E+03  0.39220752138E+03  0.80973521905E+03  0.12699999809E+01 0. -1.
</event>
<event>
 5   0  0.1526126E-03  0.1505950E+04  0.7818609E-02  0.8880506E-01
        2   -1    0    0  501    0  0.00000000000E+00  0.00000000000E+00  0.15222203244E+04  0.15222203244E+04  0.25500000920E-02 0.  1.
       -2   -1    0    0    0  501  0.00000000000E+00  0.00000000000E+00 -0.37246324336E+03  0.37246324337E+03  0.25500000920E-02 0. -1.
    10030    2    1    2    0    0  0.00000000000E+00  0.00000000000E+00  0.11497570810E+04  0.18946835678E+04  0.15059496926E+04 0.  0.
        2    1    3    3  502    0  0.12260961930E+03  0.45808746381E+03 -0.16098769160E+03  0.50079365022E+03  0.25500000920E-02 0. -1.
       -2    1    3    3    0  502 -0.12260961930E+03 -0.45808746381E+03  0.13107447726E+04  0.13938899176E+04  0.25500000920E-02 0.  1.
</event>
<event>
 5   0  0.1526126E-03  0.1500396E+04  0.7818609E-02  0.8884189E-01
       -2   -1    0    0    0  501  0.00000000000E+00  0.00000000000E+00  0.51956947671E+03  0.51956947672E+03  0.25500000920E-02 0. -1.
        2   -1    0    0  501    0  0.00000000000E+00  0.00000000000E+00 -0.10831994794E+04  0.10831994794E+04  0.25500000920E-02 0.  1.
    10030    2    1    2    0    0  0.00000000000E+00  0.00000000000E+00 -0.56363000272E+03  0.16027689562E+04  0.15003964632E+04 0.  0.
        2    1    3    3  502    0  0.29531522797E+02 -0.10511789539E+03 -0.10746660788E+04  0.10801986223E+04  0.25500000920E-02 0.  1.
       -2    1    3    3    0  502 -0.29531522797E+02  0.10511789539E+03  0.51103607606E+03  0.52257033384E+03  0.25500000920E-02 0. -1.
</event>
<event>
 5   0  0.1552067E-03  0.1463815E+04  0.7818609E-02  0.8908879E-01
        2   -1    0    0  501    0  0.00000000000E+00  0.00000000000E+00  0.87015433851E+03  0.87015433851E+03  0.25500000920E-02 0. -1.
       -2   -1    0    0    0  501  0.00000000000E+00  0.00000000000E+00 -0.61562470248E+03  0.61562470249E+03  0.25500000920E-02 0.  1.
    10030    2    1    2    0    0  0.00000000000E+00  0.00000000000E+00  0.25452963603E+03  0.14857790410E+04  0.14638148869E+04 0.  0.
        3    1    3    3  502    0  0.24952255958E+03 -0.21071692226E+03  0.79209320325E+03  0.85678164190E+03  0.10100000352E+00 0. -1.
       -3    1    3    3    0  502 -0.24952255958E+03  0.21071692226E+03 -0.53756356722E+03  0.62899739910E+03  0.10100000352E+00 0.  1.
</event>
<event>
 5   0  0.8306301E-04  0.1498044E+04  0.7818609E-02  0.8885755E-01
       -1   -1    0    0    0  501  0.00000000000E+00  0.00000000000E+00  0.48825472105E+03  0.48825472108E+03  0.50400001928E-02 0.  1.
        1   -1    0    0  501    0  0.00000000000E+00  0.00000000000E+00 -0.11490599722E+04  0.11490599722E+04  0.50400001928E-02 0. -1.
    10030    2    1    2    0    0  0.00000000000E+00  0.00000000000E+00 -0.66080525114E+03  0.16373146933E+04  0.14980439997E+04 0.  0.
        4    1    3    3  502    0 -0.10662788775E+03 -0.14440538569E+03 -0.11252017631E+04  0.11394310170E+04  0.12699999809E+01 0. -1.
       -4    1    3    3    0  502  0.10662788775E+03  0.14440538569E+03  0.46439651199E+03  0.49788367628E+03  0.12699999809E+01 0.  1.
</event>
<event>
 5   0  0.7870317E-04  0.1512163E+04  0.7818609E-02  0.8876405E-01
        1   -1    0    0  501    0  0.00000000000E+00  0.00000000000E+00  0.12790916462E+04  0.12790916462E+04  0.50400001928E-02 0.  1.
       -1   -1    0    0    0  501  0.00000000000E+00  0.00000000000E+00 -0.44692587988E+03  0.44692587991E+03  0.50400001928E-02 0. -1.
    10030    2    1    2    0    0  0.00000000000E+00  0.00000000000E+00  0.83216576633E+03  0.17260175261E+04  0.15121629006E+04 0.  0.
        1    1    3    3  502    0 -0.23162457337E+03  0.30325207957E+03 -0.32895023487E+03  0.50380554165E+03  0.50400001928E-02 0. -1.
       -1    1    3    3    0  502  0.23162457337E+03 -0.30325207957E+03  0.11611160012E+04  0.12222119845E+04  0.50400001928E-02 0.  1.
</event>
<event>
 5   0  0.8365016E-04  0.1450127E+04  0.7818609E-02  0.8918313E-01
        1   -1    0    0  501    0  0.00000000000E+00  0.00000000000E+00  0.14491786755E+04  0.14491786755E+04  0.50400001928E-02 0.  1.
       -1   -1    0    0    0  501  0.00000000000E+00  0.00000000000E+00 -0.36276885666E+03  0.36276885670E+03  0.50400001928E-02 0. -1.
    10030    2    1    2    0    0  0.00000000000E+00  0.00000000000E+00  0.10864098188E+04  0.18119475322E+04  0.14501267410E+04 0.  0.
        3    1    3    3  502    0  0.39796223446E+03  0.30560572151E+03  0.11971989491E+04  0.12980963488E+04  0.10100000352E+00 0.  1.
       -3    1    3    3    0  502 -0.39796223446E+03 -0.30560572151E+03 -0.11078913021E+03  0.51385118337E+03  0.10100000352E+00 0. -1.
</event>
<event>
 5   0  0.8191876E-04  0.9270832E+03  0.7818609E-02  0.9392345E-01
        1   -1    0    0  501    0  0.00000000000E+00  0.00000000000E+00  0.15618518828E+04  0.15618518828E+04  0.50400001928E-02 0. -1.
       -1   -1    0    0    0  501  0.00000000000E+00  0.00000000000E+00 -0.13757438861E+03  0.13757438870E+03  0.50400001928E-02 0.  1.
    10030    2    1    2    0    0  0.00000000000E+00  0.00000000000E+00  0.14242774942E+04  0.16994262715E+04  0.92708320652E+03 0.  0.
        2    1    3    3  502    0 -0.20864080611E+03  0.37095400608E+03  0.10488137109E+04  0.11318781122E+04  0.25500000920E-02 0. -1.
       -2    1    3    3    0  502  0.20864080611E+03 -0.37095400608E+03  0.37546378325E+03  0.56754815931E+03  0.25500000920E-02 0.  1.
</event>
<event>
 5   0  0.8365016E-04  0.1504983E+04  0.7818609E-02  0.8881146E-01
       -1   -1    0    0    0  501  0.00000000000E+00  0.00000000000E+00  0.10774211819E+04  0.10774211819E+04  0.50400001928E-02 0. -1.
        1   -1    0    0  501    0  0.00000000000E+00  0.00000000000E+00 -0.52555456276E+03  0.52555456279E+03  0.50400001928E-02 0.  1.
    10030    2    1    2    0    0  0.00000000000E+00  0.00000000000E+00  0.55186661915E+03  0.16029757447E+04  0.15049832135E+04 0.  0.
        3    1    3    3  502    0 -0.19735461734E+03 -0.14657223680E+03 -0.48157879498E+03  0.54069437908E+03  0.10100000352E+00 0.  1.
       -3    1    3    3    0  502  0.19735461734E+03  0.14657223680E+03  0.10334454141E+04  0.10622813656E+04  0.10100000352E+00 0. -1.
</event>
<event>
 5   0  0.1500956E-03  0.1363726E+04  0.7818609E-02  0.8980502E-01
        2   -1    0    0  501    0  0.00000000000E+00  0.00000000000E+00  0.13535344743E+04  0.13535344743E+04  0.25500000920E-02 0. -1.
       -2   -1    0    0    0  501  0.00000000000E+00  0.00000000000E+00 -0.34349874093E+03  0.34349874094E+03  0.25500000920E-02 0.  1.
    10030    2    1    2    0    0  0.00000000000E+00  0.00000000000E+00  0.10100357334E+04  0.16970332152E+04  0.13637263475E+04 0.  0.
        4    1    3    3  502    0 -0.11165236756E+03 -0.58491567112E+03  0.91650810600E+02  0.60248989824E+03  0.12699999809E+01 0.  1.
       -4    1    3    3    0  502  0.11165236756E+03  0.58491567112E+03  0.91838492278E+03  0.10945433170E+04  0.12699999809E+01 0. -1.
</event>
<event>
 5   0  0.1500956E-03  0.1489416E+04  0.7818609E-02  0.8891522E-01
       -2   -1    0    0    0  501  0.00000000000E+00  0.00000000000E+00  0.28606433977E+03  0.28606433978E+03  0.25500000920E-02 0. -1.
        2   -1    0    0  501    0  0.00000000000E+00  0.00000000000E+00 -0.19386887584E+04  0.19386887584E+04  0.25500000920E-02 0.  1.
    10030    2    1    2    0    0  0.00000000000E+00  0.00000000000E+00 -0.16526244186E+04  0.22247530981E+04  0.14894156165E+04 0.  0.
        4    1    3    3  502    0 -0.63616821320E+03 -0.36430323111E+03 -0.63063484380E+03  0.96702055759E+03  0.12699999809E+01 0.  1.
       -4    1    3    3    0  502  0.63616821320E+03  0.36430323111E+03 -0.10219895748E+04  0.12577325406E+04  0.12699999809E+01 0. -1.
</event>
<event>
 5   0  0.1526126E-03  0.1453546E+04  0.7818609E-02  0.8915946E-01
        2   -1    0    0  501    0  0.00000000000E+00  0.00000000000E+00  0.36636254995E+03  0.36636254996E+03  0.25500000920E-02 0. -1.
       -2   -1    0    0    0  501  0.00000000000E+00  0.00000000000E+00 -0.14417377720E+04  0.14417377720E+04  0.25500000920E-02 0.  1.
    10030    2    1    2    0    0  0.00000000000E+00  0.00000000000E+00 -0.10753752221E+04  0.18081003220E+04  0.14535456326E+04 0.  0.
        2    1    3    3  502    0 -0.53084984558E+03  0.32544787945E+02 -0.11538231608E+04  0.12704993539E+04  0.25500000920E-02 0.  1.
       -2    1    3    3    0  502  0.53084984558E+03 -0.32544787945E+02  0.78447938774E+02  0.53760096807E+03  0.25500000920E-02 0. -1.
</event>
<event>
 5   0  0.5603875E-04  0.1510230E+04  0.7818609E-02  0.8877679E-01
       -3   -1    0    0    0  501  0.00000000000E+00  0.00000000000E+00  0.50184409600E+03  0.50184410616E+03  0.10100000352E+00 0.  1.
        3   -1    0    0  501    0  0.00000000000E+00  0.00000000000E+00 -0.11362063900E+04  0.11362063945E+04  0.10100000352E+00 0. -1.
    10030    2    1    2    0    0  0.00000000000E+00  0.00000000000E+00 -0.63436229405E+03  0.16380505007E+04  0.15102297583E+04 0.  0.
        4    1    3    3  502    0 -0.57446757439E+03 -0.27956789398E+03  0.11941125300E+03  0.64994758374E+03  0.12699999809E+01 0.  1.
       -4    1    3    3    0  502  0.57446757439E+03  0.27956789398E+03 -0.75377354705E+03  0.98810291696E+03  0.12699999809E+01 0. -1.
</event>
<event>
 5   0  0.8306301E-04  0.1754298E+04  0.7818609E-02  0.8730988E-01
       -1   -1    0    0    0  501  0.00000000000E+00  0.00000000000E+00  0.99248103440E+03  0.99248103442E+03  0.50400001928E-02 0.  1.
        1   -1    0    0  501    0  0.00000000000E+00  0.00000000000E+00 -0.77521896254E+03  0.77521896256E+03  0.50400001928E-02 0. -1.
    10030    2    1    2    0    0  0.00000000000E+00  0.00000000000E+00  0.21726207186E+03  0.17676999970E+04  0.17542977146E+04 0.  0.
        4    1    3    3  502    0 -0.44369316353E+03 -0.75274043517E+03  0.18607336636E+03  0.89336817532E+03  0.12699999809E+01 0.  1.
       -4    1    3    3    0  502  0.44369316353E+03  0.75274043517E+03  0.31188705504E+02  0.87433182165E+03  0.12699999809E+01 0. -1.
</event>
<event>
 5   0  0.8365016E-04  0.1501920E+04  0.7818609E-02  0.8883177E-01
       -1   -1    0    0    0  501  0.00000000000E+00  0.00000000000E+00  0.84985061901E+03  0.84985061903E+03  0.50400001928E-02 0.  1.
        1   -1    0    0  501    0  0.00000000000E+00  0.00000000000E+00 -0.66357643014E+03  0.66357643016E+03  0.50400001928E-02 0. -1.
    10030    2    1    2    0    0  0.00000000000E+00  0.00000000000E+00  0.18627418887E+03  0.15134270492E+04  0.15019198913E+04 0.  0.
        3    1    3    3  502    0  0.17731379393E+03  0.72316994217E+03  0.19148550451E+03  0.76881835008E+03  0.10100000352E+00 0.  1.
       -3    1    3    3    0  502 -0.17731379393E+03 -0.72316994217E+03 -0.52113156369E+01  0.74460869911E+03  0.10100000352E+00 0. -1.
</event>
<event>
 5   0  0.8306301E-04  0.1511079E+04  0.7818609E-02  0.8877119E-01
        1   -1    0    0  501    0  0.00000000000E+00  0.00000000000E+00  0.56156445713E+03  0.56156445715E+03  0.50400001928E-02 0. -1.
       -1   -1    0    0    0  501  0.00000000000E+00  0.00000000000E+00 -0.10165168276E+04  0.10165168276E+04  0.50400001928E-02 0.  1.
    10030    2    1    2    0    0  0.00000000000E+00  0.00000000000E+00 -0.45495237049E+03  0.15780812848E+04  0.15110787147E+04 0.  0.
        4    1    3    3  502    0 -0.13596780785E+03  0.11650840921E+03 -0.99403708886E+03  0.10100360395E+04  0.12699999809E+01 0.  1.
       -4    1    3    3    0  502  0.13596780785E+03 -0.11650840921E+03  0.53908471837E+03  0.56804524526E+03  0.12699999809E+01 0. -1.
</event>
<event>
 5   0  0.8306301E-04  0.1442679E+04  0.7818609E-02  0.8923492E-01
        1   -1    0    0  501    0  0.00000000000E+00  0.00000000000E+00  0.79131711014E+03  0.79131711015E+03  0.50400001928E-02 0.  1.
       -1   -1    0    0    0  501  0.00000000000E+00  0.00000000000E+00 -0.65755010570E+03  0.65755010572E+03  0.50400001928E-02 0. -1.
    10030    2    1    2    0    0  0.00000000000E+00  0.00000000000E+00  0.13376700444E+03  0.14488672159E+04  0.14426789656E+04 0.  0.
        4    1    3    3  502    0 -0.24186686921E+03  0.28162928784E+03 -0.55424688912E+03  0.66708759934E+03  0.12699999809E+01 0. -1.
       -4    1    3    3    0  502  0.24186686921E+03 -0.28162928784E+03  0.68801389356E+03  0.78177961653E+03  0.12699999809E+01 0.  1.
</event>
<event>
 5   0  0.1511546E-03  0.1453550E+04  0.7818609E-02  0.8915943E-01
       -2   -1    0    0    0  501  0.00000000000E+00  0.00000000000E+00  0.40346519014E+03  0.40346519015E+03  0.25500000920E-02 0.  1.
        2   -1    0    0  501    0  0.00000000000E+00  0.00000000000E+00 -0.13091627078E+04  0.13091627078E+04  0.25500000920E-02 0. -1.
    10030    2    1    2    0    0  0.00000000000E+00  0.00000000000E+00 -0.90569751767E+03  0.17126278980E+04  0.14535495600E+04 0.  0.
        1    1    3    3  502    0  0.87004776751E+02 -0.71306514369E+03 -0.32286898060E+03  0.78757609727E+03  0.50400001928E-02 0.  1.
       -1    1    3    3    0  502 -0.87004776751E+02  0.71306514369E+03 -0.58282853707E+03  0.92505180070E+03  0.50400001928E-02 0. -1.
</event>
<event>
 5   0  0.1526126E-03  0.1509964E+04  0.7818609E-02  0.8877854E-01
       -2   -1    0    0    0  501  0.00000000000E+00  0.00000000000E+00  0.46108534719E+03  0.46108534720E+03  0.25500000920E-02 0. -1.
        2   -1    0    0  501    0  0.00000000000E+00  0.00000000000E+00 -0.12362086027E+04  0.12362086027E+04  0.25500000920E-02 0.  1.
    10030    2    1    2    0    0  0.00000000000E+00  0.00000000000E+00 -0.77512325549E+03  0.16972939499E+04  0.15099638046E+04 0.  0.
        2    1    3    3  502    0 -0.43049706945E+03 -0.56604827764E+03 -0.10261829543E+03  0.71851854116E+03  0.25500000920E-02 0.  1.
       -2    1    3    3    0  502  0.43049706945E+03  0.56604827764E+03 -0.67250496006E+03  0.97877540873E+03  0.25500000920E-02 0. -1.
</event>
<event>
 5   0  0.1552067E-03  0.1508927E+04  0.7818609E-02  0.8878538E-01
        2   -1    0    0  501    0  0.00000000000E+00  0.00000000000E+00  0.10834871525E+04  0.10834871525E+04  0.25500000920E-02 0. -1.
       -2   -1    0    0    0  501  0.00000000000E+00  0.00000000000E+00 -0.52535458834E+03  0.52535458835E+03  0.25500000920E-02 0.  1.
    10030    2    1    2    0    0  0.00000000000E+00  0.00000000000E+00  0.55813256419E+03  0.16088417409E+04  0.15089267007E+04 0.  0.
        3    1    3    3  502    0  0.37322700947E+03  0.12079613781E+03 -0.40806406485E+03  0.56604452009E+03  0.10100000352E+00 0.  1.
       -3    1    3    3    0  502 -0.37322700947E+03 -0.12079613781E+03  0.96619662904E+03  0.10427972208E+04  0.10100000352E+00 0. -1.
</event>
<event>
 5   0  0.1484056E-03  0.1502509E+04  0.7818609E-02  0.8882786E-01
       -2   -1    0    0    0  501  0.00000000000E+00  0.00000000000E+00  0.19445710036E+03  0.19445710037E+03  0.25500000920E-02 0.  1.
        2   -1    0    0  501    0  0.00000000000E+00  0.00000000000E+00 -0.29023525651E+04  0.29023525651E+04  0.25500000920E-02 0. -1.
    10030    2    1    2    0    0  0.00000000000E+00  0.00000000000E+00 -0.27078954648E+04  0.30968096655E+04  0.15025086543E+04 0.  0.
        5    1    3    3  502    0  0.36245356492E+03  0.13786245880E+03 -0.26800848590E+04  0.27079984464E+04  0.46999998093E+01 0. -1.
       -5    1    3    3    0  502 -0.36245356492E+03 -0.13786245880E+03 -0.27810605710E+02  0.38881121904E+03  0.46999998093E+01 0.  1.
</event>
<event>
 5   0  0.8058234E-04  0.1479548E+04  0.7818609E-02  0.8898168E-01
       -1   -1    0    0    0  501  0.00000000000E+00  0.00000000000E+00  0.38405148939E+03  0.38405148943E+03  0.50400001928E-02 0. -1.
        1   -1    0    0  501    0  0.00000000000E+00  0.00000000000E+00 -0.14249796141E+04  0.14249796141E+04  0.50400001928E-02 0.  1.
    10030    2    1    2    0    0  0.00000000000E+00  0.00000000000E+00 -0.10409281247E+04  0.18090311035E+04  0.14795479623E+04 0.  0.
        5    1    3    3  502    0 -0.57375939065E+03  0.36698225192E+03 -0.16743070432E+03  0.70137788839E+03  0.46999998093E+01 0.  1.
       -5    1    3    3    0  502  0.57375939065E+03 -0.36698225192E+03 -0.87349742037E+03  0.11076532151E+04  0.46999998093E+01 0. -1.
</event>
<event>
 5   0  0.8191876E-04  0.1497107E+04  0.7818609E-02  0.8886379E-01
        1   -1    0    0  501    0  0.00000000000E+00  0.00000000000E+00  0.15912405875E+04  0.15912405875E+04  0.50400001928E-02 0.  1.
       -1   -1    0    0    0  501  0.00000000000E+00  0.00000000000E+00 -0.35213559419E+03  0.35213559423E+03  0.50400001928E-02 0. -1.
    10030    2    1    2    0    0  0.00000000000E+00  0.00000000000E+00  0.12391049933E+04  0.19433761817E+04  0.14971071435E+04 0.  0.
        2    1    3    3  502    0  0.72963637104E+03  0.12693380714E+03  0.76086543933E+03  0.10617898295E+04  0.25500000920E-02 0.  1.
       -2    1    3    3    0  502 -0.72963637104E+03 -0.12693380714E+03  0.47823955394E+03  0.88158635215E+03  0.25500000920E-02 0. -1.
</event>
<event>
 5   0  0.8058234E-04  0.1473598E+04  0.7818609E-02  0.8902202E-01
        1   -1    0    0  501    0  0.00000000000E+00  0.00000000000E+00  0.13851795996E+04  0.13851795996E+04  0.50400001928E-02 0. -1.
       -1   -1    0    0    0  501  0.00000000000E+00  0.00000000000E+00 -0.39191521829E+03  0.39191521832E+03  0.50400001928E-02 0.  1.
    10030    2    1    2    0    0  0.00000000000E+00  0.00000000000E+00  0.99326438129E+03  0.17770948179E+04  0.14735982698E+04 0.  0.
        5    1    3    3  502    0 -0.38660691029E+03 -0.11840101974E+03  0.12394141897E+04  0.13037075317E+04  0.46999998093E+01 0. -1.
       -5    1    3    3    0  502  0.38660691029E+03  0.11840101974E+03 -0.24614980842E+03  0.47338728621E+03  0.46999998093E+01 0.  1.
</event>
<event>
 5   0  0.1526126E-03  0.1477788E+04  0.7818609E-02  0.8899359E-01
        2   -1    0    0  501    0  0.00000000000E+00  0.00000000000E+00  0.14742329334E+04  0.14742329334E+04  0.25500000920E-02 0. -1.
       -2   -1    0    0    0  501  0.00000000000E+00  0.00000000000E+00 -0.37033798384E+03  0.37033798385E+03  0.25500000920E-02 0.  1.
    10030    2    1    2    0    0  0.00000000000E+00  0.00000000000E+00  0.11038949496E+04  0.18445709173E+04  0.14777881476E+04 0.  0.
        2    1    3    3  502    0 -0.23587856035E+03 -0.33547837079E+03 -0.21524206079E+03  0.46315610461E+03  0.25500000920E-02 0.  1.
       -2    1    3    3    0  502  0.23587856035E+03  0.33547837079E+03  0.13191370104E+04  0.13814148127E+04  0.25500000920E-02 0. -1.
</event>
<event>
 5   0  0.1511546E-03  0.1493089E+04  0.7818609E-02  0.8889061E-01
        2   -1    0    0  501    0  0.00000000000E+00  0.00000000000E+00  0.12724347632E+04  0.12724347632E+04  0.25500000920E-02 0. -1.
       -2   -1    0    0    0  501  0.00000000000E+00  0.00000000000E+00 -0.43800200224E+03  0.43800200224E+03  0.25500000920E-02 0.  1.
    10030    2    1    2    0    0  0.00000000000E+00  0.00000000000E+00  0.83443276092E+03  0.17104367654E+04  0.14930893798E+04 0.  0.
        1    1    3    3  502    0 -0.37689040595E+03  0.62164120886E+03  0.61177703004E+03  0.95013436164E+03  0.50400001928E-02 0.  1.
       -1    1    3    3    0  502  0.37689040595E+03 -0.62164120886E+03  0.22265573087E+03  0.76030240376E+03  0.50400001928E-02 0. -1.
</event>
<event>
 5   0  0.1511546E-03  0.1522408E+04  0.7818609E-02  0.8869687E-01
        2   -1    0    0  501    0  0.00000000000E+00  0.00000000000E+00  0.78207678862E+03  0.78207678863E+03  0.25500000920E-02 0.  1.
       -2   -1    0    0    0  501  0.00000000000E+00  0.00000000000E+00 -0.74088781549E+03  0.74088781549E+03  0.25500000920E-02 0. -1.
    10030    2    1    2    0    0  0.00000000000E+00  0.00000000000E+00  0.41188973133E+02  0.15229646041E+04  0.15224075190E+04 0.  0.
        1    1    3    3  502    0 -0.14378004023E+03  0.50601213827E+03  0.57098685356E+03  0.77636780653E+03  0.50400001928E-02 0.  1.
       -1    1    3    3    0  502  0.14378004023E+03 -0.50601213827E+03 -0.52979788043E+03  0.74659679759E+03  0.50400001928E-02 0. -1.
</event>
<event>
 5   0  0.1552067E-03  0.1269110E+04  0.7818609E-02  0.9054426E-01
       -2   -1    0    0    0  501  0.00000000000E+00  0.00000000000E+00  0.25435197057E+03  0.25435197058E+03  0.25500000920E-02 0.  1.
        2   -1    0    0  501    0  0.00000000000E+00  0.00000000000E+00 -0.15830831027E+04  0.15830831027E+04  0.25500000920E-02 0. -1.
    10030    2    1    2    0    0  0.00000000000E+00  0.00000000000E+00 -0.13287311321E+04  0.18374350733E+04  0.12691104078E+04 0.  0.
        3    1    3    3  502    0  0.63002309188E+02  0.14631144126E+03 -0.15536624523E+04  0.15618077202E+04  0.10100000352E+00 0. -1.
       -3    1    3    3    0  502 -0.63002309188E+02 -0.14631144126E+03  0.22493132017E+03  0.27562735314E+03  0.10100000352E+00 0.  1.
</event>
<event>
 5   0  0.8306301E-04  0.1482358E+04  0.7818609E-02  0.8896270E-01
       -1   -1    0    0    0  501  0.00000000000E+00  0.00000000000E+00  0.10347784762E+04  0.10347784762E+04  0.50400001928E-02 0. -1.
        1   -1    0    0  501    0  0.00000000000E+00  0.00000000000E+00 -0.53088281608E+03  0.53088281610E+03  0.50400001928E-02 0.  1.
    10030    2    1    2    0    0  0.00000000000E+00  0.00000000000E+00  0.50389566011E+03  0.15656612923E+04  0.14823577321E+04 0.  0.
        4    1    3    3  502    0  0.36406592644E+03 -0.28668569240E+03 -0.35901589647E+03  0.58619682005E+03  0.12699999809E+01 0.  1.
       -4    1    3    3    0  502 -0.36406592644E+03  0.28668569240E+03  0.86291155658E+03  0.97946447225E+03  0.12699999809E+01 0. -1.
</event>
<event>
 5   0  0.1552067E-03  0.1505387E+04  0.7818609E-02  0.8880878E-01
       -2   -1    0    0    0  501  0.00000000000E+00  0.00000000000E+00  0.42465107124E+03  0.42465107125E+03  0.25500000920E-02 0.  1.
        2   -1    0    0  501    0  0.00000000000E+00  0.00000000000E+00 -0.13341484891E+04  0.13341484891E+04  0.25500000920E-02 0. -1.
    10030    2    1    2    0    0  0.00000000000E+00  0.00000000000E+00 -0.90949741782E+03  0.17587995603E+04  0.15053871065E+04 0.  0.
        3    1    3    3  502    0  0.29439975124E+03  0.15191611263E+03  0.33489319111E+03  0.47106600223E+03  0.10100000352E+00 0.  1.
       -3    1    3    3    0  502 -0.29439975124E+03 -0.15191611263E+03 -0.12443906089E+04  0.12877335581E+04  0.10100000352E+00 0. -1.
</event>
<event>
 5   0  0.8191876E-04  0.1211400E+04  0.7818609E-02  0.9102936E-01
        1   -1    0    0  501    0  0.00000000000E+00  0.00000000000E+00  0.13589406585E+04  0.13589406585E+04  0.50400001928E-02 0. -1.
       -1   -1    0    0    0  501  0.00000000000E+00  0.00000000000E+00 -0.26996943490E+03  0.26996943494E+03  0.50400001928E-02 0.  1.
    10030    2    1    2    0    0  0.00000000000E+00  0.00000000000E+00  0.10889712236E+04  0.16289100935E+04  0.12113999202E+04 0.  0.
        2    1    3    3  502    0  0.36291402076E+03 -0.45393042400E+03  0.77391721677E+03  0.96783638841E+03  0.25500000920E-02 0.  1.
       -2    1    3    3    0  502 -0.36291402076E+03  0.45393042400E+03  0.31505400685E+03  0.66107370507E+03  0.25500000920E-02 0. -1.
</event>
<event>
 5   0  0.5603875E-04  0.1467881E+04  0.7818609E-02  0.8906097E-01
        4   -1    0    0  501    0  0.00000000000E+00  0.00000000000E+00  0.57674566298E+03  0.57674706125E+03  0.12699999809E+01 0. -1.
       -4   -1    0    0    0  501  0.00000000000E+00  0.00000000000E+00 -0.93397649362E+03  0.93397735708E+03  0.12699999809E+01 0.  1.
    10030    2    1    2    0    0  0.00000000000E+00  0.00000000000E+00 -0.35723083065E+03  0.15107244183E+04  0.14678809222E+04 0.  0.
        2    1    3    3  502    0  0.20245792826E+03  0.39996646340E+03 -0.77670184704E+03  0.89678768042E+03  0.25500000920E-02 0.  1.
       -2    1    3    3    0  502 -0.20245792826E+03 -0.39996646340E+03  0.41947101640E+03  0.61393673791E+03  0.25500000920E-02 0. -1.
</event>
<event>
 5   0  0.1552067E-03  0.1491712E+04  0.7818609E-02  0.8889983E-01
        2   -1    0    0  501    0  0.00000000000E+00  0.00000000000E+00  0.86334330698E+03  0.86334330698E+03  0.25500000920E-02 0. -1.
       -2   -1    0    0    0  501  0.00000000000E+00  0.00000000000E+00 -0.64435702325E+03  0.64435702325E+03  0.25500000920E-02 0.  1.
    10030    2    1    2    0    0  0.00000000000E+00  0.00000000000E+00  0.21898628373E+03  0.15077003302E+04  0.14917122019E+04 0.  0.
        3    1    3    3  502    0  0.64268893639E+03  0.26580579523E+03 -0.16283772757E+03  0.71429540490E+03  0.10100000352E+00 0.  1.
       -3    1    3    3    0  502 -0.64268893639E+03 -0.26580579523E+03  0.38182401130E+03  0.79340492534E+03  0.10100000352E+00 0. -1.
</event>
<event>
 5   0  0.8191876E-04  0.1541423E+04  0.7818609E-02  0.8857365E-01
       -1   -1    0    0    0  501  0.00000000000E+00  0.00000000000E+00  0.42468633988E+03  0.42468633991E+03  0.50400001928E-02 0. -1.
        1   -1    0    0  501    0  0.00000000000E+00  0.00000000000E+00 -0.13986695165E+04  0.13986695165E+04  0.50400001928E-02 0.  1.
    10030    2    1    2    0    0  0.00000000000E+00  0.00000000000E+00 -0.97398317660E+03  0.18233558564E+04  0.15414225089E+04 0.  0.
        2    1    3    3  502    0 -0.23290815791E+03 -0.73448606554E+03 -0.46720320946E+03  0.90110755708E+03  0.25500000920E-02 0. -1.
       -2    1    3    3    0  502  0.23290815791E+03  0.73448606554E+03 -0.50677996715E+03  0.92224829933E+03  0.25500000920E-02 0.  1.
</event>
<event>
 5   0  0.8191876E-04  0.1545497E+04  0.7818609E-02  0.8854749E-01
        1   -1    0    0  501    0  0.00000000000E+00  0.00000000000E+00  0.12445759572E+04  0.12445759572E+04  0.50400001928E-02 0.  1.
       -1   -1    0    0    0  501  0.00000000000E+00  0.00000000000E+00 -0.47979430939E+03  0.47979430942E+03  0.50400001928E-02 0. -1.
    10030    2    1    2    0    0  0.00000000000E+00  0.00000000000E+00  0.76478164782E+03  0.17243702666E+04  0.15454972817E+04 0.  0.
        2    1    3    3  502    0 -0.57116170061E+03 -0.54766127148E+02  0.95990301382E+03  0.11183196381E+04  0.25500000920E-02 0.  1.
       -2    1    3    3    0  502  0.57116170061E+03  0.54766127148E+02 -0.19512136600E+03  0.60605062858E+03  0.25500000920E-02 0. -1.
</event>
<event>
 5   0  0.8058234E-04  0.1494024E+04  0.7818609E-02  0.8888436E-01
       -1   -1    0    0    0  501  0.00000000000E+00  0.00000000000E+00  0.23617536319E+03  0.23617536325E+03  0.50400001928E-02 0.  1.
        1   -1    0    0  501    0  0.00000000000E+00  0.00000000000E+00 -0.23627664704E+04  0.23627664704E+04  0.50400001928E-02 0. -1.
    10030    2    1    2    0    0  0.00000000000E+00  0.00000000000E+00 -0.21265911072E+04  0.25989418336E+04  0.14940244032E+04 0.  0.
        5    1    3    3  502    0 -0.52641117773E+03 -0.31175219855E+02 -0.14293215899E+03  0.54638110733E+03  0.46999998093E+01 0.  1.
       -5    1    3    3    0  502  0.52641117773E+03  0.31175219855E+02 -0.19836589482E+04  0.20525607263E+04  0.46999998093E+01 0. -1.
</event>
<event>
 5   0  0.1526126E-03  0.1501420E+04  0.7818609E-02  0.8883509E-01
       -2   -1    0    0    0  501  0.00000000000E+00  0.00000000000E+00  0.59847968414E+03  0.59847968414E+03  0.25500000920E-02 0. -1.
        2   -1    0    0  501    0  0.00000000000E+00  0.00000000000E+00 -0.94166242529E+03  0.94166242529E+03  0.25500000920E-02 0.  1.
    10030    2    1    2    0    0  0.00000000000E+00  0.00000000000E+00 -0.34318274115E+03  0.15401421094E+04  0.15014204353E+04 0.  0.
        2    1    3    3  502    0  0.56920269564E+03 -0.26050107207E+03  0.25347863143E+03  0.67535467266E+03  0.25500000920E-02 0. -1.
       -2    1    3    3    0  502 -0.56920269564E+03  0.26050107207E+03 -0.59666137258E+03  0.86478743678E+03  0.25500000920E-02 0.  1.
</event>
<event>
 5   0  0.1526126E-03  0.1481242E+04  0.7818609E-02  0.8897023E-01
       -2   -1    0    0    0  501  0.00000000000E+00  0.00000000000E+00  0.58010637095E+03  0.58010637095E+03  0.25500000920E-02 0.  1.
        2   -1    0    0  501    0  0.00000000000E+00  0.00000000000E+00 -0.94555002738E+03  0.94555002738E+03  0.25500000920E-02 0. -1.
    10030    2    1    2    0    0  0.00000000000E+00  0.00000000000E+00 -0.36544365643E+03  0.15256563983E+04  0.14812421746E+04 0.  0.
        2    1    3    3  502    0 -0.41365237959E+03 -0.28828235317E+03 -0.74148681223E+03  0.89667034020E+03  0.25500000920E-02 0. -1.
       -2    1    3    3    0  502  0.41365237959E+03  0.28828235317E+03  0.37604315580E+03  0.62898605813E+03  0.25500000920E-02 0.  1.
</event>
<event>
 5   0  0.8365016E-04  0.1499406E+04  0.7818609E-02  0.8884848E-01
       -1   -1    0    0    0  501  0.00000000000E+00  0.00000000000E+00  0.62716545852E+03  0.62716545854E+03  0.50400001928E-02 0. -1.
        1   -1    0    0  501    0  0.00000000000E+00  0.00000000000E+00 -0.89618236422E+03  0.89618236423E+03  0.50400001928E-02 0.  1.
    10030    2    1    2    0    0  0.00000000000E+00  0.00000000000E+00 -0.26901690570E+03  0.15233478228E+04  0.14994060469E+04 0.  0.
        3    1    3    3  502    0 -0.56097300663E+03  0.41458780943E+03  0.14461620359E+03  0.71238165504E+03  0.10100000352E+00 0.  1.
       -3    1    3    3    0  502  0.56097300663E+03 -0.41458780943E+03 -0.41363310929E+03  0.81096616773E+03  0.10100000352E+00 0. -1.
</event>
<event>
 5   0  0.1500956E-03  0.1390365E+04  0.7818609E-02  0.8960823E-01
        2   -1    0    0  501    0  0.00000000000E+00  0.00000000000E+00  0.18946878627E+04  0.18946878627E+04  0.25500000920E-02 0. -1.
       -2   -1    0    0    0  501  0.00000000000E+00  0.00000000000E+00 -0.25507021362E+03  0.25507021363E+03  0.25500000920E-02 0.  1.
    10030    2    1    2    0    0  0.00000000000E+00  0.00000000000E+00  0.16396176491E+04  0.21497580763E+04  0.13903646110E+04 0.  0.
        4    1    3    3  502    0  0.40297003277E+03  0.52079524008E+02  0.16919707403E+04  0.17400757809E+04  0.12699999809E+01 0. -1.
       -4    1    3    3    0  502 -0.40297003277E+03 -0.52079524008E+02 -0.52353091274E+02  0.40968229545E+03  0.12699999809E+01 0.  1.
</event>
<event>
 5   0  0.7870317E-04  0.1507466E+04  0.7818609E-02  0.8879503E-01
       -1   -1    0    0    0  501  0.00000000000E+00  0.00000000000E+00  0.79823598065E+03  0.79823598067E+03  0.50400001928E-02 0. -1.
        1   -1    0    0  501    0  0.00000000000E+00  0.00000000000E+00 -0.71171082973E+03  0.71171082975E+03  0.50400001928E-02 0.  1.
    10030    2    1    2    0    0  0.00000000000E+00  0.00000000000E+00  0.86525150920E+02  0.15099468104E+04  0.15074656774E+04 0.  0.
        1    1    3    3  502    0 -0.73212673382E+02 -0.74158006518E+03 -0.70114287289E+02  0.74847652062E+03  0.50400001928E-02 0.  1.
       -1    1    3    3    0  502  0.73212673382E+02  0.74158006518E+03  0.15663943821E+03  0.76147028979E+03  0.50400001928E-02 0. -1.
</event>
<event>
 5   0  0.1526126E-03  0.1493581E+04  0.7818609E-02  0.8888733E-01
        2   -1    0    0  501    0  0.00000000000E+00  0.00000000000E+00  0.17373451244E+04  0.17373451244E+04  0.25500000920E-02 0.  1.
       -2   -1    0    0    0  501  0.00000000000E+00  0.00000000000E+00 -0.32100459207E+03  0.32100459208E+03  0.25500000920E-02 0. -1.
    10030    2    1    2    0    0  0.00000000000E+00  0.00000000000E+00  0.14163405323E+04  0.20583497164E+04  0.14935806144E+04 0.  0.
        2    1    3    3  502    0  0.60439338011E+03  0.37062094243E+03  0.10315014172E+04  0.12516574669E+04  0.25500000920E-02 0.  1.
       -2    1    3    3    0  502 -0.60439338011E+03 -0.37062094243E+03  0.38483911512E+03  0.80669224951E+03  0.25500000920E-02 0. -1.
</event>
<event>
 5   0  0.8058234E-04  0.1468015E+04  0.7818609E-02  0.8906006E-01
        1   -1    0    0  501    0  0.00000000000E+00  0.00000000000E+00  0.76326868449E+03  0.76326868451E+03  0.50400001928E-02 0. -1.
       -1   -1    0    0    0  501  0.00000000000E+00  0.00000000000E+00 -0.70586767524E+03  0.70586767526E+03  0.50400001928E-02 0.  1.
    10030    2    1    2    0    0  0.00000000000E+00  0.00000000000E+00  0.57401009252E+02  0.14691363598E+04  0.14680145666E+04 0.  0.
        5    1    3    3  502    0 -0.16595837982E+03 -0.36944182891E+03 -0.58390708115E+03  0.71063282938E+03  0.46999998093E+01 0.  1.
       -5    1    3    3    0  502  0.16595837982E+03  0.36944182891E+03  0.64130809040E+03  0.75850353038E+03  0.46999998093E+01 0. -1.
</event>
<event>
 5   0  0.1511546E-03  0.1443907E+04  0.7818609E-02  0.8922636E-01
        2   -1    0    0  501    0  0.00000000000E+00  0.00000000000E+00  0.33484625809E+03  0.33484625810E+03  0.25500000920E-02 0. -1.
       -2   -1    0    0    0  501  0.00000000000E+00  0.00000000000E+00 -0.15565845899E+04  0.15565845899E+04  0.25500000920E-02 0.  1.
    10030    2    1    2    0    0  0.00000000000E+00  0.00000000000E+00 -0.12217383318E+04  0.18914308480E+04  0.14439065418E+04 0.  0.
        1    1    3    3  502    0  0.50306153723E+03  0.49271147250E+03 -0.81956122251E+03  0.10805165907E+04  0.50400001928E-02 0.  1.
       -1    1    3    3    0  502 -0.50306153723E+03 -0.49271147250E+03 -0.40217710931E+03  0.81091425728E+03  0.50400001928E-02 0. -1.
</event>
<event>
 5   0  0.5603875E-04  0.1571415E+04  0.7818609E-02  0.8838304E-01
       -4   -1    0    0    0  501  0.00000000000E+00  0.00000000000E+00  0.56682026850E+03  0.56682169126E+03  0.12699999809E+01 0.  1.
        4   -1    0    0  501    0  0.00000000000E+00  0.00000000000E+00 -0.10891179579E+04  0.10891186984E+04  0.12699999809E+01 0. -1.
    10030    2    1    2    0    0  0.00000000000E+00  0.00000000000E+00 -0.52229768943E+03  0.16559403897E+04  0.15714145531E+04 0.  0.
        4    1    3    3  502    0 -0.57158263794E+03  0.16206562680E+03 -0.80296720219E+03  0.99886431515E+03  0.12699999809E+01 0. -1.
       -4    1    3    3    0  502  0.57158263794E+03 -0.16206562680E+03  0.28066951277E+03  0.65707607450E+03  0.12699999809E+01 0.  1.
</event>
<event>
 5   0  0.7870317E-04  0.1494830E+04  0.7818609E-02  0.8887898E-01
        1   -1    0    0  501    0  0.00000000000E+00  0.00000000000E+00  0.14241578889E+04  0.14241578890E+04  0.50400001928E-02 0.  1.
       -1   -1    0    0    0  501  0.00000000000E+00  0.00000000000E+00 -0.39225217748E+03  0.39225217751E+03  0.50400001928E-02 0. -1.
    10030    2    1    2    0    0  0.00000000000E+00  0.00000000000E+00  0.10319057115E+04  0.18164100665E+04  0.14948298004E+04 0.  0.
        1    1    3    3  502    0  0.52395543843E+03  0.42569049275E+03  0.12618760796E+03  0.68677871946E+03  0.50400001928E-02 0. -1.
       -1    1    3    3    0  502 -0.52395543843E+03 -0.42569049275E+03  0.90571810351E+03  0.11296313470E+04  0.50400001928E-02 0.  1.
</event>
<event>
 5   0  0.8306301E-04  0.1530968E+04  0.7818609E-02  0.8864116E-01
       -1   -1    0    0    0  501  0.00000000000E+00  0.00000000000E+00  0.73144019601E+03  0.73144019602E+03  0.50400001928E-02 0. -1.
        1   -1    0    0  501    0  0.00000000000E+00  0.00000000000E+00 -0.80111279673E+03  0.80111279675E+03  0.50400001928E-02 0.  1.
    10030    2    1    2    0    0  0.00000000000E+00  0.00000000000E+00 -0.69672600726E+02  0.15325529928E+04  0.15309684531E+04 0.  0.
        4    1    3    3  502    0 -0.23038165787E+03  0.46405127016E+03  0.52925841866E+03  0.74063174132E+03  0.12699999809E+01 0. -1.
       -4    1    3    3    0  502  0.23038165787E+03 -0.46405127016E+03 -0.59893101939E+03  0.79192125145E+03  0.12699999809E+01 0.  1.
</event>
<event>
 5   0  0.8306301E-04  0.1502125E+04  0.7818609E-02  0.8883041E-01
        1   -1    0    0  501    0  0.00000000000E+00  0.00000000000E+00  0.16015412217E+04  0.16015412218E+04  0.50400001928E-02 0.  1.
       -1   -1    0    0    0  501  0.00000000000E+00  0.00000000000E+00 -0.35221988160E+03  0.35221988163E+03  0.50400001928E-02 0. -1.
    10030    2    1    2    0    0  0.00000000000E+00  0.00000000000E+00  0.12493213402E+04  0.19537611034E+04  0.15021247079E+04 0.  0.
        4    1    3    3  502    0 -0.47461516429E+03  0.57736465435E+03  0.52834514227E+03  0.91529213945E+03  0.12699999809E+01 0.  1.
       -4    1    3    3    0  502  0.47461516429E+03 -0.57736465435E+03  0.72097619788E+03  0.10384689639E+04  0.12699999809E+01 0. -1.
</event>
<event>
 5   0  0.1526126E-03  0.1500433E+04  0.7818609E-02  0.8884165E-01
       -2   -1    0    0    0  501  0.00000000000E+00  0.00000000000E+00  0.55565162527E+03  0.55565162527E+03  0.25500000920E-02 0.  1.
        2   -1    0    0  501    0  0.00000000000E+00  0.00000000000E+00 -0.10129096506E+04  0.10129096506E+04  0.25500000920E-02 0. -1.
    10030    2    1    2    0    0  0.00000000000E+00  0.00000000000E+00 -0.45725802532E+03  0.15685612759E+04  0.15004331289E+04 0.  0.
        2    1    3    3  502    0  0.47724786000E+03 -0.39554204112E+03  0.21317810215E+03  0.65548755092E+03  0.25500000920E-02 0.  1.
       -2    1    3    3    0  502 -0.47724786000E+03  0.39554204112E+03 -0.67043612747E+03  0.91307372495E+03  0.25500000920E-02 0. -1.
</event>
<event>
 5   0  0.1526126E-03  0.1491056E+04  0.7818609E-02  0.8890423E-01
        2   -1    0    0  501    0  0.00000000000E+00  0.00000000000E+00  0.21693140446E+04  0.21693140446E+04  0.25500000920E-02 0. -1.
       -2   -1    0    0    0  501  0.00000000000E+00  0.00000000000E+00 -0.25621538393E+03  0.25621538394E+03  0.25500000920E-02 0.  1.
    10030    2    1    2    0    0  0.00000000000E+00  0.00000000000E+00  0.19130986607E+04  0.24255294285E+04  0.14910555064E+04 0.  0.
        2    1    3    3  502    0 -0.93958202681E+02 -0.13622218319E+03  0.21390604649E+04  0.21454520035E+04  0.25500000920E-02 0. -1.
       -2    1    3    3    0  502  0.93958202681E+02  0.13622218319E+03 -0.22596180419E+03  0.28007742502E+03  0.25500000920E-02 0.  1.
</event>
<event>
 5   0  0.1500956E-03  0.1381728E+04  0.7818609E-02  0.8967152E-01
        2   -1    0    0  501    0  0.00000000000E+00  0.00000000000E+00  0.24619520028E+04  0.24619520028E+04  0.25500000920E-02 0. -1.
       -2   -1    0    0    0  501  0.00000000000E+00  0.00000000000E+00 -0.19386784712E+03  0.19386784714E+03  0.25500000920E-02 0.  1.
    10030    2    1    2    0    0  0.00000000000E+00  0.00000000000E+00  0.22680841557E+04  0.26558198499E+04  0.13817283880E+04 0.  0.
        4    1    3    3  502    0  0.60479747305E+03 -0.62425122625E+02  0.17645811726E+04  0.18663936367E+04  0.12699999809E+01 0. -1.
       -4    1    3    3    0  502 -0.60479747305E+03  0.62425122625E+02  0.50350298306E+03  0.78942621327E+03  0.12699999809E+01 0.  1.
</event>
<event>
 5   0  0.1484056E-03  0.1494293E+04  0.7818609E-02  0.8888257E-01
        2   -1    0    0  501    0  0.00000000000E+00  0.00000000000E+00  0.13917426133E+04  0.13917426133E+04  0.25500000920E-02 0.  1.
       -2   -1    0    0    0  501  0.00000000000E+00  0.00000000000E+00 -0.40110010085E+03  0.40110010085E+03  0.25500000920E-02 0. -1.
    10030    2    1    2    0    0  0.00000000000E+00  0.00000000000E+00  0.99064251249E+03  0.17928427142E+04  0.14942932812E+04 0.  0.
        5    1    3    3  502    0  0.18262405826E+03 -0.67911429546E+03  0.79803605953E+03  0.10636876493E+04  0.46999998093E+01 0. -1.
       -5    1    3    3    0  502 -0.18262405826E+03  0.67911429546E+03  0.19260645296E+03  0.72915506490E+03  0.46999998093E+01 0.  1.
</event>
<event>
 5   0  0.1526126E-03  0.1659252E+04  0.7818609E-02  0.8784952E-01
       -2   -1    0    0    0  501  0.00000000000E+00  0.00000000000E+00  0.14830713419E+04  0.14830713419E+04  0.25500000920E-02 0.  1.
        2   -1    0    0  501    0  0.00000000000E+00  0.00000000000E+00 -0.46409034692E+03  0.46409034692E+03  0.25500000920E-02 0. -1.
    10030    2    1    2    0    0  0.00000000000E+00  0.00000000000E+00  0.10189809950E+04  0.19471616889E+04  0.16592517513E+04 0.  0.
        2    1    3    3  502    0 -0.63205371465E+03 -0.53679728338E+03  0.53908251377E+03  0.98906682197E+03  0.25500000920E-02 0. -1.
       -2    1    3    3    0  502  0.63205371465E+03  0.53679728338E+03  0.47989848124E+03  0.95809486689E+03  0.25500000920E-02 0.  1.
</event>
<event>
 5   0  0.1511546E-03  0.1439392E+04  0.7818609E-02  0.8925788E-01
        2   -1    0    0  501    0  0.00000000000E+00  0.00000000000E+00  0.23720046423E+04  0.23720046423E+04  0.25500000920E-02 0. -1.
       -2   -1    0    0    0  501  0.00000000000E+00  0.00000000000E+00 -0.21836490212E+03  0.21836490213E+03  0.25500000920E-02 0.  1.
    10030    2    1    2    0    0  0.00000000000E+00  0.00000000000E+00  0.21536397402E+04  0.25903695444E+04  0.14393923184E+04 0.  0.
        1    1    3    3  502    0 -0.49853136360E+03 -0.11958324451E+03  0.19858166889E+04  0.20509270086E+04  0.50400001928E-02 0. -1.
       -1    1    3    3    0  502  0.49853136360E+03  0.11958324451E+03  0.16782305131E+03  0.53944253580E+03  0.50400001928E-02 0.  1.
</event>
<event>
 5   0  0.1500956E-03  0.1512697E+04  0.7818609E-02  0.8876053E-01
        2   -1    0    0  501    0  0.00000000000E+00  0.00000000000E+00  0.19432419440E+04  0.19432419440E+04  0.25500000920E-02 0.  1.
       -2   -1    0    0    0  501  0.00000000000E+00  0.00000000000E+00 -0.29438605598E+03  0.29438605600E+03  0.25500000920E-02 0. -1.
    10030    2    1    2    0    0  0.00000000000E+00  0.00000000000E+00  0.16488558881E+04  0.22376280000E+04  0.15126973679E+04 0.  0.
        4    1    3    3  502    0 -0.31294019027E+03 -0.48594628306E+03  0.15460534507E+04  0.16505630064E+04  0.12699999809E+01 0.  1.
       -4    1    3    3    0  502  0.31294019027E+03  0.48594628306E+03  0.10280243731E+03  0.58706499361E+03  0.12699999809E+01 0. -1.
</event>
<event>
 5   0  0.1500956E-03  0.1445874E+04  0.7818609E-02  0.8921266E-01
       -2   -1    0    0    0  501  0.00000000000E+00  0.00000000000E+00  0.48887456461E+03  0.48887456461E+03  0.25500000920E-02 0.  1.
        2   -1    0    0  501    0  0.00000000000E+00  0.00000000000E+00 -0.10690634553E+04  0.10690634553E+04  0.25500000920E-02 0. -1.
    10030    2    1    2    0    0  0.00000000000E+00  0.00000000000E+00 -0.58018889070E+03  0.15579380199E+04  0.14458740350E+04 0.  0.
        4    1    3    3  502    0  0.51104109211E+03  0.49742003024E+03 -0.16239004819E+03  0.73141084553E+03  0.12699999809E+01 0.  1.
       -4    1    3    3    0  502 -0.51104109211E+03 -0.49742003024E+03 -0.41779884251E+03  0.82652717439E+03  0.12699999809E+01 0. -1.
</event>
<event>
 5   0  0.1484056E-03  0.1502479E+04  0.7818609E-02  0.8882806E-01
       -2   -1    0    0    0  501  0.00000000000E+00  0.00000000000E+00  0.29231086679E+03  0.29231086680E+03  0.25500000920E-02 0.  1.
        2   -1    0    0  501    0  0.00000000000E+00  0.00000000000E+00 -0.19306864479E+04  0.19306864479E+04  0.25500000920E-02 0. -1.
    10030    2    1    2    0    0  0.00000000000E+00  0.00000000000E+00 -0.16383755811E+04  0.22229973147E+04  0.15024787907E+04 0.  0.
        5    1    3    3  502    0  0.72615868773E+03  0.93438812010E+02 -0.10680928282E+04  0.12949446440E+04  0.46999998093E+01 0. -1.
       -5    1    3    3    0  502 -0.72615868773E+03 -0.93438812010E+02 -0.57028275295E+03  0.92805267073E+03  0.46999998093E+01 0.  1.
</event>
<event>
 5   0  0.8306301E-04  0.1009179E+04  0.7818609E-02  0.9298534E-01
        1   -1    0    0  501    0  0.00000000000E+00  0.00000000000E+00  0.60019360486E+03  0.60019360488E+03  0.50400001928E-02 0.  1.
       -1   -1    0    0    0  501  0.00000000000E+00  0.00000000000E+00 -0.42421431672E+03  0.42421431675E+03  0.50400001928E-02 0. -1.
    10030    2    1    2    0    0  0.00000000000E+00  0.00000000000E+00  0.17597928814E+03  0.10244079216E+04  0.10091793101E+04 0.  0.
        4    1    3    3  502    0  0.11363457892E+03 -0.49160089342E+03  0.82929324074E+02  0.51133466696E+03  0.12699999809E+01 0. -1.
       -4    1    3    3    0  502 -0.11363457892E+03  0.49160089342E+03  0.93049964067E+02  0.51307325467E+03  0.12699999809E+01 0.  1.
</event>
<event>
 5   0  0.1484056E-03  0.1538761E+04  0.7818609E-02  0.8859078E-01
        2   -1    0    0  501    0  0.00000000000E+00  0.00000000000E+00  0.15961331897E+04  0.15961331897E+04  0.25500000920E-02 0.  1.
       -2   -1    0    0    0  501  0.00000000000E+00  0.00000000000E+00 -0.37086298636E+03  0.37086298637E+03  0.25500000920E-02 0. -1.
    10030    2    1    2    0    0  0.00000000000E+00  0.00000000000E+00  0.12252702033E+04  0.19669961760E+04  0.15387614777E+04 0.  0.
        5    1    3    3  502    0  0.30350320599E+03 -0.41484930331E+03 -0.11913958509E+03  0.52766511278E+03  0.46999998093E+01 0. -1.
       -5    1    3    3    0  502 -0.30350320599E+03  0.41484930331E+03  0.13444097884E+04  0.14393310632E+04  0.46999998093E+01 0.  1.
</event>
<event>
 5   0  0.1552067E-03  0.1408321E+04  0.7818609E-02  0.8947818E-01
        2   -1    0    0  501    0  0.00000000000E+00  0.00000000000E+00  0.23679847707E+04  0.23679847707E+04  0.25500000920E-02 0. -1.
       -2   -1    0    0    0  501  0.00000000000E+00  0.00000000000E+00 -0.20939399733E+03  0.20939399734E+03  0.25500000920E-02 0.  1.
    10030    2    1    2    0    0  0.00000000000E+00  0.00000000000E+00  0.21585907734E+04  0.25773787680E+04  0.14083206975E+04 0.  0.
        3    1    3    3  502    0 -0.49737949722E+03  0.42818681893E+03  0.61230769282E+03  0.89758065768E+03  0.10100000352E+00 0. -1.
       -3    1    3    3    0  502  0.49737949722E+03 -0.42818681893E+03  0.15462830805E+04  0.16797981103E+04  0.10100000352E+00 0.  1.
</event>
<event>
 5   0  0.5603875E-04  0.1435360E+04  0.7818609E-02  0.8928613E-01
       -4   -1    0    0    0  501  0.00000000000E+00  0.00000000000E+00  0.61298539941E+03  0.61298671502E+03  0.12699999809E+01 0.  1.
        4   -1    0    0  501    0  0.00000000000E+00  0.00000000000E+00 -0.84025363133E+03  0.84025459109E+03  0.12699999809E+01 0. -1.
    10030    2    1    2    0    0  0.00000000000E+00  0.00000000000E+00 -0.22726823192E+03  0.14532413061E+04  0.14353603884E+04 0.  0.
        3    1    3    3  502    0  0.69139351298E+03 -0.75125191826E+02 -0.29303079456E+03  0.75467598412E+03  0.10100000352E+00 0.  1.
       -3    1    3    3    0  502 -0.69139351298E+03  0.75125191826E+02  0.65762562641E+02  0.69856532199E+03  0.10100000352E+00 0. -1.
</event>
<event>
 5   0  0.7870317E-04  0.1433612E+04  0.7818609E-02  0.8929841E-01
       -1   -1    0    0    0  501  0.00000000000E+00  0.00000000000E+00  0.24943777468E+03  0.24943777473E+03  0.50400001928E-02 0.  1.
        1   -1    0    0  501    0  0.00000000000E+00  0.00000000000E+00 -0.20598758211E+04  0.20598758211E+04  0.50400001928E-02 0. -1.
    10030    2    1    2    0    0  0.00000000000E+00  0.00000000000E+00 -0.18104380464E+04  0.23093135959E+04  0.14336119991E+04 0.  0.
        1    1    3    3  502    0  0.46871849215E+03 -0.53902987149E+03 -0.80909903333E+03  0.10793013819E+04  0.50400001928E-02 0.  1.
       -1    1    3    3    0  502 -0.46871849215E+03  0.53902987149E+03 -0.10013390131E+04  0.12300122139E+04  0.50400001928E-02 0. -1.
</event>
<event>
 5   0  0.8058234E-04  0.1467770E+04  0.7818609E-02  0.8906173E-01
        1   -1    0    0  501    0  0.00000000000E+00  0.00000000000E+00  0.56998319696E+03  0.56998319698E+03  0.50400001928E-02 0.  1.
       -1   -1    0    0    0  501  0.00000000000E+00  0.00000000000E+00 -0.94491817287E+03  0.94491817289E+03  0.50400001928E-02 0. -1.
    10030    2    1    2    0    0  0.00000000000E+00  0.00000000000E+00 -0.37493497591E+03  0.15149013699E+04  0.14677703922E+04 0.  0.
        5    1    3    3  502    0 -0.21408680333E+02 -0.15575566753E+03  0.55238177571E+03  0.57433951257E+03  0.46999998093E+01 0.  1.
       -5    1    3    3    0  502  0.21408680333E+02  0.15575566753E+03 -0.92731675162E+03  0.94056185730E+03  0.46999998093E+01 0. -1.
</event>
<event>
 5   0  0.8058234E-04  0.1370087E+04  0.7818609E-02  0.8975760E-01
       -1   -1    0    0    0  501  0.00000000000E+00  0.00000000000E+00  0.85970405919E+03  0.85970405921E+03  0.50400001928E-02 0. -1.
        1   -1    0    0  501    0  0.00000000000E+00  0.00000000000E+00 -0.54586786067E+03  0.54586786069E+03  0.50400001928E-02 0.  1.
    10030    2    1    2    0    0  0.00000000000E+00  0.00000000000E+00  0.31383619853E+03  0.14055719199E+04  0.13700873193E+04 0.  0.
        5    1    3    3  502    0  0.23045646313E+03  0.26383528823E+03 -0.44700785583E+03  0.56794132962E+03  0.46999998093E+01 0.  1.
       -5    1    3    3    0  502 -0.23045646313E+03 -0.26383528823E+03  0.76084405436E+03  0.83763059028E+03  0.46999998093E+01 0. -1.
</event>
<event>
 5   0  0.1511546E-03  0.1534765E+04  0.7818609E-02  0.8861658E-01
        2   -1    0    0  501    0  0.00000000000E+00  0.00000000000E+00  0.51185731285E+03  0.51185731286E+03  0.25500000920E-02 0.  1.
       -2   -1    0    0    0  501  0.00000000000E+00  0.00000000000E+00 -0.11504692188E+04  0.11504692188E+04  0.25500000920E-02 0. -1.
    10030    2    1    2    0    0  0.00000000000E+00  0.00000000000E+00 -0.63861190597E+03  0.16623265317E+04  0.15347652366E+04 0.  0.
        1    1    3    3  502    0 -0.63373494860E+03 -0.33016031504E+03 -0.16323631386E+02  0.71476729057E+03  0.50400001928E-02 0.  1.
       -1    1    3    3    0  502  0.63373494860E+03  0.33016031504E+03 -0.62228827459E+03  0.94755924111E+03  0.50400001928E-02 0. -1.
</event>
<event>
 5   0  0.1511546E-03  0.1497009E+04  0.7818609E-02  0.8886444E-01
        2   -1    0    0  501    0  0.00000000000E+00  0.00000000000E+00  0.10997275712E+04  0.10997275712E+04  0.25500000920E-02 0. -1.
       -2   -1    0    0    0  501  0.00000000000E+00  0.00000000000E+00 -0.50945238204E+03  0.50945238205E+03  0.25500000920E-02 0.  1.
    10030    2    1    2    0    0  0.00000000000E+00  0.00000000000E+00  0.59027518917E+03  0.16091799533E+04  0.14970087919E+04 0.  0.
        1    1    3    3  502    0  0.32975950441E+03 -0.19792498958E+03  0.98539278390E+03  0.10577875830E+04  0.50400001928E-02 0. -1.
       -1    1    3    3    0  502 -0.32975950441E+03  0.19792498958E+03 -0.39511759473E+03  0.55139237022E+03  0.50400001928E-02 0.  1.
</event>
<event>
 5   0  0.8306301E-04  0.1526084E+04  0.7818609E-02  0.8867290E-01
       -1   -1    0    0    0  501  0.00000000000E+00  0.00000000000E+00  0.68830276523E+03  0.68830276525E+03  0.50400001928E-02 0.  1.
        1   -1    0    0  501    0  0.00000000000E+00  0.00000000000E+00 -0.84589727968E+03  0.84589727969E+03  0.50400001928E-02 0. -1.
    10030    2    1    2    0    0  0.00000000000E+00  0.00000000000E+00 -0.15759451444E+03  0.15342000449E+04  0.15260844495E+04 0.  0.
        4    1    3    3  502    0  0.49169411430E+03 -0.58349690698E+03 -0.78510554947E+02  0.76707057214E+03  0.12699999809E+01 0. -1.
       -4    1    3    3    0  502 -0.49169411430E+03  0.58349690698E+03 -0.79083959497E+02  0.76712947281E+03  0.12699999809E+01 0.  1.
</event>
<event>
 5   0  0.1526126E-03  0.1557839E+04  0.7818609E-02  0.8846876E-01
        2   -1    0    0  501    0  0.00000000000E+00  0.00000000000E+00  0.13437194989E+04  0.13437194989E+04  0.25500000920E-02 0.  1.
       -2   -1    0    0    0  501  0.00000000000E+00  0.00000000000E+00 -0.45151959175E+03  0.45151959176E+03  0.25500000920E-02 0. -1.
    10030    2    1    2    0    0  0.00000000000E+00  0.00000000000E+00  0.89219990711E+03  0.17952390906E+04  0.15578391182E+04 0.  0.
        2    1    3    3  502    0 -0.37370881580E+03  0.66117765434E+03  0.24682796668E+03  0.79858513307E+03  0.25500000920E-02 0.  1.
       -2    1    3    3    0  502  0.37370881580E+03 -0.66117765434E+03  0.64537194043E+03  0.99665395755E+03  0.25500000920E-02 0. -1.
</event>
<event>
 5   0  0.5603875E-04  0.1503630E+04  0.7818609E-02  0.8882043E-01
        3   -1    0    0  501    0  0.00000000000E+00  0.00000000000E+00  0.10380485920E+04  0.10380485969E+04  0.10100000352E+00 0. -1.
       -3   -1    0    0    0  501  0.00000000000E+00  0.00000000000E+00 -0.54450799469E+03  0.54450800406E+03  0.10100000352E+00 0.  1.
    10030    2    1    2    0    0  0.00000000000E+00  0.00000000000E+00  0.49354059728E+03  0.15825566009E+04  0.15036299658E+04 0.  0.
        3    1    3    3  502    0 -0.16502297864E+03  0.38567390848E+03 -0.40987664467E+03  0.58649451933E+03  0.10100000352E+00 0.  1.
       -3    1    3    3    0  502  0.16502297864E+03 -0.38567390848E+03  0.90341724194E+03  0.99606208160E+03  0.10100000352E+00 0. -1.
</event>
<event>
 5   0  0.1484056E-03  0.1410377E+04  0.7818609E-02  0.8946341E-01
        2   -1    0    0  501    0  0.00000000000E+00  0.00000000000E+00  0.74871258935E+03  0.74871258936E+03  0.25500000920E-02 0. -1.
       -2   -1    0    0    0  501  0.00000000000E+00  0.00000000000E+00 -0.66419488814E+03  0.66419488814E+03  0.25500000920E-02 0.  1.
    10030    2    1    2    0    0  0.00000000000E+00  0.00000000000E+00  0.84517701213E+02  0.14129074775E+04  0.14103773602E+04 0.  0.
        5    1    3    3  502    0  0.14562272677E+02 -0.35040134640E+02  0.74767339126E+03  0.74865042631E+03  0.46999998093E+01 0. -1.
       -5    1    3    3    0  502 -0.14562272677E+02  0.35040134640E+02 -0.66315569004E+03  0.66425705119E+03  0.46999998093E+01 0.  1.
</event>
<event>
 5   0  0.1484056E-03  0.1485610E+04  0.7818609E-02  0.8894079E-01
        2   -1    0    0  501    0  0.00000000000E+00  0.00000000000E+00  0.19047946995E+04  0.19047946995E+04  0.25500000920E-02 0.  1.
       -2   -1    0    0    0  501  0.00000000000E+00  0.00000000000E+00 -0.28966846370E+03  0.28966846371E+03  0.25500000920E-02 0. -1.
    10030    2    1    2    0    0  0.00000000000E+00  0.00000000000E+00  0.16151262358E+04  0.21944631632E+04  0.14856095776E+04 0.  0.
        5    1    3    3  502    0  0.29747655723E+03  0.61927770081E+03  0.39044324654E+03  0.79023110012E+03  0.46999998093E+01 0. -1.
       -5    1    3    3    0  502 -0.29747655723E+03 -0.61927770081E+03  0.12246829892E+04  0.14042320631E+04  0.46999998093E+01 0.  1.
</event>
<event>
 5   0  0.7870317E-04  0.1500632E+04  0.7818609E-02  0.8884033E-01
        1   -1    0    0  501    0  0.00000000000E+00  0.00000000000E+00  0.23787704051E+04  0.23787704051E+04  0.50400001928E-02 0.  1.
       -1   -1    0    0    0  501  0.00000000000E+00  0.00000000000E+00 -0.23666597803E+03  0.23666597808E+03  0.50400001928E-02 0. -1.
    10030    2    1    2    0    0  0.00000000000E+00  0.00000000000E+00  0.21421044271E+04  0.26154363832E+04  0.15006318996E+04 0.  0.
        1    1    3    3  502    0 -0.47701101686E+02  0.74690201900E+03  0.97823610418E+03  0.12316995967E+04  0.50400001928E-02 0. -1.
       -1    1    3    3    0  502  0.47701101686E+02 -0.74690201900E+03  0.11638683229E+04  0.13837367865E+04  0.50400001928E-02 0.  1.
</event>
<event>
 5   0  0.8306301E-04  0.1460857E+04  0.7818609E-02  0.8910908E-01
        1   -1    0    0  501    0  0.00000000000E+00  0.00000000000E+00  0.10065835313E+04  0.10065835313E+04  0.50400001928E-02 0.  1.
       -1   -1    0    0    0  501  0.00000000000E+00  0.00000000000E+00 -0.53003596077E+03  0.53003596080E+03  0.50400001928E-02 0. -1.
    10030    2    1    2    0    0  0.00000000000E+00  0.00000000000E+00  0.47654757051E+03  0.15366194921E+04  0.14608565558E+04 0.  0.
        4    1    3    3  502    0  0.22485742885E+01  0.66773348867E+03 -0.73139170870E+02  0.67173210374E+03  0.12699999809E+01 0. -1.
       -4    1    3    3    0  502 -0.22485742885E+01 -0.66773348867E+03  0.54968674138E+03  0.86488738835E+03  0.12699999809E+01 0.  1.
</event>
<event>
 5   0  0.1552067E-03  0.1180581E+04  0.7818609E-02  0.9130026E-01
        2   -1    0    0  501    0  0.00000000000E+00  0.00000000000E+00  0.10407975824E+04  0.10407975824E+04  0.25500000920E-02 0.  1.
       -2   -1    0    0    0  501  0.00000000000E+00  0.00000000000E+00 -0.33478421127E+03  0.33478421128E+03  0.25500000920E-02 0. -1.
    10030    2    1    2    0    0  0.00000000000E+00  0.00000000000E+00  0.70601337117E+03  0.13755817937E+04  0.11805805313E+04 0.  0.
        3    1    3    3  502    0 -0.58856862679E+03  0.30927114858E+02  0.31483816162E+03  0.66820101249E+03  0.10100000352E+00 0. -1.
       -3    1    3    3    0  502  0.58856862679E+03 -0.30927114858E+02  0.39117520955E+03  0.70738078123E+03  0.10100000352E+00 0.  1.
</event>
<event>
 5   0  0.1511546E-03  0.1197747E+04  0.7818609E-02  0.9114830E-01
       -2   -1    0    0    0  501  0.00000000000E+00  0.00000000000E+00  0.29731444051E+03  0.29731444052E+03  0.25500000920E-02 0.  1.
        2   -1    0    0  501    0  0.00000000000E+00  0.00000000000E+00 -0.12062978185E+04  0.12062978185E+04  0.25500000920E-02 0. -1.
    10030    2    1    2    0    0  0.00000000000E+00  0.00000000000E+00 -0.90898337799E+03  0.15036122590E+04  0.11977474876E+04 0.  0.
        1    1    3    3  502    0  0.12183904399E+03 -0.58614166916E+03 -0.47405898623E+03  0.76363520834E+03  0.50400001928E-02 0.  1.
       -1    1    3    3    0  502 -0.12183904399E+03  0.58614166916E+03 -0.43492439175E+03  0.73997705068E+03  0.50400001928E-02 0. -1.
</event>
<event>
 5   0  0.1484056E-03  0.1684975E+04  0.7818609E-02  0.8769980E-01
        2   -1    0    0  501    0  0.00000000000E+00  0.00000000000E+00  0.15112910272E+04  0.15112910272E+04  0.25500000920E-02 0. -1.
       -2   -1    0    0    0  501  0.00000000000E+00  0.00000000000E+00 -0.46965502686E+03  0.46965502687E+03  0.25500000920E-02 0.  1.
    10030    2    1    2    0    0  0.00000000000E+00  0.00000000000E+00  0.10416360003E+04  0.19809460541E+04  0.16849752852E+04 0.  0.
        5    1    3    3  502    0 -0.68278137006E+03  0.33717960520E+03  0.94451464286E+03  0.12132643925E+04  0.46999998093E+01 0. -1.
       -5    1    3    3    0  502  0.68278137006E+03 -0.33717960520E+03  0.97121357472E+02  0.76768166159E+03  0.46999998093E+01 0.  1.
</event>
<event>
 5   0  0.5603875E-04  0.1484218E+04  0.7818609E-02  0.8895016E-01
       -4   -1    0    0    0  501  0.00000000000E+00  0.00000000000E+00  0.95516582377E+03  0.95516666808E+03  0.12699999809E+01 0.  1.
        4   -1    0    0  501    0  0.00000000000E+00  0.00000000000E+00 -0.57657463361E+03  0.57657603230E+03  0.12699999809E+01 0. -1.
    10030    2    1    2    0    0  0.00000000000E+00  0.00000000000E+00  0.37859119017E+03  0.15317427004E+04  0.14842184512E+04 0.  0.
        3    1    3    3  502    0 -0.50389550887E+03 -0.44500062670E+03 -0.13507700204E+03  0.68569821956E+03  0.10100000352E+00 0.  1.
       -3    1    3    3    0  502  0.50389550887E+03  0.44500062670E+03  0.51366819221E+03  0.84604448081E+03  0.10100000352E+00 0. -1.
</event>
<event>
 5   0  0.1552067E-03  0.1498622E+04  0.7818609E-02  0.8885370E-01
       -2   -1    0    0    0  501  0.00000000000E+00  0.00000000000E+00  0.39444177774E+03  0.39444177775E+03  0.25500000920E-02 0. -1.
        2   -1    0    0  501    0  0.00000000000E+00  0.00000000000E+00 -0.14234464124E+04  0.14234464124E+04  0.25500000920E-02 0.  1.
    10030    2    1    2    0    0  0.00000000000E+00  0.00000000000E+00 -0.10290046346E+04  0.18178881901E+04  0.14986216780E+04 0.  0.
        3    1    3    3  502    0 -0.94594467153E+02 -0.74317773025E+03 -0.49711427395E+03  0.89910169810E+03  0.10100000352E+00 0. -1.
       -3    1    3    3    0  502  0.94594467153E+02  0.74317773025E+03 -0.53189036069E+03  0.91878649204E+03  0.10100000352E+00 0.  1.
</event>
<event>
 5   0  0.1500956E-03  0.1467198E+04  0.7818609E-02  0.8906564E-01
       -2   -1    0    0    0  501  0.00000000000E+00  0.00000000000E+00  0.46653858292E+03  0.46653858293E+03  0.25500000920E-02 0.  1.
        2   -1    0    0  501    0  0.00000000000E+00  0.00000000000E+00 -0.11535324203E+04  0.11535324203E+04  0.25500000920E-02 0. -1.
    10030    2    1    2    0    0  0.00000000000E+00  0.00000000000E+00 -0.68699383737E+03  0.16200710032E+04  0.14671978472E+04 0.  0.
        4    1    3    3  502    0  0.70424498478E+03 -0.91921488299E+02 -0.54636595675E+03  0.89606245887E+03  0.12699999809E+01 0. -1.
       -4    1    3    3    0  502 -0.70424498478E+03  0.91921488299E+02 -0.14062788062E+03  0.72400854436E+03  0.12699999809E+01 0.  1.
</event>
<event>
 5   0  0.5603875E-04  0.1463294E+04  0.7818609E-02  0.8909236E-01
        3   -1    0    0  501    0  0.00000000000E+00  0.00000000000E+00  0.60387854334E+03  0.60387855179E+03  0.10100000352E+00 0. -1.
       -3   -1    0    0    0  501  0.00000000000E+00  0.00000000000E+00 -0.88644872011E+03  0.88644872586E+03  0.10100000352E+00 0.  1.
    10030    2    1    2    0    0  0.00000000000E+00  0.00000000000E+00 -0.28257017676E+03  0.14903272777E+04  0.14632940544E+04 0.  0.
        4    1    3    3  502    0 -0.45457935726E+03 -0.56946334170E+03 -0.73920351808E+02  0.73239109832E+03  0.12699999809E+01 0.  1.
       -4    1    3    3    0  502  0.45457935726E+03  0.56946334170E+03 -0.20864982496E+03  0.75793617933E+03  0.12699999809E+01 0. -1.
</event>
<event>
 5   0  0.1552067E-03  0.1496590E+04  0.7818609E-02  0.8886724E-01
       -2   -1    0    0    0  501  0.00000000000E+00  0.00000000000E+00  0.79743875130E+03  0.79743875130E+03  0.25500000920E-02 0. -1.
        2   -1    0    0  501    0  0.00000000000E+00  0.00000000000E+00 -0.70217955481E+03  0.70217955482E+03  0.25500000920E-02 0.  1.
    10030    2    1    2    0    0  0.00000000000E+00  0.00000000000E+00  0.95259196485E+02  0.14996183061E+04  0.14965897065E+04 0.  0.
        3    1    3    3  502    0  0.59002994606E+03  0.27268497991E+03 -0.32386686447E+03  0.72621084515E+03  0.10100000352E+00 0.  1.
       -3    1    3    3    0  502 -0.59002994606E+03 -0.27268497991E+03  0.41912606095E+03  0.77340746097E+03  0.10100000352E+00 0. -1.
</event>
<event>
 5   0  0.1500956E-03  0.1499565E+04  0.7818609E-02  0.8884742E-01
       -2   -1    0    0    0  501  0.00000000000E+00  0.00000000000E+00  0.10884195038E+04  0.10884195038E+04  0.25500000920E-02 0. -1.
        2   -1    0    0  501    0  0.00000000000E+00  0.00000000000E+00 -0.51650460728E+03  0.51650460729E+03  0.25500000920E-02 0.  1.
    10030    2    1    2    0    0  0.00000000000E+00  0.00000000000E+00  0.57191489647E+03  0.16049241110E+04  0.14995648547E+04 0.  0.
        4    1    3    3  502    0 -0.35719701532E+02  0.30827483330E+03  0.10164541630E+04  0.10627746461E+04  0.12699999809E+01 0. -1.
       -4    1    3    3    0  502  0.35719701532E+02 -0.30827483330E+03 -0.44453926657E+03  0.54214946495E+03  0.12699999809E+01 0.  1.
</event>
<event>
 5   0  0.1511546E-03  0.1492518E+04  0.7818609E-02  0.8889444E-01
       -2   -1    0    0    0  501  0.00000000000E+00  0.00000000000E+00  0.26383179504E+03  0.26383179505E+03  0.25500000920E-02 0.  1.
        2   -1    0    0  501    0  0.00000000000E+00  0.00000000000E+00 -0.21108226464E+04  0.21108226464E+04  0.25500000920E-02 0. -1.
    10030    2    1    2    0    0  0.00000000000E+00  0.00000000000E+00 -0.18469908513E+04  0.23746544414E+04  0.14925175079E+04 0.  0.
        1    1    3    3  502    0 -0.11148183711E+03 -0.37105082104E+03 -0.19382684278E+04  0.19766110923E+04  0.50400001928E-02 0. -1.
       -1    1    3    3    0  502  0.11148183711E+03  0.37105082104E+03  0.91277576492E+02  0.39804334914E+03  0.50400001928E-02 0.  1.
</event>
<event>
 5   0  0.8306301E-04  0.1514926E+04  0.7818609E-02  0.8874588E-01
       -1   -1    0    0    0  501  0.00000000000E+00  0.00000000000E+00  0.48023624448E+03  0.48023624450E+03  0.50400001928E-02 0.  1.
        1   -1    0    0  501    0  0.00000000000E+00  0.00000000000E+00 -0.11947249110E+04  0.11947249110E+04  0.50400001928E-02 0. -1.
    10030    2    1    2    0    0  0.00000000000E+00  0.00000000000E+00 -0.71448866654E+03  0.16749611555E+04  0.15149260107E+04 0.  0.
        4    1    3    3  502    0 -0.54496158669E+03 -0.12839883527E+03  0.20682572681E+03  0.59686504843E+03  0.12699999809E+01 0.  1.
       -4    1    3    3    0  502  0.54496158669E+03  0.12839883527E+03 -0.92131439335E+03  0.10780961071E+04  0.12699999809E+01 0. -1.
</event>
<event>
 5   0  0.1552067E-03  0.1502778E+04  0.7818609E-02  0.8882608E-01
       -2   -1    0    0    0  501  0.00000000000E+00  0.00000000000E+00  0.39786855051E+03  0.39786855051E+03  0.25500000920E-02 0. -1.
        2   -1    0    0  501    0  0.00000000000E+00  0.00000000000E+00 -0.14190241269E+04  0.14190241269E+04  0.25500000920E-02 0.  1.
    10030    2    1    2    0    0  0.00000000000E+00  0.00000000000E+00 -0.10211555764E+04  0.18168926774E+04  0.15027775251E+04 0.  0.
        3    1    3    3  502    0  0.70586404941E+02  0.31114503925E+03  0.31190575450E+03  0.44618257015E+03  0.10100000352E+00 0. -1.
       -3    1    3    3    0  502 -0.70586404941E+02 -0.31114503925E+03 -0.13330613309E+04  0.13707101072E+04  0.10100000352E+00 0.  1.
</event>
<event>
 5   0  0.1484056E-03  0.1509384E+04  0.7818609E-02  0.8878236E-01
        2   -1    0    0  501    0  0.00000000000E+00  0.00000000000E+00  0.13177080740E+04  0.13177080740E+04  0.25500000920E-02 0. -1.
       -2   -1    0    0    0  501  0.00000000000E+00  0.00000000000E+00 -0.43223543504E+03  0.43223543505E+03  0.25500000920E-02 0.  1.
    10030    2    1    2    0    0  0.00000000000E+00  0.00000000000E+00  0.88547263892E+03  0.17499435090E+04  0.15093841428E+04 0.  0.
        5    1    3    3  502    0 -0.23759744084E+03 -0.69827987473E+02  0.12692416390E+04  0.12931840240E+04  0.46999998093E+01 0. -1.
       -5    1    3    3    0  502  0.23759744084E+03  0.69827987473E+02 -0.38376900009E+03  0.45675948502E+03  0.46999998093E+01 0.  1.
</event>
<event>
 5   0  0.8365016E-04  0.1595645E+04  0.7818609E-02  0.8823228E-01
        1   -1    0    0  501    0  0.00000000000E+00  0.00000000000E+00  0.84716486905E+03  0.84716486907E+03  0.50400001928E-02 0.  1.
       -1   -1    0    0    0  501  0.00000000000E+00  0.00000000000E+00 -0.75135421287E+03  0.75135421289E+03  0.50400001928E-02 0. -1.
    10030    2    1    2    0    0  0.00000000000E+00  0.00000000000E+00  0.95810656184E+02  0.15985190820E+04  0.15956451904E+04 0.  0.
        3    1    3    3  502    0  0.46466238994E+03  0.64821728874E+03  0.27274715670E+02  0.79802300115E+03  0.10100000352E+00 0.  1.
       -3    1    3    3    0  502 -0.46466238994E+03 -0.64821728874E+03  0.68535940514E+02  0.80049608081E+03  0.10100000352E+00 0. -1.
</event>
<event>
 5   0  0.8306301E-04  0.1467799E+04  0.7818609E-02  0.8906153E-01
       -1   -1    0    0    0  501  0.00000000000E+00  0.00000000000E+00  0.58009436785E+03  0.58009436787E+03  0.50400001928E-02 0. -1.
        1   -1    0    0  501    0  0.00000000000E+00  0.00000000000E+00 -0.92848455811E+03  0.92848455812E+03  0.50400001928E-02 0.  1.
    10030    2    1    2    0    0  0.00000000000E+00  0.00000000000E+00 -0.34839019026E+03  0.15085789260E+04  0.14677992544E+04 0.  0.
        4    1    3    3  502    0 -0.45345197011E+03  0.35411875205E+03  0.29408185245E+03  0.64614590348E+03  0.12699999809E+01 0. -1.
       -4    1    3    3    0  502  0.45345197011E+03 -0.35411875205E+03 -0.64247204271E+03  0.86243302251E+03  0.12699999809E+01 0.  1.
</event>
<event>
 5   0  0.1500956E-03  0.1513005E+04  0.7818609E-02  0.8875851E-01
       -2   -1    0    0    0  501  0.00000000000E+00  0.00000000000E+00  0.18883230406E+04  0.18883230406E+04  0.25500000920E-02 0. -1.
        2   -1    0    0  501    0  0.00000000000E+00  0.00000000000E+00 -0.30307087789E+03  0.30307087790E+03  0.25500000920E-02 0.  1.
    10030    2    1    2    0    0  0.00000000000E+00  0.00000000000E+00  0.15852521627E+04  0.21913939185E+04  0.15130045891E+04 0.  0.
        4    1    3    3  502    0 -0.10608204764E+02  0.31036794277E+03 -0.20649185664E+03  0.37293604501E+03  0.12699999809E+01 0.  1.
       -4    1    3    3    0  502  0.10608204764E+02 -0.31036794277E+03  0.17917440193E+04  0.18184578735E+04  0.12699999809E+01 0. -1.
</event>
<event>
 5   0  0.8365016E-04  0.1489336E+04  0.7818609E-02  0.8891576E-01
        1   -1    0    0  501    0  0.00000000000E+00  0.00000000000E+00  0.43424554584E+03  0.43424554587E+03  0.50400001928E-02 0.  1.
       -1   -1    0    0    0  501  0.00000000000E+00  0.00000000000E+00 -0.12769971805E+04  0.12769971805E+04  0.50400001928E-02 0. -1.
    10030    2    1    2    0    0  0.00000000000E+00  0.00000000000E+00 -0.84275163464E+03  0.17112427264E+04  0.14893358758E+04 0.  0.
        3    1    3    3  502    0 -0.60980658551E+03  0.42616451150E+03 -0.45860873224E+03  0.87395780337E+03  0.10100000352E+00 0.  1.
       -3    1    3    3    0  502  0.60980658551E+03 -0.42616451150E+03 -0.38414290240E+03  0.83728492299E+03  0.10100000352E+00 0. -1.
</event>
<event>
 5   0  0.1484056E-03  0.1475351E+04  0.7818609E-02  0.8901012E-01
        2   -1    0    0  501    0  0.00000000000E+00  0.00000000000E+00  0.16114620057E+04  0.16114620057E+04  0.25500000920E-02 0. -1.
       -2   -1    0    0    0  501  0.00000000000E+00  0.00000000000E+00 -0.33768408367E+03  0.33768408368E+03  0.25500000920E-02 0.  1.
    10030    2    1    2    0    0  0.00000000000E+00  0.00000000000E+00  0.12737779220E+04  0.19491460894E+04  0.14753509017E+04 0.  0.
        5    1    3    3  502    0 -0.46891268928E+03  0.34510138659E+03  0.12353072158E+04  0.13656427368E+04  0.46999998093E+01 0. -1.
       -5    1    3    3    0  502  0.46891268928E+03 -0.34510138659E+03  0.38470706216E+02  0.58350335255E+03  0.46999998093E+01 0.  1.
</event>
<event>
 5   0  0.1526126E-03  0.1126064E+04  0.7818609E-02  0.9180154E-01
       -2   -1    0    0    0  501  0.00000000000E+00  0.00000000000E+00  0.57377344483E+03  0.57377344483E+03  0.25500000920E-02 0. -1.
        2   -1    0    0  501    0  0.00000000000E+00  0.00000000000E+00 -0.55249118237E+03  0.55249118238E+03  0.25500000920E-02 0.  1.
    10030    2    1    2    0    0  0.00000000000E+00  0.00000000000E+00  0.21282262454E+02  0.11262646272E+04  0.11260635310E+04 0.  0.
        2    1    3    3  502    0  0.74299392537E+02 -0.35218212364E+02  0.56773615498E+03  0.57365936224E+03  0.25500000920E-02 0. -1.
       -2    1    3    3    0  502 -0.74299392537E+02  0.35218212364E+02 -0.54645389252E+03  0.55260526497E+03  0.25500000920E-02 0.  1.
</event>
<event>
 5   0  0.1484056E-03  0.1506270E+04  0.7818609E-02  0.8880294E-01
        2   -1    0    0  501    0  0.00000000000E+00  0.00000000000E+00  0.13876665422E+04  0.13876665422E+04  0.25500000920E-02 0. -1.
       -2   -1    0    0    0  501  0.00000000000E+00  0.00000000000E+00 -0.40875238625E+03  0.40875238626E+03  0.25500000920E-02 0.  1.
    10030    2    1    2    0    0  0.00000000000E+00  0.00000000000E+00  0.97891415594E+03  0.17964189284E+04  0.15062695781E+04 0.  0.
        5    1    3    3  502    0  0.18186431461E+03  0.60271659796E+03 -0.35008547627E+01  0.62958420594E+03  0.46999998093E+01 0. -1.
       -5    1    3    3    0  502 -0.18186431461E+03 -0.60271659796E+03  0.98241501070E+03  0.11668347225E+04  0.46999998093E+01 0.  1.
</event>
<event>
 5   0  0.8058234E-04  0.1450463E+04  0.7818609E-02  0.8918079E-01
       -1   -1    0    0    0  501  0.00000000000E+00  0.00000000000E+00  0.92257365705E+03  0.92257365707E+03  0.50400001928E-02 0. -1.
        1   -1    0    0  501    0  0.00000000000E+00  0.00000000000E+00 -0.57010193266E+03  0.57010193268E+03  0.50400001928E-02 0.  1.
    10030    2    1    2    0    0  0.00000000000E+00  0.00000000000E+00  0.35247172440E+03  0.14926755897E+04  0.14504634086E+04 0.  0.
        5    1    3    3  502    0 -0.33685466704E+03  0.69368405357E+02 -0.48082487362E+03  0.59118329769E+03  0.46999998093E+01 0.  1.
       -5    1    3    3    0  502  0.33685466704E+03 -0.69368405357E+02  0.83329659802E+03  0.90149229206E+03  0.46999998093E+01 0. -1.
</event>
<event>
 5   0  0.8306301E-04  0.1387120E+04  0.7818609E-02  0.8963195E-01
       -1   -1    0    0    0  501  0.00000000000E+00  0.00000000000E+00  0.73451397167E+03  0.73451397169E+03  0.50400001928E-02 0.  1.
        1   -1    0    0  501    0  0.00000000000E+00  0.00000000000E+00 -0.65488983677E+03  0.65488983679E+03  0.50400001928E-02 0. -1.
    10030    2    1    2    0    0  0.00000000000E+00  0.00000000000E+00  0.79624134901E+02  0.13894038085E+04  0.13871203769E+04 0.  0.
        4    1    3    3  502    0 -0.52036030420E+03 -0.29922441549E+02 -0.41849323879E+03  0.66843728390E+03  0.12699999809E+01 0. -1.
       -4    1    3    3    0  502  0.52036030420E+03  0.29922441549E+02  0.49811737369E+03  0.72096652458E+03  0.12699999809E+01 0.  1.
</event>
<event>
 5   0  0.1552067E-03  0.1507192E+04  0.7818609E-02  0.8879684E-01
        2   -1    0    0  501    0  0.00000000000E+00  0.00000000000E+00  0.61692564665E+03  0.61692564665E+03  0.25500000920E-02 0.  1.
       -2   -1    0    0    0  501  0.00000000000E+00  0.00000000000E+00 -0.92054363710E+03  0.92054363710E+03  0.25500000920E-02 0. -1.
    10030    2    1    2    0    0  0.00000000000E+00  0.00000000000E+00 -0.30361799045E+03  0.15374692838E+04  0.15071920629E+04 0.  0.
        3    1    3    3  502    0 -0.68227511634E+01 -0.72874540531E+03 -0.34747077774E+03  0.80737374696E+03  0.10100000352E+00 0. -1.
       -3    1    3    3    0  502  0.68227511634E+01  0.72874540531E+03  0.43852787293E+02  0.73009553679E+03  0.10100000352E+00 0.  1.
</event>
<event>
 5   0  0.8191876E-04  0.1501052E+04  0.7818609E-02  0.8883754E-01
        1   -1    0    0  501    0  0.00000000000E+00  0.00000000000E+00  0.66480647179E+03  0.66480647181E+03  0.50400001928E-02 0.  1.
       -1   -1    0    0    0  501  0.00000000000E+00  0.00000000000E+00 -0.84729778679E+03  0.84729778680E+03  0.50400001928E-02 0. -1.
    10030    2    1    2    0    0  0.00000000000E+00  0.00000000000E+00 -0.18249131500E+03  0.15121042586E+04  0.15010517009E+04 0.  0.
        2    1    3    3  502    0  0.42815095759E+03 -0.20137421813E+03 -0.67813673750E+03  0.82688224855E+03  0.25500000920E-02 0. -1.
       -2    1    3    3    0  502 -0.42815095759E+03  0.20137421813E+03  0.49564542250E+03  0.68522201006E+03  0.25500000920E-02 0.  1.
</event>
<event>
 5   0  0.1500956E-03  0.1528154E+04  0.7818609E-02  0.8865944E-01
       -2   -1    0    0    0  501  0.00000000000E+00  0.00000000000E+00  0.60001997117E+03  0.60001997118E+03  0.25500000920E-02 0. -1.
        2   -1    0    0  501    0  0.00000000000E+00  0.00000000000E+00 -0.97299075578E+03  0.97299075578E+03  0.25500000920E-02 0.  1.
    10030    2    1    2    0    0  0.00000000000E+00  0.00000000000E+00 -0.37297078460E+03  0.15730107270E+04  0.15281542923E+04 0.  0.
        4    1    3    3  502    0  0.21732011140E+02  0.86999109467E+02  0.59458365475E+03  0.60130895616E+03  0.12699999809E+01 0. -1.
       -4    1    3    3    0  502 -0.21732011140E+02 -0.86999109467E+02 -0.96755443936E+03  0.97170177080E+03  0.12699999809E+01 0.  1.
</event>
<event>
 5   0  0.8306301E-04  0.1105584E+04  0.7818609E-02  0.9199767E-01
        1   -1    0    0  501    0  0.00000000000E+00  0.00000000000E+00  0.53060101205E+03  0.53060101207E+03  0.50400001928E-02 0. -1.
       -1   -1    0    0    0  501  0.00000000000E+00  0.00000000000E+00 -0.57591061527E+03  0.57591061529E+03  0.50400001928E-02 0.  1.
    10030    2    1    2    0    0  0.00000000000E+00  0.00000000000E+00 -0.45309603220E+02  0.11065116274E+04  0.11055835660E+04 0.  0.
        4    1    3    3  502    0 -0.22202295293E+03 -0.21213222823E+03  0.43738620995E+03  0.53441798570E+03  0.12699999809E+01 0. -1.
       -4    1    3    3    0  502  0.22202295293E+03  0.21213222823E+03 -0.48269581317E+03  0.57209364167E+03  0.12699999809E+01 0.  1.
</event>
<event>
 5   0  0.7870317E-04  0.1487059E+04  0.7818609E-02  0.8893105E-01
       -1   -1    0    0    0  501  0.00000000000E+00  0.00000000000E+00  0.25813199944E+03  0.25813199949E+03  0.50400001928E-02 0.  1.
        1   -1    0    0  501    0  0.00000000000E+00  0.00000000000E+00 -0.21416792887E+04  0.21416792887E+04  0.50400001928E-02 0. -1.
    10030    2    1    2    0    0  0.00000000000E+00  0.00000000000E+00 -0.18835472892E+04  0.23998112881E+04  0.14870587843E+04 0.  0.
        1    1    3    3  502    0  0.31682448072E+03  0.24612143936E+03 -0.19520189900E+04  0.19928200249E+04  0.50400001928E-02 0.  1.
       -1    1    3    3    0  502 -0.31682448072E+03 -0.24612143936E+03  0.68471700769E+02  0.40699126321E+03  0.50400001928E-02 0. -1.
</event>
<event>
 5   0  0.8058234E-04  0.1490503E+04  0.7818609E-02  0.8890793E-01
        1   -1    0    0  501    0  0.00000000000E+00  0.00000000000E+00  0.11325589677E+04  0.11325589677E+04  0.50400001928E-02 0. -1.
       -1   -1    0    0    0  501  0.00000000000E+00  0.00000000000E+00 -0.49039383574E+03  0.49039383577E+03  0.50400001928E-02 0.  1.
    10030    2    1    2    0    0  0.00000000000E+00  0.00000000000E+00  0.64216513192E+03  0.16229528034E+04  0.14905031853E+04 0.  0.
        5    1    3    3  502    0 -0.35238110945E+03  0.36598250759E+03  0.91474945694E+03  0.10463767491E+04  0.46999998093E+01 0. -1.
       -5    1    3    3    0  502  0.35238110945E+03 -0.36598250759E+03 -0.27258432502E+03  0.57657605431E+03  0.46999998093E+01 0.  1.
</event>
<event>
 5   0  0.8365016E-04  0.1462662E+04  0.7818609E-02  0.8909669E-01
       -1   -1    0    0    0  501  0.00000000000E+00  0.00000000000E+00  0.37256029202E+03  0.37256029206E+03  0.50400001928E-02 0. -1.
        1   -1    0    0  501    0  0.00000000000E+00  0.00000000000E+00 -0.14355930836E+04  0.14355930836E+04  0.50400001928E-02 0.  1.
    10030    2    1    2    0    0  0.00000000000E+00  0.00000000000E+00 -0.10630327916E+04  0.18081533757E+04  0.14626619274E+04 0.  0.
        3    1    3    3  502    0  0.10619477970E+03 -0.12370089389E+03 -0.14128426787E+04  0.14222178762E+04  0.10100000352E+00 0.  1.
       -3    1    3    3    0  502 -0.10619477970E+03  0.12370089389E+03  0.34980988715E+03  0.38593549945E+03  0.10100000352E+00 0. -1.
</event>
<event>
 5   0  0.1526126E-03  0.1540403E+04  0.7818609E-02  0.8858021E-01
       -2   -1    0    0    0  501  0.00000000000E+00  0.00000000000E+00  0.27802789625E+03  0.27802789626E+03  0.25500000920E-02 0. -1.
        2   -1    0    0  501    0  0.00000000000E+00  0.00000000000E+00 -0.21336355915E+04  0.21336355915E+04  0.25500000920E-02 0.  1.
    10030    2    1    2    0    0  0.00000000000E+00  0.00000000000E+00 -0.18556076953E+04  0.24116634878E+04  0.15404028238E+04 0.  0.
        2    1    3    3  502    0 -0.26080252474E+03  0.47876796209E+03 -0.76060375620E+02  0.55047424933E+03  0.25500000920E-02 0. -1.
       -2    1    3    3    0  502  0.26080252474E+03 -0.47876796209E+03 -0.17795473196E+04  0.18611892384E+04  0.25500000920E-02 0.  1.
</event>
<event>
 5   0  0.8306301E-04  0.1530193E+04  0.7818609E-02  0.8864619E-01
       -1   -1    0    0    0  501  0.00000000000E+00  0.00000000000E+00  0.52742528835E+03  0.52742528838E+03  0.50400001928E-02 0. -1.
        1   -1    0    0  501    0  0.00000000000E+00  0.00000000000E+00 -0.11098688348E+04  0.11098688348E+04  0.50400001928E-02 0.  1.
    10030    2    1    2    0    0  0.00000000000E+00  0.00000000000E+00 -0.58244354643E+03  0.16372941232E+04  0.15301933084E+04 0.  0.
        4    1    3    3  502    0  0.52899982655E+02 -0.10473679998E+03 -0.11001829536E+04  0.11064232236E+04  0.12699999809E+01 0.  1.
       -4    1    3    3    0  502 -0.52899982655E+02  0.10473679998E+03  0.51773940714E+03  0.53087089960E+03  0.12699999809E+01 0. -1.
</event>
<event>
 5   0  0.1484056E-03  0.1429713E+04  0.7818609E-02  0.8932587E-01
       -2   -1    0    0    0  501  0.00000000000E+00  0.00000000000E+00  0.36743319269E+03  0.36743319270E+03  0.25500000920E-02 0.  1.
        2   -1    0    0  501    0  0.00000000000E+00  0.00000000000E+00 -0.13907832425E+04  0.13907832425E+04  0.25500000920E-02 0. -1.
    10030    2    1    2    0    0  0.00000000000E+00  0.00000000000E+00 -0.10233500498E+04  0.17582164352E+04  0.14297131560E+04 0.  0.
        5    1    3    3  502    0 -0.59510116566E+03 -0.39497677596E+03 -0.47591039615E+03  0.85829181872E+03  0.46999998093E+01 0.  1.
       -5    1    3    3    0  502  0.59510116566E+03  0.39497677596E+03 -0.54743965361E+03  0.89992461643E+03  0.46999998093E+01 0. -1.
</event>
<event>
 5   0  0.1500956E-03  0.1563078E+04  0.7818609E-02  0.8843558E-01
        2   -1    0    0  501    0  0.00000000000E+00  0.00000000000E+00  0.12781711939E+04  0.12781711939E+04  0.25500000920E-02 0.  1.
       -2   -1    0    0    0  501  0.00000000000E+00  0.00000000000E+00 -0.47787249021E+03  0.47787249022E+03  0.25500000920E-02 0. -1.
    10030    2    1    2    0    0  0.00000000000E+00  0.00000000000E+00  0.80029870364E+03  0.17560436841E+04  0.15630775430E+04 0.  0.
        4    1    3    3  502    0 -0.17222599276E+02  0.49335946833E+03  0.10808365902E+04  0.11882379941E+04  0.12699999809E+01 0.  1.
       -4    1    3    3    0  502  0.17222599276E+02 -0.49335946833E+03 -0.28053788656E+03  0.56780569001E+03  0.12699999809E+01 0. -1.
</event>
<event>
 5   0  0.7870317E-04  0.1376670E+04  0.7818609E-02  0.8970881E-01
        1   -1    0    0  501    0  0.00000000000E+00  0.00000000000E+00  0.97346540768E+03  0.97346540769E+03  0.50400001928E-02 0.  1.
       -1   -1    0    0    0  501  0.00000000000E+00  0.00000000000E+00 -0.48672017537E+03  0.48672017539E+03  0.50400001928E-02 0. -1.
    10030    2    1    2    0    0  0.00000000000E+00  0.00000000000E+00  0.48674523231E+03  0.14601855831E+04  0.13766702640E+04 0.  0.
        1    1    3    3  502    0  0.67935373868E+03 -0.59515367189E+02  0.34254149349E+03  0.76315021849E+03  0.50400001928E-02 0.  1.
       -1    1    3    3    0  502 -0.67935373868E+03  0.59515367189E+02  0.14420373883E+03  0.69703536460E+03  0.50400001928E-02 0. -1.
</event>
<event>
 5   0  0.1484056E-03  0.1496487E+04  0.7818609E-02  0.8886793E-01
       -2   -1    0    0    0  501  0.00000000000E+00  0.00000000000E+00  0.63488750933E+03  0.63488750933E+03  0.25500000920E-02 0. -1.
        2   -1    0    0  501    0  0.00000000000E+00  0.00000000000E+00 -0.88183830030E+03  0.88183830031E+03  0.25500000920E-02 0.  1.
    10030    2    1    2    0    0  0.00000000000E+00  0.00000000000E+00 -0.24695079098E+03  0.15167258096E+04  0.14964867151E+04 0.  0.
        5    1    3    3  502    0 -0.19547756478E+03 -0.14652932323E+03  0.59331190251E+03  0.64165678096E+03  0.46999998093E+01 0. -1.
       -5    1    3    3    0  502  0.19547756478E+03  0.14652932323E+03 -0.84026269349E+03  0.87506902868E+03  0.46999998093E+01 0.  1.
</event>
<event>
 5   0  0.1511546E-03  0.1482427E+04  0.7818609E-02  0.8896224E-01
       -2   -1    0    0    0  501  0.00000000000E+00  0.00000000000E+00  0.13115437832E+04  0.13115437832E+04  0.25500000920E-02 0.  1.
        2   -1    0    0  501    0  0.00000000000E+00  0.00000000000E+00 -0.41889370897E+03  0.41889370898E+03  0.25500000920E-02 0. -1.
    10030    2    1    2    0    0  0.00000000000E+00  0.00000000000E+00  0.89265007420E+03  0.17304374922E+04  0.14824269828E+04 0.  0.
        1    1    3    3  502    0 -0.30014938029E+02 -0.72755343768E+03  0.60791304473E+03  0.94857428342E+03  0.50400001928E-02 0.  1.
       -1    1    3    3    0  502  0.30014938029E+02  0.72755343768E+03  0.28473702947E+03  0.78186320873E+03  0.50400001928E-02 0. -1.
</event>
<event>
 5   0  0.1552067E-03  0.1501548E+04  0.7818609E-02  0.8883424E-01
        2   -1    0    0  501    0  0.00000000000E+00  0.00000000000E+00  0.10554887917E+04  0.10554887917E+04  0.25500000920E-02 0.  1.
       -2   -1    0    0    0  501  0.00000000000E+00  0.00000000000E+00 -0.53402868326E+03  0.53402868326E+03  0.25500000920E-02 0. -1.
    10030    2    1    2    0    0  0.00000000000E+00  0.00000000000E+00  0.52146010842E+03  0.15895174749E+04  0.15015475878E+04 0.  0.
        3    1    3    3  502    0 -0.61915932340E+03 -0.27611592439E+03 -0.80757117601E+02  0.68272981017E+03  0.10100000352E+00 0. -1.
       -3    1    3    3    0  502  0.61915932340E+03  0.27611592439E+03  0.60221722602E+03  0.90678766477E+03  0.10100000352E+00 0.  1.
</event>
<event>
 5   0  0.7870317E-04  0.1497271E+04  0.7818609E-02  0.8886269E-01
        1   -1    0    0  501    0  0.00000000000E+00  0.00000000000E+00  0.10532743452E+04  0.10532743452E+04  0.50400001928E-02 0.  1.
       -1   -1    0    0    0  501  0.00000000000E+00  0.00000000000E+00 -0.53210776779E+03  0.53210776781E+03  0.50400001928E-02 0. -1.
    10030    2    1    2    0    0  0.00000000000E+00  0.00000000000E+00  0.52116657745E+03  0.15853821131E+04  0.14972714660E+04 0.  0.
        1    1    3    3  502    0 -0.53232657128E+03 -0.25042402239E+03 -0.22966617011E+03  0.63153014116E+03  0.50400001928E-02 0. -1.
       -1    1    3    3    0  502  0.53232657128E+03  0.25042402239E+03  0.75083274755E+03  0.95385197190E+03  0.50400001928E-02 0.  1.
</event>
<event>
 5   0  0.8191876E-04  0.1510427E+04  0.7818609E-02  0.8877549E-01
        1   -1    0    0  501    0  0.00000000000E+00  0.00000000000E+00  0.12128546721E+04  0.12128546721E+04  0.50400001928E-02 0. -1.
       -1   -1    0    0    0  501  0.00000000000E+00  0.00000000000E+00 -0.47025179208E+03  0.47025179210E+03  0.50400001928E-02 0.  1.
    10030    2    1    2    0    0  0.00000000000E+00  0.00000000000E+00  0.74260288001E+03  0.16831064642E+04  0.15104265399E+04 0.  0.
        2    1    3    3  502    0  0.15690354932E+03  0.36404419955E+03  0.10875969535E+04  0.11575897530E+04  0.25500000920E-02 0. -1.
       -2    1    3    3    0  502 -0.15690354932E+03 -0.36404419955E+03 -0.34499407347E+03  0.52551671120E+03  0.25500000920E-02 0.  1.
</event>
<event>
 5   0  0.1511546E-03  0.1491916E+04  0.7818609E-02  0.8889846E-01
        2   -1    0    0  501    0  0.00000000000E+00  0.00000000000E+00  0.15167772344E+04  0.15167772344E+04  0.25500000920E-02 0.  1.
       -2   -1    0    0    0  501  0.00000000000E+00  0.00000000000E+00 -0.36686574495E+03  0.36686574495E+03  0.25500000920E-02 0. -1.
    10030    2    1    2    0    0  0.00000000000E+00  0.00000000000E+00  0.11499114894E+04  0.18836429793E+04  0.14919163650E+04 0.  0.
        1    1    3    3  502    0 -0.19568507553E+03 -0.51598833030E+03 -0.58743011838E+02  0.55496607758E+03  0.50400001928E-02 0. -1.
       -1    1    3    3    0  502  0.19568507553E+03  0.51598833030E+03  0.12086545013E+04  0.13286769018E+04  0.50400001928E-02 0.  1.
</event>
<event>
 5   0  0.1552067E-03  0.1493526E+04  0.7818609E-02  0.8888770E-01
        2   -1    0    0  501    0  0.00000000000E+00  0.00000000000E+00  0.17571498158E+04  0.17571498158E+04  0.25500000920E-02 0.  1.
       -2   -1    0    0    0  501  0.00000000000E+00  0.00000000000E+00 -0.31736321272E+03  0.31736321273E+03  0.25500000920E-02 0. -1.
    10030    2    1    2    0    0  0.00000000000E+00  0.00000000000E+00  0.14397866031E+04  0.20745130286E+04  0.14935256420E+04 0.  0.
        3    1    3    3  502    0 -0.71142581700E+03 -0.14708937591E+03  0.96004530953E+03  0.12039306393E+04  0.10100000352E+00 0.  1.
       -3    1    3    3    0  502  0.71142581700E+03  0.14708937591E+03  0.47974129358E+03  0.87058238931E+03  0.10100000352E+00 0. -1.
</event>
<event>
 5   0  0.8058234E-04  0.1483500E+04  0.7818609E-02  0.8895500E-01
       -1   -1    0    0    0  501  0.00000000000E+00  0.00000000000E+00  0.81321234237E+03  0.81321234239E+03  0.50400001928E-02 0.  1.
        1   -1    0    0  501    0  0.00000000000E+00  0.00000000000E+00 -0.67656792439E+03  0.67656792441E+03  0.50400001928E-02 0. -1.
    10030    2    1    2    0    0  0.00000000000E+00  0.00000000000E+00  0.13664441798E+03  0.14897802668E+04  0.14835004369E+04 0.  0.
        5    1    3    3  502    0  0.28234346506E+02 -0.47759204746E+03  0.63753723198E+03  0.79709921232E+03  0.46999998093E+01 0.  1.
       -5    1    3    3    0  502 -0.28234346506E+02  0.47759204746E+03 -0.50089281400E+03  0.69268105448E+03  0.46999998093E+01 0. -1.
</event>
<event>
 5   0  0.1552067E-03  0.1584487E+04  0.7818609E-02  0.8830135E-01
       -2   -1    0    0    0  501  0.00000000000E+00  0.00000000000E+00  0.49044731951E+03  0.49044731952E+03  0.25500000920E-02 0.  1.
        2   -1    0    0  501    0  0.00000000000E+00  0.00000000000E+00 -0.12797493458E+04  0.12797493458E+04  0.25500000920E-02 0. -1.
    10030    2    1    2    0    0  0.00000000000E+00  0.00000000000E+00 -0.78930202629E+03  0.17701966653E+04  0.15844868397E+04 0.  0.
        3    1    3    3  502    0  0.66577837326E+01 -0.79162301922E+03 -0.36042922568E+03  0.86983939182E+03  0.10100000352E+00 0.  1.
       -3    1    3    3    0  502 -0.66577837326E+01  0.79162301922E+03 -0.42887280061E+03  0.90035727350E+03  0.10100000352E+00 0. -1.
</event>
<event>
 5   0  0.8306301E-04  0.1495959E+04  0.7818609E-02  0.8887144E-01
       -1   -1    0    0    0  501  0.00000000000E+00  0.00000000000E+00  0.33509826370E+03  0.33509826374E+03  0.50400001928E-02 0.  1.
        1   -1    0    0  501    0  0.00000000000E+00  0.00000000000E+00 -0.16695809183E+04  0.16695809183E+04  0.50400001928E-02 0. -1.
    10030    2    1    2    0    0  0.00000000000E+00  0.00000000000E+00 -0.13344826546E+04  0.20046791820E+04  0.14959594471E+04 0.  0.
        4    1    3    3  502    0 -0.51508707586E+03 -0.53076410110E+03 -0.81674587054E+03  0.11018623583E+04  0.12699999809E+01 0.  1.
       -4    1    3    3    0  502  0.51508707586E+03  0.53076410110E+03 -0.51773678403E+03  0.90281682371E+03  0.12699999809E+01 0. -1.
</event>
<event>
 5   0  0.8306301E-04  0.1431122E+04  0.7818609E-02  0.8931594E-01
        1   -1    0    0  501    0  0.00000000000E+00  0.00000000000E+00  0.10492731485E+04  0.10492731485E+04  0.50400001928E-02 0. -1.
       -1   -1    0    0    0  501  0.00000000000E+00  0.00000000000E+00 -0.48798315310E+03  0.48798315313E+03  0.50400001928E-02 0.  1.
    10030    2    1    2    0    0  0.00000000000E+00  0.00000000000E+00  0.56128999541E+03  0.15372563016E+04  0.14311221045E+04 0.  0.
        4    1    3    3  502    0  0.50798678439E+03  0.13023798320E+03  0.80359014252E+03  0.95956825471E+03  0.12699999809E+01 0.  1.
       -4    1    3    3    0  502 -0.50798678439E+03 -0.13023798320E+03 -0.24230014712E+03  0.57768804694E+03  0.12699999809E+01 0. -1.
</event>
<event>
 5   0  0.1552067E-03  0.1494124E+04  0.7818609E-02  0.8888369E-01
       -2   -1    0    0    0  501  0.00000000000E+00  0.00000000000E+00  0.77883005121E+03  0.77883005122E+03  0.25500000920E-02 0. -1.
        2   -1    0    0  501    0  0.00000000000E+00  0.00000000000E+00 -0.71659020061E+03  0.71659020061E+03  0.25500000920E-02 0.  1.
    10030    2    1    2    0    0  0.00000000000E+00  0.00000000000E+00  0.62239850603E+02  0.14954202518E+04  0.14941244696E+04 0.  0.
        3    1    3    3  502    0 -0.57643063266E+03  0.63148599881E+02  0.50252941297E+03  0.76733033371E+03  0.10100000352E+00 0. -1.
       -3    1    3    3    0  502  0.57643063266E+03 -0.63148599881E+02 -0.44028956236E+03  0.72808991812E+03  0.10100000352E+00 0.  1.
</event>
<event>
 5   0  0.8365016E-04  0.1499989E+04  0.7818609E-02  0.8884460E-01
       -1   -1    0    0    0  501  0.00000000000E+00  0.00000000000E+00  0.73009169264E+03  0.73009169266E+03  0.50400001928E-02 0.  1.
        1   -1    0    0  501    0  0.00000000000E+00  0.00000000000E+00 -0.77044020670E+03  0.77044020672E+03  0.50400001928E-02 0. -1.
    10030    2    1    2    0    0  0.00000000000E+00  0.00000000000E+00 -0.40348514063E+02  0.15005318994E+04  0.14999893261E+04 0.  0.
        3    1    3    3  502    0 -0.89862514007E+02 -0.37164114596E+03  0.62527193922E+03  0.73291024073E+03  0.10100000352E+00 0.  1.
       -3    1    3    3    0  502  0.89862514007E+02  0.37164114596E+03 -0.66562045328E+03  0.76762165865E+03  0.10100000352E+00 0. -1.
</event>
<event>
 5   0  0.7870317E-04  0.1425644E+04  0.7818609E-02  0.8935463E-01
        1   -1    0    0  501    0  0.00000000000E+00  0.00000000000E+00  0.41063688168E+03  0.41063688171E+03  0.50400001928E-02 0.  1.
       -1   -1    0    0    0  501  0.00000000000E+00  0.00000000000E+00 -0.12373830161E+04  0.12373830161E+04  0.50400001928E-02 0. -1.
    10030    2    1    2    0    0  0.00000000000E+00  0.00000000000E+00 -0.82674613443E+03  0.16480198978E+04  0.14256438590E+04 0.  0.
        1    1    3    3  502    0 -0.54537119688E+03 -0.43848748848E+03 -0.57023821186E+03  0.90270296235E+03  0.50400001928E-02 0.  1.
       -1    1    3    3    0  502  0.54537119688E+03  0.43848748848E+03 -0.25650792257E+03  0.74531693547E+03  0.50400001928E-02 0. -1.
</event>
<event>
 5   0  0.8306301E-04  0.1481541E+04  0.7818609E-02  0.8896821E-01
        1   -1    0    0  501    0  0.00000000000E+00  0.00000000000E+00  0.95431804016E+03  0.95431804018E+03  0.50400001928E-02 0. -1.
       -1   -1    0    0    0  501  0.00000000000E+00  0.00000000000E+00 -0.57500878210E+03  0.57500878212E+03  0.50400001928E-02 0.  1.
    10030    2    1    2    0    0  0.00000000000E+00  0.00000000000E+00  0.37930925807E+03  0.15293268223E+04  0.14815414325E+04 0.  0.
        4    1    3    3  502    0  0.51086689483E+03 -0.22135552268E+03 -0.31473251143E+03  0.63956345917E+03  0.12699999809E+01 0.  1.
       -4    1    3    3    0  502 -0.51086689483E+03  0.22135552268E+03  0.69404176949E+03  0.88976336313E+03  0.12699999809E+01 0. -1.
</event>
<event>
 5   0  0.1526126E-03  0.1393179E+04  0.7818609E-02  0.8958771E-01
        2   -1    0    0  501    0  0.00000000000E+00  0.00000000000E+00  0.77451201817E+03  0.77451201818E+03  0.25500000920E-02 0.  1.
       -2   -1    0    0    0  501  0.00000000000E+00  0.00000000000E+00 -0.62650671230E+03  0.62650671230E+03  0.25500000920E-02 0. -1.
    10030    2    1    2    0    0  0.00000000000E+00  0.00000000000E+00  0.14800530588E+03  0.14010187305E+04  0.13931790669E+04 0.  0.
        2    1    3    3  502    0  0.48106691120E+03  0.44075194217E+03  0.31940315273E+03  0.72643376956E+03  0.25500000920E-02 0. -1.
       -2    1    3    3    0  502 -0.48106691120E+03 -0.44075194217E+03 -0.17139784685E+03  0.67458496092E+03  0.25500000920E-02 0.  1.
</event>
<event>
 5   0  0.1526126E-03  0.1503780E+04  0.7818609E-02  0.8881943E-01
       -2   -1    0    0    0  501  0.00000000000E+00  0.00000000000E+00  0.37790658410E+03  0.37790658411E+03  0.25500000920E-02 0.  1.
        2   -1    0    0  501    0  0.00000000000E+00  0.00000000000E+00 -0.14959735213E+04  0.14959735213E+04  0.25500000920E-02 0. -1.
    10030    2    1    2    0    0  0.00000000000E+00  0.00000000000E+00 -0.11180669372E+04  0.18738801054E+04  0.15037795628E+04 0.  0.
        2    1    3    3  502    0 -0.57452824297E+03  0.18598643621E+03 -0.11172375273E+04  0.12699973814E+04  0.25500000920E-02 0. -1.
       -2    1    3    3    0  502  0.57452824297E+03 -0.18598643621E+03 -0.82940992949E+00  0.60388272401E+03  0.25500000920E-02 0.  1.
</event>
<event>
 5   0  0.1526126E-03  0.1499942E+04  0.7818609E-02  0.8884492E-01
       -2   -1    0    0    0  501  0.00000000000E+00  0.00000000000E+00  0.11384826393E+04  0.11384826393E+04  0.25500000920E-02 0. -1.
        2   -1    0    0  501    0  0.00000000000E+00  0.00000000000E+00 -0.49404035434E+03  0.49404035435E+03  0.25500000920E-02 0.  1.
    10030    2    1    2    0    0  0.00000000000E+00  0.00000000000E+00  0.64444228494E+03  0.16325229936E+04  0.14999418209E+04 0.  0.
        2    1    3    3  502    0 -0.12707378161E+03 -0.14915575472E+03  0.11101298290E+04  0.11272903009E+04  0.25500000920E-02 0. -1.
       -2    1    3    3    0  502  0.12707378161E+03  0.14915575472E+03 -0.46568754407E+03  0.50523269278E+03  0.25500000920E-02 0.  1.
</event>
<event>
 5   0  0.8191876E-04  0.1453638E+04  0.7818609E-02  0.8915882E-01
        1   -1    0    0  501    0  0.00000000000E+00  0.00000000000E+00  0.28287683809E+04  0.28287683809E+04  0.50400001928E-02 0.  1.
       -1   -1    0    0    0  501  0.00000000000E+00  0.00000000000E+00 -0.18674757407E+03  0.18674757414E+03  0.50400001928E-02 0. -1.
    10030    2    1    2    0    0  0.00000000000E+00  0.00000000000E+00  0.26420208068E+04  0.30155159551E+04  0.14536376892E+04 0.  0.
        2    1    3    3  502    0  0.57395842454E+03 -0.34810187814E+03  0.18991210636E+04  0.20142651277E+04  0.25500000920E-02 0. -1.
       -2    1    3    3    0  502 -0.57395842454E+03  0.34810187814E+03  0.74289974325E+03  0.10012508273E+04  0.25500000920E-02 0.  1.
</event>
<event>
 5   0  0.8306301E-04  0.1529313E+04  0.7818609E-02  0.8865191E-01
       -1   -1    0    0    0  501  0.00000000000E+00  0.00000000000E+00  0.48621466578E+03  0.48621466581E+03  0.50400001928E-02 0. -1.
        1   -1    0    0  501    0  0.00000000000E+00  0.00000000000E+00 -0.12025540874E+04  0.12025540874E+04  0.50400001928E-02 0.  1.
    10030    2    1    2    0    0  0.00000000000E+00  0.00000000000E+00 -0.71633942163E+03  0.16887687532E+04  0.15293128310E+04 0.  0.
        4    1    3    3  502    0 -0.34813226704E+02 -0.33475222855E+03  0.40002541649E+03  0.52277429357E+03  0.12699999809E+01 0. -1.
       -4    1    3    3    0  502  0.34813226704E+02  0.33475222855E+03 -0.11163648381E+04  0.11659944597E+04  0.12699999809E+01 0.  1.
</event>
<event>
 5   0  0.8365016E-04  0.1563053E+04  0.7818609E-02  0.8843573E-01
       -1   -1    0    0    0  501  0.00000000000E+00  0.00000000000E+00  0.59379555036E+03  0.59379555038E+03  0.50400001928E-02 0.  1.
        1   -1    0    0  501    0  0.00000000000E+00  0.00000000000E+00 -0.10286097261E+04  0.10286097261E+04  0.50400001928E-02 0. -1.
    10030    2    1    2    0    0  0.00000000000E+00  0.00000000000E+00 -0.43481417570E+03  0.16224052765E+04  0.15630532664E+04 0.  0.
        3    1    3    3  502    0 -0.35419993748E+03  0.69445678147E+03 -0.16002638240E+03  0.79582427100E+03  0.10100000352E+00 0.  1.
       -3    1    3    3    0  502  0.35419993748E+03 -0.69445678147E+03 -0.27478779330E+03  0.82658100546E+03  0.10100000352E+00 0. -1.
</event>
<event>
 5   0  0.1484056E-03  0.1515329E+04  0.7818609E-02  0.8874323E-01
        2   -1    0    0  501    0  0.00000000000E+00  0.00000000000E+00  0.10736456441E+04  0.10736456441E+04  0.25500000920E-02 0.  1.
       -2   -1    0    0    0  501  0.00000000000E+00  0.00000000000E+00 -0.53467839406E+03  0.53467839407E+03  0.25500000920E-02 0. -1.
    10030    2    1    2    0    0  0.00000000000E+00  0.00000000000E+00  0.53896725006E+03  0.16083240382E+04  0.15153285172E+04 0.  0.
        5    1    3    3  502    0  0.22249214828E+03 -0.72093480480E+03  0.34288938033E+03  0.82876110307E+03  0.46999998093E+01 0.  1.
       -5    1    3    3    0  502 -0.22249214828E+03  0.72093480480E+03  0.19607786973E+03  0.77956293512E+03  0.46999998093E+01 0. -1.
</event>
<event>
 5   0  0.8306301E-04  0.1490052E+04  0.7818609E-02  0.8891095E-01
        1   -1    0    0  501    0  0.00000000000E+00  0.00000000000E+00  0.10200327823E+04  0.10200327824E+04  0.50400001928E-02 0. -1.
       -1   -1    0    0    0  501  0.00000000000E+00  0.00000000000E+00 -0.54416271826E+03  0.54416271828E+03  0.50400001928E-02 0.  1.
    10030    2    1    2    0    0  0.00000000000E+00  0.00000000000E+00  0.47587006408E+03  0.15641955006E+04  0.14900520952E+04 0.  0.
        4    1    3    3  502    0 -0.37290082420E+03 -0.15138103282E+03  0.89610203660E+03  0.98232973827E+03  0.12699999809E+01 0. -1.
       -4    1    3    3    0  502  0.37290082420E+03  0.15138103282E+03 -0.42023197252E+03  0.58186576236E+03  0.12699999809E+01 0.  1.
</event>
<event>
 5   0  0.1484056E-03  0.1496075E+04  0.7818609E-02  0.8887067E-01
        2   -1    0    0  501    0  0.00000000000E+00  0.00000000000E+00  0.12840619387E+04  0.12840619387E+04  0.25500000920E-02 0.  1.
       -2   -1    0    0    0  501  0.00000000000E+00  0.00000000000E+00 -0.43577348047E+03  0.43577348047E+03  0.25500000920E-02 0. -1.
    10030    2    1    2    0    0  0.00000000000E+00  0.00000000000E+00  0.84828845819E+03  0.17198354191E+04  0.14960750518E+04 0.  0.
        5    1    3    3  502    0 -0.74535425336E+03  0.50967754303E+02  0.38132582604E+03  0.83879803922E+03  0.46999998093E+01 0.  1.
       -5    1    3    3    0  502  0.74535425336E+03 -0.50967754303E+02  0.46696263214E+03  0.88103737991E+03  0.46999998093E+01 0. -1.
</event>
<event>
 5   0  0.8306301E-04  0.1411939E+04  0.7818609E-02  0.8945222E-01
       -1   -1    0    0    0  501  0.00000000000E+00  0.00000000000E+00  0.33743595474E+03  0.33743595478E+03  0.50400001928E-02 0.  1.
        1   -1    0    0  501    0  0.00000000000E+00  0.00000000000E+00 -0.14769991101E+04  0.14769991101E+04  0.50400001928E-02 0. -1.
    10030    2    1    2    0    0  0.00000000000E+00  0.00000000000E+00 -0.11395631554E+04  0.18144350649E+04  0.14119385326E+04 0.  0.
        4    1    3    3  502    0  0.63352462110E+03 -0.30680894085E+03 -0.50050921237E+03  0.86371074804E+03  0.12699999809E+01 0.  1.
       -4    1    3    3    0  502 -0.63352462110E+03  0.30680894085E+03 -0.63905394303E+03  0.95072431689E+03  0.12699999809E+01 0. -1.
</event>
<event>
 5   0  0.8058234E-04  0.1459583E+04  0.7818609E-02  0.8911784E-01
        1   -1    0    0  501    0  0.00000000000E+00  0.00000000000E+00  0.16351959356E+04  0.16351959356E+04  0.50400001928E-02 0.  1.
       -1   -1    0    0    0  501  0.00000000000E+00  0.00000000000E+00 -0.32570739564E+03  0.32570739568E+03  0.50400001928E-02 0. -1.
    10030    2    1    2    0    0  0.00000000000E+00  0.00000000000E+00  0.13094885399E+04  0.19609033313E+04  0.14595826932E+04 0.  0.
        5    1    3    3  502    0  0.22031733499E+03  0.39030411982E+03 -0.11900060115E+03  0.46374590793E+03  0.46999998093E+01 0. -1.
       -5    1    3    3    0  502 -0.22031733499E+03 -0.39030411982E+03  0.14284891411E+04  0.14971574233E+04  0.46999998093E+01 0.  1.
</event>
<event>
 5   0  0.8365016E-04  0.1519435E+04  0.7818609E-02  0.8871631E-01
        1   -1    0    0  501    0  0.00000000000E+00  0.00000000000E+00  0.15774172240E+04  0.15774172240E+04  0.50400001928E-02 0.  1.
       -1   -1    0    0    0  501  0.00000000000E+00  0.00000000000E+00 -0.36589610408E+03  0.36589610412E+03  0.50400001928E-02 0. -1.
    10030    2    1    2    0    0  0.00000000000E+00  0.00000000000E+00  0.12115211199E+04  0.19433133281E+04  0.15194351804E+04 0.  0.
        3    1    3    3  502    0  0.67124454251E+03 -0.11285052470E+03  0.17418353895E+03  0.70259831498E+03  0.10100000352E+00 0. -1.
       -3    1    3    3    0  502 -0.67124454251E+03  0.11285052470E+03  0.10373375810E+04  0.12407150132E+04  0.10100000352E+00 0.  1.
</event>
<event>
 5   0  0.8365016E-04  0.1501145E+04  0.7818609E-02  0.8883692E-01
        1   -1    0    0  501    0  0.00000000000E+00  0.00000000000E+00  0.66922129701E+03  0.66922129703E+03  0.50400001928E-02 0.  1.
       -1   -1    0    0    0  501  0.00000000000E+00  0.00000000000E+00 -0.84181313239E+03  0.84181313240E+03  0.50400001928E-02 0. -1.
    10030    2    1    2    0    0  0.00000000000E+00  0.00000000000E+00 -0.17259183537E+03  0.15110344294E+04  0.15011452646E+04 0.  0.
        3    1    3    3  502    0 -0.61917309279E+03 -0.41827210152E+03 -0.14889201745E+02  0.74736106955E+03  0.10100000352E+00 0. -1.
       -3    1    3    3    0  502  0.61917309279E+03  0.41827210152E+03 -0.15770263363E+03  0.76367335989E+03  0.10100000352E+00 0.  1.
</event>
<event>
 5   0  0.1500956E-03  0.1566289E+04  0.7818609E-02  0.8841530E-01
       -2   -1    0    0    0  501  0.00000000000E+00  0.00000000000E+00  0.13420110989E+04  0.13420110989E+04  0.25500000920E-02 0. -1.
        2   -1    0    0  501    0  0.00000000000E+00  0.00000000000E+00 -0.45701203150E+03  0.45701203150E+03  0.25500000920E-02 0.  1.
    10030    2    1    2    0    0  0.00000000000E+00  0.00000000000E+00  0.88499906743E+03  0.17990231304E+04  0.15662888860E+04 0.  0.
        4    1    3    3  502    0 -0.12281481246E+03 -0.19787161487E+03 -0.41631755047E+03  0.47703099466E+03  0.12699999809E+01 0.  1.
       -4    1    3    3    0  502  0.12281481246E+03  0.19787161487E+03  0.13013166179E+04  0.13219921358E+04  0.12699999809E+01 0. -1.
</event>
<event>
 5   0  0.1526126E-03  0.1488585E+04  0.7818609E-02  0.8892080E-01
        2   -1    0    0  501    0  0.00000000000E+00  0.00000000000E+00  0.24252919386E+04  0.24252919386E+04  0.25500000920E-02 0. -1.
       -2   -1    0    0    0  501  0.00000000000E+00  0.00000000000E+00 -0.22841424018E+03  0.22841424019E+03  0.25500000920E-02 0.  1.
    10030    2    1    2    0    0  0.00000000000E+00  0.00000000000E+00  0.21968776984E+04  0.26537061788E+04  0.14885848520E+04 0.  0.
        2    1    3    3  502    0  0.20294871413E+03 -0.14571325879E+03  0.23483046688E+04  0.23615578231E+04  0.25500000920E-02 0. -1.
       -2    1    3    3    0  502 -0.20294871413E+03  0.14571325879E+03 -0.15142697039E+03  0.29214835568E+03  0.25500000920E-02 0.  1.
</event>
<event>
 5   0  0.8365016E-04  0.1386649E+04  0.7818609E-02  0.8963539E-01
        1   -1    0    0  501    0  0.00000000000E+00  0.00000000000E+00  0.14214237525E+04  0.14214237525E+04  0.50400001928E-02 0. -1.
       -1   -1    0    0    0  501  0.00000000000E+00  0.00000000000E+00 -0.33818145047E+03  0.33818145051E+03  0.50400001928E-02 0.  1.
    10030    2    1    2    0    0  0.00000000000E+00  0.00000000000E+00  0.10832423020E+04  0.17596052030E+04  0.13866494098E+04 0.  0.
        3    1    3    3  502    0  0.19168597814E+03  0.46548997891E+03 -0.63335303000E+02  0.50738132158E+03  0.10100000352E+00 0.  1.
       -3    1    3    3    0  502 -0.19168597814E+03 -0.46548997891E+03  0.11465776050E+04  0.12522238815E+04  0.10100000352E+00 0. -1.
</event>
<event>
 5   0  0.1552067E-03  0.1511823E+04  0.7818609E-02  0.8876629E-01
       -2   -1    0    0    0  501  0.00000000000E+00  0.00000000000E+00  0.32992079532E+03  0.32992079533E+03  0.25500000920E-02 0. -1.
        2   -1    0    0  501    0  0.00000000000E+00  0.00000000000E+00 -0.17319370469E+04  0.17319370469E+04  0.25500000920E-02 0.  1.
    10030    2    1    2    0    0  0.00000000000E+00  0.00000000000E+00 -0.14020162515E+04  0.20618578422E+04  0.15118228044E+04 0.  0.
        3    1    3    3  502    0  0.53477039878E+03  0.52688061279E+03 -0.82160796087E+03  0.11129340551E+04  0.10100000352E+00 0. -1.
       -3    1    3    3    0  502 -0.53477039878E+03 -0.52688061279E+03 -0.58040829066E+03  0.94892378704E+03  0.10100000352E+00 0.  1.
</event>
<event>
 5   0  0.7870317E-04  0.1512990E+04  0.7818609E-02  0.8875861E-01
        1   -1    0    0  501    0  0.00000000000E+00  0.00000000000E+00  0.33082036617E+03  0.33082036621E+03  0.50400001928E-02 0.  1.
       -1   -1    0    0    0  501  0.00000000000E+00  0.00000000000E+00 -0.17298948655E+04  0.17298948655E+04  0.50400001928E-02 0. -1.
    10030    2    1    2    0    0  0.00000000000E+00  0.00000000000E+00 -0.13990744993E+04  0.20607152317E+04  0.15129896931E+04 0.  0.
        1    1    3    3  502    0  0.32591072051E+03  0.50961247321E+03 -0.13182607999E+04  0.14504255262E+04  0.50400001928E-02 0.  1.
       -1    1    3    3    0  502 -0.32591072051E+03 -0.50961247321E+03 -0.80813699459E+02  0.61028970550E+03  0.50400001928E-02 0. -1.
</event>
<event>
 5   0  0.8306301E-04  0.1519699E+04  0.7818609E-02  0.8871458E-01
        1   -1    0    0  501    0  0.00000000000E+00  0.00000000000E+00  0.78739830067E+03  0.78739830069E+03  0.50400001928E-02 0.  1.
       -1   -1    0    0    0  501  0.00000000000E+00  0.00000000000E+00 -0.73326432140E+03  0.73326432142E+03  0.50400001928E-02 0. -1.
    10030    2    1    2    0    0  0.00000000000E+00  0.00000000000E+00  0.54133979271E+02  0.15206626221E+04  0.15196987605E+04 0.  0.
        4    1    3    3  502    0 -0.48532356654E+03  0.26857330777E+02 -0.55734897372E+03  0.73952672154E+03  0.12699999809E+01 0. -1.
       -4    1    3    3    0  502  0.48532356654E+03 -0.26857330777E+02  0.61148295300E+03  0.78113590057E+03  0.12699999809E+01 0.  1.
</event>
<event>
 5   0  0.8058234E-04  0.1490833E+04  0.7818609E-02  0.8890572E-01
       -1   -1    0    0    0  501  0.00000000000E+00  0.00000000000E+00  0.62795867829E+03  0.62795867831E+03  0.50400001928E-02 0. -1.
        1   -1    0    0  501    0  0.00000000000E+00  0.00000000000E+00 -0.88484477053E+03  0.88484477055E+03  0.50400001928E-02 0.  1.
    10030    2    1    2    0    0  0.00000000000E+00  0.00000000000E+00 -0.25688609224E+03  0.15128034489E+04  0.14908332605E+04 0.  0.
        5    1    3    3  502    0 -0.57970656091E+03 -0.33942654124E+03 -0.45624198536E+03  0.81206459895E+03  0.46999998093E+01 0.  1.
       -5    1    3    3    0  502  0.57970656091E+03  0.33942654124E+03  0.19935589311E+03  0.70073884991E+03  0.46999998093E+01 0. -1.
</event>
<event>
 5   0  0.1552067E-03  0.1545853E+04  0.7818609E-02  0.8854521E-01
        2   -1    0    0  501    0  0.00000000000E+00  0.00000000000E+00  0.16046029438E+04  0.16046029438E+04  0.25500000920E-02 0. -1.
       -2   -1    0    0    0  501  0.00000000000E+00  0.00000000000E+00 -0.37231332032E+03  0.37231332033E+03  0.25500000920E-02 0.  1.
    10030    2    1    2    0    0  0.00000000000E+00  0.00000000000E+00  0.12322896235E+04  0.19769162642E+04  0.15458525801E+04 0.  0.
        3    1    3    3  502    0 -0.84313528626E+02  0.25832606508E+03 -0.30921194184E+03  0.41164689017E+03  0.10100000352E+00 0.  1.
       -3    1    3    3    0  502  0.84313528626E+02 -0.25832606508E+03  0.15415015653E+04  0.15652693740E+04  0.10100000352E+00 0. -1.
</event>
<event>
 5   0  0.7870317E-04  0.1489287E+04  0.7818609E-02  0.8891608E-01
       -1   -1    0    0    0  501  0.00000000000E+00  0.00000000000E+00  0.12694215037E+04  0.12694215037E+04  0.50400001928E-02 0. -1.
        1   -1    0    0  501    0  0.00000000000E+00  0.00000000000E+00 -0.43680857739E+03  0.43680857742E+03  0.50400001928E-02 0.  1.
    10030    2    1    2    0    0  0.00000000000E+00  0.00000000000E+00  0.83261292631E+03  0.17062300811E+04  0.14892873479E+04 0.  0.
        1    1    3    3  502    0  0.57147055072E+03 -0.10012246332E+03  0.95109100237E+03  0.11140813223E+04  0.50400001928E-02 0. -1.
       -1    1    3    3    0  502 -0.57147055072E+03  0.10012246332E+03 -0.11847807606E+03  0.59214875878E+03  0.50400001928E-02 0.  1.
</event>
<event>
 5   0  0.1511546E-03  0.1527534E+04  0.7818609E-02  0.8866347E-01
        2   -1    0    0  501    0  0.00000000000E+00  0.00000000000E+00  0.91011130054E+03  0.91011130054E+03  0.25500000920E-02 0.  1.
       -2   -1    0    0    0  501  0.00000000000E+00  0.00000000000E+00 -0.64095443957E+03  0.64095443958E+03  0.25500000920E-02 0. -1.
    10030    2    1    2    0    0  0.00000000000E+00  0.00000000000E+00  0.26915686097E+03  0.15510657401E+04  0.15275338014E+04 0.  0.
        1    1    3    3  502    0  0.34778396247E+03 -0.44236170313E+03  0.65896646209E+03  0.86653006822E+03  0.50400001928E-02 0.  1.
       -1    1    3    3    0  502 -0.34778396247E+03  0.44236170313E+03 -0.38980960113E+03  0.68453567190E+03  0.50400001928E-02 0. -1.
</event>
<event>
 5   0  0.8306301E-04  0.1323674E+04  0.7818609E-02  0.9010999E-01
       -1   -1    0    0    0  501  0.00000000000E+00  0.00000000000E+00  0.15690882822E+04  0.15690882822E+04  0.50400001928E-02 0. -1.
        1   -1    0    0  501    0  0.00000000000E+00  0.00000000000E+00 -0.27916098889E+03  0.27916098894E+03  0.50400001928E-02 0.  1.
    10030    2    1    2    0    0  0.00000000000E+00  0.00000000000E+00  0.12899272933E+04  0.18482492712E+04  0.13236740333E+04 0.  0.
        4    1    3    3  502    0  0.23561283080E+03  0.11250410305E+03  0.14941360162E+04  0.15167777119E+04  0.12699999809E+01 0. -1.
       -4    1    3    3    0  502 -0.23561283080E+03 -0.11250410305E+03 -0.20420872290E+03  0.33147155933E+03  0.12699999809E+01 0.  1.
</event>
<event>
 5   0  0.8058234E-04  0.1473663E+04  0.7818609E-02  0.8902158E-01
       -1   -1    0    0    0  501  0.00000000000E+00  0.00000000000E+00  0.65799271619E+03  0.65799271621E+03  0.50400001928E-02 0.  1.
        1   -1    0    0  501    0  0.00000000000E+00  0.00000000000E+00 -0.82511706453E+03  0.82511706454E+03  0.50400001928E-02 0. -1.
    10030    2    1    2    0    0  0.00000000000E+00  0.00000000000E+00 -0.16712434833E+03  0.14831097808E+04  0.14736634874E+04 0.  0.
        5    1    3    3  502    0 -0.45906770968E+03  0.44810517292E+02 -0.66183018599E+03  0.80671706913E+03  0.46999998093E+01 0. -1.
       -5    1    3    3    0  502  0.45906770968E+03 -0.44810517292E+02  0.49470583766E+03  0.67639271163E+03  0.46999998093E+01 0.  1.
</event>
<event>
 5   0  0.8191876E-04  0.1550374E+04  0.7818609E-02  0.8851629E-01
       -1   -1    0    0    0  501  0.00000000000E+00  0.00000000000E+00  0.61054353628E+03  0.61054353630E+03  0.50400001928E-02 0. -1.
        1   -1    0    0  501    0  0.00000000000E+00  0.00000000000E+00 -0.98422942497E+03  0.98422942498E+03  0.50400001928E-02 0.  1.
    10030    2    1    2    0    0  0.00000000000E+00  0.00000000000E+00 -0.37368588869E+03  0.15947729613E+04  0.15503740370E+04 0.  0.
        2    1    3    3  502    0 -0.96958553996E+02 -0.40098023497E+03 -0.86193707814E+03  0.95557398285E+03  0.25500000920E-02 0.  1.
       -2    1    3    3    0  502  0.96958553996E+02  0.40098023497E+03  0.48825118944E+03  0.63919897843E+03  0.25500000920E-02 0. -1.
</event>
<event>
 5   0  0.8306301E-04  0.1503523E+04  0.7818609E-02  0.8882114E-01
       -1   -1    0    0    0  501  0.00000000000E+00  0.00000000000E+00  0.26461438390E+03  0.26461438395E+03  0.50400001928E-02 0.  1.
        1   -1    0    0  501    0  0.00000000000E+00  0.00000000000E+00 -0.21357306287E+04  0.21357306287E+04  0.50400001928E-02 0. -1.
    10030    2    1    2    0    0  0.00000000000E+00  0.00000000000E+00 -0.18711162448E+04  0.24003450126E+04  0.15035225899E+04 0.  0.
        4    1    3    3  502    0  0.54954611007E+03 -0.65330252055E+02 -0.17478429046E+04  0.18333645031E+04  0.12699999809E+01 0. -1.
       -4    1    3    3    0  502 -0.54954611007E+03  0.65330252055E+02 -0.12327334013E+03  0.56698050955E+03  0.12699999809E+01 0.  1.
</event>
<event>
 5   0  0.8058234E-04  0.1287349E+04  0.7818609E-02  0.9039658E-01
       -1   -1    0    0    0  501  0.00000000000E+00  0.00000000000E+00  0.28090286883E+03  0.28090286887E+03  0.50400001928E-02 0.  1.
        1   -1    0    0  501    0  0.00000000000E+00  0.00000000000E+00 -0.14749472936E+04  0.14749472936E+04  0.50400001928E-02 0. -1.
    10030    2    1    2    0    0  0.00000000000E+00  0.00000000000E+00 -0.11940444248E+04  0.17558501625E+04  0.12873490998E+04 0.  0.
        5    1    3    3  502    0 -0.29683602181E+03  0.21060654244E+03  0.12705230298E+03  0.38552706423E+03  0.46999998093E+01 0.  1.
       -5    1    3    3    0  502  0.29683602181E+03 -0.21060654244E+03 -0.13210967278E+04  0.13703230983E+04  0.46999998093E+01 0. -1.
</event>
<event>
 5   0  0.1526126E-03  0.1455108E+04  0.7818609E-02  0.8914867E-01
        2   -1    0    0  501    0  0.00000000000E+00  0.00000000000E+00  0.10790362353E+04  0.10790362353E+04  0.25500000920E-02 0. -1.
       -2   -1    0    0    0  501  0.00000000000E+00  0.00000000000E+00 -0.49056239306E+03  0.49056239306E+03  0.25500000920E-02 0.  1.
    10030    2    1    2    0    0  0.00000000000E+00  0.00000000000E+00  0.58847384225E+03  0.15695986284E+04  0.14551076906E+04 0.  0.
        2    1    3    3  502    0  0.59084042518E+03 -0.12640372042E+02 -0.16351388988E+03  0.61317940215E+03  0.25500000920E-02 0.  1.
       -2    1    3    3    0  502 -0.59084042518E+03  0.12640372042E+02  0.75198773212E+03  0.95641922623E+03  0.25500000920E-02 0. -1.
</event>
<event>
 5   0  0.7870317E-04  0.1482845E+04  0.7818609E-02  0.8895942E-01
       -1   -1    0    0    0  501  0.00000000000E+00  0.00000000000E+00  0.12807649855E+04  0.12807649855E+04  0.50400001928E-02 0.  1.
        1   -1    0    0  501    0  0.00000000000E+00  0.00000000000E+00 -0.42920227721E+03  0.42920227724E+03  0.50400001928E-02 0. -1.
    10030    2    1    2    0    0  0.00000000000E+00  0.00000000000E+00  0.85156270828E+03  0.17099672627E+04  0.14828448987E+04 0.  0.
        1    1    3    3  502    0 -0.44609486984E+03 -0.77937450784E+02 -0.25118970272E+03  0.51785243643E+03  0.50400001928E-02 0. -1.
       -1    1    3    3    0  502  0.44609486984E+03  0.77937450784E+02  0.11027524110E+04  0.11921148263E+04  0.50400001928E-02 0.  1.
</event>
<event>
 5   0  0.7870317E-04  0.1507370E+04  0.7818609E-02  0.8879567E-01
        1   -1    0    0  501    0  0.00000000000E+00  0.00000000000E+00  0.87430413666E+03  0.87430413667E+03  0.50400001928E-02 0. -1.
       -1   -1    0    0    0  501  0.00000000000E+00  0.00000000000E+00 -0.64970615494E+03  0.64970615496E+03  0.50400001928E-02 0.  1.
    10030    2    1    2    0    0  0.00000000000E+00  0.00000000000E+00  0.22459798172E+03  0.15240102916E+04  0.15073696015E+04 0.  0.
        1    1    3    3  502    0  0.15380041939E+03  0.39180154246E+03 -0.51980513941E+03  0.66885005843E+03  0.50400001928E-02 0.  1.
       -1    1    3    3    0  502 -0.15380041939E+03 -0.39180154246E+03  0.74440312113E+03  0.85516023320E+03  0.50400001928E-02 0. -1.
</event>
<event>
 5   0  0.7870317E-04  0.1473504E+04  0.7818609E-02  0.8902266E-01
        1   -1    0    0  501    0  0.00000000000E+00  0.00000000000E+00  0.17416581069E+04  0.17416581069E+04  0.50400001928E-02 0.  1.
       -1   -1    0    0    0  501  0.00000000000E+00  0.00000000000E+00 -0.31165885152E+03  0.31165885156E+03  0.50400001928E-02 0. -1.
    10030    2    1    2    0    0  0.00000000000E+00  0.00000000000E+00  0.14299992554E+04  0.20533169585E+04  0.14735035329E+04 0.  0.
        1    1    3    3  502    0 -0.23957722474E+03 -0.45482134972E+03 -0.20447226177E+02  0.51446845954E+03  0.50400001928E-02 0. -1.
       -1    1    3    3    0  502  0.23957722474E+03  0.45482134972E+03  0.14504464815E+04  0.15388484989E+04  0.50400001928E-02 0.  1.
</event>
<event>
 5   0  0.1500956E-03  0.1483668E+04  0.7818609E-02  0.8895387E-01
        2   -1    0    0  501    0  0.00000000000E+00  0.00000000000E+00  0.58601090067E+03  0.58601090068E+03  0.25500000920E-02 0.  1.
       -2   -1    0    0    0  501  0.00000000000E+00  0.00000000000E+00 -0.93909160165E+03  0.93909160166E+03  0.25500000920E-02 0. -1.
    10030    2    1    2    0    0  0.00000000000E+00  0.00000000000E+00 -0.35308070098E+03  0.15251025023E+04  0.14836683124E+04 0.  0.
        4    1    3    3  502    0  0.16853421301E+03  0.67182278151E+03  0.96522129034E+02  0.69933380084E+03  0.12699999809E+01 0. -1.
       -4    1    3    3    0  502 -0.16853421301E+03 -0.67182278151E+03 -0.44960283001E+03  0.82576870149E+03  0.12699999809E+01 0.  1.
</event>
<event>
 5   0  0.8365016E-04  0.1502917E+04  0.7818609E-02  0.8882516E-01
       -1   -1    0    0    0  501  0.00000000000E+00  0.00000000000E+00  0.54040479029E+03  0.54040479031E+03  0.50400001928E-02 0.  1.
        1   -1    0    0  501    0  0.00000000000E+00  0.00000000000E+00 -0.10449380469E+04  0.10449380469E+04  0.50400001928E-02 0. -1.
    10030    2    1    2    0    0  0.00000000000E+00  0.00000000000E+00 -0.50453325657E+03  0.15853428372E+04  0.15029165327E+04 0.  0.
        3    1    3    3  502    0  0.20814804918E+03 -0.54991914080E+03  0.24132027565E+03  0.63558804066E+03  0.10100000352E+00 0.  1.
       -3    1    3    3    0  502 -0.20814804918E+03  0.54991914080E+03 -0.74585353221E+03  0.94975479652E+03  0.10100000352E+00 0. -1.
</event>
<event>
 5   0  0.1500956E-03  0.1004979E+04  0.7818609E-02  0.9303100E-01
       -2   -1    0    0    0  501  0.00000000000E+00  0.00000000000E+00  0.12538008725E+03  0.12538008727E+03  0.25500000920E-02 0.  1.
        2   -1    0    0  501    0  0.00000000000E+00  0.00000000000E+00 -0.20138440964E+04  0.20138440964E+04  0.25500000920E-02 0. -1.
    10030    2    1    2    0    0  0.00000000000E+00  0.00000000000E+00 -0.18884640092E+04  0.21392241837E+04  0.10049794994E+04 0.  0.
        4    1    3    3  502    0 -0.80757019730E+02  0.36451995937E+03 -0.22837504816E+03  0.43766799350E+03  0.12699999809E+01 0.  1.
       -4    1    3    3    0  502  0.80757019730E+02 -0.36451995937E+03 -0.16600889610E+04  0.17015561902E+04  0.12699999809E+01 0. -1.
</event>
<event>
 5   0  0.1552067E-03  0.1539675E+04  0.7818609E-02  0.8858490E-01
        2   -1    0    0  501    0  0.00000000000E+00  0.00000000000E+00  0.64902167611E+03  0.64902167612E+03  0.25500000920E-02 0. -1.
       -2   -1    0    0    0  501  0.00000000000E+00  0.00000000000E+00 -0.91314335303E+03  0.91314335303E+03  0.25500000920E-02 0.  1.
    10030    2    1    2    0    0  0.00000000000E+00  0.00000000000E+00 -0.26412167691E+03  0.15621650292E+04  0.15396750690E+04 0.  0.
        3    1    3    3  502    0 -0.65223094784E+02 -0.26538873566E+03  0.59814931529E+03  0.65762287574E+03  0.10100000352E+00 0. -1.
       -3    1    3    3    0  502  0.65223094784E+02  0.26538873566E+03 -0.86227099220E+03  0.90454215341E+03  0.10100000352E+00 0.  1.
</event>
<event>
 5   0  0.1511546E-03  0.1510008E+04  0.7818609E-02  0.8877825E-01
       -2   -1    0    0    0  501  0.00000000000E+00  0.00000000000E+00  0.47312489799E+03  0.47312489800E+03  0.25500000920E-02 0.  1.
        2   -1    0    0  501    0  0.00000000000E+00  0.00000000000E+00 -0.12048221216E+04  0.12048221216E+04  0.25500000920E-02 0. -1.
    10030    2    1    2    0    0  0.00000000000E+00  0.00000000000E+00 -0.73169722364E+03  0.16779470196E+04  0.15100084018E+04 0.  0.
        1    1    3    3  502    0 -0.36299769630E+03  0.53778893049E+03 -0.79485189854E+03  0.10260476606E+04  0.50400001928E-02 0. -1.
       -1    1    3    3    0  502  0.36299769630E+03 -0.53778893049E+03  0.63154674898E+02  0.65189935900E+03  0.50400001928E-02 0.  1.
</event>
<event>
 5   0  0.1500956E-03  0.1502535E+04  0.7818609E-02  0.8882769E-01
        2   -1    0    0  501    0  0.00000000000E+00  0.00000000000E+00  0.12197967015E+04  0.12197967015E+04  0.25500000920E-02 0.  1.
       -2   -1    0    0    0  501  0.00000000000E+00  0.00000000000E+00 -0.46270256918E+03  0.46270256918E+03  0.25500000920E-02 0. -1.
    10030    2    1    2    0    0  0.00000000000E+00  0.00000000000E+00  0.75709413231E+03  0.16824992707E+04  0.15025352810E+04 0.  0.
        4    1    3    3  502    0 -0.23560176477E+03  0.42261640966E+03 -0.26499511819E+03  0.55166733349E+03  0.12699999809E+01 0. -1.
       -4    1    3    3    0  502  0.23560176477E+03 -0.42261640966E+03  0.10220892505E+04  0.11308319372E+04  0.12699999809E+01 0.  1.
</event>
<event>
 5   0  0.8365016E-04  0.1500154E+04  0.7818609E-02  0.8884351E-01
        1   -1    0    0  501    0  0.00000000000E+00  0.00000000000E+00  0.66340239508E+03  0.66340239509E+03  0.50400001928E-02 0.  1.
       -1   -1    0    0    0  501  0.00000000000E+00  0.00000000000E+00 -0.84807530673E+03  0.84807530675E+03  0.50400001928E-02 0. -1.
    10030    2    1    2    0    0  0.00000000000E+00  0.00000000000E+00 -0.18467291166E+03  0.15114777018E+04  0.15001535784E+04 0.  0.
        3    1    3    3  502    0 -0.29033830720E+03 -0.33425469945E+03  0.51770295744E+03  0.68120400695E+03  0.10100000352E+00 0.  1.
       -3    1    3    3    0  502  0.29033830720E+03  0.33425469945E+03 -0.70237586910E+03  0.83027369489E+03  0.10100000352E+00 0. -1.
</event>
<event>
 5   0  0.1552067E-03  0.1415617E+04  0.7818609E-02  0.8942591E-01
       -2   -1    0    0    0  501  0.00000000000E+00  0.00000000000E+00  0.71778525305E+03  0.71778525306E+03  0.25500000920E-02 0. -1.
        2   -1    0    0  501    0  0.00000000000E+00  0.00000000000E+00 -0.69797021193E+03  0.69797021194E+03  0.25500000920E-02 0.  1.
    10030    2    1    2    0    0  0.00000000000E+00  0.00000000000E+00  0.19815041119E+02  0.14157554650E+04  0.14156167917E+04 0.  0.
        3    1    3    3  502    0  0.12735225734E+03  0.37801045290E+03  0.59467174627E+03  0.71606214532E+03  0.10100000352E+00 0. -1.
       -3    1    3    3    0  502 -0.12735225734E+03 -0.37801045290E+03 -0.57485670515E+03  0.69969331968E+03  0.10100000352E+00 0.  1.
</event>
<event>
 5   0  0.8365016E-04  0.1499082E+04  0.7818609E-02  0.8885064E-01
       -1   -1    0    0    0  501  0.00000000000E+00  0.00000000000E+00  0.60086666718E+03  0.60086666720E+03  0.50400001928E-02 0. -1.
        1   -1    0    0  501    0  0.00000000000E+00  0.00000000000E+00 -0.93500227657E+03  0.93500227659E+03  0.50400001928E-02 0.  1.
    10030    2    1    2    0    0  0.00000000000E+00  0.00000000000E+00 -0.33413560940E+03  0.15358689438E+04  0.14990819881E+04 0.  0.
        3    1    3    3  502    0  0.79309224032E+01 -0.73987526740E+03 -0.44407767828E+02  0.74124919622E+03  0.10100000352E+00 0.  1.
       -3    1    3    3    0  502 -0.79309224032E+01  0.73987526740E+03 -0.28972784157E+03  0.79461974757E+03  0.10100000352E+00 0. -1.
</event>
<event>
 5   0  0.1500956E-03  0.1468679E+04  0.7818609E-02  0.8905552E-01
        2   -1    0    0  501    0  0.00000000000E+00  0.00000000000E+00  0.90143875112E+03  0.90143875112E+03  0.25500000920E-02 0.  1.
       -2   -1    0    0    0  501  0.00000000000E+00  0.00000000000E+00 -0.59821563738E+03  0.59821563739E+03  0.25500000920E-02 0. -1.
    10030    2    1    2    0    0  0.00000000000E+00  0.00000000000E+00  0.30322311374E+03  0.14996543885E+04  0.14686793483E+04 0.  0.
        4    1    3    3  502    0  0.54306039835E+02  0.68674060305E+03  0.41132072189E+03  0.80233917454E+03  0.12699999809E+01 0.  1.
       -4    1    3    3    0  502 -0.54306039835E+02 -0.68674060305E+03 -0.10809760815E+03  0.69731521397E+03  0.12699999809E+01 0. -1.
</event>
<event>
 5   0  0.1526126E-03  0.1484654E+04  0.7818609E-02  0.8894722E-01
        2   -1    0    0  501    0  0.00000000000E+00  0.00000000000E+00  0.46046055215E+03  0.46046055215E+03  0.25500000920E-02 0. -1.
       -2   -1    0    0    0  501  0.00000000000E+00  0.00000000000E+00 -0.11967351720E+04  0.11967351720E+04  0.25500000920E-02 0.  1.
    10030    2    1    2    0    0  0.00000000000E+00  0.00000000000E+00 -0.73627461984E+03  0.16571957241E+04  0.14846539503E+04 0.  0.
        2    1    3    3  502    0  0.28162954579E+03  0.68450972539E+03 -0.43108810783E+03  0.85656623908E+03  0.25500000920E-02 0. -1.
       -2    1    3    3    0  502 -0.28162954579E+03 -0.68450972539E+03 -0.30518651201E+03  0.80062948505E+03  0.25500000920E-02 0.  1.
</event>
<event>
 5   0  0.1511546E-03  0.1489628E+04  0.7818609E-02  0.8891379E-01
        2   -1    0    0  501    0  0.00000000000E+00  0.00000000000E+00  0.25412671931E+04  0.25412671931E+04  0.25500000920E-02 0. -1.
       -2   -1    0    0    0  501  0.00000000000E+00  0.00000000000E+00 -0.21829583475E+03  0.21829583477E+03  0.25500000920E-02 0.  1.
    10030    2    1    2    0    0  0.00000000000E+00  0.00000000000E+00  0.23229713584E+04  0.27595630279E+04  0.14896281996E+04 0.  0.
        1    1    3    3  502    0 -0.41997658616E+03  0.22733666234E+02  0.23002206489E+04  0.23383567277E+04  0.50400001928E-02 0. -1.
       -1    1    3    3    0  502  0.41997658616E+03 -0.22733666234E+02  0.22750709497E+02  0.42120630018E+03  0.50400001928E-02 0.  1.
</event>
<event>
 5   0  0.1552067E-03  0.1492327E+04  0.7818609E-02  0.8889572E-01
        2   -1    0    0  501    0  0.00000000000E+00  0.00000000000E+00  0.86854173915E+03  0.86854173916E+03  0.25500000920E-02 0. -1.
       -2   -1    0    0    0  501  0.00000000000E+00  0.00000000000E+00 -0.64102809573E+03  0.64102809573E+03  0.25500000920E-02 0.  1.
    10030    2    1    2    0    0  0.00000000000E+00  0.00000000000E+00  0.22751364343E+03  0.15095698349E+04  0.14923265824E+04 0.  0.
        3    1    3    3  502    0 -0.66028183366E+03 -0.28372348742E+03  0.31679609171E+03  0.78538582309E+03  0.10100000352E+00 0. -1.
       -3    1    3    3    0  502  0.66028183366E+03  0.28372348742E+03 -0.89282448286E+02  0.72418401180E+03  0.10100000352E+00 0.  1.
</event>
<event>
 5   0  0.1526126E-03  0.1293310E+04  0.7818609E-02  0.9034887E-01
        2   -1    0    0  501    0  0.00000000000E+00  0.00000000000E+00  0.78982774565E+03  0.78982774566E+03  0.25500000920E-02 0. -1.
       -2   -1    0    0    0  501  0.00000000000E+00  0.00000000000E+00 -0.52943510966E+03  0.52943510967E+03  0.25500000920E-02 0.  1.
    10030    2    1    2    0    0  0.00000000000E+00  0.00000000000E+00  0.26039263599E+03  0.13192628553E+04  0.12933097682E+04 0.  0.
        2    1    3    3  502    0 -0.33735325997E+03 -0.33444772988E+03  0.57774901778E+03  0.74796820359E+03  0.25500000920E-02 0. -1.
       -2    1    3    3    0  502  0.33735325997E+03  0.33444772988E+03 -0.31735638178E+03  0.57129465173E+03  0.25500000920E-02 0.  1.
</event>
<event>
 5   0  0.8191876E-04  0.1484420E+04  0.7818609E-02  0.8894880E-01
       -1   -1    0    0    0  501  0.00000000000E+00  0.00000000000E+00  0.10192171410E+04  0.10192171410E+04  0.50400001928E-02 0.  1.
        1   -1    0    0  501    0  0.00000000000E+00  0.00000000000E+00 -0.54048910120E+03  0.54048910123E+03  0.50400001928E-02 0. -1.
    10030    2    1    2    0    0  0.00000000000E+00  0.00000000000E+00  0.47872803982E+03  0.15597062423E+04  0.14844200976E+04 0.  0.
        2    1    3    3  502    0  0.20337469873E+03  0.40703577392E+03 -0.37675113211E+03  0.59074597323E+03  0.25500000920E-02 0. -1.
       -2    1    3    3    0  502 -0.20337469873E+03 -0.40703577392E+03  0.85547917193E+03  0.96896026902E+03  0.25500000920E-02 0.  1.
</event>
<event>
 5   0  0.8191876E-04  0.1522148E+04  0.7818609E-02  0.8869857E-01
       -1   -1    0    0    0  501  0.00000000000E+00  0.00000000000E+00  0.66884927491E+03  0.66884927493E+03  0.50400001928E-02 0. -1.
        1   -1    0    0  501    0  0.00000000000E+00  0.00000000000E+00 -0.86601517644E+03  0.86601517645E+03  0.50400001928E-02 0.  1.
    10030    2    1    2    0    0  0.00000000000E+00  0.00000000000E+00 -0.19716590153E+03  0.15348644514E+04  0.15221479860E+04 0.  0.
        2    1    3    3  502    0  0.26058697142E+02  0.11346272475E+03  0.65981798588E+03  0.67000941792E+03  0.25500000920E-02 0. -1.
       -2    1    3    3    0  502 -0.26058697142E+02 -0.11346272475E+03 -0.85698388741E+03  0.86485503346E+03  0.25500000920E-02 0.  1.
</event>
<event>
 5   0  0.8306301E-04  0.1516971E+04  0.7818609E-02  0.8873245E-01
       -1   -1    0    0    0  501  0.00000000000E+00  0.00000000000E+00  0.79932890289E+03  0.79932890291E+03  0.50400001928E-02 0. -1.
        1   -1    0    0  501    0  0.00000000000E+00  0.00000000000E+00 -0.71972901686E+03  0.71972901688E+03  0.50400001928E-02 0.  1.
    10030    2    1    2    0    0  0.00000000000E+00  0.00000000000E+00  0.79599886030E+02  0.15190579198E+04  0.15169709364E+04 0.  0.
        4    1    3    3  502    0 -0.75828370297E+03 -0.30017212374E+00  0.57268949628E+02  0.76044435023E+03  0.12699999809E+01 0. -1.
       -4    1    3    3    0  502  0.75828370297E+03  0.30017212374E+00  0.22330936402E+02  0.75861356956E+03  0.12699999809E+01 0.  1.
</event>
<event>
 5   0  0.8058234E-04  0.1491995E+04  0.7818609E-02  0.8889794E-01
       -1   -1    0    0    0  501  0.00000000000E+00  0.00000000000E+00  0.89376308868E+03  0.89376308870E+03  0.50400001928E-02 0. -1.
        1   -1    0    0  501    0  0.00000000000E+00  0.00000000000E+00 -0.62266174962E+03  0.62266174964E+03  0.50400001928E-02 0.  1.
    10030    2    1    2    0    0  0.00000000000E+00  0.00000000000E+00  0.27110133906E+03  0.15164248383E+04  0.14919947568E+04 0.  0.
        5    1    3    3  502    0  0.50656463846E+03  0.34725641938E+03  0.56591669389E+03  0.83515181144E+03  0.46999998093E+01 0. -1.
       -5    1    3    3    0  502 -0.50656463846E+03 -0.34725641938E+03 -0.29481535483E+03  0.68127302690E+03  0.46999998093E+01 0.  1.
</event>
<event>
 5   0  0.8058234E-04  0.1530456E+04  0.7818609E-02  0.8864449E-01
        1   -1    0    0  501    0  0.00000000000E+00  0.00000000000E+00  0.15509097808E+04  0.15509097808E+04  0.50400001928E-02 0.  1.
       -1   -1    0    0    0  501  0.00000000000E+00  0.00000000000E+00 -0.37756809459E+03  0.37756809462E+03  0.50400001928E-02 0. -1.
    10030    2    1    2    0    0  0.00000000000E+00  0.00000000000E+00  0.11733416862E+04  0.19284778754E+04  0.15304562076E+04 0.  0.
        5    1    3    3  502    0 -0.51570380706E+03  0.56049997434E+03  0.49372156792E+03  0.90768591180E+03  0.46999998093E+01 0. -1.
       -5    1    3    3    0  502  0.51570380706E+03 -0.56049997434E+03  0.67962011829E+03  0.10207919636E+04  0.46999998093E+01 0.  1.
</event>
<event>
 5   0  0.1552067E-03  0.1473032E+04  0.7818609E-02  0.8902587E-01
        2   -1    0    0  501    0  0.00000000000E+00  0.00000000000E+00  0.18944479456E+04  0.18944479456E+04  0.25500000920E-02 0. -1.
       -2   -1    0    0    0  501  0.00000000000E+00  0.00000000000E+00 -0.28633975351E+03  0.28633975352E+03  0.25500000920E-02 0.  1.
    10030    2    1    2    0    0  0.00000000000E+00  0.00000000000E+00  0.16081081921E+04  0.21807876991E+04  0.14730319179E+04 0.  0.
        3    1    3    3  502    0 -0.28693632784E+03  0.36782309209E+03  0.16478335371E+04  0.17125950074E+04  0.10100000352E+00 0. -1.
       -3    1    3    3    0  502  0.28693632784E+03 -0.36782309209E+03 -0.39725345020E+02  0.46819269168E+03  0.10100000352E+00 0.  1.
</event>
<event>
 5   0  0.1552067E-03  0.1553928E+04  0.7818609E-02  0.8849363E-01
        2   -1    0    0  501    0  0.00000000000E+00  0.00000000000E+00  0.15547732002E+04  0.15547732002E+04  0.25500000920E-02 0.  1.
       -2   -1    0    0    0  501  0.00000000000E+00  0.00000000000E+00 -0.38827081994E+03  0.38827081995E+03  0.25500000920E-02 0. -1.
    10030    2    1    2    0    0  0.00000000000E+00  0.00000000000E+00  0.11665023802E+04  0.19430440201E+04  0.15539280103E+04 0.  0.
        3    1    3    3  502    0 -0.15648880226E+03 -0.25617376648E+03  0.14793317354E+04  0.15094820759E+04  0.10100000352E+00 0.  1.
       -3    1    3    3    0  502  0.15648880226E+03  0.25617376648E+03 -0.31282935515E+03  0.43356194426E+03  0.10100000352E+00 0. -1.
</event>
<event>
 5   0  0.8058234E-04  0.1471399E+04  0.7818609E-02  0.8903698E-01
        1   -1    0    0  501    0  0.00000000000E+00  0.00000000000E+00  0.80502009513E+03  0.80502009514E+03  0.50400001928E-02 0.  1.
       -1   -1    0    0    0  501  0.00000000000E+00  0.00000000000E+00 -0.67234815039E+03  0.67234815041E+03  0.50400001928E-02 0. -1.
    10030    2    1    2    0    0  0.00000000000E+00  0.00000000000E+00  0.13267194474E+03  0.14773682456E+04  0.14713990241E+04 0.  0.
        5    1    3    3  502    0  0.73190533155E+02  0.36765973111E+03  0.70191358425E+03  0.79576083202E+03  0.46999998093E+01 0.  1.
       -5    1    3    3    0  502 -0.73190533155E+02 -0.36765973111E+03 -0.56924163951E+03  0.68160741353E+03  0.46999998093E+01 0. -1.
</event>
<event>
 5   0  0.1511546E-03  0.1520819E+04  0.7818609E-02  0.8870726E-01
       -2   -1    0    0    0  501  0.00000000000E+00  0.00000000000E+00  0.51686638725E+03  0.51686638725E+03  0.25500000920E-02 0.  1.
        2   -1    0    0  501    0  0.00000000000E+00  0.00000000000E+00 -0.11187077011E+04  0.11187077011E+04  0.25500000920E-02 0. -1.
    10030    2    1    2    0    0  0.00000000000E+00  0.00000000000E+00 -0.60184131383E+03  0.16355740883E+04  0.15208187372E+04 0.  0.
        1    1    3    3  502    0 -0.12117863347E+03 -0.72643824373E+03 -0.50447934950E+03  0.89269042632E+03  0.50400001928E-02 0. -1.
       -1    1    3    3    0  502  0.12117863347E+03  0.72643824373E+03 -0.97361964338E+02  0.74288366201E+03  0.50400001928E-02 0.  1.
</event>
<event>
 5   0  0.8191876E-04  0.1492176E+04  0.7818609E-02  0.8889673E-01
        1   -1    0    0  501    0  0.00000000000E+00  0.00000000000E+00  0.51280716026E+03  0.51280716028E+03  0.50400001928E-02 0. -1.
       -1   -1    0    0    0  501  0.00000000000E+00  0.00000000000E+00 -0.10854905224E+04  0.10854905224E+04  0.50400001928E-02 0.  1.
    10030    2    1    2    0    0  0.00000000000E+00  0.00000000000E+00 -0.57268336210E+03  0.15982976826E+04  0.14921760114E+04 0.  0.
        2    1    3    3  502    0  0.35275408780E+02  0.28312006484E+03  0.45206708692E+03  0.53457083409E+03  0.25500000920E-02 0. -1.
       -2    1    3    3    0  502 -0.35275408780E+02 -0.28312006484E+03 -0.10247504490E+04  0.10637268486E+04  0.25500000920E-02 0.  1.
</event>
<event>
 5   0  0.1552067E-03  0.1520865E+04  0.7818609E-02  0.8870696E-01
       -2   -1    0    0    0  501  0.00000000000E+00  0.00000000000E+00  0.82781175882E+03  0.82781175882E+03  0.25500000920E-02 0.  1.
        2   -1    0    0  501    0  0.00000000000E+00  0.00000000000E+00 -0.69853714695E+03  0.69853714696E+03  0.25500000920E-02 0. -1.
    10030    2    1    2    0    0  0.00000000000E+00  0.00000000000E+00  0.12927461187E+03  0.15263489058E+04  0.15208645755E+04 0.  0.
        3    1    3    3  502    0  0.14168867373E+02 -0.65203800623E+03  0.45707542661E+03  0.79641212584E+03  0.10100000352E+00 0.  1.
       -3    1    3    3    0  502 -0.14168867373E+02  0.65203800623E+03 -0.32780081474E+03  0.72993677995E+03  0.10100000352E+00 0. -1.
</event>
<event>
 5   0  0.1500956E-03  0.1500528E+04  0.7818609E-02  0.8884102E-01
       -2   -1    0    0    0  501  0.00000000000E+00  0.00000000000E+00  0.72693903615E+03  0.72693903615E+03  0.25500000920E-02 0. -1.
        2   -1    0    0  501    0  0.00000000000E+00  0.00000000000E+00 -0.77433766540E+03  0.77433766540E+03  0.25500000920E-02 0.  1.
    10030    2    1    2    0    0  0.00000000000E+00  0.00000000000E+00 -0.47398629250E+02  0.15012767016E+04  0.15005282752E+04 0.  0.
        4    1    3    3  502    0 -0.47410172164E+03 -0.53158171016E+02 -0.60303599410E+03  0.76892929238E+03  0.12699999809E+01 0.  1.
       -4    1    3    3    0  502  0.47410172164E+03  0.53158171016E+02  0.55563736485E+03  0.73234740917E+03  0.12699999809E+01 0. -1.
</event>
<event>
 5   0  0.1484056E-03  0.1513849E+04  0.7818609E-02  0.8875295E-01
        2   -1    0    0  501    0  0.00000000000E+00  0.00000000000E+00  0.20002712061E+04  0.20002712061E+04  0.25500000920E-02 0. -1.
       -2   -1    0    0    0  501  0.00000000000E+00  0.00000000000E+00 -0.28642847500E+03  0.28642847501E+03  0.25500000920E-02 0.  1.
    10030    2    1    2    0    0  0.00000000000E+00  0.00000000000E+00  0.17138427311E+04  0.22866996811E+04  0.15138489108E+04 0.  0.
        5    1    3    3  502    0 -0.16120750000E+03 -0.19509951384E+03 -0.22060057857E+03  0.33576536989E+03  0.46999998093E+01 0.  1.
       -5    1    3    3    0  502  0.16120750000E+03  0.19509951384E+03  0.19344433096E+04  0.19509343112E+04  0.46999998093E+01 0. -1.
</event>
<event>
 5   0  0.7870317E-04  0.1481319E+04  0.7818609E-02  0.8896972E-01
        1   -1    0    0  501    0  0.00000000000E+00  0.00000000000E+00  0.11025843312E+04  0.11025843312E+04  0.50400001928E-02 0. -1.
       -1   -1    0    0    0  501  0.00000000000E+00  0.00000000000E+00 -0.49753679355E+03  0.49753679357E+03  0.50400001928E-02 0.  1.
    10030    2    1    2    0    0  0.00000000000E+00  0.00000000000E+00  0.60504753763E+03  0.16001211248E+04  0.14813187001E+04 0.  0.
        1    1    3    3  502    0 -0.17926299315E+03 -0.98974588605E+02  0.10713997061E+04  0.10907926110E+04  0.50400001928E-02 0. -1.
       -1    1    3    3    0  502  0.17926299315E+03  0.98974588605E+02 -0.46635216847E+03  0.50932851379E+03  0.50400001928E-02 0.  1.
</event>
<event>
 5   0  0.8365016E-04  0.1525007E+04  0.7818609E-02  0.8867992E-01
       -1   -1    0    0    0  501  0.00000000000E+00  0.00000000000E+00  0.33018196178E+03  0.33018196182E+03  0.50400001928E-02 0. -1.
        1   -1    0    0  501    0  0.00000000000E+00  0.00000000000E+00 -0.17608829322E+04  0.17608829323E+04  0.50400001928E-02 0.  1.
    10030    2    1    2    0    0  0.00000000000E+00  0.00000000000E+00 -0.14307009705E+04  0.20910648941E+04  0.15250072539E+04 0.  0.
        3    1    3    3  502    0  0.12229124627E+03 -0.43430801424E+03  0.12749049376E+03  0.46886291850E+03  0.10100000352E+00 0. -1.
       -3    1    3    3    0  502 -0.12229124627E+03  0.43430801424E+03 -0.15581914642E+04  0.16222019756E+04  0.10100000352E+00 0.  1.
</event>
<event>
 5   0  0.8306301E-04  0.1414878E+04  0.7818609E-02  0.8943119E-01
       -1   -1    0    0    0  501  0.00000000000E+00  0.00000000000E+00  0.42844172745E+03  0.42844172748E+03  0.50400001928E-02 0.  1.
        1   -1    0    0  501    0  0.00000000000E+00  0.00000000000E+00 -0.11681163787E+04  0.11681163787E+04  0.50400001928E-02 0. -1.
    10030    2    1    2    0    0  0.00000000000E+00  0.00000000000E+00 -0.73967465124E+03  0.15965581062E+04  0.14148778027E+04 0.  0.
        4    1    3    3  502    0  0.28287817543E+03 -0.62922096585E+03 -0.54656583127E+03  0.88015618319E+03  0.12699999809E+01 0. -1.
       -4    1    3    3    0  502 -0.28287817543E+03  0.62922096585E+03 -0.19310881997E+03  0.71640192298E+03  0.12699999809E+01 0.  1.
</event>
<event>
 5   0  0.8058234E-04  0.1492867E+04  0.7818609E-02  0.8889210E-01
        1   -1    0    0  501    0  0.00000000000E+00  0.00000000000E+00  0.57429305893E+03  0.57429305895E+03  0.50400001928E-02 0. -1.
       -1   -1    0    0    0  501  0.00000000000E+00  0.00000000000E+00 -0.97017246689E+03  0.97017246690E+03  0.50400001928E-02 0.  1.
    10030    2    1    2    0    0  0.00000000000E+00  0.00000000000E+00 -0.39587940796E+03  0.15444655258E+04  0.14928674606E+04 0.  0.
        5    1    3    3  502    0 -0.49018688900E+03  0.44519153496E+03 -0.55432007644E+03  0.86358064249E+03  0.46999998093E+01 0.  1.
       -5    1    3    3    0  502  0.49018688900E+03 -0.44519153496E+03  0.15844066848E+03  0.68088488335E+03  0.46999998093E+01 0. -1.
</event>
<event>
 5   0  0.1552067E-03  0.1527275E+04  0.7818609E-02  0.8866515E-01
       -2   -1    0    0    0  501  0.00000000000E+00  0.00000000000E+00  0.50099382679E+03  0.50099382680E+03  0.25500000920E-02 0. -1.
        2   -1    0    0  501    0  0.00000000000E+00  0.00000000000E+00 -0.11639710944E+04  0.11639710944E+04  0.25500000920E-02 0.  1.
    10030    2    1    2    0    0  0.00000000000E+00  0.00000000000E+00 -0.66297726757E+03  0.16649649212E+04  0.15272751328E+04 0.  0.
        3    1    3    3  502    0 -0.55866430615E+03 -0.21755082718E+03  0.18413013036E+03  0.62716671188E+03  0.10100000352E+00 0. -1.
       -3    1    3    3    0  502  0.55866430615E+03  0.21755082718E+03 -0.84710739793E+03  0.10377982093E+04  0.10100000352E+00 0.  1.
</event>
<event>
 5   0  0.8191876E-04  0.1482488E+04  0.7818609E-02  0.8896183E-01
        1   -1    0    0  501    0  0.00000000000E+00  0.00000000000E+00  0.60685303990E+03  0.60685303992E+03  0.50400001928E-02 0.  1.
       -1   -1    0    0    0  501  0.00000000000E+00  0.00000000000E+00 -0.90539600441E+03  0.90539600443E+03  0.50400001928E-02 0. -1.
    10030    2    1    2    0    0  0.00000000000E+00  0.00000000000E+00 -0.29854296451E+03  0.15122490444E+04  0.14824875279E+04 0.  0.
        2    1    3    3  502    0  0.88641137763E+02 -0.19783226333E+03 -0.87233691304E+03  0.89886959320E+03  0.25500000920E-02 0. -1.
       -2    1    3    3    0  502 -0.88641137763E+02  0.19783226333E+03  0.57379394853E+03  0.61337945115E+03  0.25500000920E-02 0.  1.
</event>
<event>
 5   0  0.8306301E-04  0.1246722E+04  0.7818609E-02  0.9072916E-01
        1   -1    0    0  501    0  0.00000000000E+00  0.00000000000E+00  0.12818014806E+04  0.12818014807E+04  0.50400001928E-02 0.  1.
       -1   -1    0    0    0  501  0.00000000000E+00  0.00000000000E+00 -0.30315057277E+03  0.30315057281E+03  0.50400001928E-02 0. -1.
    10030    2    1    2    0    0  0.00000000000E+00  0.00000000000E+00  0.97865090788E+03  0.15849520535E+04  0.12467218665E+04 0.  0.
        4    1    3    3  502    0  0.14464462851E+03 -0.12611092682E+03  0.12433133074E+04  0.12580364175E+04  0.12699999809E+01 0.  1.
       -4    1    3    3    0  502 -0.14464462851E+03  0.12611092682E+03 -0.26466239954E+03  0.32691563598E+03  0.12699999809E+01 0. -1.
</event>
<event>
 5   0  0.8365016E-04  0.1497430E+04  0.7818609E-02  0.8886164E-01
       -1   -1    0    0    0  501  0.00000000000E+00  0.00000000000E+00  0.10442656202E+04  0.10442656202E+04  0.50400001928E-02 0.  1.
        1   -1    0    0  501    0  0.00000000000E+00  0.00000000000E+00 -0.53681150751E+03  0.53681150754E+03  0.50400001928E-02 0. -1.
    10030    2    1    2    0    0  0.00000000000E+00  0.00000000000E+00  0.50745411271E+03  0.15810771278E+04  0.14974295334E+04 0.  0.
        3    1    3    3  502    0  0.61540337180E+03 -0.13943699503E+02 -0.19629519872E+03  0.64610181242E+03  0.10100000352E+00 0.  1.
       -3    1    3    3    0  502 -0.61540337180E+03  0.13943699503E+02  0.70374931143E+03  0.93497531535E+03  0.10100000352E+00 0. -1.
</event>
<event>
 5   0  0.8306301E-04  0.1303632E+04  0.7818609E-02  0.9026690E-01
        1   -1    0    0  501    0  0.00000000000E+00  0.00000000000E+00  0.41122899588E+03  0.41122899591E+03  0.50400001928E-02 0. -1.
       -1   -1    0    0    0  501  0.00000000000E+00  0.00000000000E+00 -0.10331571660E+04  0.10331571660E+04  0.50400001928E-02 0.  1.
    10030    2    1    2    0    0  0.00000000000E+00  0.00000000000E+00 -0.62192817013E+03  0.14443861619E+04  0.13036321321E+04 0.  0.
        4    1    3    3  502    0  0.77953106056E+02 -0.47843736796E+03  0.17184113367E+03  0.51430534697E+03  0.12699999809E+01 0. -1.
       -4    1    3    3    0  502 -0.77953106056E+02  0.47843736796E+03 -0.79376930380E+03  0.93008081496E+03  0.12699999809E+01 0.  1.
</event>
<event>
 5   0  0.1526126E-03  0.1173038E+04  0.7818609E-02  0.9136789E-01
       -2   -1    0    0    0  501  0.00000000000E+00  0.00000000000E+00  0.35184134812E+03  0.35184134813E+03  0.25500000920E-02 0.  1.
        2   -1    0    0  501    0  0.00000000000E+00  0.00000000000E+00 -0.97772597939E+03  0.97772597940E+03  0.25500000920E-02 0. -1.
    10030    2    1    2    0    0  0.00000000000E+00  0.00000000000E+00 -0.62588463127E+03  0.13295673275E+04  0.11730378113E+04 0.  0.
        2    1    3    3  502    0 -0.56435496784E+03 -0.14866450551E+03 -0.37909831045E+03  0.69592614114E+03  0.25500000920E-02 0.  1.
       -2    1    3    3    0  502  0.56435496784E+03  0.14866450551E+03 -0.24678632083E+03  0.63364118639E+03  0.25500000920E-02 0. -1.
</event>
<event>
 5   0  0.1484056E-03  0.1484294E+04  0.7818609E-02  0.8894965E-01
        2   -1    0    0  501    0  0.00000000000E+00  0.00000000000E+00  0.78804310493E+03  0.78804310493E+03  0.25500000920E-02 0.  1.
       -2   -1    0    0    0  501  0.00000000000E+00  0.00000000000E+00 -0.69892375718E+03  0.69892375719E+03  0.25500000920E-02 0. -1.
    10030    2    1    2    0    0  0.00000000000E+00  0.00000000000E+00  0.89119347745E+02  0.14869668621E+04  0.14842938358E+04 0.  0.
        5    1    3    3  502    0 -0.44698212035E+03  0.13775422110E+03 -0.53266432083E+03  0.70888829164E+03  0.46999998093E+01 0. -1.
       -5    1    3    3    0  502  0.44698212035E+03 -0.13775422110E+03  0.62178366857E+03  0.77807857048E+03  0.46999998093E+01 0.  1.
</event>
<event>
 5   0  0.1552067E-03  0.1534954E+04  0.7818609E-02  0.8861536E-01
        2   -1    0    0  501    0  0.00000000000E+00  0.00000000000E+00  0.15498921094E+04  0.15498921094E+04  0.25500000920E-02 0. -1.
       -2   -1    0    0    0  501  0.00000000000E+00  0.00000000000E+00 -0.38003998736E+03  0.38003998736E+03  0.25500000920E-02 0.  1.
    10030    2    1    2    0    0  0.00000000000E+00  0.00000000000E+00  0.11698521220E+04  0.19299320967E+04  0.15349540419E+04 0.  0.
        3    1    3    3  502    0  0.16502560441E+03  0.44699296809E+03 -0.17154413451E+03  0.50642231776E+03  0.10100000352E+00 0.  1.
       -3    1    3    3    0  502 -0.16502560441E+03 -0.44699296809E+03  0.13413962565E+04  0.14235097790E+04  0.10100000352E+00 0. -1.
</event>
<event>
 5   0  0.1484056E-03  0.1519793E+04  0.7818609E-02  0.8871396E-01
        2   -1    0    0  501    0  0.00000000000E+00  0.00000000000E+00  0.38648838087E+03  0.38648838088E+03  0.25500000920E-02 0.  1.
       -2   -1    0    0    0  501  0.00000000000E+00  0.00000000000E+00 -0.14940760916E+04  0.14940760916E+04  0.25500000920E-02 0. -1.
    10030    2    1    2    0    0  0.00000000000E+00  0.00000000000E+00 -0.11075877107E+04  0.18805644725E+04  0.15197934722E+04 0.  0.
        5    1    3    3  502    0 -0.57485214206E+03 -0.86626892052E+02  0.51716721602E+02  0.58365735920E+03  0.46999998093E+01 0.  1.
       -5    1    3    3    0  502  0.57485214206E+03  0.86626892052E+02 -0.11593044323E+04  0.12969071133E+04  0.46999998093E+01 0. -1.
</event>
<event>
 5   0  0.8306301E-04  0.1492935E+04  0.7818609E-02  0.8889165E-01
       -1   -1    0    0    0  501  0.00000000000E+00  0.00000000000E+00  0.35947214110E+03  0.35947214113E+03  0.50400001928E-02 0.  1.
        1   -1    0    0  501    0  0.00000000000E+00  0.00000000000E+00 -0.15500882330E+04  0.15500882331E+04  0.50400001928E-02 0. -1.
    10030    2    1    2    0    0  0.00000000000E+00  0.00000000000E+00 -0.11906160919E+04  0.19095603742E+04  0.14929347421E+04 0.  0.
        4    1    3    3  502    0  0.42604916268E+03 -0.33167696722E+03  0.63980629605E+02  0.54371190301E+03  0.12699999809E+01 0.  1.
       -4    1    3    3    0  502 -0.42604916268E+03  0.33167696722E+03 -0.12545967216E+04  0.13658484712E+04  0.12699999809E+01 0. -1.
</event>
<event>
 5   0  0.8058234E-04  0.1442812E+04  0.7818609E-02  0.8923399E-01
       -1   -1    0    0    0  501  0.00000000000E+00  0.00000000000E+00  0.12105878802E+04  0.12105878802E+04  0.50400001928E-02 0.  1.
        1   -1    0    0  501    0  0.00000000000E+00  0.00000000000E+00 -0.42989600436E+03  0.42989600439E+03  0.50400001928E-02 0. -1.
    10030    2    1    2    0    0  0.00000000000E+00  0.00000000000E+00  0.78069187582E+03  0.16404838846E+04  0.14428123823E+04 0.  0.
        5    1    3    3  502    0  0.61918784240E+03  0.31863355251E+03  0.60452531164E+03  0.92216802557E+03  0.46999998093E+01 0.  1.
       -5    1    3    3    0  502 -0.61918784240E+03 -0.31863355251E+03  0.17616656417E+03  0.71831585900E+03  0.46999998093E+01 0. -1.
</event>
<event>
 5   0  0.8365016E-04  0.1510132E+04  0.7818609E-02  0.8877743E-01
       -1   -1    0    0    0  501  0.00000000000E+00  0.00000000000E+00  0.54967064255E+03  0.54967064257E+03  0.50400001928E-02 0. -1.
        1   -1    0    0  501    0  0.00000000000E+00  0.00000000000E+00 -0.10372118303E+04  0.10372118303E+04  0.50400001928E-02 0.  1.
    10030    2    1    2    0    0  0.00000000000E+00  0.00000000000E+00 -0.48754118777E+03  0.15868824729E+04  0.15101323031E+04 0.  0.
        3    1    3    3  502    0 -0.56260936583E+03  0.69799726898E+01 -0.77289633267E+03  0.95600563273E+03  0.10100000352E+00 0.  1.
       -3    1    3    3    0  502  0.56260936583E+03 -0.69799726898E+01  0.28535514491E+03  0.63087684017E+03  0.10100000352E+00 0. -1.
</event>
<event>
 5   0  0.8058234E-04  0.1518397E+04  0.7818609E-02  0.8872310E-01
        1   -1    0    0  501    0  0.00000000000E+00  0.00000000000E+00  0.70150011622E+03  0.70150011624E+03  0.50400001928E-02 0. -1.
       -1   -1    0    0    0  501  0.00000000000E+00  0.00000000000E+00 -0.82164301761E+03  0.82164301763E+03  0.50400001928E-02 0.  1.
    10030    2    1    2    0    0  0.00000000000E+00  0.00000000000E+00 -0.12014290139E+03  0.15231431339E+04  0.15183974083E+04 0.  0.
        5    1    3    3  502    0  0.71170943909E+03 -0.22636377700E+03 -0.19684163138E+03  0.77235976272E+03  0.46999998093E+01 0.  1.
       -5    1    3    3    0  502 -0.71170943909E+03  0.22636377700E+03  0.76698729990E+02  0.75078337115E+03  0.46999998093E+01 0. -1.
</event>
<event>
 5   0  0.1526126E-03  0.1567472E+04  0.7818609E-02  0.8840784E-01
        2   -1    0    0  501    0  0.00000000000E+00  0.00000000000E+00  0.79134893972E+03  0.79134893973E+03  0.25500000920E-02 0.  1.
       -2   -1    0    0    0  501  0.00000000000E+00  0.00000000000E+00 -0.77619642965E+03  0.77619642965E+03  0.25500000920E-02 0. -1.
    10030    2    1    2    0    0  0.00000000000E+00  0.00000000000E+00  0.15152510076E+02  0.15675453694E+04  0.15674721326E+04 0.  0.
        2    1    3    3  502    0 -0.13909316453E+03  0.40243375125E+03 -0.65043806594E+03  0.77741205946E+03  0.25500000920E-02 0. -1.
       -2    1    3    3    0  502  0.13909316453E+03 -0.40243375125E+03  0.66559057602E+03  0.79013330992E+03  0.25500000920E-02 0.  1.
</event>
<event>
 5   0  0.1552067E-03  0.1436647E+04  0.7818609E-02  0.8927711E-01
        2   -1    0    0  501    0  0.00000000000E+00  0.00000000000E+00  0.48546031176E+03  0.48546031176E+03  0.25500000920E-02 0. -1.
       -2   -1    0    0    0  501  0.00000000000E+00  0.00000000000E+00 -0.10628851171E+04  0.10628851171E+04  0.25500000920E-02 0.  1.
    10030    2    1    2    0    0  0.00000000000E+00  0.00000000000E+00 -0.57742480538E+03  0.15483454289E+04  0.14366468464E+04 0.  0.
        3    1    3    3  502    0 -0.67465056789E+03  0.20866945287E+03 -0.14698854424E+03  0.72131960438E+03  0.10100000352E+00 0.  1.
       -3    1    3    3    0  502  0.67465056789E+03 -0.20866945287E+03 -0.43043626114E+03  0.82702582452E+03  0.10100000352E+00 0. -1.
</event>
<event>
 5   0  0.1552067E-03  0.1515505E+04  0.7818609E-02  0.8874207E-01
       -2   -1    0    0    0  501  0.00000000000E+00  0.00000000000E+00  0.57652032037E+03  0.57652032038E+03  0.25500000920E-02 0. -1.
        2   -1    0    0  501    0  0.00000000000E+00  0.00000000000E+00 -0.99595629315E+03  0.99595629315E+03  0.25500000920E-02 0.  1.
    10030    2    1    2    0    0  0.00000000000E+00  0.00000000000E+00 -0.41943597277E+03  0.15724766135E+04  0.15155052507E+04 0.  0.
        3    1    3    3  502    0 -0.61318179955E+03 -0.11345431740E+03 -0.65639543126E+03  0.90538321932E+03  0.10100000352E+00 0.  1.
       -3    1    3    3    0  502  0.61318179955E+03  0.11345431740E+03  0.23695945849E+03  0.66709339421E+03  0.10100000352E+00 0. -1.
</event>
<event>
 5   0  0.8191876E-04  0.1478549E+04  0.7818609E-02  0.8898844E-01
        1   -1    0    0  501    0  0.00000000000E+00  0.00000000000E+00  0.89422394930E+03  0.89422394931E+03  0.50400001928E-02 0.  1.
       -1   -1    0    0    0  501  0.00000000000E+00  0.00000000000E+00 -0.61117419471E+03  0.61117419473E+03  0.50400001928E-02 0. -1.
    10030    2    1    2    0    0  0.00000000000E+00  0.00000000000E+00  0.28304975459E+03  0.15053981440E+04  0.14785487508E+04 0.  0.
        2    1    3    3  502    0  0.19787412354E+03  0.70848999917E+03  0.66606378096E+02  0.73861265715E+03  0.25500000920E-02 0. -1.
       -2    1    3    3    0  502 -0.19787412354E+03 -0.70848999917E+03  0.21644337649E+03  0.76678548690E+03  0.25500000920E-02 0.  1.
</event>
<event>
 5   0  0.1500956E-03  0.1487132E+04  0.7818609E-02  0.8893055E-01
        2   -1    0    0  501    0  0.00000000000E+00  0.00000000000E+00  0.78175775822E+03  0.78175775822E+03  0.25500000920E-02 0. -1.
       -2   -1    0    0    0  501  0.00000000000E+00  0.00000000000E+00 -0.70724004456E+03  0.70724004456E+03  0.25500000920E-02 0.  1.
    10030    2    1    2    0    0  0.00000000000E+00  0.00000000000E+00  0.74517713662E+02  0.14889978028E+04  0.14871319938E+04 0.  0.
        4    1    3    3  502    0  0.50957860773E+03 -0.19280748027E+03 -0.46938360404E+03  0.71914370090E+03  0.12699999809E+01 0.  1.
       -4    1    3    3    0  502 -0.50957860773E+03  0.19280748027E+03  0.54390131770E+03  0.76985410189E+03  0.12699999809E+01 0. -1.
</event>
<event>
 5   0  0.1552067E-03  0.1493502E+04  0.7818609E-02  0.8888786E-01
       -2   -1    0    0    0  501  0.00000000000E+00  0.00000000000E+00  0.22849556912E+03  0.22849556913E+03  0.25500000920E-02 0. -1.
        2   -1    0    0  501    0  0.00000000000E+00  0.00000000000E+00 -0.24404706063E+04  0.24404706063E+04  0.25500000920E-02 0.  1.
    10030    2    1    2    0    0  0.00000000000E+00  0.00000000000E+00 -0.22119750372E+04  0.26689661754E+04  0.14935015502E+04 0.  0.
        3    1    3    3  502    0 -0.60876830050E+03 -0.42626964055E+03 -0.97549521538E+03  0.12263342022E+04  0.10100000352E+00 0.  1.
       -3    1    3    3    0  502  0.60876830050E+03  0.42626964055E+03 -0.12364798218E+04  0.14426319732E+04  0.10100000352E+00 0. -1.
</event>
<event>
 5   0  0.1552067E-03  0.1501862E+04  0.7818609E-02  0.8883215E-01
        2   -1    0    0  501    0  0.00000000000E+00  0.00000000000E+00  0.45233292371E+03  0.45233292372E+03  0.25500000920E-02 0.  1.
       -2   -1    0    0    0  501  0.00000000000E+00  0.00000000000E+00 -0.12466431466E+04  0.12466431466E+04  0.25500000920E-02 0. -1.
    10030    2    1    2    0    0  0.00000000000E+00  0.00000000000E+00 -0.79431022291E+03  0.16989760703E+04  0.15018624962E+04 0.  0.
        3    1    3    3  502    0  0.25642353045E+03 -0.48658290545E+03 -0.97551044336E+03  0.11198823984E+04  0.10100000352E+00 0. -1.
       -3    1    3    3    0  502 -0.25642353045E+03  0.48658290545E+03  0.18120022045E+03  0.57909367199E+03  0.10100000352E+00 0.  1.
</event>
<event>
 5   0  0.1552067E-03  0.1654521E+04  0.7818609E-02  0.8787737E-01
       -2   -1    0    0    0  501  0.00000000000E+00  0.00000000000E+00  0.80106445331E+03  0.80106445332E+03  0.25500000920E-02 0.  1.
        2   -1    0    0  501    0  0.00000000000E+00  0.00000000000E+00 -0.85431290125E+03  0.85431290125E+03  0.25500000920E-02 0. -1.
    10030    2    1    2    0    0  0.00000000000E+00  0.00000000000E+00 -0.53248447934E+02  0.16553773546E+04  0.16545207127E+04 0.  0.
        3    1    3    3  502    0  0.18791313123E+03  0.46449361880E+03  0.63196731828E+03  0.80650379315E+03  0.10100000352E+00 0.  1.
       -3    1    3    3    0  502 -0.18791313123E+03 -0.46449361880E+03 -0.68521576621E+03  0.84887356141E+03  0.10100000352E+00 0. -1.
</event>
<event>
 5   0  0.1484056E-03  0.1512619E+04  0.7818609E-02  0.8876105E-01
        2   -1    0    0  501    0  0.00000000000E+00  0.00000000000E+00  0.15520063924E+04  0.15520063924E+04  0.25500000920E-02 0. -1.
       -2   -1    0    0    0  501  0.00000000000E+00  0.00000000000E+00 -0.36855759465E+03  0.36855759466E+03  0.25500000920E-02 0.  1.
    10030    2    1    2    0    0  0.00000000000E+00  0.00000000000E+00  0.11834487977E+04  0.19205639870E+04  0.15126185810E+04 0.  0.
        5    1    3    3  502    0  0.13049427524E+03 -0.35491671099E+03  0.14233377032E+04  0.14727209290E+04  0.46999998093E+01 0. -1.
       -5    1    3    3    0  502 -0.13049427524E+03  0.35491671099E+03 -0.23988890546E+03  0.44784305797E+03  0.46999998093E+01 0.  1.
</event>
<event>
 5   0  0.8365016E-04  0.1512786E+04  0.7818609E-02  0.8875995E-01
       -1   -1    0    0    0  501  0.00000000000E+00  0.00000000000E+00  0.76460907121E+03  0.76460907123E+03  0.50400001928E-02 0.  1.
        1   -1    0    0  501    0  0.00000000000E+00  0.00000000000E+00 -0.74826533889E+03  0.74826533891E+03  0.50400001928E-02 0. -1.
    10030    2    1    2    0    0  0.00000000000E+00  0.00000000000E+00  0.16343732322E+02  0.15128744101E+04  0.15127861261E+04 0.  0.
        3    1    3    3  502    0  0.29658105408E+03  0.69426702804E+03  0.54687242925E+02  0.75693971530E+03  0.10100000352E+00 0. -1.
       -3    1    3    3    0  502 -0.29658105408E+03 -0.69426702804E+03 -0.38343510603E+02  0.75593469484E+03  0.10100000352E+00 0.  1.
</event>
<event>
 5   0  0.8191876E-04  0.1494224E+04  0.7818609E-02  0.8888303E-01
        1   -1    0    0  501    0  0.00000000000E+00  0.00000000000E+00  0.11088684974E+04  0.11088684974E+04  0.50400001928E-02 0.  1.
       -1   -1    0    0    0  501  0.00000000000E+00  0.00000000000E+00 -0.50337494435E+03  0.50337494438E+03  0.50400001928E-02 0. -1.
    10030    2    1    2    0    0  0.00000000000E+00  0.00000000000E+00  0.60549355304E+03  0.16122434418E+04  0.14942243716E+04 0.  0.
        2    1    3    3  502    0 -0.60458527251E+03  0.40866840732E+03  0.12996314373E+03  0.74123116341E+03  0.25500000920E-02 0. -1.
       -2    1    3    3    0  502  0.60458527251E+03 -0.40866840732E+03  0.47553040931E+03  0.87101227837E+03  0.25500000920E-02 0.  1.
</event>
<event>
 5   0  0.8306301E-04  0.1486584E+04  0.7818609E-02  0.8893424E-01
        1   -1    0    0  501    0  0.00000000000E+00  0.00000000000E+00  0.39453909440E+03  0.39453909443E+03  0.50400001928E-02 0.  1.
       -1   -1    0    0    0  501  0.00000000000E+00  0.00000000000E+00 -0.14003243326E+04  0.14003243326E+04  0.50400001928E-02 0. -1.
    10030    2    1    2    0    0  0.00000000000E+00  0.00000000000E+00 -0.10057852382E+04  0.17948634270E+04  0.14865835921E+04 0.  0.
        4    1    3    3  502    0 -0.28631552010E+03  0.38524573963E+02 -0.13297639257E+04  0.13607844909E+04  0.12699999809E+01 0. -1.
       -4    1    3    3    0  502  0.28631552010E+03 -0.38524573963E+02  0.32397868753E+03  0.43407893605E+03  0.12699999809E+01 0.  1.
</event>
<event>
 5   0  0.1552067E-03  0.1500495E+04  0.7818609E-02  0.8884124E-01
       -2   -1    0    0    0  501  0.00000000000E+00  0.00000000000E+00  0.61346864438E+03  0.61346864439E+03  0.25500000920E-02 0.  1.
        2   -1    0    0  501    0  0.00000000000E+00  0.00000000000E+00 -0.91752227025E+03  0.91752227025E+03  0.25500000920E-02 0. -1.
    10030    2    1    2    0    0  0.00000000000E+00  0.00000000000E+00 -0.30405362587E+03  0.15309909146E+04  0.15004947762E+04 0.  0.
        3    1    3    3  502    0  0.41703445194E+03  0.28941693147E+03  0.41164219490E+03  0.65355122305E+03  0.10100000352E+00 0.  1.
       -3    1    3    3    0  502 -0.41703445194E+03 -0.28941693147E+03 -0.71569582077E+03  0.87743969160E+03  0.10100000352E+00 0. -1.
</event>
<event>
 5   0  0.1552067E-03  0.1349390E+04  0.7818609E-02  0.8991290E-01
       -2   -1    0    0    0  501  0.00000000000E+00  0.00000000000E+00  0.35199064881E+03  0.35199064882E+03  0.25500000920E-02 0. -1.
        2   -1    0    0  501    0  0.00000000000E+00  0.00000000000E+00 -0.12932546815E+04  0.12932546815E+04  0.25500000920E-02 0.  1.
    10030    2    1    2    0    0  0.00000000000E+00  0.00000000000E+00 -0.94126403270E+03  0.16452453303E+04  0.13493903133E+04 0.  0.
        3    1    3    3  502    0  0.24326466644E+03  0.39443337858E+03 -0.10685103768E+04  0.11646758449E+04  0.10100000352E+00 0.  1.
       -3    1    3    3    0  502 -0.24326466644E+03 -0.39443337858E+03  0.12724634410E+03  0.48056948547E+03  0.10100000352E+00 0. -1.
</event>
<event>
 5   0  0.1511546E-03  0.1553238E+04  0.7818609E-02  0.8849802E-01
       -2   -1    0    0    0  501  0.00000000000E+00  0.00000000000E+00  0.72113144286E+03  0.72113144287E+03  0.25500000920E-02 0.  1.
        2   -1    0    0  501    0  0.00000000000E+00  0.00000000000E+00 -0.83637563667E+03  0.83637563667E+03  0.25500000920E-02 0. -1.
    10030    2    1    2    0    0  0.00000000000E+00  0.00000000000E+00 -0.11524419381E+03  0.15575070795E+04  0.15532376118E+04 0.  0.
        1    1    3    3  502    0  0.59934022068E+03  0.18674697161E+03  0.40085853692E+03  0.74482930808E+03  0.50400001928E-02 0.  1.
       -1    1    3    3    0  502 -0.59934022068E+03 -0.18674697161E+03 -0.51610273073E+03  0.81267777146E+03  0.50400001928E-02 0. -1.
</event>
<event>
 5   0  0.7870317E-04  0.1458026E+04  0.7818609E-02  0.8912855E-01
       -1   -1    0    0    0  501  0.00000000000E+00  0.00000000000E+00  0.50956175372E+03  0.50956175375E+03  0.50400001928E-02 0.  1.
        1   -1    0    0  501    0  0.00000000000E+00  0.00000000000E+00 -0.10429741142E+04  0.10429741142E+04  0.50400001928E-02 0. -1.
    10030    2    1    2    0    0  0.00000000000E+00  0.00000000000E+00 -0.53341236045E+03  0.15525358679E+04  0.14580256770E+04 0.  0.
        1    1    3    3  502    0 -0.24479660572E+03  0.94032727073E+02  0.45760060390E+03  0.52741430076E+03  0.50400001928E-02 0.  1.
       -1    1    3    3    0  502  0.24479660572E+03 -0.94032727073E+02 -0.99101296435E+03  0.10251215672E+04  0.50400001928E-02 0. -1.
</event>
<event>
 5   0  0.1526126E-03  0.1513198E+04  0.7818609E-02  0.8875724E-01
       -2   -1    0    0    0  501  0.00000000000E+00  0.00000000000E+00  0.16741102617E+03  0.16741102619E+03  0.25500000920E-02 0.  1.
        2   -1    0    0  501    0  0.00000000000E+00  0.00000000000E+00 -0.34193804497E+04  0.34193804497E+04  0.25500000920E-02 0. -1.
    10030    2    1    2    0    0  0.00000000000E+00  0.00000000000E+00 -0.32519694236E+04  0.35867914759E+04  0.15131979249E+04 0.  0.
        2    1    3    3  502    0  0.67512963007E+03  0.91286039688E+02 -0.84589899306E+03  0.10861299484E+04  0.25500000920E-02 0.  1.
       -2    1    3    3    0  502 -0.67512963007E+03 -0.91286039688E+02 -0.24060704305E+04  0.25006615275E+04  0.25500000920E-02 0. -1.
</event>
<event>
 5   0  0.1552067E-03  0.1475455E+04  0.7818609E-02  0.8900941E-01
        2   -1    0    0  501    0  0.00000000000E+00  0.00000000000E+00  0.69774025547E+03  0.69774025547E+03  0.25500000920E-02 0.  1.
       -2   -1    0    0    0  501  0.00000000000E+00  0.00000000000E+00 -0.78000668261E+03  0.78000668261E+03  0.25500000920E-02 0. -1.
    10030    2    1    2    0    0  0.00000000000E+00  0.00000000000E+00 -0.82266427142E+02  0.14777469381E+04  0.14754552680E+04 0.  0.
        3    1    3    3  502    0  0.19170646108E+03  0.51424784832E+03 -0.53488962922E+03  0.76636097394E+03  0.10100000352E+00 0. -1.
       -3    1    3    3    0  502 -0.19170646108E+03 -0.51424784832E+03  0.45262320208E+03  0.71138596415E+03  0.10100000352E+00 0.  1.
</event>
<event>
 5   0  0.7870317E-04  0.1508924E+04  0.7818609E-02  0.8878540E-01
        1   -1    0    0  501    0  0.00000000000E+00  0.00000000000E+00  0.93328310533E+03  0.93328310535E+03  0.50400001928E-02 0.  1.
       -1   -1    0    0    0  501  0.00000000000E+00  0.00000000000E+00 -0.60990355205E+03  0.60990355207E+03  0.50400001928E-02 0. -1.
    10030    2    1    2    0    0  0.00000000000E+00  0.00000000000E+00  0.32337955329E+03  0.15431866574E+04  0.15089236973E+04 0.  0.
        1    1    3    3  502    0  0.22291184080E+03 -0.32468664981E+03 -0.49642951263E+03  0.63368238919E+03  0.50400001928E-02 0. -1.
       -1    1    3    3    0  502 -0.22291184080E+03  0.32468664981E+03  0.81980906592E+03  0.90950426822E+03  0.50400001928E-02 0.  1.
</event>
<event>
 5   0  0.1500956E-03  0.1487814E+04  0.7818609E-02  0.8892597E-01
       -2   -1    0    0    0  501  0.00000000000E+00  0.00000000000E+00  0.60358416071E+03  0.60358416071E+03  0.25500000920E-02 0. -1.
        2   -1    0    0  501    0  0.00000000000E+00  0.00000000000E+00 -0.91685215449E+03  0.91685215449E+03  0.25500000920E-02 0.  1.
    10030    2    1    2    0    0  0.00000000000E+00  0.00000000000E+00 -0.31326799379E+03  0.15204363152E+04  0.14878137493E+04 0.  0.
        4    1    3    3  502    0 -0.41561877132E+03  0.18826000966E+03  0.44379894992E+03  0.63650602131E+03  0.12699999809E+01 0. -1.
       -4    1    3    3    0  502  0.41561877132E+03 -0.18826000966E+03 -0.75706694371E+03  0.88393029389E+03  0.12699999809E+01 0.  1.
</event>
<event>
 5   0  0.5603875E-04  0.1487664E+04  0.7818609E-02  0.8892698E-01
        3   -1    0    0  501    0  0.00000000000E+00  0.00000000000E+00  0.48451412342E+03  0.48451413395E+03  0.10100000352E+00 0.  1.
       -3   -1    0    0    0  501  0.00000000000E+00  0.00000000000E+00 -0.11419403783E+04  0.11419403827E+04  0.10100000352E+00 0. -1.
    10030    2    1    2    0    0  0.00000000000E+00  0.00000000000E+00 -0.65742625484E+03  0.16264545167E+04  0.14876642814E+04 0.  0.
        2    1    3    3  502    0  0.49461936943E+03 -0.28897076138E+03 -0.84746224248E+03  0.10229099051E+04  0.25500000920E-02 0. -1.
       -2    1    3    3    0  502 -0.49461936943E+03  0.28897076138E+03  0.19003598764E+03  0.60354461157E+03  0.25500000920E-02 0.  1.
</event>
<event>
 5   0  0.1484056E-03  0.1485094E+04  0.7818609E-02  0.8894426E-01
        2   -1    0    0  501    0  0.00000000000E+00  0.00000000000E+00  0.20502788915E+04  0.20502788915E+04  0.25500000920E-02 0. -1.
       -2   -1    0    0    0  501  0.00000000000E+00  0.00000000000E+00 -0.26892737348E+03  0.26892737349E+03  0.25500000920E-02 0.  1.
    10030    2    1    2    0    0  0.00000000000E+00  0.00000000000E+00  0.17813515180E+04  0.23192062650E+04  0.14850940943E+04 0.  0.
        5    1    3    3  502    0 -0.63099445814E+03  0.11494330698E+03  0.30638247076E+03  0.71081522100E+03  0.46999998093E+01 0.  1.
       -5    1    3    3    0  502  0.63099445814E+03 -0.11494330698E+03  0.14749690473E+04  0.16083910440E+04  0.46999998093E+01 0. -1.
</event>
<event>
 5   0  0.1500956E-03  0.1486961E+04  0.7818609E-02  0.8893170E-01
       -2   -1    0    0    0  501  0.00000000000E+00  0.00000000000E+00  0.44423415504E+03  0.44423415504E+03  0.25500000920E-02 0.  1.
        2   -1    0    0  501    0  0.00000000000E+00  0.00000000000E+00 -0.12443057472E+04  0.12443057472E+04  0.25500000920E-02 0. -1.
    10030    2    1    2    0    0  0.00000000000E+00  0.00000000000E+00 -0.80007159213E+03  0.16885399022E+04  0.14869608094E+04 0.  0.
        4    1    3    3  502    0 -0.51088145468E+03  0.48945081262E+03 -0.65948070087E+03  0.96720130605E+03  0.12699999809E+01 0.  1.
       -4    1    3    3    0  502  0.51088145468E+03 -0.48945081262E+03 -0.14059089126E+03  0.72133859616E+03  0.12699999809E+01 0. -1.
</event>
<event>
 5   0  0.1552067E-03  0.1532764E+04  0.7818609E-02  0.8862953E-01
        2   -1    0    0  501    0  0.00000000000E+00  0.00000000000E+00  0.14145917170E+04  0.14145917170E+04  0.25500000920E-02 0.  1.
       -2   -1    0    0    0  501  0.00000000000E+00  0.00000000000E+00 -0.41520219938E+03  0.41520219939E+03  0.25500000920E-02 0. -1.
    10030    2    1    2    0    0  0.00000000000E+00  0.00000000000E+00  0.99938951764E+03  0.18297939164E+04  0.15327642900E+04 0.  0.
        3    1    3    3  502    0 -0.67735397256E+02 -0.17142155740E+03  0.13877375315E+04  0.13999246055E+04  0.10100000352E+00 0.  1.
       -3    1    3    3    0  502  0.67735397256E+02  0.17142155740E+03 -0.38834801390E+03  0.42986931093E+03  0.10100000352E+00 0. -1.
</event>
<event>
 5   0  0.1484056E-03  0.1513343E+04  0.7818609E-02  0.8875628E-01
       -2   -1    0    0    0  501  0.00000000000E+00  0.00000000000E+00  0.31705013292E+03  0.31705013293E+03  0.25500000920E-02 0. -1.
        2   -1    0    0  501    0  0.00000000000E+00  0.00000000000E+00 -0.18058712609E+04  0.18058712609E+04  0.25500000920E-02 0.  1.
    10030    2    1    2    0    0  0.00000000000E+00  0.00000000000E+00 -0.14888211280E+04  0.21229213938E+04  0.15133429530E+04 0.  0.
        5    1    3    3  502    0  0.69197918085E+02 -0.35707402149E+03 -0.16751776581E+04  0.17142148304E+04  0.46999998093E+01 0.  1.
       -5    1    3    3    0  502 -0.69197918085E+02  0.35707402149E+03  0.18635653009E+03  0.40870656344E+03  0.46999998093E+01 0. -1.
</event>
<event>
 5   0  0.1500956E-03  0.1623229E+04  0.7818609E-02  0.8806403E-01
        2   -1    0    0  501    0  0.00000000000E+00  0.00000000000E+00  0.27955505073E+04  0.27955505073E+04  0.25500000920E-02 0.  1.
       -2   -1    0    0    0  501  0.00000000000E+00  0.00000000000E+00 -0.23563093940E+03  0.23563093942E+03  0.25500000920E-02 0. -1.
    10030    2    1    2    0    0  0.00000000000E+00  0.00000000000E+00  0.25599195679E+04  0.30311814467E+04  0.16232291178E+04 0.  0.
        4    1    3    3  502    0  0.46305138746E+03  0.21242417118E+03  0.24597758356E+04  0.25119791779E+04  0.12699999809E+01 0.  1.
       -4    1    3    3    0  502 -0.46305138746E+03 -0.21242417118E+03  0.10014373231E+03  0.51920226882E+03  0.12699999809E+01 0. -1.
</event>
<event>
 5   0  0.1552067E-03  0.1431733E+04  0.7818609E-02  0.8931163E-01
        2   -1    0    0  501    0  0.00000000000E+00  0.00000000000E+00  0.71575353872E+03  0.71575353872E+03  0.25500000920E-02 0. -1.
       -2   -1    0    0    0  501  0.00000000000E+00  0.00000000000E+00 -0.71597979009E+03  0.71597979009E+03  0.25500000920E-02 0.  1.
    10030    2    1    2    0    0  0.00000000000E+00  0.00000000000E+00 -0.22625137064E+00  0.14317333288E+04  0.14317333109E+04 0.  0.
        3    1    3    3  502    0  0.45808989161E+03 -0.12000391659E+03 -0.53697230332E+03  0.71595150222E+03  0.10100000352E+00 0.  1.
       -3    1    3    3    0  502 -0.45808989161E+03  0.12000391659E+03  0.53674605195E+03  0.71578182659E+03  0.10100000352E+00 0. -1.
</event>
<event>
 5   0  0.8058234E-04  0.1495627E+04  0.7818609E-02  0.8887366E-01
       -1   -1    0    0    0  501  0.00000000000E+00  0.00000000000E+00  0.45207649418E+03  0.45207649421E+03  0.50400001928E-02 0. -1.
        1   -1    0    0  501    0  0.00000000000E+00  0.00000000000E+00 -0.12370148679E+04  0.12370148679E+04  0.50400001928E-02 0.  1.
    10030    2    1    2    0    0  0.00000000000E+00  0.00000000000E+00 -0.78493837371E+03  0.16890913621E+04  0.14956274198E+04 0.  0.
        5    1    3    3  502    0 -0.71352008193E+03  0.17273990745E+03 -0.23174645043E+03  0.76985614905E+03  0.46999998093E+01 0.  1.
       -5    1    3    3    0  502  0.71352008193E+03 -0.17273990745E+03 -0.55319192328E+03  0.91923521305E+03  0.46999998093E+01 0. -1.
</event>
<event>
 5   0  0.1511546E-03  0.1508948E+04  0.7818609E-02  0.8878524E-01
       -2   -1    0    0    0  501  0.00000000000E+00  0.00000000000E+00  0.98919468810E+03  0.98919468810E+03  0.25500000920E-02 0.  1.
        2   -1    0    0  501    0  0.00000000000E+00  0.00000000000E+00 -0.57544880929E+03  0.57544880930E+03  0.25500000920E-02 0. -1.
    10030    2    1    2    0    0  0.00000000000E+00  0.00000000000E+00  0.41374587881E+03  0.15646434974E+04  0.15089478526E+04 0.  0.
        1    1    3    3  502    0  0.58601444226E+02 -0.56453468549E+03  0.72230950587E+03  0.91862101145E+03  0.50400001928E-02 0.  1.
       -1    1    3    3    0  502 -0.58601444226E+02  0.56453468549E+03 -0.30856362707E+03  0.64602248595E+03  0.50400001928E-02 0. -1.
</event>
<event>
 5   0  0.8365016E-04  0.1515310E+04  0.7818609E-02  0.8874336E-01
        1   -1    0    0  501    0  0.00000000000E+00  0.00000000000E+00  0.83137416967E+03  0.83137416968E+03  0.50400001928E-02 0. -1.
       -1   -1    0    0    0  501  0.00000000000E+00  0.00000000000E+00 -0.69047235199E+03  0.69047235201E+03  0.50400001928E-02 0.  1.
    10030    2    1    2    0    0  0.00000000000E+00  0.00000000000E+00  0.14090181768E+03  0.15218465217E+04  0.15153097087E+04 0.  0.
        3    1    3    3  502    0 -0.52315280400E+03  0.22789586009E+03  0.57101395580E+03  0.80726843572E+03  0.10100000352E+00 0. -1.
       -3    1    3    3    0  502  0.52315280400E+03 -0.22789586009E+03 -0.43011213812E+03  0.71457808597E+03  0.10100000352E+00 0.  1.
</event>
<event>
 5   0  0.1500956E-03  0.1511396E+04  0.7818609E-02  0.8876910E-01
        2   -1    0    0  501    0  0.00000000000E+00  0.00000000000E+00  0.94825953375E+03  0.94825953376E+03  0.25500000920E-02 0. -1.
       -2   -1    0    0    0  501  0.00000000000E+00  0.00000000000E+00 -0.60223976497E+03  0.60223976497E+03  0.25500000920E-02 0.  1.
    10030    2    1    2    0    0  0.00000000000E+00  0.00000000000E+00  0.34601976879E+03  0.15504992987E+04  0.15113961741E+04 0.  0.
        4    1    3    3  502    0 -0.66397209573E+03 -0.24251749677E+03 -0.10111941489E+03  0.71407312589E+03  0.12699999809E+01 0. -1.
       -4    1    3    3    0  502  0.66397209573E+03  0.24251749677E+03  0.44713918367E+03  0.83642617285E+03  0.12699999809E+01 0.  1.
</event>
<event>
 5   0  0.1500956E-03  0.1486251E+04  0.7818609E-02  0.8893647E-01
        2   -1    0    0  501    0  0.00000000000E+00  0.00000000000E+00  0.61470887564E+03  0.61470887564E+03  0.25500000920E-02 0. -1.
       -2   -1    0    0    0  501  0.00000000000E+00  0.00000000000E+00 -0.89836956464E+03  0.89836956465E+03  0.25500000920E-02 0.  1.
    10030    2    1    2    0    0  0.00000000000E+00  0.00000000000E+00 -0.28366068901E+03  0.15130784403E+04  0.14862513179E+04 0.  0.
        4    1    3    3  502    0 -0.17548255073E+03 -0.64508904760E+03  0.18852675025E+03  0.69460632981E+03  0.12699999809E+01 0. -1.
       -4    1    3    3    0  502  0.17548255073E+03  0.64508904760E+03 -0.47218743925E+03  0.81847211048E+03  0.12699999809E+01 0.  1.
</event>
<event>
 5   0  0.5603875E-04  0.1479592E+04  0.7818609E-02  0.8898139E-01
        3   -1    0    0  501    0  0.00000000000E+00  0.00000000000E+00  0.48706416853E+03  0.48706417900E+03  0.10100000352E+00 0.  1.
       -3   -1    0    0    0  501  0.00000000000E+00  0.00000000000E+00 -0.11236674143E+04  0.11236674188E+04  0.10100000352E+00 0. -1.
    10030    2    1    2    0    0  0.00000000000E+00  0.00000000000E+00 -0.63660324578E+03  0.16107315979E+04  0.14795920342E+04 0.  0.
        3    1    3    3  502    0 -0.50114917902E+03 -0.42811728768E+03  0.47425712606E+02  0.66082079270E+03  0.10100000352E+00 0.  1.
       -3    1    3    3    0  502  0.50114917902E+03  0.42811728768E+03 -0.68402895838E+03  0.94991080516E+03  0.10100000352E+00 0. -1.
</event>
<event>
 5   0  0.1500956E-03  0.1517860E+04  0.7818609E-02  0.8872662E-01
       -2   -1    0    0    0  501  0.00000000000E+00  0.00000000000E+00  0.53549769686E+03  0.53549769687E+03  0.25500000920E-02 0. -1.
        2   -1    0    0  501    0  0.00000000000E+00  0.00000000000E+00 -0.10755873909E+04  0.10755873909E+04  0.25500000920E-02 0.  1.
    10030    2    1    2    0    0  0.00000000000E+00  0.00000000000E+00 -0.54008969404E+03  0.16110850878E+04  0.15178597703E+04 0.  0.
        4    1    3    3  502    0 -0.35709611977E+03  0.20658169686E+03  0.40608760822E+03  0.57888029392E+03  0.12699999809E+01 0. -1.
       -4    1    3    3    0  502  0.35709611977E+03 -0.20658169686E+03 -0.94617730226E+03  0.10322047939E+04  0.12699999809E+01 0.  1.
</event>
<event>
 5   0  0.1511546E-03  0.1512520E+04  0.7818609E-02  0.8876170E-01
        2   -1    0    0  501    0  0.00000000000E+00  0.00000000000E+00  0.10334164894E+04  0.10334164894E+04  0.25500000920E-02 0.  1.
       -2   -1    0    0    0  501  0.00000000000E+00  0.00000000000E+00 -0.55343541285E+03  0.55343541285E+03  0.25500000920E-02 0. -1.
    10030    2    1    2    0    0  0.00000000000E+00  0.00000000000E+00  0.47998107658E+03  0.15868519023E+04  0.15125201241E+04 0.  0.
        1    1    3    3  502    0 -0.58112191574E+02 -0.63660826300E+03 -0.18394968318E+03  0.66519515429E+03  0.50400001928E-02 0. -1.
       -1    1    3    3    0  502  0.58112191574E+02  0.63660826300E+03  0.66393075977E+03  0.92165674799E+03  0.50400001928E-02 0.  1.
</event>
<event>
 5   0  0.8306301E-04  0.1713984E+04  0.7818609E-02  0.8753429E-01
       -1   -1    0    0    0  501  0.00000000000E+00  0.00000000000E+00  0.18329171931E+04  0.18329171931E+04  0.50400001928E-02 0.  1.
        1   -1    0    0  501    0  0.00000000000E+00  0.00000000000E+00 -0.40069190658E+03  0.40069190662E+03  0.50400001928E-02 0. -1.
    10030    2    1    2    0    0  0.00000000000E+00  0.00000000000E+00  0.14322252865E+04  0.22336090997E+04  0.17139837628E+04 0.  0.
        4    1    3    3  502    0  0.47615415108E+03 -0.53721511835E+03  0.10610935835E+03  0.72566084902E+03  0.12699999809E+01 0. -1.
       -4    1    3    3    0  502 -0.47615415108E+03  0.53721511835E+03  0.13261159282E+04  0.15079482507E+04  0.12699999809E+01 0.  1.
</event>
<event>
 5   0  0.5603875E-04  0.1344467E+04  0.7818609E-02  0.8995027E-01
       -3   -1    0    0    0  501  0.00000000000E+00  0.00000000000E+00  0.65139135963E+03  0.65139136746E+03  0.10100000352E+00 0. -1.
        3   -1    0    0  501    0  0.00000000000E+00  0.00000000000E+00 -0.69374203435E+03  0.69374204170E+03  0.10100000352E+00 0.  1.
    10030    2    1    2    0    0  0.00000000000E+00  0.00000000000E+00 -0.42350674720E+02  0.13451334092E+04  0.13444665518E+04 0.  0.
        5    1    3    3  502    0 -0.21835713395E+03 -0.43205747127E+03  0.44544852267E+03  0.65787534744E+03  0.46999998093E+01 0. -1.
       -5    1    3    3    0  502  0.21835713395E+03  0.43205747127E+03 -0.48779919739E+03  0.68725806172E+03  0.46999998093E+01 0.  1.
</event>
<event>
 5   0  0.8058234E-04  0.1500136E+04  0.7818609E-02  0.8884362E-01
        1   -1    0    0  501    0  0.00000000000E+00  0.00000000000E+00  0.76460483073E+03  0.76460483074E+03  0.50400001928E-02 0. -1.
       -1   -1    0    0    0  501  0.00000000000E+00  0.00000000000E+00 -0.73580797669E+03  0.73580797671E+03  0.50400001928E-02 0.  1.
    10030    2    1    2    0    0  0.00000000000E+00  0.00000000000E+00  0.28796854039E+02  0.15004128075E+04  0.15001364384E+04 0.  0.
        5    1    3    3  502    0 -0.21416383844E+03 -0.69796155468E+03 -0.15757440808E+03  0.74690579432E+03  0.46999998093E+01 0. -1.
       -5    1    3    3    0  502  0.21416383844E+03  0.69796155468E+03  0.18637126212E+03  0.75350701314E+03  0.46999998093E+01 0.  1.
</event>
<event>
 5   0  0.1500956E-03  0.1537016E+04  0.7818609E-02  0.8860204E-01
       -2   -1    0    0    0  501  0.00000000000E+00  0.00000000000E+00  0.15541875588E+04  0.15541875588E+04  0.25500000920E-02 0.  1.
        2   -1    0    0  501    0  0.00000000000E+00  0.00000000000E+00 -0.38000830489E+03  0.38000830490E+03  0.25500000920E-02 0. -1.
    10030    2    1    2    0    0  0.00000000000E+00  0.00000000000E+00  0.11741792539E+04  0.19341958637E+04  0.15370155233E+04 0.  0.
        4    1    3    3  502    0  0.40532430520E+03  0.63206281986E+03  0.79314392057E+03  0.10921859239E+04  0.12699999809E+01 0.  1.
       -4    1    3    3    0  502 -0.40532430520E+03 -0.63206281986E+03  0.38103533334E+03  0.84200993984E+03  0.12699999809E+01 0. -1.
</event>
<event>
 5   0  0.1511546E-03  0.1508520E+04  0.7818609E-02  0.8878807E-01
        2   -1    0    0  501    0  0.00000000000E+00  0.00000000000E+00  0.15713589768E+04  0.15713589768E+04  0.25500000920E-02 0.  1.
       -2   -1    0    0    0  501  0.00000000000E+00  0.00000000000E+00 -0.36204826257E+03  0.36204826258E+03  0.25500000920E-02 0. -1.
    10030    2    1    2    0    0  0.00000000000E+00  0.00000000000E+00  0.12093107142E+04  0.19334072393E+04  0.15085195225E+04 0.  0.
        1    1    3    3  502    0  0.16228923953E+03 -0.64071821678E+03  0.10703935632E+04  0.12580143126E+04  0.50400001928E-02 0.  1.
       -1    1    3    3    0  502 -0.16228923953E+03  0.64071821678E+03  0.13891715096E+03  0.67539292670E+03  0.50400001928E-02 0. -1.
</event>
<event>
 5   0  0.1526126E-03  0.1349966E+04  0.7818609E-02  0.8990854E-01
       -2   -1    0    0    0  501  0.00000000000E+00  0.00000000000E+00  0.52341109205E+03  0.52341109206E+03  0.25500000920E-02 0. -1.
        2   -1    0    0  501    0  0.00000000000E+00  0.00000000000E+00 -0.87044780944E+03  0.87044780944E+03  0.25500000920E-02 0.  1.
    10030    2    1    2    0    0  0.00000000000E+00  0.00000000000E+00 -0.34703671738E+03  0.13938589015E+04  0.13499659826E+04 0.  0.
        2    1    3    3  502    0  0.12364413684E+03 -0.36905116203E+02  0.51055801663E+03  0.52661119294E+03  0.25500000920E-02 0. -1.
       -2    1    3    3    0  502 -0.12364413684E+03  0.36905116203E+02 -0.85759473402E+03  0.86724770856E+03  0.25500000920E-02 0.  1.
</event>
<event>
 5   0  0.1484056E-03  0.1497199E+04  0.7818609E-02  0.8886318E-01
       -2   -1    0    0    0  501  0.00000000000E+00  0.00000000000E+00  0.26480003674E+03  0.26480003675E+03  0.25500000920E-02 0. -1.
        2   -1    0    0  501    0  0.00000000000E+00  0.00000000000E+00 -0.21163175194E+04  0.21163175194E+04  0.25500000920E-02 0.  1.
    10030    2    1    2    0    0  0.00000000000E+00  0.00000000000E+00 -0.18515174826E+04  0.23811175561E+04  0.14971986600E+04 0.  0.
        5    1    3    3  502    0  0.41154536907E+03 -0.33928437220E+03 -0.17611186530E+04  0.18401207776E+04  0.46999998093E+01 0.  1.
       -5    1    3    3    0  502 -0.41154536907E+03  0.33928437220E+03 -0.90398829621E+02  0.54099677856E+03  0.46999998093E+01 0. -1.
</event>
<event>
 5   0  0.1526126E-03  0.1434137E+04  0.7818609E-02  0.8929472E-01
       -2   -1    0    0    0  501  0.00000000000E+00  0.00000000000E+00  0.47521989078E+03  0.47521989079E+03  0.25500000920E-02 0.  1.
        2   -1    0    0  501    0  0.00000000000E+00  0.00000000000E+00 -0.10819992644E+04  0.10819992644E+04  0.25500000920E-02 0. -1.
    10030    2    1    2    0    0  0.00000000000E+00  0.00000000000E+00 -0.60677937363E+03  0.15572191552E+04  0.14341374722E+04 0.  0.
        2    1    3    3  502    0  0.25466458304E+03 -0.49937200655E+03 -0.78893720174E+03  0.96780595114E+03  0.25500000920E-02 0. -1.
       -2    1    3    3    0  502 -0.25466458304E+03  0.49937200655E+03  0.18215782811E+03  0.58941320406E+03  0.25500000920E-02 0.  1.
</event>
<event>
 5   0  0.8365016E-04  0.1496173E+04  0.7818609E-02  0.8887002E-01
        1   -1    0    0  501    0  0.00000000000E+00  0.00000000000E+00  0.13269723619E+04  0.13269723619E+04  0.50400001928E-02 0.  1.
       -1   -1    0    0    0  501  0.00000000000E+00  0.00000000000E+00 -0.42173706654E+03  0.42173706657E+03  0.50400001928E-02 0. -1.
    10030    2    1    2    0    0  0.00000000000E+00  0.00000000000E+00  0.90523529535E+03  0.17487094285E+04  0.14961730265E+04 0.  0.
        3    1    3    3  502    0  0.31273254385E+03 -0.41921181891E+03  0.10777753981E+04  0.11979732935E+04  0.10100000352E+00 0.  1.
       -3    1    3    3    0  502 -0.31273254385E+03  0.41921181891E+03 -0.17254010272E+03  0.55073613495E+03  0.10100000352E+00 0. -1.
</event>
<event>
 5   0  0.1511546E-03  0.1509393E+04  0.7818609E-02  0.8878231E-01
       -2   -1    0    0    0  501  0.00000000000E+00  0.00000000000E+00  0.31432665232E+03  0.31432665234E+03  0.25500000920E-02 0.  1.
        2   -1    0    0  501    0  0.00000000000E+00  0.00000000000E+00 -0.18120220738E+04  0.18120220738E+04  0.25500000920E-02 0. -1.
    10030    2    1    2    0    0  0.00000000000E+00  0.00000000000E+00 -0.14976954215E+04  0.21263487262E+04  0.15093930335E+04 0.  0.
        1    1    3    3  502    0 -0.72162420517E+02 -0.13400763969E+03 -0.17901768946E+04  0.17966354044E+04  0.50400001928E-02 0. -1.
       -1    1    3    3    0  502  0.72162420517E+02  0.13400763969E+03  0.29248147308E+03  0.32971332176E+03  0.50400001928E-02 0.  1.
</event>
<event>
 5   0  0.8191876E-04  0.1581706E+04  0.7818609E-02  0.8831866E-01
       -1   -1    0    0    0  501  0.00000000000E+00  0.00000000000E+00  0.41715340891E+03  0.41715340894E+03  0.50400001928E-02 0.  1.
        1   -1    0    0  501    0  0.00000000000E+00  0.00000000000E+00 -0.14993254201E+04  0.14993254201E+04  0.50400001928E-02 0. -1.
    10030    2    1    2    0    0  0.00000000000E+00  0.00000000000E+00 -0.10821720112E+04  0.19164788290E+04  0.15817063066E+04 0.  0.
        2    1    3    3  502    0 -0.25285889472E+02  0.33314941251E+03  0.32744238936E+03  0.46781024531E+03  0.25500000920E-02 0.  1.
       -2    1    3    3    0  502  0.25285889472E+02 -0.33314941251E+03 -0.14096144005E+04  0.14486685837E+04  0.25500000920E-02 0. -1.
</event>
<event>
 5   0  0.8306301E-04  0.1544472E+04  0.7818609E-02  0.8855406E-01
       -1   -1    0    0    0  501  0.00000000000E+00  0.00000000000E+00  0.85144103201E+03  0.85144103203E+03  0.50400001928E-02 0. -1.
        1   -1    0    0  501    0  0.00000000000E+00  0.00000000000E+00 -0.70039925164E+03  0.70039925166E+03  0.50400001928E-02 0.  1.
    10030    2    1    2    0    0  0.00000000000E+00  0.00000000000E+00  0.15104178037E+03  0.15518402837E+04  0.15444722874E+04 0.  0.
        4    1    3    3  502    0 -0.52054195422E+03  0.56941231872E+03  0.10963479577E+03  0.77924047390E+03  0.12699999809E+01 0.  1.
       -4    1    3    3    0  502  0.52054195422E+03 -0.56941231872E+03  0.41406984599E+02  0.77259980979E+03  0.12699999809E+01 0. -1.
</event>
<event>
 5   0  0.1552067E-03  0.1504304E+04  0.7818609E-02  0.8881596E-01
        2   -1    0    0  501    0  0.00000000000E+00  0.00000000000E+00  0.15011729895E+04  0.15011729895E+04  0.25500000920E-02 0. -1.
       -2   -1    0    0    0  501  0.00000000000E+00  0.00000000000E+00 -0.37686043476E+03  0.37686043477E+03  0.25500000920E-02 0.  1.
    10030    2    1    2    0    0  0.00000000000E+00  0.00000000000E+00  0.11243125548E+04  0.18780334243E+04  0.15043040989E+04 0.  0.
        3    1    3    3  502    0  0.28011783317E+03  0.50195165665E+03 -0.43448098741E+02  0.57646267317E+03  0.10100000352E+00 0.  1.
       -3    1    3    3    0  502 -0.28011783317E+03 -0.50195165665E+03  0.11677606535E+04  0.13015707511E+04  0.10100000352E+00 0. -1.
</event>
<event>
 5   0  0.1484056E-03  0.1491737E+04  0.7818609E-02  0.8889967E-01
        2   -1    0    0  501    0  0.00000000000E+00  0.00000000000E+00  0.25966836722E+04  0.25966836722E+04  0.25500000920E-02 0.  1.
       -2   -1    0    0    0  501  0.00000000000E+00  0.00000000000E+00 -0.21424231449E+03  0.21424231450E+03  0.25500000920E-02 0. -1.
    10030    2    1    2    0    0  0.00000000000E+00  0.00000000000E+00  0.23824413577E+04  0.28109259867E+04  0.14917365987E+04 0.  0.
        5    1    3    3  502    0 -0.15513935005E+03 -0.39017505162E+03  0.29652091712E+02  0.42095857917E+03  0.46999998093E+01 0. -1.
       -5    1    3    3    0  502  0.15513935005E+03  0.39017505162E+03  0.23527892660E+04  0.23899674075E+04  0.46999998093E+01 0.  1.
</event>
<event>
 5   0  0.5603875E-04  0.1448623E+04  0.7818609E-02  0.8919356E-01
        3   -1    0    0  501    0  0.00000000000E+00  0.00000000000E+00  0.77170400181E+03  0.77170400841E+03  0.10100000352E+00 0. -1.
       -3   -1    0    0    0  501  0.00000000000E+00  0.00000000000E+00 -0.67982924446E+03  0.67982925196E+03  0.10100000352E+00 0.  1.
    10030    2    1    2    0    0  0.00000000000E+00  0.00000000000E+00  0.91874757345E+02  0.14515332604E+04  0.14486227373E+04 0.  0.
        3    1    3    3  502    0  0.33933137825E+03  0.63217608651E+03 -0.53431218644E+02  0.71947709759E+03  0.10100000352E+00 0. -1.
       -3    1    3    3    0  502 -0.33933137825E+03 -0.63217608651E+03  0.14530597599E+03  0.73205616279E+03  0.10100000352E+00 0.  1.
</event>
<event>
 5   0  0.1484056E-03  0.1030639E+04  0.7818609E-02  0.9275564E-01
       -2   -1    0    0    0  501  0.00000000000E+00  0.00000000000E+00  0.23853733546E+03  0.23853733547E+03  0.25500000920E-02 0. -1.
        2   -1    0    0  501    0  0.00000000000E+00  0.00000000000E+00 -0.11132611667E+04  0.11132611667E+04  0.25500000920E-02 0.  1.
    10030    2    1    2    0    0  0.00000000000E+00  0.00000000000E+00 -0.87472383119E+03  0.13517985021E+04  0.10306393208E+04 0.  0.
        5    1    3    3  502    0 -0.51075531874E+03  0.37467289241E+02 -0.51222115300E+03  0.72433928028E+03  0.46999998093E+01 0.  1.
       -5    1    3    3    0  502  0.51075531874E+03 -0.37467289241E+02 -0.36250267820E+03  0.62745922185E+03  0.46999998093E+01 0. -1.
</event>
<event>
 5   0  0.1511546E-03  0.1320085E+04  0.7818609E-02  0.9013788E-01
        2   -1    0    0  501    0  0.00000000000E+00  0.00000000000E+00  0.65375281436E+03  0.65375281436E+03  0.25500000920E-02 0. -1.
       -2   -1    0    0    0  501  0.00000000000E+00  0.00000000000E+00 -0.66639250149E+03  0.66639250149E+03  0.25500000920E-02 0.  1.
    10030    2    1    2    0    0  0.00000000000E+00  0.00000000000E+00 -0.12639687133E+02  0.13201453159E+04  0.13200848053E+04 0.  0.
        1    1    3    3  502    0  0.52818994600E+03  0.10274470124E+03 -0.38858712734E+03  0.66373266324E+03  0.50400001928E-02 0.  1.
       -1    1    3    3    0  502 -0.52818994600E+03 -0.10274470124E+03  0.37594744021E+03  0.65641265262E+03  0.50400001928E-02 0. -1.
</event>
<event>
 5   0  0.8306301E-04  0.1396595E+04  0.7818609E-02  0.8956287E-01
       -1   -1    0    0    0  501  0.00000000000E+00  0.00000000000E+00  0.94324605738E+03  0.94324605739E+03  0.50400001928E-02 0. -1.
        1   -1    0    0  501    0  0.00000000000E+00  0.00000000000E+00 -0.51695904723E+03  0.51695904725E+03  0.50400001928E-02 0.  1.
    10030    2    1    2    0    0  0.00000000000E+00  0.00000000000E+00  0.42628701015E+03  0.14602051046E+04  0.13965952644E+04 0.  0.
        4    1    3    3  502    0 -0.65169930698E+03  0.20974700816E+03  0.69358350443E+02  0.68812643302E+03  0.12699999809E+01 0.  1.
       -4    1    3    3    0  502  0.65169930698E+03 -0.20974700816E+03  0.35692865971E+03  0.77207867162E+03  0.12699999809E+01 0. -1.
</event>
<event>
 5   0  0.5603875E-04  0.1472054E+04  0.7818609E-02  0.8903252E-01
       -3   -1    0    0    0  501  0.00000000000E+00  0.00000000000E+00  0.15526115045E+04  0.15526115078E+04  0.10100000352E+00 0.  1.
        3   -1    0    0  501    0  0.00000000000E+00  0.00000000000E+00 -0.34891910824E+03  0.34891912286E+03  0.10100000352E+00 0. -1.
    10030    2    1    2    0    0  0.00000000000E+00  0.00000000000E+00  0.12036923963E+04  0.19015306307E+04  0.14720541276E+04 0.  0.
        2    1    3    3  502    0  0.13763806003E+03 -0.12266646636E+03  0.15223003853E+04  0.15334241946E+04  0.25500000920E-02 0.  1.
       -2    1    3    3    0  502 -0.13763806003E+03  0.12266646636E+03 -0.31860798906E+03  0.36810643601E+03  0.25500000920E-02 0. -1.
</event>
<event>
 5   0  0.1484056E-03  0.1494357E+04  0.7818609E-02  0.8888214E-01
        2   -1    0    0  501    0  0.00000000000E+00  0.00000000000E+00  0.19804484997E+04  0.19804484997E+04  0.25500000920E-02 0.  1.
       -2   -1    0    0    0  501  0.00000000000E+00  0.00000000000E+00 -0.28189348366E+03  0.28189348367E+03  0.25500000920E-02 0. -1.
    10030    2    1    2    0    0  0.00000000000E+00  0.00000000000E+00  0.16985550161E+04  0.22623419834E+04  0.14943567537E+04 0.  0.
        5    1    3    3  502    0 -0.18251989929E+03 -0.65419621468E+03  0.13207067008E+04  0.14851176655E+04  0.46999998093E+01 0. -1.
       -5    1    3    3    0  502  0.18251989929E+03  0.65419621468E+03  0.37784831527E+03  0.77722431787E+03  0.46999998093E+01 0.  1.
</event>
<event>
 5   0  0.1526126E-03  0.1512108E+04  0.7818609E-02  0.8876441E-01
        2   -1    0    0  501    0  0.00000000000E+00  0.00000000000E+00  0.17369199375E+04  0.17369199375E+04  0.25500000920E-02 0. -1.
       -2   -1    0    0    0  501  0.00000000000E+00  0.00000000000E+00 -0.32909828414E+03  0.32909828415E+03  0.25500000920E-02 0.  1.
    10030    2    1    2    0    0  0.00000000000E+00  0.00000000000E+00  0.14078216533E+04  0.20660182216E+04  0.15121076299E+04 0.  0.
        2    1    3    3  502    0 -0.23610690164E+03 -0.16434990270E+03  0.16592194534E+04  0.16839734423E+04  0.25500000920E-02 0. -1.
       -2    1    3    3    0  502  0.23610690164E+03  0.16434990270E+03 -0.25139780012E+03  0.38204477935E+03  0.25500000920E-02 0.  1.
</event>
<event>
 5   0  0.1552067E-03  0.1502173E+04  0.7818609E-02  0.8883009E-01
       -2   -1    0    0    0  501  0.00000000000E+00  0.00000000000E+00  0.49171127013E+03  0.49171127014E+03  0.25500000920E-02 0.  1.
        2   -1    0    0  501    0  0.00000000000E+00  0.00000000000E+00 -0.11472815074E+04  0.11472815074E+04  0.25500000920E-02 0. -1.
    10030    2    1    2    0    0  0.00000000000E+00  0.00000000000E+00 -0.65557023729E+03  0.16389927776E+04  0.15021734217E+04 0.  0.
        3    1    3    3  502    0 -0.55114753619E+03  0.47505126086E+03 -0.12455703842E+03  0.73820848892E+03  0.10100000352E+00 0. -1.
       -3    1    3    3    0  502  0.55114753619E+03 -0.47505126086E+03 -0.53101319887E+03  0.90078428865E+03  0.10100000352E+00 0.  1.
</event>
<event>
 5   0  0.7870317E-04  0.1518207E+04  0.7818609E-02  0.8872435E-01
       -1   -1    0    0    0  501  0.00000000000E+00  0.00000000000E+00  0.87128044280E+03  0.87128044281E+03  0.50400001928E-02 0.  1.
        1   -1    0    0  501    0  0.00000000000E+00  0.00000000000E+00 -0.66136926716E+03  0.66136926717E+03  0.50400001928E-02 0. -1.
    10030    2    1    2    0    0  0.00000000000E+00  0.00000000000E+00  0.20991117564E+03  0.15326497100E+04  0.15182069793E+04 0.  0.
        1    1    3    3  502    0 -0.28122590336E+03  0.62584215234E+03 -0.22289796624E+03  0.72142214531E+03  0.50400001928E-02 0. -1.
       -1    1    3    3    0  502  0.28122590336E+03 -0.62584215234E+03  0.43280914189E+03  0.81122756467E+03  0.50400001928E-02 0.  1.
</event>
<event>
 5   0  0.1552067E-03  0.1288086E+04  0.7818609E-02  0.9039067E-01
       -2   -1    0    0    0  501  0.00000000000E+00  0.00000000000E+00  0.27454984913E+03  0.27454984915E+03  0.25500000920E-02 0. -1.
        2   -1    0    0  501    0  0.00000000000E+00  0.00000000000E+00 -0.15108049016E+04  0.15108049016E+04  0.25500000920E-02 0.  1.
    10030    2    1    2    0    0  0.00000000000E+00  0.00000000000E+00 -0.12362550524E+04  0.17853547507E+04  0.12880858012E+04 0.  0.
        3    1    3    3  502    0  0.19612799885E+03  0.36498921767E+03 -0.13015343176E+04  0.13658971085E+04  0.10100000352E+00 0.  1.
       -3    1    3    3    0  502 -0.19612799885E+03 -0.36498921767E+03  0.65279265164E+02  0.41945764221E+03  0.10100000352E+00 0. -1.
</event>
<event>
 5   0  0.1484056E-03  0.1449070E+04  0.7818609E-02  0.8919046E-01
        2   -1    0    0  501    0  0.00000000000E+00  0.00000000000E+00  0.84722843117E+03  0.84722843118E+03  0.25500000920E-02 0. -1.
       -2   -1    0    0    0  501  0.00000000000E+00  0.00000000000E+00 -0.61960946386E+03  0.61960946386E+03  0.25500000920E-02 0.  1.
    10030    2    1    2    0    0  0.00000000000E+00  0.00000000000E+00  0.22761896731E+03  0.14668378950E+04  0.14490697071E+04 0.  0.
        5    1    3    3  502    0 -0.41767476394E+03 -0.25443142854E+01  0.71307357746E+03  0.82641073253E+03  0.46999998093E+01 0. -1.
       -5    1    3    3    0  502  0.41767476394E+03  0.25443142854E+01 -0.48545461015E+03  0.64042716251E+03  0.46999998093E+01 0.  1.
</event>
<event>
 5   0  0.7870317E-04  0.1520262E+04  0.7818609E-02  0.8871089E-01
       -1   -1    0    0    0  501  0.00000000000E+00  0.00000000000E+00  0.44112142196E+03  0.44112142199E+03  0.50400001928E-02 0. -1.
        1   -1    0    0  501    0  0.00000000000E+00  0.00000000000E+00 -0.13098418885E+04  0.13098418885E+04  0.50400001928E-02 0.  1.
    10030    2    1    2    0    0  0.00000000000E+00  0.00000000000E+00 -0.86872046650E+03  0.17509633105E+04  0.15202622358E+04 0.  0.
        1    1    3    3  502    0 -0.24553237558E+03  0.50615409099E+03  0.15441002658E+03  0.58337000919E+03  0.50400001928E-02 0. -1.
       -1    1    3    3    0  502  0.24553237558E+03 -0.50615409099E+03 -0.10231304931E+04  0.11675933013E+04  0.50400001928E-02 0.  1.
</event>
<event>
 5   0  0.8191876E-04  0.1466264E+04  0.7818609E-02  0.8907202E-01
        1   -1    0    0  501    0  0.00000000000E+00  0.00000000000E+00  0.13458066373E+04  0.13458066373E+04  0.50400001928E-02 0.  1.
       -1   -1    0    0    0  501  0.00000000000E+00  0.00000000000E+00 -0.39937561120E+03  0.39937561123E+03  0.50400001928E-02 0. -1.
    10030    2    1    2    0    0  0.00000000000E+00  0.00000000000E+00  0.94643102612E+03  0.17451822486E+04  0.14662637530E+04 0.  0.
        2    1    3    3  502    0  0.60576914544E+03  0.40706408903E+03  0.55589041079E+03  0.91742660685E+03  0.25500000920E-02 0. -1.
       -2    1    3    3    0  502 -0.60576914544E+03 -0.40706408903E+03  0.39054061533E+03  0.82775564170E+03  0.25500000920E-02 0.  1.
</event>
<event>
 5   0  0.1500956E-03  0.1496840E+04  0.7818609E-02  0.8886557E-01
        2   -1    0    0  501    0  0.00000000000E+00  0.00000000000E+00  0.91557294880E+03  0.91557294881E+03  0.25500000920E-02 0.  1.
       -2   -1    0    0    0  501  0.00000000000E+00  0.00000000000E+00 -0.61178319320E+03  0.61178319320E+03  0.25500000920E-02 0. -1.
    10030    2    1    2    0    0  0.00000000000E+00  0.00000000000E+00  0.30378975561E+03  0.15273561420E+04  0.14968395268E+04 0.  0.
        4    1    3    3  502    0 -0.66760279837E+03 -0.11925560266E+03 -0.17112684482E+03  0.69942934245E+03  0.12699999809E+01 0. -1.
       -4    1    3    3    0  502  0.66760279837E+03  0.11925560266E+03  0.47491660043E+03  0.82792679956E+03  0.12699999809E+01 0.  1.
</event>
<event>
 5   0  0.1500956E-03  0.1508580E+04  0.7818609E-02  0.8878767E-01
       -2   -1    0    0    0  501  0.00000000000E+00  0.00000000000E+00  0.24903327155E+03  0.24903327156E+03  0.25500000920E-02 0. -1.
        2   -1    0    0  501    0  0.00000000000E+00  0.00000000000E+00 -0.22846479083E+04  0.22846479083E+04  0.25500000920E-02 0.  1.
    10030    2    1    2    0    0  0.00000000000E+00  0.00000000000E+00 -0.20356146368E+04  0.25336811799E+04  0.15085799189E+04 0.  0.
        4    1    3    3  502    0  0.27422356816E+02  0.42651901748E+03 -0.20616510067E+04  0.21054873413E+04  0.12699999809E+01 0.  1.
       -4    1    3    3    0  502 -0.27422356816E+02 -0.42651901748E+03  0.26036369968E+02  0.42819383857E+03  0.12699999809E+01 0. -1.
</event>
<event>
 5   0  0.1526126E-03  0.1520616E+04  0.7818609E-02  0.8870858E-01
        2   -1    0    0  501    0  0.00000000000E+00  0.00000000000E+00  0.18248777957E+04  0.18248777957E+04  0.25500000920E-02 0. -1.
       -2   -1    0    0    0  501  0.00000000000E+00  0.00000000000E+00 -0.31677079560E+03  0.31677079561E+03  0.25500000920E-02 0.  1.
    10030    2    1    2    0    0  0.00000000000E+00  0.00000000000E+00  0.15081070001E+04  0.21416485913E+04  0.15206156533E+04 0.  0.
        2    1    3    3  502    0 -0.25947341710E+03 -0.69745651395E+03  0.53452258810E+03  0.91623492633E+03  0.25500000920E-02 0.  1.
       -2    1    3    3    0  502  0.25947341710E+03  0.69745651395E+03  0.97358441198E+03  0.12254136650E+04  0.25500000920E-02 0. -1.
</event>
<event>
 5   0  0.1511546E-03  0.1449557E+04  0.7818609E-02  0.8918708E-01
        2   -1    0    0  501    0  0.00000000000E+00  0.00000000000E+00  0.17810020466E+04  0.17810020466E+04  0.25500000920E-02 0. -1.
       -2   -1    0    0    0  501  0.00000000000E+00  0.00000000000E+00 -0.29494857757E+03  0.29494857758E+03  0.25500000920E-02 0.  1.
    10030    2    1    2    0    0  0.00000000000E+00  0.00000000000E+00  0.14860534690E+04  0.20759506242E+04  0.14495572018E+04 0.  0.
        1    1    3    3  502    0 -0.18677751130E+03  0.22742199307E+01 -0.25988486196E+03  0.32004867178E+03  0.50400001928E-02 0.  1.
       -1    1    3    3    0  502  0.18677751130E+03 -0.22742199307E+01  0.17459383310E+04  0.17559019524E+04  0.50400001928E-02 0. -1.
</event>
<event>
 5   0  0.1500956E-03  0.1499981E+04  0.7818609E-02  0.8884466E-01
       -2   -1    0    0    0  501  0.00000000000E+00  0.00000000000E+00  0.10281042235E+04  0.10281042235E+04  0.25500000920E-02 0. -1.
        2   -1    0    0  501    0  0.00000000000E+00  0.00000000000E+00 -0.54710953708E+03  0.54710953709E+03  0.25500000920E-02 0.  1.
    10030    2    1    2    0    0  0.00000000000E+00  0.00000000000E+00  0.48099468643E+03  0.15752137606E+04  0.14999808343E+04 0.  0.
        4    1    3    3  502    0  0.84344176384E+02  0.14928239650E+03  0.10072441088E+04  0.10217345456E+04  0.12699999809E+01 0. -1.
       -4    1    3    3    0  502 -0.84344176384E+02 -0.14928239650E+03 -0.52624942239E+03  0.55347921502E+03  0.12699999809E+01 0.  1.
</event>
<event>
 5   0  0.1484056E-03  0.1522957E+04  0.7818609E-02  0.8869329E-01
        2   -1    0    0  501    0  0.00000000000E+00  0.00000000000E+00  0.14012519457E+04  0.14012519457E+04  0.25500000920E-02 0.  1.
       -2   -1    0    0    0  501  0.00000000000E+00  0.00000000000E+00 -0.41380824735E+03  0.41380824735E+03  0.25500000920E-02 0. -1.
    10030    2    1    2    0    0  0.00000000000E+00  0.00000000000E+00  0.98744369838E+03  0.18150601931E+04  0.15229571389E+04 0.  0.
        5    1    3    3  502    0  0.74976414093E+03 -0.12819672711E+03  0.45163841878E+03  0.88463552901E+03  0.46999998093E+01 0.  1.
       -5    1    3    3    0  502 -0.74976414093E+03  0.12819672711E+03  0.53580527960E+03  0.93042466407E+03  0.46999998093E+01 0. -1.
</event>
<event>
 5   0  0.8365016E-04  0.1501519E+04  0.7818609E-02  0.8883444E-01
        1   -1    0    0  501    0  0.00000000000E+00  0.00000000000E+00  0.18035854259E+04  0.18035854259E+04  0.50400001928E-02 0. -1.
       -1   -1    0    0    0  501  0.00000000000E+00  0.00000000000E+00 -0.31251070268E+03  0.31251070272E+03  0.50400001928E-02 0.  1.
    10030    2    1    2    0    0  0.00000000000E+00  0.00000000000E+00  0.14910747232E+04  0.21160961286E+04  0.15015188961E+04 0.  0.
        3    1    3    3  502    0 -0.84243575824E+02  0.74504816338E+03  0.69194688018E+03  0.10202863525E+04  0.10100000352E+00 0.  1.
       -3    1    3    3    0  502  0.84243575824E+02 -0.74504816338E+03  0.79912784302E+03  0.10958097761E+04  0.10100000352E+00 0. -1.
</event>
<event>
 5   0  0.8365016E-04  0.1538302E+04  0.7818609E-02  0.8859374E-01
        1   -1    0    0  501    0  0.00000000000E+00  0.00000000000E+00  0.14067608414E+04  0.14067608414E+04  0.50400001928E-02 0.  1.
       -1   -1    0    0    0  501  0.00000000000E+00  0.00000000000E+00 -0.42053586948E+03  0.42053586951E+03  0.50400001928E-02 0. -1.
    10030    2    1    2    0    0  0.00000000000E+00  0.00000000000E+00  0.98622497188E+03  0.18272967109E+04  0.15383021727E+04 0.  0.
        3    1    3    3  502    0 -0.38407135542E+01  0.51817740589E+03 -0.18206239765E+03  0.54924430074E+03  0.10100000352E+00 0. -1.
       -3    1    3    3    0  502  0.38407135542E+01 -0.51817740589E+03  0.11682873695E+04  0.12780524101E+04  0.10100000352E+00 0.  1.
</event>
<event>
 5   0  0.8306301E-04  0.1568986E+04  0.7818609E-02  0.8839831E-01
       -1   -1    0    0    0  501  0.00000000000E+00  0.00000000000E+00  0.10111371688E+04  0.10111371689E+04  0.50400001928E-02 0. -1.
        1   -1    0    0  501    0  0.00000000000E+00  0.00000000000E+00 -0.60865072789E+03  0.60865072791E+03  0.50400001928E-02 0.  1.
    10030    2    1    2    0    0  0.00000000000E+00  0.00000000000E+00  0.40248644095E+03  0.16197878968E+04  0.15689861361E+04 0.  0.
        4    1    3    3  502    0  0.71475470945E+02 -0.43767595066E+03 -0.46682529740E+03  0.64389164610E+03  0.12699999809E+01 0.  1.
       -4    1    3    3    0  502 -0.71475470945E+02  0.43767595066E+03  0.86931173835E+03  0.97589625067E+03  0.12699999809E+01 0. -1.
</event>
<event>
 5   0  0.7870317E-04  0.1514980E+04  0.7818609E-02  0.8874552E-01
        1   -1    0    0  501    0  0.00000000000E+00  0.00000000000E+00  0.16163922972E+04  0.16163922972E+04  0.50400001928E-02 0. -1.
       -1   -1    0    0    0  501  0.00000000000E+00  0.00000000000E+00 -0.35498239022E+03  0.35498239026E+03  0.50400001928E-02 0.  1.
    10030    2    1    2    0    0  0.00000000000E+00  0.00000000000E+00  0.12614099070E+04  0.19713746875E+04  0.15149796055E+04 0.  0.
        1    1    3    3  502    0  0.21214304623E+03  0.67443822783E+03  0.98449127366E+03  0.12120621532E+04  0.50400001928E-02 0. -1.
       -1    1    3    3    0  502 -0.21214304623E+03 -0.67443822783E+03  0.27691863332E+03  0.75931253429E+03  0.50400001928E-02 0.  1.
</event>
<event>
 5   0  0.1511546E-03  0.1499752E+04  0.7818609E-02  0.8884618E-01
       -2   -1    0    0    0  501  0.00000000000E+00  0.00000000000E+00  0.64983650610E+03  0.64983650610E+03  0.25500000920E-02 0.  1.
        2   -1    0    0  501    0  0.00000000000E+00  0.00000000000E+00 -0.86531668836E+03  0.86531668836E+03  0.25500000920E-02 0. -1.
    10030    2    1    2    0    0  0.00000000000E+00  0.00000000000E+00 -0.21548018226E+03  0.15151531945E+04  0.14997524775E+04 0.  0.
        1    1    3    3  502    0  0.47245166947E+03  0.27429570111E+03  0.41121335018E+03  0.68377271883E+03  0.50400001928E-02 0.  1.
       -1    1    3    3    0  502 -0.47245166947E+03 -0.27429570111E+03 -0.62669353244E+03  0.83138047563E+03  0.50400001928E-02 0. -1.
</event>
<event>
 5   0  0.1500956E-03  0.1491623E+04  0.7818609E-02  0.8890043E-01
        2   -1    0    0  501    0  0.00000000000E+00  0.00000000000E+00  0.13025287534E+04  0.13025287534E+04  0.25500000920E-02 0. -1.
       -2   -1    0    0    0  501  0.00000000000E+00  0.00000000000E+00 -0.42704215877E+03  0.42704215878E+03  0.25500000920E-02 0.  1.
    10030    2    1    2    0    0  0.00000000000E+00  0.00000000000E+00  0.87548659464E+03  0.17295709122E+04  0.14916228622E+04 0.  0.
        4    1    3    3  502    0 -0.30767282909E+03 -0.67163371481E+03  0.31904834758E+03  0.80470359613E+03  0.12699999809E+01 0. -1.
       -4    1    3    3    0  502  0.30767282909E+03  0.67163371481E+03  0.55643824706E+03  0.92486731607E+03  0.12699999809E+01 0.  1.
</event>
<event>
 5   0  0.1526126E-03  0.1943179E+04  0.7818609E-02  0.8633657E-01
       -2   -1    0    0    0  501  0.00000000000E+00  0.00000000000E+00  0.77936000270E+03  0.77936000271E+03  0.25500000920E-02 0.  1.
        2   -1    0    0  501    0  0.00000000000E+00  0.00000000000E+00 -0.12112331040E+04  0.12112331040E+04  0.25500000920E-02 0. -1.
    10030    2    1    2    0    0  0.00000000000E+00  0.00000000000E+00 -0.43187310129E+03  0.19905931067E+04  0.19431794927E+04 0.  0.
        2    1    3    3  502    0  0.69702422874E+02  0.35774913266E+03 -0.11385472666E+04  0.11954634030E+04  0.25500000920E-02 0. -1.
       -2    1    3    3    0  502 -0.69702422874E+02 -0.35774913266E+03  0.70667416534E+03  0.79512970366E+03  0.25500000920E-02 0.  1.
</event>
<event>
 5   0  0.8058234E-04  0.1462987E+04  0.7818609E-02  0.8909446E-01
       -1   -1    0    0    0  501  0.00000000000E+00  0.00000000000E+00  0.33453094354E+03  0.33453094358E+03  0.50400001928E-02 0.  1.
        1   -1    0    0  501    0  0.00000000000E+00  0.00000000000E+00 -0.15995019972E+04  0.15995019972E+04  0.50400001928E-02 0. -1.
    10030    2    1    2    0    0  0.00000000000E+00  0.00000000000E+00 -0.12649710536E+04  0.19340329407E+04  0.14629872349E+04 0.  0.
        5    1    3    3  502    0 -0.37628509163E+03 -0.60881444297E+03 -0.43280455981E+03  0.83641339847E+03  0.46999998093E+01 0.  1.
       -5    1    3    3    0  502  0.37628509163E+03  0.60881444297E+03 -0.83216649380E+03  0.10976195423E+04  0.46999998093E+01 0. -1.
</event>
<event>
 5   0  0.8365016E-04  0.1502761E+04  0.7818609E-02  0.8882619E-01
       -1   -1    0    0    0  501  0.00000000000E+00  0.00000000000E+00  0.46960644612E+03  0.46960644615E+03  0.50400001928E-02 0. -1.
        1   -1    0    0  501    0  0.00000000000E+00  0.00000000000E+00 -0.12022245481E+04  0.12022245481E+04  0.50400001928E-02 0.  1.
    10030    2    1    2    0    0  0.00000000000E+00  0.00000000000E+00 -0.73261810200E+03  0.16718309943E+04  0.15027606563E+04 0.  0.
        3    1    3    3  502    0  0.73291422905E+03  0.83025362547E+02 -0.52565753711E+03  0.90574407781E+03  0.10100000352E+00 0.  1.
       -3    1    3    3    0  502 -0.73291422905E+03 -0.83025362547E+02 -0.20696056489E+03  0.76608691647E+03  0.10100000352E+00 0. -1.
</event>
<event>
 5   0  0.1511546E-03  0.1304821E+04  0.7818609E-02  0.9025751E-01
        2   -1    0    0  501    0  0.00000000000E+00  0.00000000000E+00  0.14688313166E+04  0.14688313166E+04  0.25500000920E-02 0. -1.
       -2   -1    0    0    0  501  0.00000000000E+00  0.00000000000E+00 -0.28978090533E+03  0.28978090534E+03  0.25500000920E-02 0.  1.
    10030    2    1    2    0    0  0.00000000000E+00  0.00000000000E+00  0.11790504113E+04  0.17586122220E+04  0.13048207060E+04 0.  0.
        1    1    3    3  502    0  0.23363555589E+02  0.60051151077E+03  0.24728617782E+03  0.64985412522E+03  0.50400001928E-02 0. -1.
       -1    1    3    3    0  502 -0.23363555589E+02 -0.60051151077E+03  0.93176423348E+03  0.11087580968E+04  0.50400001928E-02 0.  1.
</event>
<event>
 5   0  0.8306301E-04  0.1425280E+04  0.7818609E-02  0.8935720E-01
       -1   -1    0    0    0  501  0.00000000000E+00  0.00000000000E+00  0.11872628494E+04  0.11872628494E+04  0.50400001928E-02 0. -1.
        1   -1    0    0  501    0  0.00000000000E+00  0.00000000000E+00 -0.42775340696E+03  0.42775340699E+03  0.50400001928E-02 0.  1.
    10030    2    1    2    0    0  0.00000000000E+00  0.00000000000E+00  0.75950944239E+03  0.16150162564E+04  0.14252799428E+04 0.  0.
        4    1    3    3  502    0  0.63282818612E+03 -0.31065183431E+03  0.26157252340E+03  0.75192943366E+03  0.12699999809E+01 0.  1.
       -4    1    3    3    0  502 -0.63282818612E+03  0.31065183431E+03  0.49793691900E+03  0.86308682270E+03  0.12699999809E+01 0. -1.
</event>
<event>
 5   0  0.8365016E-04  0.1010309E+04  0.7818609E-02  0.9297310E-01
       -1   -1    0    0    0  501  0.00000000000E+00  0.00000000000E+00  0.85958455129E+03  0.85958455130E+03  0.50400001928E-02 0. -1.
        1   -1    0    0  501    0  0.00000000000E+00  0.00000000000E+00 -0.29686558569E+03  0.29686558573E+03  0.50400001928E-02 0.  1.
    10030    2    1    2    0    0  0.00000000000E+00  0.00000000000E+00  0.56271896560E+03  0.11564501370E+04  0.10103090048E+04 0.  0.
        3    1    3    3  502    0 -0.75890983826E+02  0.24382166755E+03  0.78026486312E+03  0.82098825437E+03  0.10100000352E+00 0. -1.
       -3    1    3    3    0  502  0.75890983826E+02 -0.24382166755E+03 -0.21754589752E+03  0.33546188267E+03  0.10100000352E+00 0.  1.
</event>
<event>
 5   0  0.7870317E-04  0.1496491E+04  0.7818609E-02  0.8886789E-01
       -1   -1    0    0    0  501  0.00000000000E+00  0.00000000000E+00  0.57665211267E+03  0.57665211270E+03  0.50400001928E-02 0. -1.
        1   -1    0    0  501    0  0.00000000000E+00  0.00000000000E+00 -0.97090028344E+03  0.97090028345E+03  0.50400001928E-02 0.  1.
    10030    2    1    2    0    0  0.00000000000E+00  0.00000000000E+00 -0.39424817077E+03  0.15475523961E+04  0.14964914964E+04 0.  0.
        1    1    3    3  502    0 -0.19787832731E+03  0.31057281878E+03 -0.87070124599E+03  0.94537398313E+03  0.50400001928E-02 0.  1.
       -1    1    3    3    0  502  0.19787832731E+03 -0.31057281878E+03  0.47645307522E+03  0.60217841302E+03  0.50400001928E-02 0. -1.
</event>
<event>
 5   0  0.8058234E-04  0.1522420E+04  0.7818609E-02  0.8869679E-01
       -1   -1    0    0    0  501  0.00000000000E+00  0.00000000000E+00  0.46218453960E+03  0.46218453963E+03  0.50400001928E-02 0.  1.
        1   -1    0    0  501    0  0.00000000000E+00  0.00000000000E+00 -0.12536993706E+04  0.12536993706E+04  0.50400001928E-02 0. -1.
    10030    2    1    2    0    0  0.00000000000E+00  0.00000000000E+00 -0.79151483103E+03  0.17158839103E+04  0.15224197403E+04 0.  0.
        5    1    3    3  502    0 -0.89602462866E+02  0.74050427800E+03 -0.56684747986E+03  0.93686356665E+03  0.46999998093E+01 0.  1.
       -5    1    3    3    0  502  0.89602462866E+02 -0.74050427800E+03 -0.22466735116E+03  0.77902034361E+03  0.46999998093E+01 0. -1.
</event>
<event>
 5   0  0.8365016E-04  0.1876377E+04  0.7818609E-02  0.8666705E-01
       -1   -1    0    0    0  501  0.00000000000E+00  0.00000000000E+00  0.86531393575E+03  0.86531393576E+03  0.50400001928E-02 0.  1.
        1   -1    0    0  501    0  0.00000000000E+00  0.00000000000E+00 -0.10172006804E+04  0.10172006804E+04  0.50400001928E-02 0. -1.
    10030    2    1    2    0    0  0.00000000000E+00  0.00000000000E+00 -0.15188674464E+03  0.18825146162E+04  0.18763772800E+04 0.  0.
        3    1    3    3  502    0  0.10063421584E+03  0.40957694125E+02 -0.10108675308E+04  0.10166897035E+04  0.10100000352E+00 0. -1.
       -3    1    3    3    0  502 -0.10063421584E+03 -0.40957694125E+02  0.85898078620E+03  0.86582491265E+03  0.10100000352E+00 0.  1.
</event>
<event>
 5   0  0.1500956E-03  0.1508167E+04  0.7818609E-02  0.8879040E-01
        2   -1    0    0  501    0  0.00000000000E+00  0.00000000000E+00  0.15057610193E+04  0.15057610193E+04  0.25500000920E-02 0.  1.
       -2   -1    0    0    0  501  0.00000000000E+00  0.00000000000E+00 -0.37764425235E+03  0.37764425236E+03  0.25500000920E-02 0. -1.
    10030    2    1    2    0    0  0.00000000000E+00  0.00000000000E+00  0.11281167670E+04  0.18834052717E+04  0.15081670920E+04 0.  0.
        4    1    3    3  502    0  0.61723068524E+03  0.23730114358E+03  0.11145547070E+03  0.67060382223E+03  0.12699999809E+01 0. -1.
       -4    1    3    3    0  502 -0.61723068524E+03 -0.23730114358E+03  0.10166612963E+04  0.12128014494E+04  0.12699999809E+01 0.  1.
</event>
<event>
 5   0  0.1511546E-03  0.1503447E+04  0.7818609E-02  0.8882164E-01
       -2   -1    0    0    0  501  0.00000000000E+00  0.00000000000E+00  0.52486103397E+03  0.52486103398E+03  0.25500000920E-02 0. -1.
        2   -1    0    0  501    0  0.00000000000E+00  0.00000000000E+00 -0.10766441117E+04  0.10766441118E+04  0.25500000920E-02 0.  1.
    10030    2    1    2    0    0  0.00000000000E+00  0.00000000000E+00 -0.55178307778E+03  0.16015051457E+04  0.15034474274E+04 0.  0.
        1    1    3    3  502    0  0.35321918890E+03 -0.15075125841E+03  0.41247494305E+03  0.56358257247E+03  0.50400001928E-02 0. -1.
       -1    1    3    3    0  502 -0.35321918890E+03  0.15075125841E+03 -0.96425802083E+03  0.10379225733E+04  0.50400001928E-02 0.  1.
</event>
<event>
 5   0  0.8306301E-04  0.1454295E+04  0.7818609E-02  0.8915428E-01
       -1   -1    0    0    0  501  0.00000000000E+00  0.00000000000E+00  0.56395620202E+03  0.56395620204E+03  0.50400001928E-02 0. -1.
        1   -1    0    0  501    0  0.00000000000E+00  0.00000000000E+00 -0.93756115091E+03  0.93756115092E+03  0.50400001928E-02 0.  1.
    10030    2    1    2    0    0  0.00000000000E+00  0.00000000000E+00 -0.37360494889E+03  0.15015173530E+04  0.14542949162E+04 0.  0.
        4    1    3    3  502    0 -0.35957728580E+03  0.22790242052E+03  0.42183588513E+03  0.59931833330E+03  0.12699999809E+01 0. -1.
       -4    1    3    3    0  502  0.35957728580E+03 -0.22790242052E+03 -0.79544083402E+03  0.90219901966E+03  0.12699999809E+01 0.  1.
</event>
<event>
 5   0  0.1484056E-03  0.1505375E+04  0.7818609E-02  0.8880886E-01
       -2   -1    0    0    0  501  0.00000000000E+00  0.00000000000E+00  0.57560137648E+03  0.57560137649E+03  0.25500000920E-02 0.  1.
        2   -1    0    0  501    0  0.00000000000E+00  0.00000000000E+00 -0.98425535525E+03  0.98425535526E+03  0.25500000920E-02 0. -1.
    10030    2    1    2    0    0  0.00000000000E+00  0.00000000000E+00 -0.40865397877E+03  0.15598567317E+04  0.15053753516E+04 0.  0.
        5    1    3    3  502    0  0.59970342488E+02  0.73155341490E+03 -0.37693855435E+03  0.82514944379E+03  0.46999998093E+01 0. -1.
       -5    1    3    3    0  502 -0.59970342488E+02 -0.73155341490E+03 -0.31715424428E+02  0.73470728796E+03  0.46999998093E+01 0.  1.
</event>
<event>
 5   0  0.8306301E-04  0.1525004E+04  0.7818609E-02  0.8867993E-01
       -1   -1    0    0    0  501  0.00000000000E+00  0.00000000000E+00  0.75188210738E+03  0.75188210740E+03  0.50400001928E-02 0.  1.
        1   -1    0    0  501    0  0.00000000000E+00  0.00000000000E+00 -0.77327235374E+03  0.77327235376E+03  0.50400001928E-02 0. -1.
    10030    2    1    2    0    0  0.00000000000E+00  0.00000000000E+00 -0.21390246359E+02  0.15251544612E+04  0.15250044550E+04 0.  0.
        4    1    3    3  502    0 -0.54416746425E+03 -0.14887449370E+03  0.50231360683E+03  0.75538229826E+03  0.12699999809E+01 0.  1.
       -4    1    3    3    0  502  0.54416746425E+03  0.14887449370E+03 -0.52370385319E+03  0.76977216289E+03  0.12699999809E+01 0. -1.
</event>
<event>
 5   0  0.7870317E-04  0.1492221E+04  0.7818609E-02  0.8889643E-01
       -1   -1    0    0    0  501  0.00000000000E+00  0.00000000000E+00  0.60595046306E+03  0.60595046308E+03  0.50400001928E-02 0. -1.
        1   -1    0    0  501    0  0.00000000000E+00  0.00000000000E+00 -0.91869018162E+03  0.91869018163E+03  0.50400001928E-02 0.  1.
    10030    2    1    2    0    0  0.00000000000E+00  0.00000000000E+00 -0.31273971856E+03  0.15246406447E+04  0.14922208161E+04 0.  0.
        1    1    3    3  502    0 -0.21258413606E+03 -0.17958707291E+03 -0.86367964154E+03  0.90740622375E+03  0.50400001928E-02 0.  1.
       -1    1    3    3    0  502  0.21258413606E+03  0.17958707291E+03  0.55093992298E+03  0.61723442096E+03  0.50400001928E-02 0. -1.
</event>
<event>
 5   0  0.7870317E-04  0.1465587E+04  0.7818609E-02  0.8907665E-01
       -1   -1    0    0    0  501  0.00000000000E+00  0.00000000000E+00  0.23171257860E+03  0.23171257866E+03  0.50400001928E-02 0. -1.
        1   -1    0    0  501    0  0.00000000000E+00  0.00000000000E+00 -0.23174684931E+04  0.23174684931E+04  0.50400001928E-02 0.  1.
    10030    2    1    2    0    0  0.00000000000E+00  0.00000000000E+00 -0.20857559145E+04  0.25491810718E+04  0.14655873914E+04 0.  0.
        1    1    3    3  502    0  0.20024459269E+03 -0.62997864214E+03 -0.49280174102E+03  0.82451473149E+03  0.50400001928E-02 0. -1.
       -1    1    3    3    0  502 -0.20024459269E+03  0.62997864214E+03 -0.15929541735E+04  0.17246663403E+04  0.50400001928E-02 0.  1.
</event>
<event>
 5   0  0.8365016E-04  0.1593829E+04  0.7818609E-02  0.8824348E-01
        1   -1    0    0  501    0  0.00000000000E+00  0.00000000000E+00  0.82539967174E+03  0.82539967176E+03  0.50400001928E-02 0. -1.
       -1   -1    0    0    0  501  0.00000000000E+00  0.00000000000E+00 -0.76941209283E+03  0.76941209285E+03  0.50400001928E-02 0.  1.
    10030    2    1    2    0    0  0.00000000000E+00  0.00000000000E+00  0.55987578914E+02  0.15948117646E+04  0.15938287096E+04 0.  0.
        3    1    3    3  502    0  0.82268316253E+02 -0.81622420369E+02  0.81692297712E+03  0.82510208830E+03  0.10100000352E+00 0. -1.
       -3    1    3    3    0  502 -0.82268316253E+02  0.81622420369E+02 -0.76093539820E+03  0.76970967631E+03  0.10100000352E+00 0.  1.
</event>
<event>
 5   0  0.1484056E-03  0.1495400E+04  0.7818609E-02  0.8887518E-01
        2   -1    0    0  501    0  0.00000000000E+00  0.00000000000E+00  0.19996603222E+04  0.19996603222E+04  0.25500000920E-02 0. -1.
       -2   -1    0    0    0  501  0.00000000000E+00  0.00000000000E+00 -0.27957502171E+03  0.27957502173E+03  0.25500000920E-02 0.  1.
    10030    2    1    2    0    0  0.00000000000E+00  0.00000000000E+00  0.17200853005E+04  0.22792353439E+04  0.14953997165E+04 0.  0.
        5    1    3    3  502    0 -0.57921341988E+03  0.39611490630E+03  0.46659029658E+03  0.84268843568E+03  0.46999998093E+01 0.  1.
       -5    1    3    3    0  502  0.57921341988E+03 -0.39611490630E+03  0.12534950039E+04  0.14365469082E+04  0.46999998093E+01 0. -1.
</event>
<event>
 5   0  0.1511546E-03  0.1492462E+04  0.7818609E-02  0.8889481E-01
       -2   -1    0    0    0  501  0.00000000000E+00  0.00000000000E+00  0.51318010859E+03  0.51318010860E+03  0.25500000920E-02 0. -1.
        2   -1    0    0  501    0  0.00000000000E+00  0.00000000000E+00 -0.10851175062E+04  0.10851175062E+04  0.25500000920E-02 0.  1.
    10030    2    1    2    0    0  0.00000000000E+00  0.00000000000E+00 -0.57193739762E+03  0.15982976148E+04  0.14924620192E+04 0.  0.
        1    1    3    3  502    0  0.61768308175E+03  0.19293900896E+03  0.11200623021E+03  0.65673681661E+03  0.50400001928E-02 0. -1.
       -1    1    3    3    0  502 -0.61768308175E+03 -0.19293900896E+03 -0.68394362783E+03  0.94156079821E+03  0.50400001928E-02 0.  1.
</event>
<event>
 5   0  0.8306301E-04  0.1471805E+04  0.7818609E-02  0.8903422E-01
       -1   -1    0    0    0  501  0.00000000000E+00  0.00000000000E+00  0.62009411766E+03  0.62009411768E+03  0.50400001928E-02 0.  1.
        1   -1    0    0  501    0  0.00000000000E+00  0.00000000000E+00 -0.87333878407E+03  0.87333878408E+03  0.50400001928E-02 0. -1.
    10030    2    1    2    0    0  0.00000000000E+00  0.00000000000E+00 -0.25324466640E+03  0.14934329018E+04  0.14718046647E+04 0.  0.
        4    1    3    3  502    0 -0.16927297741E+03  0.64985702019E+03  0.17877077423E+03  0.69493027721E+03  0.12699999809E+01 0.  1.
       -4    1    3    3    0  502  0.16927297741E+03 -0.64985702019E+03 -0.43201544063E+03  0.79850262455E+03  0.12699999809E+01 0. -1.
</event>
<event>
 5   0  0.8365016E-04  0.1503875E+04  0.7818609E-02  0.8881880E-01
       -1   -1    0    0    0  501  0.00000000000E+00  0.00000000000E+00  0.87221240407E+03  0.87221240408E+03  0.50400001928E-02 0. -1.
        1   -1    0    0  501    0  0.00000000000E+00  0.00000000000E+00 -0.64824774875E+03  0.64824774877E+03  0.50400001928E-02 0.  1.
    10030    2    1    2    0    0  0.00000000000E+00  0.00000000000E+00  0.22396465532E+03  0.15204601529E+04  0.15038746323E+04 0.  0.
        3    1    3    3  502    0  0.62081381244E+03 -0.38335779153E+03 -0.71782310549E+02  0.73316143949E+03  0.10100000352E+00 0.  1.
       -3    1    3    3    0  502 -0.62081381244E+03  0.38335779153E+03  0.29574696587E+03  0.78729871337E+03  0.10100000352E+00 0. -1.
</event>
<event>
 5   0  0.1484056E-03  0.1504071E+04  0.7818609E-02  0.8881750E-01
        2   -1    0    0  501    0  0.00000000000E+00  0.00000000000E+00  0.14179591608E+04  0.14179591608E+04  0.25500000920E-02 0.  1.
       -2   -1    0    0    0  501  0.00000000000E+00  0.00000000000E+00 -0.39885290999E+03  0.39885291000E+03  0.25500000920E-02 0. -1.
    10030    2    1    2    0    0  0.00000000000E+00  0.00000000000E+00  0.10191062509E+04  0.18168120708E+04  0.15040706600E+04 0.  0.
        5    1    3    3  502    0  0.72571763583E+03  0.12775604527E+03  0.69093319081E+03  0.10101477408E+04  0.46999998093E+01 0. -1.
       -5    1    3    3    0  502 -0.72571763583E+03 -0.12775604527E+03  0.32817306005E+03  0.80666433006E+03  0.46999998093E+01 0.  1.
</event>
<event>
 5   0  0.8365016E-04  0.1493793E+04  0.7818609E-02  0.8888591E-01
        1   -1    0    0  501    0  0.00000000000E+00  0.00000000000E+00  0.87342959359E+03  0.87342959361E+03  0.50400001928E-02 0.  1.
       -1   -1    0    0    0  501  0.00000000000E+00  0.00000000000E+00 -0.63869445333E+03  0.63869445335E+03  0.50400001928E-02 0. -1.
    10030    2    1    2    0    0  0.00000000000E+00  0.00000000000E+00  0.23473514026E+03  0.15121240470E+04  0.14937933416E+04 0.  0.
        3    1    3    3  502    0  0.36328083399E+03 -0.58247815331E+03  0.41525900141E+03  0.80230531089E+03  0.10100000352E+00 0.  1.
       -3    1    3    3    0  502 -0.36328083399E+03  0.58247815331E+03 -0.18052386114E+03  0.70981873607E+03  0.10100000352E+00 0. -1.
</event>
<event>
 5   0  0.8365016E-04  0.1511088E+04  0.7818609E-02  0.8877113E-01
        1   -1    0    0  501    0  0.00000000000E+00  0.00000000000E+00  0.78799691457E+03  0.78799691459E+03  0.50400001928E-02 0.  1.
       -1   -1    0    0    0  501  0.00000000000E+00  0.00000000000E+00 -0.72442743319E+03  0.72442743321E+03  0.50400001928E-02 0. -1.
    10030    2    1    2    0    0  0.00000000000E+00  0.00000000000E+00  0.63569481382E+02  0.15124243478E+04  0.15110877965E+04 0.  0.
        3    1    3    3  502    0 -0.60694339890E+03 -0.19034962701E+03  0.43986254884E+03  0.77336430099E+03  0.10100000352E+00 0.  1.
       -3    1    3    3    0  502  0.60694339890E+03  0.19034962701E+03 -0.37629306746E+03  0.73906004681E+03  0.10100000352E+00 0. -1.
</event>
<event>
 5   0  0.1500956E-03  0.1487534E+04  0.7818609E-02  0.8892785E-01
       -2   -1    0    0    0  501  0.00000000000E+00  0.00000000000E+00  0.53022106419E+03  0.53022106419E+03  0.25500000920E-02 0.  1.
        2   -1    0    0  501    0  0.00000000000E+00  0.00000000000E+00 -0.10433187390E+04  0.10433187390E+04  0.25500000920E-02 0. -1.
    10030    2    1    2    0    0  0.00000000000E+00  0.00000000000E+00 -0.51309767477E+03  0.15735398032E+04  0.14875342982E+04 0.  0.
        4    1    3    3  502    0 -0.18687043869E+03  0.71964815125E+03 -0.23609335145E+03  0.78009980512E+03  0.12699999809E+01 0. -1.
       -4    1    3    3    0  502  0.18687043869E+03 -0.71964815125E+03 -0.27700432332E+03  0.79343999804E+03  0.12699999809E+01 0.  1.
</event>
<event>
 5   0  0.1526126E-03  0.1403238E+04  0.7818609E-02  0.8951478E-01
        2   -1    0    0  501    0  0.00000000000E+00  0.00000000000E+00  0.13406134853E+04  0.13406134853E+04  0.25500000920E-02 0. -1.
       -2   -1    0    0    0  501  0.00000000000E+00  0.00000000000E+00 -0.36719679710E+03  0.36719679711E+03  0.25500000920E-02 0.  1.
    10030    2    1    2    0    0  0.00000000000E+00  0.00000000000E+00  0.97341668820E+03  0.17078102824E+04  0.14032376534E+04 0.  0.
        2    1    3    3  502    0 -0.47000180883E+03 -0.42425515935E+03  0.11881519290E+03  0.64421362187E+03  0.25500000920E-02 0.  1.
       -2    1    3    3    0  502  0.47000180883E+03  0.42425515935E+03  0.85460149530E+03  0.10635966605E+04  0.25500000920E-02 0. -1.
</event>
<event>
 5   0  0.8191876E-04  0.1520034E+04  0.7818609E-02  0.8871239E-01
       -1   -1    0    0    0  501  0.00000000000E+00  0.00000000000E+00  0.39976646586E+03  0.39976646589E+03  0.50400001928E-02 0.  1.
        1   -1    0    0  501    0  0.00000000000E+00  0.00000000000E+00 -0.14449088676E+04  0.14449088676E+04  0.50400001928E-02 0. -1.
    10030    2    1    2    0    0  0.00000000000E+00  0.00000000000E+00 -0.10451424017E+04  0.18446753335E+04  0.15200343569E+04 0.  0.
        2    1    3    3  502    0 -0.11436143668E+03 -0.59574972214E+03 -0.10782106724E+04  0.12371477372E+04  0.25500000920E-02 0. -1.
       -2    1    3    3    0  502  0.11436143668E+03  0.59574972214E+03  0.33068270727E+02  0.60752759622E+03  0.25500000920E-02 0.  1.
</event>
<event>
 5   0  0.1526126E-03  0.1517979E+04  0.7818609E-02  0.8872584E-01
       -2   -1    0    0    0  501  0.00000000000E+00  0.00000000000E+00  0.10480491785E+04  0.10480491785E+04  0.25500000920E-02 0.  1.
        2   -1    0    0  501    0  0.00000000000E+00  0.00000000000E+00 -0.54965485911E+03  0.54965485912E+03  0.25500000920E-02 0. -1.
    10030    2    1    2    0    0  0.00000000000E+00  0.00000000000E+00  0.49839431939E+03  0.15977040376E+04  0.15179793458E+04 0.  0.
        2    1    3    3  502    0  0.39876776253E+03  0.30752936204E+03  0.84689087460E+03  0.98529903605E+03  0.25500000920E-02 0.  1.
       -2    1    3    3    0  502 -0.39876776253E+03 -0.30752936204E+03 -0.34849655521E+03  0.61240500157E+03  0.25500000920E-02 0. -1.
</event>
<event>
 5   0  0.8191876E-04  0.1480824E+04  0.7818609E-02  0.8897306E-01
       -1   -1    0    0    0  501  0.00000000000E+00  0.00000000000E+00  0.28417365463E+03  0.28417365468E+03  0.50400001928E-02 0.  1.
        1   -1    0    0  501    0  0.00000000000E+00  0.00000000000E+00 -0.19291379639E+04  0.19291379639E+04  0.50400001928E-02 0. -1.
    10030    2    1    2    0    0  0.00000000000E+00  0.00000000000E+00 -0.16449643093E+04  0.22133116186E+04  0.14808243455E+04 0.  0.
        2    1    3    3  502    0 -0.82451300674E+02  0.72432091995E+03 -0.62891986815E+03  0.96279759692E+03  0.25500000920E-02 0.  1.
       -2    1    3    3    0  502  0.82451300674E+02 -0.72432091995E+03 -0.10160444411E+04  0.12505140217E+04  0.25500000920E-02 0. -1.
</event>
<event>
 5   0  0.5603875E-04  0.1472935E+04  0.7818609E-02  0.8902653E-01
       -3   -1    0    0    0  501  0.00000000000E+00  0.00000000000E+00  0.23716141118E+03  0.23716143268E+03  0.10100000352E+00 0.  1.
        3   -1    0    0  501    0  0.00000000000E+00  0.00000000000E+00 -0.22869842895E+04  0.22869842917E+04  0.10100000352E+00 0. -1.
    10030    2    1    2    0    0  0.00000000000E+00  0.00000000000E+00 -0.20498228783E+04  0.25241457244E+04  0.14729350989E+04 0.  0.
        3    1    3    3  502    0  0.22222973471E+03 -0.13168404361E+03  0.15698133676E+03  0.30227453187E+03  0.10100000352E+00 0.  1.
       -3    1    3    3    0  502 -0.22222973471E+03  0.13168404361E+03 -0.22068042150E+04  0.22218711925E+04  0.10100000352E+00 0. -1.
</event>
<event>
 5   0  0.7870317E-04  0.1498900E+04  0.7818609E-02  0.8885185E-01
        1   -1    0    0  501    0  0.00000000000E+00  0.00000000000E+00  0.15948626419E+04  0.15948626419E+04  0.50400001928E-02 0. -1.
       -1   -1    0    0    0  501  0.00000000000E+00  0.00000000000E+00 -0.35217792465E+03  0.35217792468E+03  0.50400001928E-02 0.  1.
    10030    2    1    2    0    0  0.00000000000E+00  0.00000000000E+00  0.12426847172E+04  0.19470405666E+04  0.14989001506E+04 0.  0.
        1    1    3    3  502    0 -0.63217405071E+03 -0.38793046630E+03  0.48179218481E+03  0.88445338286E+03  0.50400001928E-02 0.  1.
       -1    1    3    3    0  502  0.63217405071E+03  0.38793046630E+03  0.76089253240E+03  0.10625871837E+04  0.50400001928E-02 0. -1.
</event>
<event>
 5   0  0.1526126E-03  0.1502653E+04  0.7818609E-02  0.8882691E-01
        2   -1    0    0  501    0  0.00000000000E+00  0.00000000000E+00  0.50166347388E+03  0.50166347389E+03  0.25500000920E-02 0.  1.
       -2   -1    0    0    0  501  0.00000000000E+00  0.00000000000E+00 -0.11252392752E+04  0.11252392752E+04  0.25500000920E-02 0. -1.
    10030    2    1    2    0    0  0.00000000000E+00  0.00000000000E+00 -0.62357580129E+03  0.16269027491E+04  0.15026529123E+04 0.  0.
        2    1    3    3  502    0  0.53995312460E+03 -0.63115918521E+02 -0.87328240564E+03  0.10286666885E+04  0.25500000920E-02 0. -1.
       -2    1    3    3    0  502 -0.53995312460E+03  0.63115918521E+02  0.24970660435E+03  0.59823606060E+03  0.25500000920E-02 0.  1.
</event>
<event>
 5   0  0.1500956E-03  0.1527140E+04  0.7818609E-02  0.8866603E-01
        2   -1    0    0  501    0  0.00000000000E+00  0.00000000000E+00  0.80090358211E+03  0.80090358212E+03  0.25500000920E-02 0. -1.
       -2   -1    0    0    0  501  0.00000000000E+00  0.00000000000E+00 -0.72797684869E+03  0.72797684869E+03  0.25500000920E-02 0.  1.
    10030    2    1    2    0    0  0.00000000000E+00  0.00000000000E+00  0.72926733425E+02  0.15288804308E+04  0.15271401584E+04 0.  0.
        4    1    3    3  502    0 -0.37505456861E+03  0.14072738311E+02 -0.62925581228E+03  0.73268578640E+03  0.12699999809E+01 0. -1.
       -4    1    3    3    0  502  0.37505456861E+03 -0.14072738311E+02  0.70218254571E+03  0.79619464441E+03  0.12699999809E+01 0.  1.
</event>
<event>
 5   0  0.1511546E-03  0.1485179E+04  0.7818609E-02  0.8894369E-01
        2   -1    0    0  501    0  0.00000000000E+00  0.00000000000E+00  0.12443155452E+04  0.12443155452E+04  0.25500000920E-02 0.  1.
       -2   -1    0    0    0  501  0.00000000000E+00  0.00000000000E+00 -0.44316663583E+03  0.44316663584E+03  0.25500000920E-02 0. -1.
    10030    2    1    2    0    0  0.00000000000E+00  0.00000000000E+00  0.80114890940E+03  0.16874821811E+04  0.14851789577E+04 0.  0.
        1    1    3    3  502    0  0.47968161053E+03  0.20431221424E+03  0.10013744604E+04  0.11289768546E+04  0.50400001928E-02 0.  1.
       -1    1    3    3    0  502 -0.47968161053E+03 -0.20431221424E+03 -0.20022555098E+03  0.55850532644E+03  0.50400001928E-02 0. -1.
</event>
<event>
 5   0  0.1511546E-03  0.1532373E+04  0.7818609E-02  0.8863206E-01
        2   -1    0    0  501    0  0.00000000000E+00  0.00000000000E+00  0.54924974640E+03  0.54924974641E+03  0.25500000920E-02 0. -1.
       -2   -1    0    0    0  501  0.00000000000E+00  0.00000000000E+00 -0.10688066901E+04  0.10688066901E+04  0.25500000920E-02 0.  1.
    10030    2    1    2    0    0  0.00000000000E+00  0.00000000000E+00 -0.51955694370E+03  0.16180564365E+04  0.15323730662E+04 0.  0.
        1    1    3    3  502    0  0.61353928895E+03 -0.14808454129E+03 -0.71844257425E+03  0.95630498429E+03  0.50400001928E-02 0.  1.
       -1    1    3    3    0  502 -0.61353928895E+03  0.14808454129E+03  0.19888563055E+03  0.66175145222E+03  0.50400001928E-02 0. -1.
</event>
<event>
 5   0  0.8191876E-04  0.1500157E+04  0.7818609E-02  0.8884349E-01
       -1   -1    0    0    0  501  0.00000000000E+00  0.00000000000E+00  0.57849261200E+03  0.57849261202E+03  0.50400001928E-02 0.  1.
        1   -1    0    0  501    0  0.00000000000E+00  0.00000000000E+00 -0.97255761428E+03  0.97255761430E+03  0.50400001928E-02 0. -1.
    10030    2    1    2    0    0  0.00000000000E+00  0.00000000000E+00 -0.39406500228E+03  0.15510502263E+04  0.15001565180E+04 0.  0.
        2    1    3    3  502    0  0.26963844747E+03 -0.28015627031E+03  0.46615236847E+03  0.60703414960E+03  0.25500000920E-02 0.  1.
       -2    1    3    3    0  502 -0.26963844747E+03  0.28015627031E+03 -0.86021737075E+03  0.94401607672E+03  0.25500000920E-02 0. -1.
</event>
<event>
 5   0  0.5603875E-04  0.1503823E+04  0.7818609E-02  0.8881915E-01
        4   -1    0    0  501    0  0.00000000000E+00  0.00000000000E+00  0.65458305488E+03  0.65458428688E+03  0.12699999809E+01 0.  1.
       -4   -1    0    0    0  501  0.00000000000E+00  0.00000000000E+00 -0.86370923066E+03  0.86371016436E+03  0.12699999809E+01 0. -1.
    10030    2    1    2    0    0  0.00000000000E+00  0.00000000000E+00 -0.20912617578E+03  0.15182944512E+04  0.15038232221E+04 0.  0.
        5    1    3    3  502    0  0.20240579411E+03  0.51875368958E+03  0.40554683631E+03  0.68888592842E+03  0.46999998093E+01 0.  1.
       -5    1    3    3    0  502 -0.20240579411E+03 -0.51875368958E+03 -0.61467301209E+03  0.82940852282E+03  0.46999998093E+01 0. -1.
</event>
<event>
 5   0  0.1511546E-03  0.1507703E+04  0.7818609E-02  0.8879347E-01
        2   -1    0    0  501    0  0.00000000000E+00  0.00000000000E+00  0.66373399299E+03  0.66373399300E+03  0.25500000920E-02 0.  1.
       -2   -1    0    0    0  501  0.00000000000E+00  0.00000000000E+00 -0.85620476700E+03  0.85620476700E+03  0.25500000920E-02 0. -1.
    10030    2    1    2    0    0  0.00000000000E+00  0.00000000000E+00 -0.19247077401E+03  0.15199387600E+04  0.15077031655E+04 0.  0.
        1    1    3    3  502    0 -0.37428424367E+03  0.30017115577E+03 -0.68241854573E+03  0.83419811160E+03  0.50400001928E-02 0. -1.
       -1    1    3    3    0  502  0.37428424367E+03 -0.30017115577E+03  0.48994777172E+03  0.68574064839E+03  0.50400001928E-02 0.  1.
</event>
<event>
 5   0  0.1484056E-03  0.1498900E+04  0.7818609E-02  0.8885184E-01
       -2   -1    0    0    0  501  0.00000000000E+00  0.00000000000E+00  0.33470504490E+03  0.33470504491E+03  0.25500000920E-02 0. -1.
        2   -1    0    0  501    0  0.00000000000E+00  0.00000000000E+00 -0.16781210997E+04  0.16781210997E+04  0.25500000920E-02 0.  1.
    10030    2    1    2    0    0  0.00000000000E+00  0.00000000000E+00 -0.13434160548E+04  0.20128261446E+04  0.14989003944E+04 0.  0.
        5    1    3    3  502    0 -0.31624641747E+03 -0.22478782931E+03  0.18931277360E+03  0.43174388358E+03  0.46999998093E+01 0. -1.
       -5    1    3    3    0  502  0.31624641747E+03  0.22478782931E+03 -0.15327288284E+04  0.15810822611E+04  0.46999998093E+01 0.  1.
</event>
<event>
 5   0  0.1500956E-03  0.1490702E+04  0.7818609E-02  0.8890659E-01
        2   -1    0    0  501    0  0.00000000000E+00  0.00000000000E+00  0.16982536666E+04  0.16982536666E+04  0.25500000920E-02 0. -1.
       -2   -1    0    0    0  501  0.00000000000E+00  0.00000000000E+00 -0.32712925748E+03  0.32712925749E+03  0.25500000920E-02 0.  1.
    10030    2    1    2    0    0  0.00000000000E+00  0.00000000000E+00  0.13711244092E+04  0.20253829241E+04  0.14907024666E+04 0.  0.
        4    1    3    3  502    0  0.10024389981E+03 -0.73185645464E+03  0.55048390526E+03  0.92124744368E+03  0.12699999809E+01 0.  1.
       -4    1    3    3    0  502 -0.10024389981E+03  0.73185645464E+03  0.82064050390E+03  0.11041354804E+04  0.12699999809E+01 0. -1.
</event>
<event>
 5   0  0.7870317E-04  0.1472741E+04  0.7818609E-02  0.8902785E-01
       -1   -1    0    0    0  501  0.00000000000E+00  0.00000000000E+00  0.67378010888E+03  0.67378010890E+03  0.50400001928E-02 0. -1.
        1   -1    0    0  501    0  0.00000000000E+00  0.00000000000E+00 -0.80477526056E+03  0.80477526057E+03  0.50400001928E-02 0.  1.
    10030    2    1    2    0    0  0.00000000000E+00  0.00000000000E+00 -0.13099515167E+03  0.14785553695E+04  0.14727410671E+04 0.  0.
        1    1    3    3  502    0 -0.65787586052E+03 -0.23931161885E+03  0.16381359393E+03  0.71896146792E+03  0.50400001928E-02 0. -1.
       -1    1    3    3    0  502  0.65787586052E+03  0.23931161885E+03 -0.29480874560E+03  0.75959390156E+03  0.50400001928E-02 0.  1.
</event>
<event>
 5   0  0.1552067E-03  0.1481842E+04  0.7818609E-02  0.8896618E-01
        2   -1    0    0  501    0  0.00000000000E+00  0.00000000000E+00  0.16440693928E+04  0.16440693928E+04  0.25500000920E-02 0.  1.
       -2   -1    0    0    0  501  0.00000000000E+00  0.00000000000E+00 -0.33390556089E+03  0.33390556090E+03  0.25500000920E-02 0. -1.
    10030    2    1    2    0    0  0.00000000000E+00  0.00000000000E+00  0.13101638319E+04  0.19779749537E+04  0.14818419791E+04 0.  0.
        3    1    3    3  502    0 -0.40492408913E+02 -0.25977501194E+02 -0.33181853349E+03  0.33528795850E+03  0.10100000352E+00 0. -1.
       -3    1    3    3    0  502  0.40492408913E+02  0.25977501194E+02  0.16419823654E+04  0.16426869952E+04  0.10100000352E+00 0.  1.
</event>
<event>
 5   0  0.1511546E-03  0.1524354E+04  0.7818609E-02  0.8868417E-01
       -2   -1    0    0    0  501  0.00000000000E+00  0.00000000000E+00  0.70965857506E+03  0.70965857507E+03  0.25500000920E-02 0. -1.
        2   -1    0    0  501    0  0.00000000000E+00  0.00000000000E+00 -0.81858238322E+03  0.81858238322E+03  0.25500000920E-02 0.  1.
    10030    2    1    2    0    0  0.00000000000E+00  0.00000000000E+00 -0.10892380816E+03  0.15282409583E+04  0.15243542996E+04 0.  0.
        1    1    3    3  502    0 -0.28403483110E+03  0.24551297952E+03  0.61052531901E+03  0.71672419630E+03  0.50400001928E-02 0. -1.
       -1    1    3    3    0  502  0.28403483110E+03 -0.24551297952E+03 -0.71944912717E+03  0.81151676199E+03  0.50400001928E-02 0.  1.
</event>
<event>
 5   0  0.8306301E-04  0.1495120E+04  0.7818609E-02  0.8887705E-01
        1   -1    0    0  501    0  0.00000000000E+00  0.00000000000E+00  0.83295511083E+03  0.83295511084E+03  0.50400001928E-02 0. -1.
       -1   -1    0    0    0  501  0.00000000000E+00  0.00000000000E+00 -0.67091928399E+03  0.67091928401E+03  0.50400001928E-02 0.  1.
    10030    2    1    2    0    0  0.00000000000E+00  0.00000000000E+00  0.16203582684E+03  0.15038743949E+04  0.14951195893E+04 0.  0.
        4    1    3    3  502    0  0.66110400398E+03  0.32967651112E+03 -0.34102808492E+02  0.73953344787E+03  0.12699999809E+01 0.  1.
       -4    1    3    3    0  502 -0.66110400398E+03 -0.32967651112E+03  0.19613863533E+03  0.76434094698E+03  0.12699999809E+01 0. -1.
</event>
<event>
 5   0  0.1552067E-03  0.1473225E+04  0.7818609E-02  0.8902455E-01
       -2   -1    0    0    0  501  0.00000000000E+00  0.00000000000E+00  0.66352087030E+03  0.66352087030E+03  0.25500000920E-02 0.  1.
        2   -1    0    0  501    0  0.00000000000E+00  0.00000000000E+00 -0.81775619790E+03  0.81775619791E+03  0.25500000920E-02 0. -1.
    10030    2    1    2    0    0  0.00000000000E+00  0.00000000000E+00 -0.15423532761E+03  0.14812770682E+04  0.14732254466E+04 0.  0.
        3    1    3    3  502    0  0.65495390695E+03 -0.10350256368E+03  0.24544853822E+03  0.70705190476E+03  0.10100000352E+00 0.  1.
       -3    1    3    3    0  502 -0.65495390695E+03  0.10350256368E+03 -0.39968386583E+03  0.77422516345E+03  0.10100000352E+00 0. -1.
</event>
<event>
 5   0  0.1511546E-03  0.1481972E+04  0.7818609E-02  0.8896531E-01
       -2   -1    0    0    0  501  0.00000000000E+00  0.00000000000E+00  0.60257651279E+03  0.60257651279E+03  0.25500000920E-02 0.  1.
        2   -1    0    0  501    0  0.00000000000E+00  0.00000000000E+00 -0.91118745021E+03  0.91118745022E+03  0.25500000920E-02 0. -1.
    10030    2    1    2    0    0  0.00000000000E+00  0.00000000000E+00 -0.30861093742E+03  0.15137639630E+04  0.14819718705E+04 0.  0.
        1    1    3    3  502    0 -0.65697658783E+03  0.27796660231E+03  0.50435230960E+02  0.71514151153E+03  0.50400001928E-02 0.  1.
       -1    1    3    3    0  502  0.65697658783E+03 -0.27796660231E+03 -0.35904616838E+03  0.79862245148E+03  0.50400001928E-02 0. -1.
</event>
<event>
 5   0  0.8191876E-04  0.1373538E+04  0.7818609E-02  0.8973199E-01
        1   -1    0    0  501    0  0.00000000000E+00  0.00000000000E+00  0.30459374739E+03  0.30459374743E+03  0.50400001928E-02 0. -1.
       -1   -1    0    0    0  501  0.00000000000E+00  0.00000000000E+00 -0.15484613344E+04  0.15484613344E+04  0.50400001928E-02 0.  1.
    10030    2    1    2    0    0  0.00000000000E+00  0.00000000000E+00 -0.12438675870E+04  0.18530550818E+04  0.13735379726E+04 0.  0.
        2    1    3    3  502    0 -0.63755783009E+03 -0.15234955417E+03 -0.34557584758E+03  0.74102161898E+03  0.25500000920E-02 0. -1.
       -2    1    3    3    0  502  0.63755783009E+03  0.15234955417E+03 -0.89829173944E+03  0.11120334629E+04  0.25500000920E-02 0.  1.
</event>
<event>
 5   0  0.1484056E-03  0.1509804E+04  0.7818609E-02  0.8877959E-01
       -2   -1    0    0    0  501  0.00000000000E+00  0.00000000000E+00  0.85187433042E+03  0.85187433043E+03  0.25500000920E-02 0.  1.
        2   -1    0    0  501    0  0.00000000000E+00  0.00000000000E+00 -0.66896867597E+03  0.66896867597E+03  0.25500000920E-02 0. -1.
    10030    2    1    2    0    0  0.00000000000E+00  0.00000000000E+00  0.18290565445E+03  0.15208430064E+04  0.15098042826E+04 0.  0.
        5    1    3    3  502    0 -0.67551788586E+03  0.28210150637E+03 -0.94148162784E+02  0.73810002070E+03  0.46999998093E+01 0. -1.
       -5    1    3    3    0  502  0.67551788586E+03 -0.28210150637E+03  0.27705381724E+03  0.78274298569E+03  0.46999998093E+01 0.  1.
</event>
<event>
 5   0  0.7870317E-04  0.1491750E+04  0.7818609E-02  0.8889958E-01
       -1   -1    0    0    0  501  0.00000000000E+00  0.00000000000E+00  0.23634128375E+03  0.23634128381E+03  0.50400001928E-02 0. -1.
        1   -1    0    0  501    0  0.00000000000E+00  0.00000000000E+00 -0.23539236385E+04  0.23539236385E+04  0.50400001928E-02 0.  1.
    10030    2    1    2    0    0  0.00000000000E+00  0.00000000000E+00 -0.21175823548E+04  0.25902649223E+04  0.14917497574E+04 0.  0.
        1    1    3    3  502    0  0.13014602991E+03  0.57754017843E+03 -0.27099891519E+03  0.65109988393E+03  0.50400001928E-02 0. -1.
       -1    1    3    3    0  502 -0.13014602991E+03 -0.57754017843E+03 -0.18465834396E+04  0.19391650384E+04  0.50400001928E-02 0.  1.
</event>
<event>
 5   0  0.1511546E-03  0.1376623E+04  0.7818609E-02  0.8970916E-01
        2   -1    0    0  501    0  0.00000000000E+00  0.00000000000E+00  0.36546177789E+03  0.36546177790E+03  0.25500000920E-02 0.  1.
       -2   -1    0    0    0  501  0.00000000000E+00  0.00000000000E+00 -0.12963670172E+04  0.12963670172E+04  0.25500000920E-02 0. -1.
    10030    2    1    2    0    0  0.00000000000E+00  0.00000000000E+00 -0.93090523933E+03  0.16618287951E+04  0.13766228168E+04 0.  0.
        1    1    3    3  502    0  0.26785423923E+03  0.61044784169E+02 -0.12273151208E+04  0.12576862745E+04  0.50400001928E-02 0. -1.
       -1    1    3    3    0  502 -0.26785423923E+03 -0.61044784169E+02  0.29640988148E+03  0.40414252066E+03  0.50400001928E-02 0.  1.
</event>
<event>
 5   0  0.1526126E-03  0.1639707E+04  0.7818609E-02  0.8796519E-01
        2   -1    0    0  501    0  0.00000000000E+00  0.00000000000E+00  0.14060931115E+04  0.14060931115E+04  0.25500000920E-02 0. -1.
       -2   -1    0    0    0  501  0.00000000000E+00  0.00000000000E+00 -0.47803375500E+03  0.47803375500E+03  0.25500000920E-02 0.  1.
    10030    2    1    2    0    0  0.00000000000E+00  0.00000000000E+00  0.92805935653E+03  0.18841268665E+04  0.16397072543E+04 0.  0.
        2    1    3    3  502    0 -0.12599783969E+03 -0.17279222361E+03 -0.44542106846E+03  0.49409769922E+03  0.25500000920E-02 0.  1.
       -2    1    3    3    0  502  0.12599783969E+03  0.17279222361E+03  0.13734804250E+04  0.13900291673E+04  0.25500000920E-02 0. -1.
</event>
<event>
 5   0  0.8058234E-04  0.1484260E+04  0.7818609E-02  0.8894988E-01
        1   -1    0    0  501    0  0.00000000000E+00  0.00000000000E+00  0.10647136854E+04  0.10647136855E+04  0.50400001928E-02 0.  1.
       -1   -1    0    0    0  501  0.00000000000E+00  0.00000000000E+00 -0.51728178016E+03  0.51728178018E+03  0.50400001928E-02 0. -1.
    10030    2    1    2    0    0  0.00000000000E+00  0.00000000000E+00  0.54743190529E+03  0.15819954656E+04  0.14842600724E+04 0.  0.
        5    1    3    3  502    0 -0.18567805351E+03 -0.54828328100E+03  0.76866891050E+03  0.96227068943E+03  0.46999998093E+01 0.  1.
       -5    1    3    3    0  502  0.18567805351E+03  0.54828328100E+03 -0.22123700521E+03  0.61972477621E+03  0.46999998093E+01 0. -1.
</event>
<event>
 5   0  0.8365016E-04  0.1420893E+04  0.7818609E-02  0.8938832E-01
       -1   -1    0    0    0  501  0.00000000000E+00  0.00000000000E+00  0.38413039233E+03  0.38413039237E+03  0.50400001928E-02 0.  1.
        1   -1    0    0  501    0  0.00000000000E+00  0.00000000000E+00 -0.13139663194E+04  0.13139663194E+04  0.50400001928E-02 0. -1.
    10030    2    1    2    0    0  0.00000000000E+00  0.00000000000E+00 -0.92983592706E+03  0.16980967118E+04  0.14208932371E+04 0.  0.
        3    1    3    3  502    0 -0.34844317085E+03 -0.53671355300E+03 -0.83377405559E+03  0.10510248652E+04  0.10100000352E+00 0.  1.
       -3    1    3    3    0  502  0.34844317085E+03  0.53671355300E+03 -0.96061871477E+02  0.64707184658E+03  0.10100000352E+00 0. -1.
</event>
<event>
 5   0  0.1552067E-03  0.1530070E+04  0.7818609E-02  0.8864700E-01
        2   -1    0    0  501    0  0.00000000000E+00  0.00000000000E+00  0.15813590821E+04  0.15813590821E+04  0.25500000920E-02 0. -1.
       -2   -1    0    0    0  501  0.00000000000E+00  0.00000000000E+00 -0.37011094727E+03  0.37011094727E+03  0.25500000920E-02 0.  1.
    10030    2    1    2    0    0  0.00000000000E+00  0.00000000000E+00  0.12112481349E+04  0.19514700294E+04  0.15300696819E+04 0.  0.
        3    1    3    3  502    0  0.47611937090E+03  0.56675888102E+03  0.35906003019E+03  0.82269642034E+03  0.10100000352E+00 0.  1.
       -3    1    3    3    0  502 -0.47611937090E+03 -0.56675888102E+03  0.85218810466E+03  0.11287736091E+04  0.10100000352E+00 0. -1.
</event>
<event>
 5   0  0.1484056E-03  0.1504165E+04  0.7818609E-02  0.8881688E-01
        2   -1    0    0  501    0  0.00000000000E+00  0.00000000000E+00  0.18888021136E+04  0.18888021136E+04  0.25500000920E-02 0. -1.
       -2   -1    0    0    0  501  0.00000000000E+00  0.00000000000E+00 -0.29946411138E+03  0.29946411139E+03  0.25500000920E-02 0.  1.
    10030    2    1    2    0    0  0.00000000000E+00  0.00000000000E+00  0.15893380022E+04  0.21882662250E+04  0.15041654783E+04 0.  0.
        5    1    3    3  502    0  0.18372768995E+03  0.43200174544E+03  0.16494515548E+04  0.17149617761E+04  0.46999998093E+01 0. -1.
       -5    1    3    3    0  502 -0.18372768995E+03 -0.43200174544E+03 -0.60113552527E+02  0.47330444887E+03  0.46999998093E+01 0.  1.
</event>
<event>
 5   0  0.8058234E-04  0.1531159E+04  0.7818609E-02  0.8863993E-01
        1   -1    0    0  501    0  0.00000000000E+00  0.00000000000E+00  0.49236337552E+03  0.49236337555E+03  0.50400001928E-02 0.  1.
       -1   -1    0    0    0  501  0.00000000000E+00  0.00000000000E+00 -0.11904060575E+04  0.11904060575E+04  0.50400001928E-02 0. -1.
    10030    2    1    2    0    0  0.00000000000E+00  0.00000000000E+00 -0.69804268193E+03  0.16827694330E+04  0.15311594884E+04 0.  0.
        5    1    3    3  502    0  0.38877541188E+03  0.53925023298E+03 -0.76629042453E+03  0.10144753518E+04  0.46999998093E+01 0.  1.
       -5    1    3    3    0  502 -0.38877541188E+03 -0.53925023298E+03  0.68247742597E+02  0.66829408123E+03  0.46999998093E+01 0. -1.
</event>
<event>
 5   0  0.1511546E-03  0.1499972E+04  0.7818609E-02  0.8884471E-01
        2   -1    0    0  501    0  0.00000000000E+00  0.00000000000E+00  0.15923345857E+04  0.15923345857E+04  0.25500000920E-02 0. -1.
       -2   -1    0    0    0  501  0.00000000000E+00  0.00000000000E+00 -0.35324175860E+03  0.35324175861E+03  0.25500000920E-02 0.  1.
    10030    2    1    2    0    0  0.00000000000E+00  0.00000000000E+00  0.12390928271E+04  0.19455763443E+04  0.14999720922E+04 0.  0.
        1    1    3    3  502    0  0.42882223331E+03  0.58372868433E+03  0.87189796775E+03  0.11335050732E+04  0.50400001928E-02 0. -1.
       -1    1    3    3    0  502 -0.42882223331E+03 -0.58372868433E+03  0.36719485936E+03  0.81207127117E+03  0.50400001928E-02 0.  1.
</event>
<event>
 5   0  0.7870317E-04  0.1502487E+04  0.7818609E-02  0.8882801E-01
       -1   -1    0    0    0  501  0.00000000000E+00  0.00000000000E+00  0.66630857417E+03  0.66630857419E+03  0.50400001928E-02 0.  1.
        1   -1    0    0  501    0  0.00000000000E+00  0.00000000000E+00 -0.84700557834E+03  0.84700557836E+03  0.50400001928E-02 0. -1.
    10030    2    1    2    0    0  0.00000000000E+00  0.00000000000E+00 -0.18069700417E+03  0.15133141525E+04  0.15024873766E+04 0.  0.
        1    1    3    3  502    0  0.47378706231E+03  0.57748644537E+03 -0.17093947803E+03  0.76628002726E+03  0.50400001928E-02 0. -1.
       -1    1    3    3    0  502 -0.47378706231E+03 -0.57748644537E+03 -0.97575261353E+01  0.74703412529E+03  0.50400001928E-02 0.  1.
</event>
<event>
 5   0  0.1552067E-03  0.1561191E+04  0.7818609E-02  0.8844751E-01
       -2   -1    0    0    0  501  0.00000000000E+00  0.00000000000E+00  0.83314450124E+03  0.83314450124E+03  0.25500000920E-02 0. -1.
        2   -1    0    0  501    0  0.00000000000E+00  0.00000000000E+00 -0.73136046922E+03  0.73136046923E+03  0.25500000920E-02 0.  1.
    10030    2    1    2    0    0  0.00000000000E+00  0.00000000000E+00  0.10178403202E+03  0.15645049705E+04  0.15611905116E+04 0.  0.
        3    1    3    3  502    0  0.69565599099E+02 -0.77252233055E+03 -0.37037181554E+02  0.77653196122E+03  0.10100000352E+00 0.  1.
       -3    1    3    3    0  502 -0.69565599099E+02  0.77252233055E+03  0.13882121357E+03  0.78797300925E+03  0.10100000352E+00 0. -1.
</event>
<event>
 5   0  0.1500956E-03  0.1484236E+04  0.7818609E-02  0.8895004E-01
        2   -1    0    0  501    0  0.00000000000E+00  0.00000000000E+00  0.12047540326E+04  0.12047540326E+04  0.25500000920E-02 0. -1.
       -2   -1    0    0    0  501  0.00000000000E+00  0.00000000000E+00 -0.45713796131E+03  0.45713796132E+03  0.25500000920E-02 0.  1.
    10030    2    1    2    0    0  0.00000000000E+00  0.00000000000E+00  0.74761607133E+03  0.16618919940E+04  0.14842355640E+04 0.  0.
        4    1    3    3  502    0  0.19151742724E+03 -0.68732076198E+03  0.60231492794E+03  0.93374174165E+03  0.12699999809E+01 0. -1.
       -4    1    3    3    0  502 -0.19151742724E+03  0.68732076198E+03  0.14530114339E+03  0.72815025232E+03  0.12699999809E+01 0.  1.
</event>
<event>
 5   0  0.1526126E-03  0.1464500E+04  0.7818609E-02  0.8908409E-01
       -2   -1    0    0    0  501  0.00000000000E+00  0.00000000000E+00  0.76698245419E+03  0.76698245420E+03  0.25500000920E-02 0. -1.
        2   -1    0    0  501    0  0.00000000000E+00  0.00000000000E+00 -0.69909026300E+03  0.69909026301E+03  0.25500000920E-02 0.  1.
    10030    2    1    2    0    0  0.00000000000E+00  0.00000000000E+00  0.67892191189E+02  0.14660727172E+04  0.14644998677E+04 0.  0.
        2    1    3    3  502    0 -0.68808194697E+03 -0.14956813971E+03 -0.16717405639E+03  0.72372270884E+03  0.25500000920E-02 0. -1.
       -2    1    3    3    0  502  0.68808194697E+03  0.14956813971E+03  0.23506624758E+03  0.74235000836E+03  0.25500000920E-02 0.  1.
</event>
<event>
 5   0  0.1500956E-03  0.1515218E+04  0.7818609E-02  0.8874396E-01
       -2   -1    0    0    0  501  0.00000000000E+00  0.00000000000E+00  0.38558341901E+03  0.38558341901E+03  0.25500000920E-02 0.  1.
        2   -1    0    0  501    0  0.00000000000E+00  0.00000000000E+00 -0.14885788922E+04  0.14885788922E+04  0.25500000920E-02 0. -1.
    10030    2    1    2    0    0  0.00000000000E+00  0.00000000000E+00 -0.11029954732E+04  0.18741623112E+04  0.15152179232E+04 0.  0.
        4    1    3    3  502    0 -0.60955824012E+03  0.25476172785E+03 -0.92837330439E+02  0.66714703694E+03  0.12699999809E+01 0. -1.
       -4    1    3    3    0  502  0.60955824012E+03 -0.25476172785E+03 -0.10101581428E+04  0.12070152743E+04  0.12699999809E+01 0.  1.
</event>
<event>
 5   0  0.1511546E-03  0.1513353E+04  0.7818609E-02  0.8875622E-01
       -2   -1    0    0    0  501  0.00000000000E+00  0.00000000000E+00  0.65172999251E+03  0.65172999252E+03  0.25500000920E-02 0.  1.
        2   -1    0    0  501    0  0.00000000000E+00  0.00000000000E+00 -0.87852195201E+03  0.87852195201E+03  0.25500000920E-02 0. -1.
    10030    2    1    2    0    0  0.00000000000E+00  0.00000000000E+00 -0.22679195949E+03  0.15302519445E+04  0.15133527087E+04 0.  0.
        1    1    3    3  502    0  0.75248204840E+03 -0.74531648891E+02 -0.85248007933E+02  0.76095428426E+03  0.50400001928E-02 0. -1.
       -1    1    3    3    0  502 -0.75248204840E+03  0.74531648891E+02 -0.14154395156E+03  0.76929766027E+03  0.50400001928E-02 0.  1.
</event>
<event>
 5   0  0.8058234E-04  0.1492335E+04  0.7818609E-02  0.8889566E-01
       -1   -1    0    0    0  501  0.00000000000E+00  0.00000000000E+00  0.37374964492E+03  0.37374964495E+03  0.50400001928E-02 0. -1.
        1   -1    0    0  501    0  0.00000000000E+00  0.00000000000E+00 -0.14896755633E+04  0.14896755633E+04  0.50400001928E-02 0.  1.
    10030    2    1    2    0    0  0.00000000000E+00  0.00000000000E+00 -0.11159259184E+04  0.18634252083E+04  0.14923346982E+04 0.  0.
        5    1    3    3  502    0  0.40569022908E+03 -0.49044573003E+03 -0.10441763404E+04  0.12228850706E+04  0.46999998093E+01 0.  1.
       -5    1    3    3    0  502 -0.40569022908E+03  0.49044573003E+03 -0.71749578047E+02  0.64054013771E+03  0.46999998093E+01 0. -1.
</event>
<event>
 5   0  0.7870317E-04  0.1492606E+04  0.7818609E-02  0.8889385E-01
       -1   -1    0    0    0  501  0.00000000000E+00  0.00000000000E+00  0.12582731132E+04  0.12582731132E+04  0.50400001928E-02 0. -1.
        1   -1    0    0  501    0  0.00000000000E+00  0.00000000000E+00 -0.44264494613E+03  0.44264494616E+03  0.50400001928E-02 0.  1.
    10030    2    1    2    0    0  0.00000000000E+00  0.00000000000E+00  0.81562816709E+03  0.17009180594E+04  0.14926060893E+04 0.  0.
        1    1    3    3  502    0 -0.44145466495E+03 -0.60169290891E+03  0.41600440655E+03  0.85438647235E+03  0.50400001928E-02 0. -1.
       -1    1    3    3    0  502  0.44145466495E+03  0.60169290891E+03  0.39962376053E+03  0.84653158704E+03  0.50400001928E-02 0.  1.
</event>
<event>
 5   0  0.1511546E-03  0.1499907E+04  0.7818609E-02  0.8884515E-01
       -2   -1    0    0    0  501  0.00000000000E+00  0.00000000000E+00  0.65863721169E+03  0.65863721170E+03  0.25500000920E-02 0. -1.
        2   -1    0    0  501    0  0.00000000000E+00  0.00000000000E+00 -0.85392997777E+03  0.85392997778E+03  0.25500000920E-02 0.  1.
    10030    2    1    2    0    0  0.00000000000E+00  0.00000000000E+00 -0.19529276608E+03  0.15125671895E+04  0.14999067432E+04 0.  0.
        1    1    3    3  502    0  0.69703933896E+03 -0.49251782458E+02 -0.37223221110E+03  0.79173631794E+03  0.50400001928E-02 0.  1.
       -1    1    3    3    0  502 -0.69703933896E+03  0.49251782458E+02  0.17693944502E+03  0.72083087154E+03  0.50400001928E-02 0. -1.
</event>
<event>
 5   0  0.8191876E-04  0.1515958E+04  0.7818609E-02  0.8873910E-01
       -1   -1    0    0    0  501  0.00000000000E+00  0.00000000000E+00  0.24151275402E+03  0.24151275407E+03  0.50400001928E-02 0. -1.
        1   -1    0    0  501    0  0.00000000000E+00  0.00000000000E+00 -0.23788903371E+04  0.23788903371E+04  0.50400001928E-02 0.  1.
    10030    2    1    2    0    0  0.00000000000E+00  0.00000000000E+00 -0.21373775831E+04  0.26204030912E+04  0.15159582539E+04 0.  0.
        2    1    3    3  502    0 -0.33434578131E+03  0.62379264166E+03 -0.59965692518E+03  0.92762750563E+03  0.25500000920E-02 0. -1.
       -2    1    3    3    0  502  0.33434578131E+03 -0.62379264166E+03 -0.15377206579E+04  0.16927755856E+04  0.25500000920E-02 0.  1.
</event>
<event>
 5   0  0.8365016E-04  0.1483205E+04  0.7818609E-02  0.8895699E-01
       -1   -1    0    0    0  501  0.00000000000E+00  0.00000000000E+00  0.55608600979E+03  0.55608600981E+03  0.50400001928E-02 0. -1.
        1   -1    0    0  501    0  0.00000000000E+00  0.00000000000E+00 -0.98900894447E+03  0.98900894449E+03  0.50400001928E-02 0.  1.
    10030    2    1    2    0    0  0.00000000000E+00  0.00000000000E+00 -0.43292293469E+03  0.15450949543E+04  0.14832046893E+04 0.  0.
        3    1    3    3  502    0 -0.27019033020E+03 -0.95604935599E+02  0.49606096262E+03  0.57290453575E+03  0.10100000352E+00 0. -1.
       -3    1    3    3    0  502  0.27019033020E+03  0.95604935599E+02 -0.92898389731E+03  0.97219041854E+03  0.10100000352E+00 0.  1.
</event>
<event>
 5   0  0.8306301E-04  0.1490426E+04  0.7818609E-02  0.8890844E-01
       -1   -1    0    0    0  501  0.00000000000E+00  0.00000000000E+00  0.41494271258E+03  0.41494271261E+03  0.50400001928E-02 0.  1.
        1   -1    0    0  501    0  0.00000000000E+00  0.00000000000E+00 -0.13383599316E+04  0.13383599316E+04  0.50400001928E-02 0. -1.
    10030    2    1    2    0    0  0.00000000000E+00  0.00000000000E+00 -0.92341721901E+03  0.17533026442E+04  0.14904263826E+04 0.  0.
        4    1    3    3  502    0 -0.34890599549E+03 -0.11034570864E+03  0.30196684873E+03  0.47444405333E+03  0.12699999809E+01 0.  1.
       -4    1    3    3    0  502  0.34890599549E+03  0.11034570864E+03 -0.12253840677E+04  0.12788585909E+04  0.12699999809E+01 0. -1.
</event>
<event>
 5   0  0.1511546E-03  0.1533393E+04  0.7818609E-02  0.8862546E-01
       -2   -1    0    0    0  501  0.00000000000E+00  0.00000000000E+00  0.42462012809E+03  0.42462012810E+03  0.25500000920E-02 0.  1.
        2   -1    0    0  501    0  0.00000000000E+00  0.00000000000E+00 -0.13843515531E+04  0.13843515531E+04  0.25500000920E-02 0. -1.
    10030    2    1    2    0    0  0.00000000000E+00  0.00000000000E+00 -0.95973142502E+03  0.18089716812E+04  0.15333930140E+04 0.  0.
        1    1    3    3  502    0 -0.35380088254E+03  0.23788021103E+03 -0.12316170017E+04  0.13033197989E+04  0.50400001928E-02 0. -1.
       -1    1    3    3    0  502  0.35380088254E+03 -0.23788021103E+03  0.27188557666E+03  0.50565188233E+03  0.50400001928E-02 0.  1.
</event>
<event>
 5   0  0.8191876E-04  0.1386286E+04  0.7818609E-02  0.8963806E-01
        1   -1    0    0  501    0  0.00000000000E+00  0.00000000000E+00  0.56012789339E+03  0.56012789341E+03  0.50400001928E-02 0. -1.
       -1   -1    0    0    0  501  0.00000000000E+00  0.00000000000E+00 -0.85774517059E+03  0.85774517060E+03  0.50400001928E-02 0.  1.
    10030    2    1    2    0    0  0.00000000000E+00  0.00000000000E+00 -0.29761727720E+03  0.14178730640E+04  0.13862856783E+04 0.  0.
        2    1    3    3  502    0 -0.50079375088E+03  0.38520086848E+02  0.33974557280E+03  0.60638703173E+03  0.25500000920E-02 0. -1.
       -2    1    3    3    0  502  0.50079375088E+03 -0.38520086848E+02 -0.63736285000E+03  0.81148603228E+03  0.25500000920E-02 0.  1.
</event>
<event>
 5   0  0.8058234E-04  0.1495640E+04  0.7818609E-02  0.8887357E-01
       -1   -1    0    0    0  501  0.00000000000E+00  0.00000000000E+00  0.90661300966E+03  0.90661300968E+03  0.50400001928E-02 0.  1.
        1   -1    0    0  501    0  0.00000000000E+00  0.00000000000E+00 -0.61683957518E+03  0.61683957520E+03  0.50400001928E-02 0. -1.
    10030    2    1    2    0    0  0.00000000000E+00  0.00000000000E+00  0.28977343448E+03  0.15234525849E+04  0.14956400419E+04 0.  0.
        5    1    3    3  502    0  0.25825457105E+03  0.52995332180E+03  0.61351465500E+03  0.85086324909E+03  0.46999998093E+01 0.  1.
       -5    1    3    3    0  502 -0.25825457105E+03 -0.52995332180E+03 -0.32374122052E+03  0.67258933579E+03  0.46999998093E+01 0. -1.
</event>
<event>
 5   0  0.8058234E-04  0.1518515E+04  0.7818609E-02  0.8872233E-01
        1   -1    0    0  501    0  0.00000000000E+00  0.00000000000E+00  0.88768504378E+03  0.88768504379E+03  0.50400001928E-02 0. -1.
       -1   -1    0    0    0  501  0.00000000000E+00  0.00000000000E+00 -0.64941038480E+03  0.64941038482E+03  0.50400001928E-02 0.  1.
    10030    2    1    2    0    0  0.00000000000E+00  0.00000000000E+00  0.23827465898E+03  0.15370954286E+04  0.15185149138E+04 0.  0.
        5    1    3    3  502    0  0.46564230806E+03 -0.88408965382E+02 -0.48125676193E+03  0.67547691679E+03  0.46999998093E+01 0.  1.
       -5    1    3    3    0  502 -0.46564230806E+03  0.88408965382E+02  0.71953142091E+03  0.86161851181E+03  0.46999998093E+01 0. -1.
</event>
<event>
 5   0  0.1511546E-03  0.1499053E+04  0.7818609E-02  0.8885083E-01
       -2   -1    0    0    0  501  0.00000000000E+00  0.00000000000E+00  0.43308990614E+03  0.43308990615E+03  0.25500000920E-02 0. -1.
        2   -1    0    0  501    0  0.00000000000E+00  0.00000000000E+00 -0.12971671069E+04  0.12971671069E+04  0.25500000920E-02 0.  1.
    10030    2    1    2    0    0  0.00000000000E+00  0.00000000000E+00 -0.86407720073E+03  0.17302570130E+04  0.14990530085E+04 0.  0.
        1    1    3    3  502    0 -0.66588345315E+03 -0.33165863034E+03 -0.32630326119E+03  0.81232508181E+03  0.50400001928E-02 0.  1.
       -1    1    3    3    0  502  0.66588345315E+03  0.33165863034E+03 -0.53777393954E+03  0.91793193121E+03  0.50400001928E-02 0. -1.
</event>
<event>
 5   0  0.8058234E-04  0.1453014E+04  0.7818609E-02  0.8916314E-01
       -1   -1    0    0    0  501  0.00000000000E+00  0.00000000000E+00  0.50448822135E+03  0.50448822138E+03  0.50400001928E-02 0. -1.
        1   -1    0    0  501    0  0.00000000000E+00  0.00000000000E+00 -0.10462326923E+04  0.10462326923E+04  0.50400001928E-02 0.  1.
    10030    2    1    2    0    0  0.00000000000E+00  0.00000000000E+00 -0.54174447097E+03  0.15507209137E+04  0.14530135169E+04 0.  0.
        5    1    3    3  502    0 -0.57923447770E+03  0.41585103126E+03 -0.12243189366E+03  0.72350281197E+03  0.46999998093E+01 0.  1.
       -5    1    3    3    0  502  0.57923447770E+03 -0.41585103126E+03 -0.41931257731E+03  0.82721810174E+03  0.46999998093E+01 0. -1.
</event>
<event>
 5   0  0.1526126E-03  0.1519747E+04  0.7818609E-02  0.8871426E-01
       -2   -1    0    0    0  501  0.00000000000E+00  0.00000000000E+00  0.47013335565E+03  0.47013335566E+03  0.25500000920E-02 0.  1.
        2   -1    0    0  501    0  0.00000000000E+00  0.00000000000E+00 -0.12281788925E+04  0.12281788925E+04  0.25500000920E-02 0. -1.
    10030    2    1    2    0    0  0.00000000000E+00  0.00000000000E+00 -0.75804553681E+03  0.16983122481E+04  0.15197471685E+04 0.  0.
        2    1    3    3  502    0  0.38097733421E+03  0.40466715714E+03  0.20003957103E+03  0.59069033108E+03  0.25500000920E-02 0.  1.
       -2    1    3    3    0  502 -0.38097733421E+03 -0.40466715714E+03 -0.95808510784E+03  0.11076219170E+04  0.25500000920E-02 0. -1.
</event>
<event>
 5   0  0.8191876E-04  0.1309940E+04  0.7818609E-02  0.9021719E-01
        1   -1    0    0  501    0  0.00000000000E+00  0.00000000000E+00  0.54786958336E+03  0.54786958339E+03  0.50400001928E-02 0. -1.
       -1   -1    0    0    0  501  0.00000000000E+00  0.00000000000E+00 -0.78300754658E+03  0.78300754660E+03  0.50400001928E-02 0.  1.
    10030    2    1    2    0    0  0.00000000000E+00  0.00000000000E+00 -0.23513796322E+03  0.13308771300E+04  0.13099404847E+04 0.  0.
        2    1    3    3  502    0  0.24106796915E+03 -0.56509113372E+03  0.11309329041E+03  0.62468539882E+03  0.25500000920E-02 0. -1.
       -2    1    3    3    0  502 -0.24106796915E+03  0.56509113372E+03 -0.34823125363E+03  0.70619173117E+03  0.25500000920E-02 0.  1.
</event>
<event>
 5   0  0.1484056E-03  0.1496879E+04  0.7818609E-02  0.8886531E-01
        2   -1    0    0  501    0  0.00000000000E+00  0.00000000000E+00  0.10772431009E+04  0.10772431009E+04  0.25500000920E-02 0. -1.
       -2   -1    0    0    0  501  0.00000000000E+00  0.00000000000E+00 -0.51999570418E+03  0.51999570419E+03  0.25500000920E-02 0.  1.
    10030    2    1    2    0    0  0.00000000000E+00  0.00000000000E+00  0.55724739675E+03  0.15972388051E+04  0.14968791332E+04 0.  0.
        5    1    3    3  502    0  0.14464652597E+03  0.72479115054E+03  0.40440332227E+03  0.84250161213E+03  0.46999998093E+01 0.  1.
       -5    1    3    3    0  502 -0.14464652597E+03 -0.72479115054E+03  0.15284407448E+03  0.75473719299E+03  0.46999998093E+01 0. -1.
</event>
<event>
 5   0  0.1500956E-03  0.1486484E+04  0.7818609E-02  0.8893491E-01
        2   -1    0    0  501    0  0.00000000000E+00  0.00000000000E+00  0.11573023743E+04  0.11573023743E+04  0.25500000920E-02 0.  1.
       -2   -1    0    0    0  501  0.00000000000E+00  0.00000000000E+00 -0.47732460067E+03  0.47732460068E+03  0.25500000920E-02 0. -1.
    10030    2    1    2    0    0  0.00000000000E+00  0.00000000000E+00  0.67997777362E+03  0.16346269750E+04  0.14864843002E+04 0.  0.
        4    1    3    3  502    0 -0.31537129798E+03  0.31952190556E+02  0.10792410686E+04  0.11248301628E+04  0.12699999809E+01 0.  1.
       -4    1    3    3    0  502  0.31537129798E+03 -0.31952190556E+02 -0.39926329499E+03  0.50979681217E+03  0.12699999809E+01 0. -1.
</event>
<event>
 5   0  0.1500956E-03  0.1515412E+04  0.7818609E-02  0.8874268E-01
       -2   -1    0    0    0  501  0.00000000000E+00  0.00000000000E+00  0.62380015580E+03  0.62380015580E+03  0.25500000920E-02 0. -1.
        2   -1    0    0  501    0  0.00000000000E+00  0.00000000000E+00 -0.92035636866E+03  0.92035636866E+03  0.25500000920E-02 0.  1.
    10030    2    1    2    0    0  0.00000000000E+00  0.00000000000E+00 -0.29655621287E+03  0.15441565245E+04  0.15154120841E+04 0.  0.
        4    1    3    3  502    0  0.31806080465E+03  0.97734643300E+02 -0.84192679935E+03  0.90529392151E+03  0.12699999809E+01 0.  1.
       -4    1    3    3    0  502 -0.31806080465E+03 -0.97734643300E+02  0.54537058648E+03  0.63886260296E+03  0.12699999809E+01 0. -1.
</event>
<event>
 5   0  0.8058234E-04  0.1631409E+04  0.7818609E-02  0.8801481E-01
        1   -1    0    0  501    0  0.00000000000E+00  0.00000000000E+00  0.43009929228E+03  0.43009929231E+03  0.50400001928E-02 0.  1.
       -1   -1    0    0    0  501  0.00000000000E+00  0.00000000000E+00 -0.15470233090E+04  0.15470233090E+04  0.50400001928E-02 0. -1.
    10030    2    1    2    0    0  0.00000000000E+00  0.00000000000E+00 -0.11169240167E+04  0.19771226013E+04  0.16314087537E+04 0.  0.
        5    1    3    3  502    0  0.12125184558E+03 -0.63111518425E+03 -0.11672506995E+04  0.13324806458E+04  0.46999998093E+01 0. -1.
       -5    1    3    3    0  502 -0.12125184558E+03  0.63111518425E+03  0.50326682806E+02  0.64464195554E+03  0.46999998093E+01 0.  1.
</event>
<event>
 5   0  0.5603875E-04  0.1511658E+04  0.7818609E-02  0.8876737E-01
        3   -1    0    0  501    0  0.00000000000E+00  0.00000000000E+00  0.60397968817E+03  0.60397969662E+03  0.10100000352E+00 0.  1.
       -3   -1    0    0    0  501  0.00000000000E+00  0.00000000000E+00 -0.94585550807E+03  0.94585551346E+03  0.10100000352E+00 0. -1.
    10030    2    1    2    0    0  0.00000000000E+00  0.00000000000E+00 -0.34187581989E+03  0.15498352101E+04  0.15116580639E+04 0.  0.
        4    1    3    3  502    0  0.61131339213E+03  0.33198958508E+03  0.13208485530E+03  0.70807426863E+03  0.12699999809E+01 0. -1.
       -4    1    3    3    0  502 -0.61131339213E+03 -0.33198958508E+03 -0.47396067520E+03  0.84176094144E+03  0.12699999809E+01 0.  1.
</event>
<event>
 5   0  0.8058234E-04  0.1423548E+04  0.7818609E-02  0.8936948E-01
       -1   -1    0    0    0  501  0.00000000000E+00  0.00000000000E+00  0.79436552431E+03  0.79436552432E+03  0.50400001928E-02 0. -1.
        1   -1    0    0  501    0  0.00000000000E+00  0.00000000000E+00 -0.63776934651E+03  0.63776934653E+03  0.50400001928E-02 0.  1.
    10030    2    1    2    0    0  0.00000000000E+00  0.00000000000E+00  0.15659617780E+03  0.14321348709E+04  0.14235476548E+04 0.  0.
        5    1    3    3  502    0  0.33710550525E+03 -0.56458791036E+03 -0.19574233219E+03  0.68610260224E+03  0.46999998093E+01 0.  1.
       -5    1    3    3    0  502 -0.33710550525E+03  0.56458791036E+03  0.35233850999E+03  0.74603226861E+03  0.46999998093E+01 0. -1.
</event>
<event>
 5   0  0.1511546E-03  0.1498381E+04  0.7818609E-02  0.8885530E-01
        2   -1    0    0  501    0  0.00000000000E+00  0.00000000000E+00  0.60627972887E+03  0.60627972888E+03  0.25500000920E-02 0.  1.
       -2   -1    0    0    0  501  0.00000000000E+00  0.00000000000E+00 -0.92578774053E+03  0.92578774054E+03  0.25500000920E-02 0. -1.
    10030    2    1    2    0    0  0.00000000000E+00  0.00000000000E+00 -0.31950801166E+03  0.15320674694E+04  0.14983809133E+04 0.  0.
        1    1    3    3  502    0 -0.13052101702E+03 -0.66884585890E+03  0.15852513967E+03  0.69965758681E+03  0.50400001928E-02 0.  1.
       -1    1    3    3    0  502  0.13052101702E+03  0.66884585890E+03 -0.47803315133E+03  0.83240988260E+03  0.50400001928E-02 0. -1.
</event>
<event>
 5   0  0.1484056E-03  0.1477681E+04  0.7818609E-02  0.8899432E-01
       -2   -1    0    0    0  501  0.00000000000E+00  0.00000000000E+00  0.56344510376E+03  0.56344510377E+03  0.25500000920E-02 0. -1.
        2   -1    0    0  501    0  0.00000000000E+00  0.00000000000E+00 -0.96883457691E+03  0.96883457691E+03  0.25500000920E-02 0.  1.
    10030    2    1    2    0    0  0.00000000000E+00  0.00000000000E+00 -0.40538947315E+03  0.15322796807E+04  0.14776807486E+04 0.  0.
        5    1    3    3  502    0 -0.45831784090E+03 -0.56181791171E+03 -0.55431905623E+02  0.72717906692E+03  0.46999998093E+01 0. -1.
       -5    1    3    3    0  502  0.45831784090E+03  0.56181791171E+03 -0.34995756753E+03  0.80510061376E+03  0.46999998093E+01 0.  1.
</event>
<event>
 5   0  0.8365016E-04  0.1504699E+04  0.7818609E-02  0.8881334E-01
       -1   -1    0    0    0  501  0.00000000000E+00  0.00000000000E+00  0.17829865068E+04  0.17829865068E+04  0.50400001928E-02 0.  1.
        1   -1    0    0  501    0  0.00000000000E+00  0.00000000000E+00 -0.31746168618E+03  0.31746168622E+03  0.50400001928E-02 0. -1.
    10030    2    1    2    0    0  0.00000000000E+00  0.00000000000E+00  0.14655248206E+04  0.21004481930E+04  0.15046991765E+04 0.  0.
        3    1    3    3  502    0  0.63627044378E+03  0.39280667088E+03  0.84865563928E+03  0.11310851262E+04  0.10100000352E+00 0. -1.
       -3    1    3    3    0  502 -0.63627044378E+03 -0.39280667088E+03  0.61686918131E+03  0.96936306685E+03  0.10100000352E+00 0.  1.
</event>
<event>
 5   0  0.1500956E-03  0.1543649E+04  0.7818609E-02  0.8855935E-01
        2   -1    0    0  501    0  0.00000000000E+00  0.00000000000E+00  0.11027520224E+04  0.11027520224E+04  0.25500000920E-02 0. -1.
       -2   -1    0    0    0  501  0.00000000000E+00  0.00000000000E+00 -0.54020558102E+03  0.54020558103E+03  0.25500000920E-02 0.  1.
    10030    2    1    2    0    0  0.00000000000E+00  0.00000000000E+00  0.56254644133E+03  0.16429576034E+04  0.15436486608E+04 0.  0.
        4    1    3    3  502    0 -0.60870845422E+02 -0.64206843823E+03 -0.16997679708E+03  0.66697141142E+03  0.12699999809E+01 0.  1.
       -4    1    3    3    0  502  0.60870845422E+02  0.64206843823E+03  0.73252323841E+03  0.97598619197E+03  0.12699999809E+01 0. -1.
</event>
<event>
 5   0  0.1511546E-03  0.1506251E+04  0.7818609E-02  0.8880307E-01
       -2   -1    0    0    0  501  0.00000000000E+00  0.00000000000E+00  0.39269057177E+03  0.39269057178E+03  0.25500000920E-02 0.  1.
        2   -1    0    0  501    0  0.00000000000E+00  0.00000000000E+00 -0.14443883552E+04  0.14443883552E+04  0.25500000920E-02 0. -1.
    10030    2    1    2    0    0  0.00000000000E+00  0.00000000000E+00 -0.10516977835E+04  0.18370789270E+04  0.15062505623E+04 0.  0.
        1    1    3    3  502    0 -0.35065587012E+02 -0.19302209952E+03 -0.14126772800E+04  0.14262342809E+04  0.50400001928E-02 0. -1.
       -1    1    3    3    0  502  0.35065587012E+02  0.19302209952E+03  0.36097949659E+03  0.41084464616E+03  0.50400001928E-02 0.  1.
</event>
<event>
 5   0  0.8365016E-04  0.1525311E+04  0.7818609E-02  0.8867794E-01
        1   -1    0    0  501    0  0.00000000000E+00  0.00000000000E+00  0.20058809141E+04  0.20058809141E+04  0.50400001928E-02 0. -1.
       -1   -1    0    0    0  501  0.00000000000E+00  0.00000000000E+00 -0.28996916960E+03  0.28996916965E+03  0.50400001928E-02 0.  1.
    10030    2    1    2    0    0  0.00000000000E+00  0.00000000000E+00  0.17159117445E+04  0.22958500837E+04  0.15253112771E+04 0.  0.
        3    1    3    3  502    0  0.52575461472E+03  0.54875746950E+03  0.95422709158E+03  0.12198778741E+04  0.10100000352E+00 0. -1.
       -3    1    3    3    0  502 -0.52575461472E+03 -0.54875746950E+03  0.76168465288E+03  0.10759722096E+04  0.10100000352E+00 0.  1.
</event>
<event>
 5   0  0.1552067E-03  0.1414656E+04  0.7818609E-02  0.8943278E-01
       -2   -1    0    0    0  501  0.00000000000E+00  0.00000000000E+00  0.35199522032E+03  0.35199522033E+03  0.25500000920E-02 0. -1.
        2   -1    0    0  501    0  0.00000000000E+00  0.00000000000E+00 -0.14213629649E+04  0.14213629649E+04  0.25500000920E-02 0.  1.
    10030    2    1    2    0    0  0.00000000000E+00  0.00000000000E+00 -0.10693677446E+04  0.17733581853E+04  0.14146560996E+04 0.  0.
        3    1    3    3  502    0  0.31411560647E+03 -0.42301098557E+02 -0.13273619228E+04  0.13646786001E+04  0.10100000352E+00 0.  1.
       -3    1    3    3    0  502 -0.31411560647E+03  0.42301098557E+02  0.25799417820E+03  0.40867958519E+03  0.10100000352E+00 0. -1.
</event>
<event>
 5   0  0.8365016E-04  0.1581409E+04  0.7818609E-02  0.8832052E-01
        1   -1    0    0  501    0  0.00000000000E+00  0.00000000000E+00  0.52102892620E+03  0.52102892622E+03  0.50400001928E-02 0.  1.
       -1   -1    0    0    0  501  0.00000000000E+00  0.00000000000E+00 -0.11999587808E+04  0.11999587808E+04  0.50400001928E-02 0. -1.
    10030    2    1    2    0    0  0.00000000000E+00  0.00000000000E+00 -0.67892985456E+03  0.17209877070E+04  0.15814085305E+04 0.  0.
        3    1    3    3  502    0 -0.64713909168E+03  0.16422032093E+03 -0.80047728833E+03  0.10423632846E+04  0.10100000352E+00 0. -1.
       -3    1    3    3    0  502  0.64713909168E+03 -0.16422032093E+03  0.12154743377E+03  0.67862442237E+03  0.10100000352E+00 0.  1.
</event>
<event>
 5   0  0.8058234E-04  0.1482787E+04  0.7818609E-02  0.8895981E-01
       -1   -1    0    0    0  501  0.00000000000E+00  0.00000000000E+00  0.74966041200E+03  0.74966041201E+03  0.50400001928E-02 0.  1.
        1   -1    0    0  501    0  0.00000000000E+00  0.00000000000E+00 -0.73321770816E+03  0.73321770818E+03  0.50400001928E-02 0. -1.
    10030    2    1    2    0    0  0.00000000000E+00  0.00000000000E+00  0.16442703832E+02  0.14828781202E+04  0.14827869560E+04 0.  0.
        5    1    3    3  502    0 -0.65903497748E+03  0.19051571638E+02 -0.33084541234E+03  0.73767936177E+03  0.46999998093E+01 0. -1.
       -5    1    3    3    0  502  0.65903497748E+03 -0.19051571638E+02  0.34728811617E+03  0.74519875842E+03  0.46999998093E+01 0.  1.
</event>
<event>
 5   0  0.7870317E-04  0.1494427E+04  0.7818609E-02  0.8888168E-01
        1   -1    0    0  501    0  0.00000000000E+00  0.00000000000E+00  0.96734529041E+03  0.96734529042E+03  0.50400001928E-02 0. -1.
       -1   -1    0    0    0  501  0.00000000000E+00  0.00000000000E+00 -0.57717514986E+03  0.57717514988E+03  0.50400001928E-02 0.  1.
    10030    2    1    2    0    0  0.00000000000E+00  0.00000000000E+00  0.39017014055E+03  0.15445204403E+04  0.14944265295E+04 0.  0.
        1    1    3    3  502    0 -0.67611377783E+03  0.21232482895E+03  0.43991381382E+03  0.83410780908E+03  0.50400001928E-02 0. -1.
       -1    1    3    3    0  502  0.67611377783E+03 -0.21232482895E+03 -0.49743673271E+02  0.71041263123E+03  0.50400001928E-02 0.  1.
</event>
<event>
 5   0  0.7870317E-04  0.1202688E+04  0.7818609E-02  0.9110507E-01
       -1   -1    0    0    0  501  0.00000000000E+00  0.00000000000E+00  0.70213514754E+03  0.70213514755E+03  0.50400001928E-02 0.  1.
        1   -1    0    0  501    0  0.00000000000E+00  0.00000000000E+00 -0.51502145186E+03  0.51502145188E+03  0.50400001928E-02 0. -1.
    10030    2    1    2    0    0  0.00000000000E+00  0.00000000000E+00  0.18711369568E+03  0.12171565994E+04  0.12026880944E+04 0.  0.
        1    1    3    3  502    0 -0.32988157929E+03 -0.23746874318E+02 -0.41470892283E+03  0.53044251441E+03  0.50400001928E-02 0. -1.
       -1    1    3    3    0  502  0.32988157929E+03  0.23746874318E+02  0.60182261851E+03  0.68671408502E+03  0.50400001928E-02 0.  1.
</event>
<event>
 5   0  0.1552067E-03  0.1470265E+04  0.7818609E-02  0.8904471E-01
       -2   -1    0    0    0  501  0.00000000000E+00  0.00000000000E+00  0.21966331199E+03  0.21966331200E+03  0.25500000920E-02 0. -1.
        2   -1    0    0  501    0  0.00000000000E+00  0.00000000000E+00 -0.24602176329E+04  0.24602176329E+04  0.25500000920E-02 0.  1.
    10030    2    1    2    0    0  0.00000000000E+00  0.00000000000E+00 -0.22405543210E+04  0.26798809449E+04  0.14702646748E+04 0.  0.
        3    1    3    3  502    0 -0.31091436968E+02  0.13647588806E+03 -0.24357043231E+04  0.24397229157E+04  0.10100000352E+00 0.  1.
       -3    1    3    3    0  502  0.31091436968E+02 -0.13647588806E+03  0.19515000216E+03  0.24015802926E+03  0.10100000352E+00 0. -1.
</event>
<event>
 5   0  0.7870317E-04  0.1698282E+04  0.7818609E-02  0.8762345E-01
        1   -1    0    0  501    0  0.00000000000E+00  0.00000000000E+00  0.85206781545E+03  0.85206781546E+03  0.50400001928E-02 0.  1.
       -1   -1    0    0    0  501  0.00000000000E+00  0.00000000000E+00 -0.84622423066E+03  0.84622423068E+03  0.50400001928E-02 0. -1.
    10030    2    1    2    0    0  0.00000000000E+00  0.00000000000E+00  0.58435847891E+01  0.16982920461E+04  0.16982819926E+04 0.  0.
        1    1    3    3  502    0 -0.23592933755E+03  0.45505986487E+03 -0.67405954026E+03  0.84681662523E+03  0.50400001928E-02 0. -1.
       -1    1    3    3    0  502  0.23592933755E+03 -0.45505986487E+03  0.67990312505E+03  0.85147542091E+03  0.50400001928E-02 0.  1.
</event>
<event>
 5   0  0.8191876E-04  0.1465140E+04  0.7818609E-02  0.8907971E-01
       -1   -1    0    0    0  501  0.00000000000E+00  0.00000000000E+00  0.88558259902E+03  0.88558259903E+03  0.50400001928E-02 0.  1.
        1   -1    0    0  501    0  0.00000000000E+00  0.00000000000E+00 -0.60599529275E+03  0.60599529277E+03  0.50400001928E-02 0. -1.
    10030    2    1    2    0    0  0.00000000000E+00  0.00000000000E+00  0.27958730626E+03  0.14915778918E+04  0.14651401112E+04 0.  0.
        2    1    3    3  502    0 -0.44622738311E+03  0.50217230354E+03  0.43723516493E+03  0.80154256863E+03  0.25500000920E-02 0.  1.
       -2    1    3    3    0  502  0.44622738311E+03 -0.50217230354E+03 -0.15764785867E+03  0.69003532317E+03  0.25500000920E-02 0. -1.
</event>
<event>
 5   0  0.8058234E-04  0.1486932E+04  0.7818609E-02  0.8893190E-01
        1   -1    0    0  501    0  0.00000000000E+00  0.00000000000E+00  0.42775265940E+03  0.42775265943E+03  0.50400001928E-02 0.  1.
       -1   -1    0    0    0  501  0.00000000000E+00  0.00000000000E+00 -0.12921995573E+04  0.12921995573E+04  0.50400001928E-02 0. -1.
    10030    2    1    2    0    0  0.00000000000E+00  0.00000000000E+00 -0.86444689792E+03  0.17199522168E+04  0.14869321399E+04 0.  0.
        5    1    3    3  502    0  0.39628251798E+03  0.33190565745E+03 -0.10503001394E+04  0.11706210626E+04  0.46999998093E+01 0. -1.
       -5    1    3    3    0  502 -0.39628251798E+03 -0.33190565745E+03  0.18585324148E+03  0.54933115411E+03  0.46999998093E+01 0.  1.
</event>
<event>
 5   0  0.1511546E-03  0.1314764E+04  0.7818609E-02  0.9017938E-01
       -2   -1    0    0    0  501  0.00000000000E+00  0.00000000000E+00  0.46361837025E+03  0.46361837025E+03  0.25500000920E-02 0.  1.
        2   -1    0    0  501    0  0.00000000000E+00  0.00000000000E+00 -0.93212695146E+03  0.93212695147E+03  0.25500000920E-02 0. -1.
    10030    2    1    2    0    0  0.00000000000E+00  0.00000000000E+00 -0.46850858122E+03  0.13957453217E+04  0.13147641281E+04 0.  0.
        1    1    3    3  502    0 -0.36678703143E+03 -0.41853331142E+03 -0.60573370141E+03  0.82256682175E+03  0.50400001928E-02 0. -1.
       -1    1    3    3    0  502  0.36678703143E+03  0.41853331142E+03  0.13722512019E+03  0.57317849997E+03  0.50400001928E-02 0.  1.
</event>
<event>
 5   0  0.1552067E-03  0.1489901E+04  0.7818609E-02  0.8891196E-01
       -2   -1    0    0    0  501  0.00000000000E+00  0.00000000000E+00  0.42795209427E+03  0.42795209428E+03  0.25500000920E-02 0. -1.
        2   -1    0    0  501    0  0.00000000000E+00  0.00000000000E+00 -0.12967603648E+04  0.12967603648E+04  0.25500000920E-02 0.  1.
    10030    2    1    2    0    0  0.00000000000E+00  0.00000000000E+00 -0.86880827054E+03  0.17247124591E+04  0.14899010892E+04 0.  0.
        3    1    3    3  502    0  0.15309472717E+03 -0.17640073448E+03  0.38446823244E+03  0.44985669559E+03  0.10100000352E+00 0. -1.
       -3    1    3    3    0  502 -0.15309472717E+03  0.17640073448E+03 -0.12532765030E+04  0.12748557635E+04  0.10100000352E+00 0.  1.
</event>
<event>
 5   0  0.8306301E-04  0.1360998E+04  0.7818609E-02  0.8982545E-01
        1   -1    0    0  501    0  0.00000000000E+00  0.00000000000E+00  0.11297902079E+04  0.11297902079E+04  0.50400001928E-02 0.  1.
       -1   -1    0    0    0  501  0.00000000000E+00  0.00000000000E+00 -0.40988021888E+03  0.40988021891E+03  0.50400001928E-02 0. -1.
    10030    2    1    2    0    0  0.00000000000E+00  0.00000000000E+00  0.71990998901E+03  0.15396704268E+04  0.13609976601E+04 0.  0.
        4    1    3    3  502    0 -0.66988902376E+03  0.11968533044E+03  0.35873532877E+03  0.76926492932E+03  0.12699999809E+01 0. -1.
       -4    1    3    3    0  502  0.66988902376E+03 -0.11968533044E+03  0.36117466024E+03  0.77040549749E+03  0.12699999809E+01 0.  1.
</event>
<event>
 5   0  0.8191876E-04  0.1293165E+04  0.7818609E-02  0.9035003E-01
        1   -1    0    0  501    0  0.00000000000E+00  0.00000000000E+00  0.10288855138E+04  0.10288855138E+04  0.50400001928E-02 0. -1.
       -1   -1    0    0    0  501  0.00000000000E+00  0.00000000000E+00 -0.40633180146E+03  0.40633180149E+03  0.50400001928E-02 0.  1.
    10030    2    1    2    0    0  0.00000000000E+00  0.00000000000E+00  0.62255371234E+03  0.14352173153E+04  0.12931649614E+04 0.  0.
        2    1    3    3  502    0 -0.38548391210E+03 -0.47575863155E+03  0.54175364515E+03  0.81758249371E+03  0.25500000920E-02 0. -1.
       -2    1    3    3    0  502  0.38548391210E+03  0.47575863155E+03  0.80800067193E+02  0.61763482159E+03  0.25500000920E-02 0.  1.
</event>
<event>
 5   0  0.8306301E-04  0.1345569E+04  0.7818609E-02  0.8994189E-01
        1   -1    0    0  501    0  0.00000000000E+00  0.00000000000E+00  0.16392966294E+04  0.16392966295E+04  0.50400001928E-02 0. -1.
       -1   -1    0    0    0  501  0.00000000000E+00  0.00000000000E+00 -0.27611775505E+03  0.27611775510E+03  0.50400001928E-02 0.  1.
    10030    2    1    2    0    0  0.00000000000E+00  0.00000000000E+00  0.13631788744E+04  0.19154143845E+04  0.13455688838E+04 0.  0.
        4    1    3    3  502    0  0.65013260470E+02 -0.13760016965E+03  0.16144712879E+04  0.16216287131E+04  0.12699999809E+01 0. -1.
       -4    1    3    3    0  502 -0.65013260470E+02  0.13760016965E+03 -0.25129241356E+03  0.29378567142E+03  0.12699999809E+01 0.  1.
</event>
<event>
 5   0  0.7870317E-04  0.1463180E+04  0.7818609E-02  0.8909314E-01
       -1   -1    0    0    0  501  0.00000000000E+00  0.00000000000E+00  0.32059059245E+03  0.32059059249E+03  0.50400001928E-02 0.  1.
        1   -1    0    0  501    0  0.00000000000E+00  0.00000000000E+00 -0.16694931766E+04  0.16694931767E+04  0.50400001928E-02 0. -1.
    10030    2    1    2    0    0  0.00000000000E+00  0.00000000000E+00 -0.13489025842E+04  0.19900837691E+04  0.14631798340E+04 0.  0.
        1    1    3    3  502    0  0.57123356113E+03  0.22449862024E+03 -0.13293597687E+03  0.62799632628E+03  0.50400001928E-02 0.  1.
       -1    1    3    3    0  502 -0.57123356113E+03 -0.22449862024E+03 -0.12159666073E+04  0.13620874429E+04  0.50400001928E-02 0. -1.
</event>
<event>
 5   0  0.5603875E-04  0.1487307E+04  0.7818609E-02  0.8892938E-01
        3   -1    0    0  501    0  0.00000000000E+00  0.00000000000E+00  0.71393251779E+03  0.71393252494E+03  0.10100000352E+00 0. -1.
       -3   -1    0    0    0  501  0.00000000000E+00  0.00000000000E+00 -0.77461142183E+03  0.77461142841E+03  0.10100000352E+00 0.  1.
    10030    2    1    2    0    0  0.00000000000E+00  0.00000000000E+00 -0.60678904034E+02  0.14885439533E+04  0.14873066838E+04 0.  0.
        3    1    3    3  502    0 -0.33979321193E+03  0.47370884212E+03 -0.49241692083E+03  0.76310807105E+03  0.10100000352E+00 0.  1.
       -3    1    3    3    0  502  0.33979321193E+03 -0.47370884212E+03  0.43173801680E+03  0.72543588230E+03  0.10100000352E+00 0. -1.
</event>
<event>
 5   0  0.7870317E-04  0.1480795E+04  0.7818609E-02  0.8897325E-01
        1   -1    0    0  501    0  0.00000000000E+00  0.00000000000E+00  0.63051982699E+03  0.63051982701E+03  0.50400001928E-02 0.  1.
       -1   -1    0    0    0  501  0.00000000000E+00  0.00000000000E+00 -0.86942356509E+03  0.86942356511E+03  0.50400001928E-02 0. -1.
    10030    2    1    2    0    0  0.00000000000E+00  0.00000000000E+00 -0.23890373810E+03  0.14999433921E+04  0.14807954563E+04 0.  0.
        1    1    3    3  502    0 -0.52014536799E+03 -0.34446156764E+03 -0.52333550787E+03  0.81430033111E+03  0.50400001928E-02 0. -1.
       -1    1    3    3    0  502  0.52014536799E+03  0.34446156764E+03  0.28443176977E+03  0.68564306101E+03  0.50400001928E-02 0.  1.
</event>
<event>
 5   0  0.1500956E-03  0.1498024E+04  0.7818609E-02  0.8885768E-01
        2   -1    0    0  501    0  0.00000000000E+00  0.00000000000E+00  0.18493919086E+04  0.18493919086E+04  0.25500000920E-02 0. -1.
       -2   -1    0    0    0  501  0.00000000000E+00  0.00000000000E+00 -0.30335314479E+03  0.30335314480E+03  0.25500000920E-02 0.  1.
    10030    2    1    2    0    0  0.00000000000E+00  0.00000000000E+00  0.15460387638E+04  0.21527450534E+04  0.14980238335E+04 0.  0.
        4    1    3    3  502    0  0.39559276213E+03 -0.92935209569E+02  0.16772085633E+04  0.17257348476E+04  0.12699999809E+01 0. -1.
       -4    1    3    3    0  502 -0.39559276213E+03  0.92935209569E+02 -0.13116979949E+03  0.42701020577E+03  0.12699999809E+01 0.  1.
</event>
<event>
 5   0  0.1500956E-03  0.1582130E+04  0.7818609E-02  0.8831602E-01
        2   -1    0    0  501    0  0.00000000000E+00  0.00000000000E+00  0.19411717269E+04  0.19411717269E+04  0.25500000920E-02 0.  1.
       -2   -1    0    0    0  501  0.00000000000E+00  0.00000000000E+00 -0.32237425202E+03  0.32237425203E+03  0.25500000920E-02 0. -1.
    10030    2    1    2    0    0  0.00000000000E+00  0.00000000000E+00  0.16187974749E+04  0.22635459789E+04  0.15821299359E+04 0.  0.
        4    1    3    3  502    0 -0.46530212768E+03  0.56875290216E+03  0.39033383196E+03  0.83207454414E+03  0.12699999809E+01 0. -1.
       -4    1    3    3    0  502  0.46530212768E+03 -0.56875290216E+03  0.12284636429E+04  0.14314714348E+04  0.12699999809E+01 0.  1.
</event>
<event>
 5   0  0.7870317E-04  0.1507595E+04  0.7818609E-02  0.8879418E-01
        1   -1    0    0  501    0  0.00000000000E+00  0.00000000000E+00  0.12838147840E+04  0.12838147840E+04  0.50400001928E-02 0.  1.
       -1   -1    0    0    0  501  0.00000000000E+00  0.00000000000E+00 -0.44259572860E+03  0.44259572863E+03  0.50400001928E-02 0. -1.
    10030    2    1    2    0    0  0.00000000000E+00  0.00000000000E+00  0.84121905538E+03  0.17264105126E+04  0.15075953565E+04 0.  0.
        1    1    3    3  502    0  0.66270590826E+03  0.19965549347E+03  0.76256334268E+03  0.10298273101E+04  0.50400001928E-02 0.  1.
       -1    1    3    3    0  502 -0.66270590826E+03 -0.19965549347E+03  0.78655712701E+02  0.69658320256E+03  0.50400001928E-02 0. -1.
</event>
<event>
 5   0  0.8306301E-04  0.1529290E+04  0.7818609E-02  0.8865205E-01
        1   -1    0    0  501    0  0.00000000000E+00  0.00000000000E+00  0.12914615409E+04  0.12914615409E+04  0.50400001928E-02 0. -1.
       -1   -1    0    0    0  501  0.00000000000E+00  0.00000000000E+00 -0.45272919346E+03  0.45272919349E+03  0.50400001928E-02 0.  1.
    10030    2    1    2    0    0  0.00000000000E+00  0.00000000000E+00  0.83873234742E+03  0.17441907344E+04  0.15292904784E+04 0.  0.
        4    1    3    3  502    0  0.36427930246E+03  0.64462727327E+03  0.20165772629E+03  0.76740548807E+03  0.12699999809E+01 0.  1.
       -4    1    3    3    0  502 -0.36427930246E+03 -0.64462727327E+03  0.63707462113E+03  0.97678524632E+03  0.12699999809E+01 0. -1.
</event>
<event>
 5   0  0.1500956E-03  0.1482552E+04  0.7818609E-02  0.8896139E-01
        2   -1    0    0  501    0  0.00000000000E+00  0.00000000000E+00  0.22017565649E+04  0.22017565649E+04  0.25500000920E-02 0. -1.
       -2   -1    0    0    0  501  0.00000000000E+00  0.00000000000E+00 -0.24956898581E+03  0.24956898583E+03  0.25500000920E-02 0.  1.
    10030    2    1    2    0    0  0.00000000000E+00  0.00000000000E+00  0.19521875791E+04  0.24513255508E+04  0.14825520604E+04 0.  0.
        4    1    3    3  502    0 -0.62199535347E+03  0.12616928949E+03  0.16093707784E+04  0.17299921458E+04  0.12699999809E+01 0. -1.
       -4    1    3    3    0  502  0.62199535347E+03 -0.12616928949E+03  0.34281680075E+03  0.72133340497E+03  0.12699999809E+01 0.  1.
</event>
<event>
 5   0  0.1500956E-03  0.1372090E+04  0.7818609E-02  0.8974273E-01
       -2   -1    0    0    0  501  0.00000000000E+00  0.00000000000E+00  0.64629675313E+03  0.64629675314E+03  0.25500000920E-02 0.  1.
        2   -1    0    0  501    0  0.00000000000E+00  0.00000000000E+00 -0.72823797748E+03  0.72823797749E+03  0.25500000920E-02 0. -1.
    10030    2    1    2    0    0  0.00000000000E+00  0.00000000000E+00 -0.81941224348E+02  0.13745347306E+04  0.13720901433E+04 0.  0.
        4    1    3    3  502    0 -0.29203986372E+03 -0.89056761623E+02 -0.65642488554E+03  0.72395692693E+03  0.12699999809E+01 0. -1.
       -4    1    3    3    0  502  0.29203986372E+03  0.89056761623E+02  0.57448366119E+03  0.65057780370E+03  0.12699999809E+01 0.  1.
</event>
<event>
 5   0  0.1484056E-03  0.1497759E+04  0.7818609E-02  0.8885944E-01
        2   -1    0    0  501    0  0.00000000000E+00  0.00000000000E+00  0.86713400245E+03  0.86713400246E+03  0.25500000920E-02 0. -1.
       -2   -1    0    0    0  501  0.00000000000E+00  0.00000000000E+00 -0.64675199163E+03  0.64675199164E+03  0.25500000920E-02 0.  1.
    10030    2    1    2    0    0  0.00000000000E+00  0.00000000000E+00  0.22038201082E+03  0.15138859941E+04  0.14977591837E+04 0.  0.
        5    1    3    3  502    0 -0.67962990487E+03 -0.12523656067E+03 -0.18138960517E+03  0.71449652385E+03  0.46999998093E+01 0.  1.
       -5    1    3    3    0  502  0.67962990487E+03  0.12523656067E+03  0.40177161599E+03  0.79938947025E+03  0.46999998093E+01 0. -1.
</event>
<event>
 5   0  0.1511546E-03  0.1577704E+04  0.7818609E-02  0.8834364E-01
       -2   -1    0    0    0  501  0.00000000000E+00  0.00000000000E+00  0.57470154144E+03  0.57470154145E+03  0.25500000920E-02 0. -1.
        2   -1    0    0  501    0  0.00000000000E+00  0.00000000000E+00 -0.10828008121E+04  0.10828008121E+04  0.25500000920E-02 0.  1.
    10030    2    1    2    0    0  0.00000000000E+00  0.00000000000E+00 -0.50809927069E+03  0.16575023536E+04  0.15777037692E+04 0.  0.
        1    1    3    3  502    0  0.29210419032E+03  0.33594758758E+03 -0.93821908068E+03  0.10384799868E+04  0.50400001928E-02 0.  1.
       -1    1    3    3    0  502 -0.29210419032E+03 -0.33594758758E+03  0.43011980999E+03  0.61902236678E+03  0.50400001928E-02 0. -1.
</event>
<event>
 5   0  0.8058234E-04  0.1505576E+04  0.7818609E-02  0.8880753E-01
       -1   -1    0    0    0  501  0.00000000000E+00  0.00000000000E+00  0.67757508344E+03  0.67757508346E+03  0.50400001928E-02 0. -1.
        1   -1    0    0  501    0  0.00000000000E+00  0.00000000000E+00 -0.83634977994E+03  0.83634977996E+03  0.50400001928E-02 0.  1.
    10030    2    1    2    0    0  0.00000000000E+00  0.00000000000E+00 -0.15877469650E+03  0.15139248634E+04  0.15055759987E+04 0.  0.
        5    1    3    3  502    0 -0.60653370488E+03  0.40170093159E+03 -0.27390490301E+03  0.77736269494E+03  0.46999998093E+01 0.  1.
       -5    1    3    3    0  502  0.60653370488E+03 -0.40170093159E+03  0.11513020651E+03  0.73656216848E+03  0.46999998093E+01 0. -1.
</event>
<event>
 5   0  0.1484056E-03  0.1432297E+04  0.7818609E-02  0.8930766E-01
        2   -1    0    0  501    0  0.00000000000E+00  0.00000000000E+00  0.35917089174E+03  0.35917089175E+03  0.25500000920E-02 0.  1.
       -2   -1    0    0    0  501  0.00000000000E+00  0.00000000000E+00 -0.14279242399E+04  0.14279242399E+04  0.25500000920E-02 0. -1.
    10030    2    1    2    0    0  0.00000000000E+00  0.00000000000E+00 -0.10687533481E+04  0.17870951316E+04  0.14322972074E+04 0.  0.
        5    1    3    3  502    0  0.48868266165E+03 -0.47751136269E+03 -0.80203612536E+03  0.10536184706E+04  0.46999998093E+01 0.  1.
       -5    1    3    3    0  502 -0.48868266165E+03  0.47751136269E+03 -0.26671722279E+03  0.73347666099E+03  0.46999998093E+01 0. -1.
</event>
<event>
 5   0  0.8191876E-04  0.1445031E+04  0.7818609E-02  0.8921852E-01
        1   -1    0    0  501    0  0.00000000000E+00  0.00000000000E+00  0.86095890772E+03  0.86095890774E+03  0.50400001928E-02 0.  1.
       -1   -1    0    0    0  501  0.00000000000E+00  0.00000000000E+00 -0.60633438884E+03  0.60633438886E+03  0.50400001928E-02 0. -1.
    10030    2    1    2    0    0  0.00000000000E+00  0.00000000000E+00  0.25462451889E+03  0.14672932966E+04  0.14450314781E+04 0.  0.
        2    1    3    3  502    0  0.55394319040E+03 -0.59559883189E+01  0.59829031606E+03  0.81537711170E+03  0.25500000920E-02 0. -1.
       -2    1    3    3    0  502 -0.55394319040E+03  0.59559883189E+01 -0.34366579717E+03  0.65191618490E+03  0.25500000920E-02 0.  1.
</event>
<event>
 5   0  0.1484056E-03  0.1445482E+04  0.7818609E-02  0.8921539E-01
        2   -1    0    0  501    0  0.00000000000E+00  0.00000000000E+00  0.16214075357E+04  0.16214075357E+04  0.25500000920E-02 0.  1.
       -2   -1    0    0    0  501  0.00000000000E+00  0.00000000000E+00 -0.32216121682E+03  0.32216121683E+03  0.25500000920E-02 0. -1.
    10030    2    1    2    0    0  0.00000000000E+00  0.00000000000E+00  0.12992463188E+04  0.19435687525E+04  0.14454820990E+04 0.  0.
        5    1    3    3  502    0  0.42808866587E+03 -0.16081377074E+03 -0.10287610839E+03  0.46874999561E+03  0.46999998093E+01 0. -1.
       -5    1    3    3    0  502 -0.42808866587E+03  0.16081377074E+03  0.14021224272E+04  0.14748187569E+04  0.46999998093E+01 0.  1.
</event>
<event>
 5   0  0.8365016E-04  0.1483651E+04  0.7818609E-02  0.8895398E-01
       -1   -1    0    0    0  501  0.00000000000E+00  0.00000000000E+00  0.72536209042E+03  0.72536209043E+03  0.50400001928E-02 0. -1.
        1   -1    0    0  501    0  0.00000000000E+00  0.00000000000E+00 -0.75866264779E+03  0.75866264780E+03  0.50400001928E-02 0.  1.
    10030    2    1    2    0    0  0.00000000000E+00  0.00000000000E+00 -0.33300557370E+02  0.14840247382E+04  0.14836510697E+04 0.  0.
        3    1    3    3  502    0  0.21495257989E+03 -0.68008876293E+03 -0.22061283373E+03  0.74658915722E+03  0.10100000352E+00 0. -1.
       -3    1    3    3    0  502 -0.21495257989E+03  0.68008876293E+03  0.18731227636E+03  0.73743558102E+03  0.10100000352E+00 0.  1.
</event>
<event>
 5   0  0.8306301E-04  0.1509919E+04  0.7818609E-02  0.8877884E-01
        1   -1    0    0  501    0  0.00000000000E+00  0.00000000000E+00  0.92150772115E+03  0.92150772117E+03  0.50400001928E-02 0.  1.
       -1   -1    0    0    0  501  0.00000000000E+00  0.00000000000E+00 -0.61851207950E+03  0.61851207952E+03  0.50400001928E-02 0. -1.
    10030    2    1    2    0    0  0.00000000000E+00  0.00000000000E+00  0.30299564166E+03  0.15400198007E+04  0.15099187487E+04 0.  0.
        4    1    3    3  502    0  0.44049624610E+03  0.42547169422E+03 -0.29877679461E+03  0.68141932120E+03  0.12699999809E+01 0.  1.
       -4    1    3    3    0  502 -0.44049624610E+03 -0.42547169422E+03  0.60177243627E+03  0.85860047948E+03  0.12699999809E+01 0. -1.
</event>
<event>
 5   0  0.8365016E-04  0.1508122E+04  0.7818609E-02  0.8879070E-01
        1   -1    0    0  501    0  0.00000000000E+00  0.00000000000E+00  0.15182518998E+04  0.15182518998E+04  0.50400001928E-02 0. -1.
       -1   -1    0    0    0  501  0.00000000000E+00  0.00000000000E+00 -0.37451484566E+03  0.37451484569E+03  0.50400001928E-02 0.  1.
    10030    2    1    2    0    0  0.00000000000E+00  0.00000000000E+00  0.11437370542E+04  0.18927667455E+04  0.15081218465E+04 0.  0.
        3    1    3    3  502    0  0.45669149076E+03  0.56060082676E+02  0.13216465946E+04  0.13994497426E+04  0.10100000352E+00 0.  1.
       -3    1    3    3    0  502 -0.45669149076E+03 -0.56060082676E+02 -0.17790954050E+03  0.49331700295E+03  0.10100000352E+00 0. -1.
</event>
<event>
 5   0  0.8365016E-04  0.1015537E+04  0.7818609E-02  0.9291666E-01
       -1   -1    0    0    0  501  0.00000000000E+00  0.00000000000E+00  0.24894536101E+03  0.24894536106E+03  0.50400001928E-02 0.  1.
        1   -1    0    0  501    0  0.00000000000E+00  0.00000000000E+00 -0.10356844789E+04  0.10356844789E+04  0.50400001928E-02 0. -1.
    10030    2    1    2    0    0  0.00000000000E+00  0.00000000000E+00 -0.78673911791E+03  0.12846298400E+04  0.10155369940E+04 0.  0.
        3    1    3    3  502    0  0.10263721405E+03  0.25366117858E+03 -0.93443399953E+03  0.97367617867E+03  0.10100000352E+00 0.  1.
       -3    1    3    3    0  502 -0.10263721405E+03 -0.25366117858E+03  0.14769488162E+03  0.31095366132E+03  0.10100000352E+00 0. -1.
</event>
<event>
 5   0  0.1526126E-03  0.1446169E+04  0.7818609E-02  0.8921061E-01
        2   -1    0    0  501    0  0.00000000000E+00  0.00000000000E+00  0.20876809417E+04  0.20876809417E+04  0.25500000920E-02 0.  1.
       -2   -1    0    0    0  501  0.00000000000E+00  0.00000000000E+00 -0.25044577337E+03  0.25044577338E+03  0.25500000920E-02 0. -1.
    10030    2    1    2    0    0  0.00000000000E+00  0.00000000000E+00  0.18372351684E+04  0.23381267151E+04  0.14461685490E+04 0.  0.
        2    1    3    3  502    0  0.53557333817E+03  0.15200772948E+03  0.17261077054E+03  0.58287188000E+03  0.25500000920E-02 0. -1.
       -2    1    3    3    0  502 -0.53557333817E+03 -0.15200772948E+03  0.16646243978E+04  0.17552548351E+04  0.25500000920E-02 0.  1.
</event>
<event>
 5   0  0.8058234E-04  0.1476443E+04  0.7818609E-02  0.8900271E-01
       -1   -1    0    0    0  501  0.00000000000E+00  0.00000000000E+00  0.65306691942E+03  0.65306691943E+03  0.50400001928E-02 0. -1.
        1   -1    0    0  501    0  0.00000000000E+00  0.00000000000E+00 -0.83447931109E+03  0.83447931111E+03  0.50400001928E-02 0.  1.
    10030    2    1    2    0    0  0.00000000000E+00  0.00000000000E+00 -0.18141239168E+03  0.14875462305E+04  0.14764427968E+04 0.  0.
        5    1    3    3  502    0 -0.52722440223E+03 -0.28588564821E+03 -0.52435281610E+03  0.79665810729E+03  0.46999998093E+01 0.  1.
       -5    1    3    3    0  502  0.52722440223E+03  0.28588564821E+03  0.34294042443E+03  0.69088812326E+03  0.46999998093E+01 0. -1.
</event>
<event>
 5   0  0.8191876E-04  0.1480499E+04  0.7818609E-02  0.8897525E-01
        1   -1    0    0  501    0  0.00000000000E+00  0.00000000000E+00  0.70068633287E+03  0.70068633289E+03  0.50400001928E-02 0. -1.
       -1   -1    0    0    0  501  0.00000000000E+00  0.00000000000E+00 -0.78204657832E+03  0.78204657834E+03  0.50400001928E-02 0.  1.
    10030    2    1    2    0    0  0.00000000000E+00  0.00000000000E+00 -0.81360245455E+02  0.14827329112E+04  0.14804990363E+04 0.  0.
        2    1    3    3  502    0  0.22817429392E+03  0.43479333073E+03 -0.59546595713E+03  0.77180856108E+03  0.25500000920E-02 0.  1.
       -2    1    3    3    0  502 -0.22817429392E+03 -0.43479333073E+03  0.51410571167E+03  0.71092435015E+03  0.25500000920E-02 0. -1.
</event>
<event>
 5   0  0.8365016E-04  0.1503865E+04  0.7818609E-02  0.8881887E-01
       -1   -1    0    0    0  501  0.00000000000E+00  0.00000000000E+00  0.59754494625E+03  0.59754494628E+03  0.50400001928E-02 0.  1.
        1   -1    0    0  501    0  0.00000000000E+00  0.00000000000E+00 -0.94620945838E+03  0.94620945840E+03  0.50400001928E-02 0. -1.
    10030    2    1    2    0    0  0.00000000000E+00  0.00000000000E+00 -0.34866451213E+03  0.15437544047E+04  0.15038652599E+04 0.  0.
        3    1    3    3  502    0 -0.63860940550E+03  0.13995912588E+02 -0.58157250265E+03  0.86385441158E+03  0.10100000352E+00 0. -1.
       -3    1    3    3    0  502  0.63860940550E+03 -0.13995912588E+02  0.23290799052E+03  0.67989999310E+03  0.10100000352E+00 0.  1.
</event>
<event>
 5   0  0.1511546E-03  0.1503406E+04  0.7818609E-02  0.8882191E-01
        2   -1    0    0  501    0  0.00000000000E+00  0.00000000000E+00  0.87593102451E+03  0.87593102452E+03  0.25500000920E-02 0. -1.
       -2   -1    0    0    0  501  0.00000000000E+00  0.00000000000E+00 -0.64509361215E+03  0.64509361216E+03  0.25500000920E-02 0.  1.
    10030    2    1    2    0    0  0.00000000000E+00  0.00000000000E+00  0.23083741236E+03  0.15210246367E+04  0.15034061442E+04 0.  0.
        1    1    3    3  502    0 -0.68241995818E+03  0.27962982069E+03 -0.31777454705E+02  0.73817317927E+03  0.50400001928E-02 0.  1.
       -1    1    3    3    0  502  0.68241995818E+03 -0.27962982069E+03  0.26261486706E+03  0.78285145741E+03  0.50400001928E-02 0. -1.
</event>
<event>
 5   0  0.1526126E-03  0.1509435E+04  0.7818609E-02  0.8878203E-01
       -2   -1    0    0    0  501  0.00000000000E+00  0.00000000000E+00  0.32327261609E+03  0.32327261610E+03  0.25500000920E-02 0.  1.
        2   -1    0    0  501    0  0.00000000000E+00  0.00000000000E+00 -0.17619768933E+04  0.17619768933E+04  0.25500000920E-02 0. -1.
    10030    2    1    2    0    0  0.00000000000E+00  0.00000000000E+00 -0.14387042772E+04  0.20852495094E+04  0.15094354969E+04 0.  0.
        2    1    3    3  502    0  0.21210311774E+03  0.50751251834E+01 -0.17199315549E+04  0.17329679868E+04  0.25500000920E-02 0. -1.
       -2    1    3    3    0  502 -0.21210311774E+03 -0.50751251834E+01  0.28122727773E+03  0.35228152265E+03  0.25500000920E-02 0.  1.
</event>
<event>
 5   0  0.8365016E-04  0.1457228E+04  0.7818609E-02  0.8913404E-01
       -1   -1    0    0    0  501  0.00000000000E+00  0.00000000000E+00  0.24366073901E+03  0.24366073906E+03  0.50400001928E-02 0.  1.
        1   -1    0    0  501    0  0.00000000000E+00  0.00000000000E+00 -0.21787616419E+04  0.21787616419E+04  0.50400001928E-02 0. -1.
    10030    2    1    2    0    0  0.00000000000E+00  0.00000000000E+00 -0.19351009029E+04  0.24224223810E+04  0.14572284266E+04 0.  0.
        3    1    3    3  502    0 -0.57310115345E+03 -0.24565399057E+03 -0.34093557426E+03  0.71065314407E+03  0.10100000352E+00 0.  1.
       -3    1    3    3    0  502  0.57310115345E+03  0.24565399057E+03 -0.15941653286E+04  0.17117692369E+04  0.10100000352E+00 0. -1.
</event>
<event>
 5   0  0.1511546E-03  0.1489176E+04  0.7818609E-02  0.8891683E-01
        2   -1    0    0  501    0  0.00000000000E+00  0.00000000000E+00  0.73585516659E+03  0.73585516660E+03  0.25500000920E-02 0.  1.
       -2   -1    0    0    0  501  0.00000000000E+00  0.00000000000E+00 -0.75342483058E+03  0.75342483059E+03  0.25500000920E-02 0. -1.
    10030    2    1    2    0    0  0.00000000000E+00  0.00000000000E+00 -0.17569663992E+02  0.14892799972E+04  0.14891763552E+04 0.  0.
        1    1    3    3  502    0  0.30473450104E+03  0.13438011846E+03  0.65721228141E+03  0.73678294987E+03  0.50400001928E-02 0.  1.
       -1    1    3    3    0  502 -0.30473450104E+03 -0.13438011846E+03 -0.67478194540E+03  0.75249704732E+03  0.50400001928E-02 0. -1.
</event>
<event>
 5   0  0.7870317E-04  0.1457828E+04  0.7818609E-02  0.8912991E-01
        1   -1    0    0  501    0  0.00000000000E+00  0.00000000000E+00  0.67458928064E+03  0.67458928066E+03  0.50400001928E-02 0.  1.
       -1   -1    0    0    0  501  0.00000000000E+00  0.00000000000E+00 -0.78761352332E+03  0.78761352334E+03  0.50400001928E-02 0. -1.
    10030    2    1    2    0    0  0.00000000000E+00  0.00000000000E+00 -0.11302424269E+03  0.14622028040E+04  0.14578280285E+04 0.  0.
        1    1    3    3  502    0  0.17234851509E+03  0.62864990192E+03 -0.38369791360E+03  0.75639196107E+03  0.50400001928E-02 0.  1.
       -1    1    3    3    0  502 -0.17234851509E+03 -0.62864990192E+03  0.27067367091E+03  0.70581084293E+03  0.50400001928E-02 0. -1.
</event>
<event>
 5   0  0.8365016E-04  0.1522862E+04  0.7818609E-02  0.8869390E-01
       -1   -1    0    0    0  501  0.00000000000E+00  0.00000000000E+00  0.13091469150E+04  0.13091469150E+04  0.50400001928E-02 0. -1.
        1   -1    0    0  501    0  0.00000000000E+00  0.00000000000E+00 -0.44286658651E+03  0.44286658654E+03  0.50400001928E-02 0.  1.
    10030    2    1    2    0    0  0.00000000000E+00  0.00000000000E+00  0.86628032847E+03  0.17520135015E+04  0.15228623385E+04 0.  0.
        3    1    3    3  502    0 -0.44801340499E+03 -0.30123283510E+03 -0.18461207025E+03  0.57056012713E+03  0.10100000352E+00 0.  1.
       -3    1    3    3    0  502  0.44801340499E+03  0.30123283510E+03  0.10508923987E+04  0.11814533744E+04  0.10100000352E+00 0. -1.
</event>
<event>
 5   0  0.1500956E-03  0.1485386E+04  0.7818609E-02  0.8894229E-01
        2   -1    0    0  501    0  0.00000000000E+00  0.00000000000E+00  0.85610951519E+03  0.85610951520E+03  0.25500000920E-02 0. -1.
       -2   -1    0    0    0  501  0.00000000000E+00  0.00000000000E+00 -0.64430200847E+03  0.64430200847E+03  0.25500000920E-02 0.  1.
    10030    2    1    2    0    0  0.00000000000E+00  0.00000000000E+00  0.21180750672E+03  0.15004115237E+04  0.14853862530E+04 0.  0.
        4    1    3    3  502    0  0.41390827292E+01 -0.60161611807E+03 -0.33396918115E+03  0.68811053791E+03  0.12699999809E+01 0.  1.
       -4    1    3    3    0  502 -0.41390827292E+01  0.60161611807E+03  0.54577668788E+03  0.81230098576E+03  0.12699999809E+01 0. -1.
</event>
<event>
 5   0  0.5603875E-04  0.1481280E+04  0.7818609E-02  0.8896998E-01
       -4   -1    0    0    0  501  0.00000000000E+00  0.00000000000E+00  0.13164466180E+04  0.13164472306E+04  0.12699999809E+01 0.  1.
        4   -1    0    0  501    0  0.00000000000E+00  0.00000000000E+00 -0.41668629007E+03  0.41668822545E+03  0.12699999809E+01 0. -1.
    10030    2    1    2    0    0  0.00000000000E+00  0.00000000000E+00  0.89976032791E+03  0.17331354560E+04  0.14812798052E+04 0.  0.
        4    1    3    3  502    0 -0.24414649313E+03 -0.43762252106E+03  0.10879732608E+04  0.11978348843E+04  0.12699999809E+01 0.  1.
       -4    1    3    3    0  502  0.24414649313E+03  0.43762252106E+03 -0.18821293288E+03  0.53530057169E+03  0.12699999809E+01 0. -1.
</event>
<event>
 5   0  0.1511546E-03  0.1430089E+04  0.7818609E-02  0.8932322E-01
       -2   -1    0    0    0  501  0.00000000000E+00  0.00000000000E+00  0.33900537992E+03  0.33900537993E+03  0.25500000920E-02 0. -1.
        2   -1    0    0  501    0  0.00000000000E+00  0.00000000000E+00 -0.15082030639E+04  0.15082030639E+04  0.25500000920E-02 0.  1.
    10030    2    1    2    0    0  0.00000000000E+00  0.00000000000E+00 -0.11691976840E+04  0.18472084438E+04  0.14300894415E+04 0.  0.
        1    1    3    3  502    0  0.55102284207E+03 -0.41355526780E+03 -0.83182802848E+03  0.10800888857E+04  0.50400001928E-02 0.  1.
       -1    1    3    3    0  502 -0.55102284207E+03  0.41355526780E+03 -0.33736965551E+03  0.76711955815E+03  0.50400001928E-02 0. -1.
</event>
<event>
 5   0  0.1484056E-03  0.1503689E+04  0.7818609E-02  0.8882003E-01
       -2   -1    0    0    0  501  0.00000000000E+00  0.00000000000E+00  0.44322178683E+03  0.44322178683E+03  0.25500000920E-02 0.  1.
        2   -1    0    0  501    0  0.00000000000E+00  0.00000000000E+00 -0.12753669635E+04  0.12753669635E+04  0.25500000920E-02 0. -1.
    10030    2    1    2    0    0  0.00000000000E+00  0.00000000000E+00 -0.83214517668E+03  0.17185887503E+04  0.15036893621E+04 0.  0.
        5    1    3    3  502    0 -0.45024910056E+03 -0.59365735550E+03 -0.30123936350E+03  0.80369182677E+03  0.46999998093E+01 0.  1.
       -5    1    3    3    0  502  0.45024910056E+03  0.59365735550E+03 -0.53090581318E+03  0.91489692357E+03  0.46999998093E+01 0. -1.
</event>
<event>
 5   0  0.1500956E-03  0.1585180E+04  0.7818609E-02  0.8829704E-01
        2   -1    0    0  501    0  0.00000000000E+00  0.00000000000E+00  0.78839986974E+03  0.78839986974E+03  0.25500000920E-02 0.  1.
       -2   -1    0    0    0  501  0.00000000000E+00  0.00000000000E+00 -0.79680250387E+03  0.79680250388E+03  0.25500000920E-02 0. -1.
    10030    2    1    2    0    0  0.00000000000E+00  0.00000000000E+00 -0.84026341386E+01  0.15852023736E+04  0.15851801037E+04 0.  0.
        4    1    3    3  502    0  0.11632102789E+03 -0.36246728273E+03  0.69099494591E+03  0.78891618106E+03  0.12699999809E+01 0.  1.
       -4    1    3    3    0  502 -0.11632102789E+03  0.36246728273E+03 -0.69939758005E+03  0.79628619255E+03  0.12699999809E+01 0. -1.
</event>
<event>
 5   0  0.8365016E-04  0.1522903E+04  0.7818609E-02  0.8869364E-01
        1   -1    0    0  501    0  0.00000000000E+00  0.00000000000E+00  0.48802352374E+03  0.48802352376E+03  0.50400001928E-02 0. -1.
       -1   -1    0    0    0  501  0.00000000000E+00  0.00000000000E+00 -0.11880753687E+04  0.11880753688E+04  0.50400001928E-02 0.  1.
    10030    2    1    2    0    0  0.00000000000E+00  0.00000000000E+00 -0.70005184501E+03  0.16760988925E+04  0.15229034480E+04 0.  0.
        3    1    3    3  502    0  0.22277258809E+03  0.65922302451E+03 -0.97195663988E+01  0.69591457968E+03  0.10100000352E+00 0. -1.
       -3    1    3    3    0  502 -0.22277258809E+03 -0.65922302451E+03 -0.69033227861E+03  0.98018431284E+03  0.10100000352E+00 0.  1.
</event>
<event>
 5   0  0.8365016E-04  0.1502463E+04  0.7818609E-02  0.8882817E-01
       -1   -1    0    0    0  501  0.00000000000E+00  0.00000000000E+00  0.64599847237E+03  0.64599847239E+03  0.50400001928E-02 0.  1.
        1   -1    0    0  501    0  0.00000000000E+00  0.00000000000E+00 -0.87360703327E+03  0.87360703329E+03  0.50400001928E-02 0. -1.
    10030    2    1    2    0    0  0.00000000000E+00  0.00000000000E+00 -0.22760856090E+03  0.15196055057E+04  0.15024630564E+04 0.  0.
        3    1    3    3  502    0  0.69154009820E+02 -0.39182822834E+03  0.53067646616E+03  0.66327155792E+03  0.10100000352E+00 0.  1.
       -3    1    3    3    0  502 -0.69154009820E+02  0.39182822834E+03 -0.75828502707E+03  0.85633394775E+03  0.10100000352E+00 0. -1.
</event>
<event>
 5   0  0.1552067E-03  0.1525330E+04  0.7818609E-02  0.8867781E-01
       -2   -1    0    0    0  501  0.00000000000E+00  0.00000000000E+00  0.79549099018E+03  0.79549099018E+03  0.25500000920E-02 0. -1.
        2   -1    0    0  501    0  0.00000000000E+00  0.00000000000E+00 -0.73119389073E+03  0.73119389074E+03  0.25500000920E-02 0.  1.
    10030    2    1    2    0    0  0.00000000000E+00  0.00000000000E+00  0.64297099445E+02  0.15266848809E+04  0.15253303277E+04 0.  0.
        3    1    3    3  502    0  0.32161315902E+03  0.40486942610E+03  0.59327450878E+03  0.78697454165E+03  0.10100000352E+00 0. -1.
       -3    1    3    3    0  502 -0.32161315902E+03 -0.40486942610E+03 -0.52897740933E+03  0.73971033927E+03  0.10100000352E+00 0.  1.
</event>
<event>
 5   0  0.1500956E-03  0.1495419E+04  0.7818609E-02  0.8887505E-01
        2   -1    0    0  501    0  0.00000000000E+00  0.00000000000E+00  0.46191226424E+03  0.46191226425E+03  0.25500000920E-02 0. -1.
       -2   -1    0    0    0  501  0.00000000000E+00  0.00000000000E+00 -0.12103376086E+04  0.12103376086E+04  0.25500000920E-02 0.  1.
    10030    2    1    2    0    0  0.00000000000E+00  0.00000000000E+00 -0.74842534431E+03  0.16722498728E+04  0.14954193864E+04 0.  0.
        4    1    3    3  502    0 -0.68049011120E+03 -0.26013337485E+03 -0.18598787204E+03  0.75188381124E+03  0.12699999809E+01 0. -1.
       -4    1    3    3    0  502  0.68049011120E+03  0.26013337485E+03 -0.56243747227E+03  0.92036606156E+03  0.12699999809E+01 0.  1.
</event>
<event>
 5   0  0.8191876E-04  0.1495261E+04  0.7818609E-02  0.8887610E-01
       -1   -1    0    0    0  501  0.00000000000E+00  0.00000000000E+00  0.70229628356E+03  0.70229628358E+03  0.50400001928E-02 0. -1.
        1   -1    0    0  501    0  0.00000000000E+00  0.00000000000E+00 -0.79589107501E+03  0.79589107503E+03  0.50400001928E-02 0.  1.
    10030    2    1    2    0    0  0.00000000000E+00  0.00000000000E+00 -0.93594791449E+02  0.14981873586E+04  0.14952609727E+04 0.  0.
        2    1    3    3  502    0  0.67000744731E+03  0.23357639304E+03  0.18921281559E+03  0.73434964453E+03  0.25500000920E-02 0. -1.
       -2    1    3    3    0  502 -0.67000744731E+03 -0.23357639304E+03 -0.28280760704E+03  0.76383771407E+03  0.25500000920E-02 0.  1.
</event>
<event>
 5   0  0.7870317E-04  0.1337033E+04  0.7818609E-02  0.9000702E-01
        1   -1    0    0  501    0  0.00000000000E+00  0.00000000000E+00  0.20434685493E+04  0.20434685493E+04  0.50400001928E-02 0.  1.
       -1   -1    0    0    0  501  0.00000000000E+00  0.00000000000E+00 -0.21870383130E+03  0.21870383136E+03  0.50400001928E-02 0. -1.
    10030    2    1    2    0    0  0.00000000000E+00  0.00000000000E+00  0.18247647180E+04  0.22621723807E+04  0.13370331349E+04 0.  0.
        1    1    3    3  502    0 -0.53581244130E+03 -0.37829449943E+03  0.11311115966E+04  0.13075225216E+04  0.50400001928E-02 0.  1.
       -1    1    3    3    0  502  0.53581244130E+03  0.37829449943E+03  0.69365312146E+03  0.95464985911E+03  0.50400001928E-02 0. -1.
</event>
<event>
 5   0  0.8191876E-04  0.1496818E+04  0.7818609E-02  0.8886572E-01
       -1   -1    0    0    0  501  0.00000000000E+00  0.00000000000E+00  0.44120415805E+03  0.44120415807E+03  0.50400001928E-02 0. -1.
        1   -1    0    0  501    0  0.00000000000E+00  0.00000000000E+00 -0.12695165349E+04  0.12695165349E+04  0.50400001928E-02 0.  1.
    10030    2    1    2    0    0  0.00000000000E+00  0.00000000000E+00 -0.82831237684E+03  0.17107206930E+04  0.14968179234E+04 0.  0.
        2    1    3    3  502    0  0.79687226042E+02 -0.47642214709E+03  0.23918959020E+03  0.53901741744E+03  0.25500000920E-02 0. -1.
       -2    1    3    3    0  502 -0.79687226042E+02  0.47642214709E+03 -0.10675019670E+04  0.11717032755E+04  0.25500000920E-02 0.  1.
</event>
<event>
 5   0  0.1500956E-03  0.1528791E+04  0.7818609E-02  0.8865530E-01
       -2   -1    0    0    0  501  0.00000000000E+00  0.00000000000E+00  0.41825995738E+03  0.41825995739E+03  0.25500000920E-02 0.  1.
        2   -1    0    0  501    0  0.00000000000E+00  0.00000000000E+00 -0.13969792986E+04  0.13969792986E+04  0.25500000920E-02 0. -1.
    10030    2    1    2    0    0  0.00000000000E+00  0.00000000000E+00 -0.97871934121E+03  0.18152392560E+04  0.15287910281E+04 0.  0.
        4    1    3    3  502    0 -0.34073987304E+03  0.39596534092E+03 -0.11519570433E+04  0.12648710823E+04  0.12699999809E+01 0. -1.
       -4    1    3    3    0  502  0.34073987304E+03 -0.39596534092E+03  0.17323770209E+03  0.55036817369E+03  0.12699999809E+01 0.  1.
</event>
<event>
 5   0  0.1500956E-03  0.1523344E+04  0.7818609E-02  0.8869076E-01
        2   -1    0    0  501    0  0.00000000000E+00  0.00000000000E+00  0.19506420627E+04  0.19506420627E+04  0.25500000920E-02 0.  1.
       -2   -1    0    0    0  501  0.00000000000E+00  0.00000000000E+00 -0.29741184143E+03  0.29741184144E+03  0.25500000920E-02 0. -1.
    10030    2    1    2    0    0  0.00000000000E+00  0.00000000000E+00  0.16532302213E+04  0.22480539042E+04  0.15233437535E+04 0.  0.
        4    1    3    3  502    0  0.54616826903E+03  0.38131442574E+03  0.28150681901E+03  0.72315155495E+03  0.12699999809E+01 0. -1.
       -4    1    3    3    0  502 -0.54616826903E+03 -0.38131442574E+03  0.13717234023E+04  0.15249023492E+04  0.12699999809E+01 0.  1.
</event>
<event>
 5   0  0.1484056E-03  0.1097030E+04  0.7818609E-02  0.9208092E-01
       -2   -1    0    0    0  501  0.00000000000E+00  0.00000000000E+00  0.17273063150E+03  0.17273063152E+03  0.25500000920E-02 0. -1.
        2   -1    0    0  501    0  0.00000000000E+00  0.00000000000E+00 -0.17418360029E+04  0.17418360029E+04  0.25500000920E-02 0.  1.
    10030    2    1    2    0    0  0.00000000000E+00  0.00000000000E+00 -0.15691053714E+04  0.19145666344E+04  0.10970295033E+04 0.  0.
        5    1    3    3  502    0 -0.17011741750E+03  0.23594449247E+01 -0.16945863395E+04  0.17031119913E+04  0.46999998093E+01 0.  1.
       -5    1    3    3    0  502  0.17011741750E+03 -0.23594449247E+01  0.12548096817E+03  0.21145464310E+03  0.46999998093E+01 0. -1.
</event>
<event>
 5   0  0.8365016E-04  0.1441954E+04  0.7818609E-02  0.8923998E-01
        1   -1    0    0  501    0  0.00000000000E+00  0.00000000000E+00  0.61280134494E+03  0.61280134496E+03  0.50400001928E-02 0. -1.
       -1   -1    0    0    0  501  0.00000000000E+00  0.00000000000E+00 -0.84824811364E+03  0.84824811365E+03  0.50400001928E-02 0.  1.
    10030    2    1    2    0    0  0.00000000000E+00  0.00000000000E+00 -0.23544676870E+03  0.14610494586E+04  0.14419536538E+04 0.  0.
        3    1    3    3  502    0  0.33093652723E+03  0.35447368257E+03  0.42285576562E+03  0.64341089935E+03  0.10100000352E+00 0. -1.
       -3    1    3    3    0  502 -0.33093652723E+03 -0.35447368257E+03 -0.65830253432E+03  0.81763855926E+03  0.10100000352E+00 0.  1.
</event>
<event>
 5   0  0.8191876E-04  0.1462985E+04  0.7818609E-02  0.8909448E-01
        1   -1    0    0  501    0  0.00000000000E+00  0.00000000000E+00  0.11813604607E+04  0.11813604607E+04  0.50400001928E-02 0. -1.
       -1   -1    0    0    0  501  0.00000000000E+00  0.00000000000E+00 -0.45293644907E+03  0.45293644910E+03  0.50400001928E-02 0.  1.
    10030    2    1    2    0    0  0.00000000000E+00  0.00000000000E+00  0.72842401164E+03  0.16342969098E+04  0.14629849106E+04 0.  0.
        2    1    3    3  502    0  0.48468204697E+03  0.26256500136E+03 -0.17295299016E+03  0.57772813971E+03  0.25500000920E-02 0.  1.
       -2    1    3    3    0  502 -0.48468204697E+03 -0.26256500136E+03  0.90137700181E+03  0.10565687701E+04  0.25500000920E-02 0. -1.
</event>
<event>
 5   0  0.1511546E-03  0.1503590E+04  0.7818609E-02  0.8882069E-01
       -2   -1    0    0    0  501  0.00000000000E+00  0.00000000000E+00  0.21092133434E+03  0.21092133435E+03  0.25500000920E-02 0. -1.
        2   -1    0    0  501    0  0.00000000000E+00  0.00000000000E+00 -0.26796503873E+04  0.26796503873E+04  0.25500000920E-02 0.  1.
    10030    2    1    2    0    0  0.00000000000E+00  0.00000000000E+00 -0.24687290530E+04  0.28905717217E+04  0.15035896186E+04 0.  0.
        1    1    3    3  502    0 -0.99561458482E+02  0.23701466937E+03  0.12379648989E+03  0.28533140109E+03  0.50400001928E-02 0. -1.
       -1    1    3    3    0  502  0.99561458482E+02 -0.23701466937E+03 -0.25925255429E+04  0.26052403206E+04  0.50400001928E-02 0.  1.
</event>
<event>
 5   0  0.8306301E-04  0.1482736E+04  0.7818609E-02  0.8896015E-01
        1   -1    0    0  501    0  0.00000000000E+00  0.00000000000E+00  0.14997018763E+04  0.14997018763E+04  0.50400001928E-02 0. -1.
       -1   -1    0    0    0  501  0.00000000000E+00  0.00000000000E+00 -0.36649032635E+03  0.36649032639E+03  0.50400001928E-02 0.  1.
    10030    2    1    2    0    0  0.00000000000E+00  0.00000000000E+00  0.11332115499E+04  0.18661922027E+04  0.14827356205E+04 0.  0.
        4    1    3    3  502    0  0.39972915136E+03 -0.34344946433E+02 -0.21804876726E+03  0.45662878534E+03  0.12699999809E+01 0.  1.
       -4    1    3    3    0  502 -0.39972915136E+03  0.34344946433E+02  0.13512603172E+04  0.14095634173E+04  0.12699999809E+01 0. -1.
</event>
<event>
 5   0  0.1511546E-03  0.1496374E+04  0.7818609E-02  0.8886868E-01
       -2   -1    0    0    0  501  0.00000000000E+00  0.00000000000E+00  0.54960236932E+03  0.54960236933E+03  0.25500000920E-02 0. -1.
        2   -1    0    0  501    0  0.00000000000E+00  0.00000000000E+00 -0.10185244400E+04  0.10185244400E+04  0.25500000920E-02 0.  1.
    10030    2    1    2    0    0  0.00000000000E+00  0.00000000000E+00 -0.46892207069E+03  0.15681268093E+04  0.14963735435E+04 0.  0.
        1    1    3    3  502    0  0.72861274720E+03  0.34942141203E+02 -0.60091372748E+02  0.73192107615E+03  0.50400001928E-02 0. -1.
       -1    1    3    3    0  502 -0.72861274720E+03 -0.34942141203E+02 -0.40883069794E+03  0.83620573319E+03  0.50400001928E-02 0.  1.
</event>
<event>
 5   0  0.5603875E-04  0.1418880E+04  0.7818609E-02  0.8940265E-01
        3   -1    0    0  501    0  0.00000000000E+00  0.00000000000E+00  0.12720767538E+04  0.12720767578E+04  0.10100000352E+00 0.  1.
       -3   -1    0    0    0  501  0.00000000000E+00  0.00000000000E+00 -0.39565606006E+03  0.39565607295E+03  0.10100000352E+00 0. -1.
    10030    2    1    2    0    0  0.00000000000E+00  0.00000000000E+00  0.87642069373E+03  0.16677328308E+04  0.14188796857E+04 0.  0.
        5    1    3    3  502    0 -0.50771103568E+03 -0.71648224588E+02  0.10144843419E+04  0.11367077609E+04  0.46999998093E+01 0.  1.
       -5    1    3    3    0  502  0.50771103568E+03  0.71648224588E+02 -0.13806364815E+03  0.53102506982E+03  0.46999998093E+01 0. -1.
</event>
<event>
 5   0  0.1526126E-03  0.1488042E+04  0.7818609E-02  0.8892444E-01
       -2   -1    0    0    0  501  0.00000000000E+00  0.00000000000E+00  0.64144871562E+03  0.64144871563E+03  0.25500000920E-02 0. -1.
        2   -1    0    0  501    0  0.00000000000E+00  0.00000000000E+00 -0.86299475712E+03  0.86299475713E+03  0.25500000920E-02 0.  1.
    10030    2    1    2    0    0  0.00000000000E+00  0.00000000000E+00 -0.22154604150E+03  0.15044434728E+04  0.14880415029E+04 0.  0.
        2    1    3    3  502    0 -0.16396129402E+03  0.31921399533E+03 -0.76971310409E+03  0.84925799576E+03  0.25500000920E-02 0.  1.
       -2    1    3    3    0  502  0.16396129402E+03 -0.31921399533E+03  0.54816706259E+03  0.65518547700E+03  0.25500000920E-02 0. -1.
</event>
<event>
 5   0  0.8306301E-04  0.1536480E+04  0.7818609E-02  0.8860550E-01
       -1   -1    0    0    0  501  0.00000000000E+00  0.00000000000E+00  0.25990181888E+03  0.25990181893E+03  0.50400001928E-02 0.  1.
        1   -1    0    0  501    0  0.00000000000E+00  0.00000000000E+00 -0.22708296023E+04  0.22708296023E+04  0.50400001928E-02 0. -1.
    10030    2    1    2    0    0  0.00000000000E+00  0.00000000000E+00 -0.20109277835E+04  0.25307314213E+04  0.15364800605E+04 0.  0.
        4    1    3    3  502    0  0.30177005171E+03 -0.70618581420E+03 -0.10395218915E+04  0.12924283129E+04  0.12699999809E+01 0.  1.
       -4    1    3    3    0  502 -0.30177005171E+03  0.70618581420E+03 -0.97140589196E+03  0.12383031083E+04  0.12699999809E+01 0. -1.
</event>
<event>
 5   0  0.1500956E-03  0.1324043E+04  0.7818609E-02  0.9010713E-01
        2   -1    0    0  501    0  0.00000000000E+00  0.00000000000E+00  0.39891642280E+03  0.39891642280E+03  0.25500000920E-02 0.  1.
       -2   -1    0    0    0  501  0.00000000000E+00  0.00000000000E+00 -0.10986578169E+04  0.10986578169E+04  0.25500000920E-02 0. -1.
    10030    2    1    2    0    0  0.00000000000E+00  0.00000000000E+00 -0.69974139408E+03  0.14975742397E+04  0.13240432715E+04 0.  0.
        4    1    3    3  502    0  0.60594104826E+03 -0.22827075025E+03 -0.50577241918E+03  0.82163218188E+03  0.12699999809E+01 0. -1.
       -4    1    3    3    0  502 -0.60594104826E+03  0.22827075025E+03 -0.19396897490E+03  0.67594205781E+03  0.12699999809E+01 0.  1.
</event>
<event>
 5   0  0.8365016E-04  0.1496242E+04  0.7818609E-02  0.8886956E-01
       -1   -1    0    0    0  501  0.00000000000E+00  0.00000000000E+00  0.56307697364E+03  0.56307697367E+03  0.50400001928E-02 0.  1.
        1   -1    0    0  501    0  0.00000000000E+00  0.00000000000E+00 -0.99397625446E+03  0.99397625448E+03  0.50400001928E-02 0. -1.
    10030    2    1    2    0    0  0.00000000000E+00  0.00000000000E+00 -0.43089928082E+03  0.15570532281E+04  0.14962421479E+04 0.  0.
        3    1    3    3  502    0  0.28115098271E+03 -0.37218508527E+03 -0.82412992006E+03  0.94697293948E+03  0.10100000352E+00 0. -1.
       -3    1    3    3    0  502 -0.28115098271E+03  0.37218508527E+03  0.39323063924E+03  0.61008028866E+03  0.10100000352E+00 0.  1.
</event>
<event>
 5   0  0.1484056E-03  0.1508410E+04  0.7818609E-02  0.8878879E-01
        2   -1    0    0  501    0  0.00000000000E+00  0.00000000000E+00  0.15985077928E+04  0.15985077928E+04  0.25500000920E-02 0. -1.
       -2   -1    0    0    0  501  0.00000000000E+00  0.00000000000E+00 -0.35584781910E+03  0.35584781910E+03  0.25500000920E-02 0.  1.
    10030    2    1    2    0    0  0.00000000000E+00  0.00000000000E+00  0.12426599737E+04  0.19543556119E+04  0.15084104374E+04 0.  0.
        5    1    3    3  502    0  0.60444816808E+03  0.20904810299E+03  0.10348792417E+03  0.64791244602E+03  0.46999998093E+01 0.  1.
       -5    1    3    3    0  502 -0.60444816808E+03 -0.20904810299E+03  0.11391720495E+04  0.13064431659E+04  0.46999998093E+01 0. -1.
</event>
<event>
 5   0  0.1484056E-03  0.1410877E+04  0.7818609E-02  0.8945982E-01
       -2   -1    0    0    0  501  0.00000000000E+00  0.00000000000E+00  0.30268511526E+03  0.30268511528E+03  0.25500000920E-02 0.  1.
        2   -1    0    0  501    0  0.00000000000E+00  0.00000000000E+00 -0.16440968756E+04  0.16440968756E+04  0.25500000920E-02 0. -1.
    10030    2    1    2    0    0  0.00000000000E+00  0.00000000000E+00 -0.13414117604E+04  0.19467819909E+04  0.14108772481E+04 0.  0.
        5    1    3    3  502    0  0.60921248969E+03 -0.21795460082E+03 -0.28293091096E+03  0.70619831208E+03  0.46999998093E+01 0.  1.
       -5    1    3    3    0  502 -0.60921248969E+03  0.21795460082E+03 -0.10584808494E+04  0.12405836788E+04  0.46999998093E+01 0. -1.
</event>
<event>
 5   0  0.1511546E-03  0.1556944E+04  0.7818609E-02  0.8847445E-01
        2   -1    0    0  501    0  0.00000000000E+00  0.00000000000E+00  0.96017865751E+03  0.96017865751E+03  0.25500000920E-02 0. -1.
       -2   -1    0    0    0  501  0.00000000000E+00  0.00000000000E+00 -0.63115179027E+03  0.63115179027E+03  0.25500000920E-02 0.  1.
    10030    2    1    2    0    0  0.00000000000E+00  0.00000000000E+00  0.32902686725E+03  0.15913304478E+04  0.15569437738E+04 0.  0.
        1    1    3    3  502    0  0.62186685749E+03 -0.34415042552E+03  0.48911317004E+03  0.86278015563E+03  0.50400001928E-02 0. -1.
       -1    1    3    3    0  502 -0.62186685749E+03  0.34415042552E+03 -0.16008630279E+03  0.72855029215E+03  0.50400001928E-02 0.  1.
</event>
<event>
 5   0  0.8306301E-04  0.1543901E+04  0.7818609E-02  0.8855773E-01
        1   -1    0    0  501    0  0.00000000000E+00  0.00000000000E+00  0.12234750014E+04  0.12234750014E+04  0.50400001928E-02 0.  1.
       -1   -1    0    0    0  501  0.00000000000E+00  0.00000000000E+00 -0.48706142442E+03  0.48706142444E+03  0.50400001928E-02 0. -1.
    10030    2    1    2    0    0  0.00000000000E+00  0.00000000000E+00  0.73641357698E+03  0.17105364258E+04  0.15439008737E+04 0.  0.
        4    1    3    3  502    0  0.74605722387E+02 -0.80951155096E+02  0.12147322687E+04  0.12197111137E+04  0.12699999809E+01 0.  1.
       -4    1    3    3    0  502 -0.74605722387E+02  0.80951155096E+02 -0.47831869172E+03  0.49082531217E+03  0.12699999809E+01 0. -1.
</event>
<event>
 5   0  0.8365016E-04  0.1517386E+04  0.7818609E-02  0.8872973E-01
       -1   -1    0    0    0  501  0.00000000000E+00  0.00000000000E+00  0.48705669645E+03  0.48705669648E+03  0.50400001928E-02 0. -1.
        1   -1    0    0  501    0  0.00000000000E+00  0.00000000000E+00 -0.11818240304E+04  0.11818240304E+04  0.50400001928E-02 0.  1.
    10030    2    1    2    0    0  0.00000000000E+00  0.00000000000E+00 -0.69476733393E+03  0.16688807269E+04  0.15173863161E+04 0.  0.
        3    1    3    3  502    0  0.13759159265E+03 -0.15914007652E+03 -0.11491039392E+04  0.11682024155E+04  0.10100000352E+00 0.  1.
       -3    1    3    3    0  502 -0.13759159265E+03  0.15914007652E+03  0.45433660530E+03  0.50067831133E+03  0.10100000352E+00 0. -1.
</event>
<event>
 5   0  0.8365016E-04  0.1469063E+04  0.7818609E-02  0.8905290E-01
       -1   -1    0    0    0  501  0.00000000000E+00  0.00000000000E+00  0.67057466984E+03  0.67057466986E+03  0.50400001928E-02 0. -1.
        1   -1    0    0  501    0  0.00000000000E+00  0.00000000000E+00 -0.80458850535E+03  0.80458850537E+03  0.50400001928E-02 0.  1.
    10030    2    1    2    0    0  0.00000000000E+00  0.00000000000E+00 -0.13401383552E+03  0.14751631752E+04  0.14690631999E+04 0.  0.
        3    1    3    3  502    0  0.46092517153E+03  0.40057554699E+03  0.34288391219E+03  0.70034432248E+03  0.10100000352E+00 0. -1.
       -3    1    3    3    0  502 -0.46092517153E+03 -0.40057554699E+03 -0.47689774770E+03  0.77481885274E+03  0.10100000352E+00 0.  1.
</event>
<event>
 5   0  0.1500956E-03  0.1441896E+04  0.7818609E-02  0.8924038E-01
       -2   -1    0    0    0  501  0.00000000000E+00  0.00000000000E+00  0.15561153356E+04  0.15561153356E+04  0.25500000920E-02 0.  1.
        2   -1    0    0  501    0  0.00000000000E+00  0.00000000000E+00 -0.33401505643E+03  0.33401505644E+03  0.25500000920E-02 0. -1.
    10030    2    1    2    0    0  0.00000000000E+00  0.00000000000E+00  0.12221002792E+04  0.18901303921E+04  0.14418959070E+04 0.  0.
        4    1    3    3  502    0  0.47107215713E+03 -0.16505635893E+03  0.12929666242E+04  0.13859714582E+04  0.12699999809E+01 0.  1.
       -4    1    3    3    0  502 -0.47107215713E+03  0.16505635893E+03 -0.70866344981E+02  0.50415893386E+03  0.12699999809E+01 0. -1.
</event>
<event>
 5   0  0.8058234E-04  0.1504979E+04  0.7818609E-02  0.8881148E-01
        1   -1    0    0  501    0  0.00000000000E+00  0.00000000000E+00  0.14973192320E+04  0.14973192320E+04  0.50400001928E-02 0.  1.
       -1   -1    0    0    0  501  0.00000000000E+00  0.00000000000E+00 -0.37816966280E+03  0.37816966283E+03  0.50400001928E-02 0. -1.
    10030    2    1    2    0    0  0.00000000000E+00  0.00000000000E+00  0.11191495692E+04  0.18754888948E+04  0.15049793475E+04 0.  0.
        5    1    3    3  502    0  0.68554405998E+03 -0.20790836898E+03  0.27262077315E+03  0.76651205080E+03  0.46999998093E+01 0. -1.
       -5    1    3    3    0  502 -0.68554405998E+03  0.20790836898E+03  0.84652879603E+03  0.11089768440E+04  0.46999998093E+01 0.  1.
</event>
<event>
 5   0  0.8306301E-04  0.1452020E+04  0.7818609E-02  0.8917002E-01
       -1   -1    0    0    0  501  0.00000000000E+00  0.00000000000E+00  0.98049901229E+03  0.98049901230E+03  0.50400001928E-02 0.  1.
        1   -1    0    0  501    0  0.00000000000E+00  0.00000000000E+00 -0.53757343822E+03  0.53757343825E+03  0.50400001928E-02 0. -1.
    10030    2    1    2    0    0  0.00000000000E+00  0.00000000000E+00  0.44292557407E+03  0.15180724505E+04  0.14520195939E+04 0.  0.
        4    1    3    3  502    0 -0.99660612746E+02 -0.55837002231E+03  0.69526637925E+03  0.89727714256E+03  0.12699999809E+01 0.  1.
       -4    1    3    3    0  502  0.99660612746E+02  0.55837002231E+03 -0.25234080518E+03  0.62079530798E+03  0.12699999809E+01 0. -1.
</event>
<event>
 5   0  0.8191876E-04  0.1505421E+04  0.7818609E-02  0.8880856E-01
        1   -1    0    0  501    0  0.00000000000E+00  0.00000000000E+00  0.64089943798E+03  0.64089943800E+03  0.50400001928E-02 0. -1.
       -1   -1    0    0    0  501  0.00000000000E+00  0.00000000000E+00 -0.88402837242E+03  0.88402837244E+03  0.50400001928E-02 0.  1.
    10030    2    1    2    0    0  0.00000000000E+00  0.00000000000E+00 -0.24312893445E+03  0.15249278104E+04  0.15054212528E+04 0.  0.
        2    1    3    3  502    0 -0.16590575063E+03  0.58723578141E+03 -0.56795901388E+03  0.83363542542E+03  0.25500000920E-02 0.  1.
       -2    1    3    3    0  502  0.16590575063E+03 -0.58723578141E+03  0.32483007943E+03  0.69129238501E+03  0.25500000920E-02 0. -1.
</event>
<event>
 5   0  0.1552067E-03  0.1482263E+04  0.7818609E-02  0.8896334E-01
        2   -1    0    0  501    0  0.00000000000E+00  0.00000000000E+00  0.11330767621E+04  0.11330767621E+04  0.25500000920E-02 0.  1.
       -2   -1    0    0    0  501  0.00000000000E+00  0.00000000000E+00 -0.48476485623E+03  0.48476485624E+03  0.25500000920E-02 0. -1.
    10030    2    1    2    0    0  0.00000000000E+00  0.00000000000E+00  0.64831190584E+03  0.16178416183E+04  0.14822628561E+04 0.  0.
        3    1    3    3  502    0 -0.33162954359E+03  0.21462334456E+03  0.10085978022E+04  0.10831947521E+04  0.10100000352E+00 0.  1.
       -3    1    3    3    0  502  0.33162954359E+03 -0.21462334456E+03 -0.36028589636E+03  0.53464686619E+03  0.10100000352E+00 0. -1.
</event>
<event>
 5   0  0.1500956E-03  0.1533018E+04  0.7818609E-02  0.8862788E-01
       -2   -1    0    0    0  501  0.00000000000E+00  0.00000000000E+00  0.33330468872E+03  0.33330468873E+03  0.25500000920E-02 0.  1.
        2   -1    0    0  501    0  0.00000000000E+00  0.00000000000E+00 -0.17627603762E+04  0.17627603762E+04  0.25500000920E-02 0. -1.
    10030    2    1    2    0    0  0.00000000000E+00  0.00000000000E+00 -0.14294556874E+04  0.20960650649E+04  0.15330183280E+04 0.  0.
        4    1    3    3  502    0 -0.52234191034E+03  0.55960161093E+03 -0.76837770487E+03  0.10846201844E+04  0.12699999809E+01 0. -1.
       -4    1    3    3    0  502  0.52234191034E+03 -0.55960161093E+03 -0.66107798257E+03  0.10114448805E+04  0.12699999809E+01 0.  1.
</event>
<event>
 5   0  0.1511546E-03  0.1536704E+04  0.7818609E-02  0.8860406E-01
       -2   -1    0    0    0  501  0.00000000000E+00  0.00000000000E+00  0.27533777776E+03  0.27533777777E+03  0.25500000920E-02 0.  1.
        2   -1    0    0  501    0  0.00000000000E+00  0.00000000000E+00 -0.21441465694E+04  0.21441465694E+04  0.25500000920E-02 0. -1.
    10030    2    1    2    0    0  0.00000000000E+00  0.00000000000E+00 -0.18688087916E+04  0.24194843471E+04  0.15367036821E+04 0.  0.
        1    1    3    3  502    0 -0.69488087957E+03 -0.28274620997E+03 -0.11957829147E+04  0.14116308424E+04  0.50400001928E-02 0. -1.
       -1    1    3    3    0  502  0.69488087957E+03  0.28274620997E+03 -0.67302587690E+03  0.10078535048E+04  0.50400001928E-02 0.  1.
</event>
<event>
 5   0  0.1552067E-03  0.1489996E+04  0.7818609E-02  0.8891133E-01
        2   -1    0    0  501    0  0.00000000000E+00  0.00000000000E+00  0.13594400106E+04  0.13594400106E+04  0.25500000920E-02 0.  1.
       -2   -1    0    0    0  501  0.00000000000E+00  0.00000000000E+00 -0.40827227091E+03  0.40827227092E+03  0.25500000920E-02 0. -1.
    10030    2    1    2    0    0  0.00000000000E+00  0.00000000000E+00  0.95116773972E+03  0.17677122815E+04  0.14899955172E+04 0.  0.
        3    1    3    3  502    0  0.13599314594E+03  0.72100742095E+03  0.32237986100E+03  0.80142037770E+03  0.10100000352E+00 0.  1.
       -3    1    3    3    0  502 -0.13599314594E+03 -0.72100742095E+03  0.62878787873E+03  0.96629190385E+03  0.10100000352E+00 0. -1.
</event>
<event>
 5   0  0.8058234E-04  0.1525073E+04  0.7818609E-02  0.8867949E-01
       -1   -1    0    0    0  501  0.00000000000E+00  0.00000000000E+00  0.67805751187E+03  0.67805751189E+03  0.50400001928E-02 0.  1.
        1   -1    0    0  501    0  0.00000000000E+00  0.00000000000E+00 -0.85754116117E+03  0.85754116119E+03  0.50400001928E-02 0. -1.
    10030    2    1    2    0    0  0.00000000000E+00  0.00000000000E+00 -0.17948364930E+03  0.15355986731E+04  0.15250734095E+04 0.  0.
        5    1    3    3  502    0  0.28815009627E+03  0.64886908348E+03  0.19034799935E+03  0.73506191326E+03  0.46999998093E+01 0.  1.
       -5    1    3    3    0  502 -0.28815009627E+03 -0.64886908348E+03 -0.36983164864E+03  0.80053675981E+03  0.46999998093E+01 0. -1.
</event>
<event>
 5   0  0.8306301E-04  0.1497225E+04  0.7818609E-02  0.8886300E-01
       -1   -1    0    0    0  501  0.00000000000E+00  0.00000000000E+00  0.10121303992E+04  0.10121303992E+04  0.50400001928E-02 0.  1.
        1   -1    0    0  501    0  0.00000000000E+00  0.00000000000E+00 -0.55370417249E+03  0.55370417252E+03  0.50400001928E-02 0. -1.
    10030    2    1    2    0    0  0.00000000000E+00  0.00000000000E+00  0.45842622668E+03  0.15658345717E+04  0.14972252004E+04 0.  0.
        4    1    3    3  502    0 -0.47945031806E+03 -0.18024982127E+03 -0.34175009700E+03  0.61575753934E+03  0.12699999809E+01 0. -1.
       -4    1    3    3    0  502  0.47945031806E+03  0.18024982127E+03  0.80017632367E+03  0.95007703236E+03  0.12699999809E+01 0.  1.
</event>
<event>
 5   0  0.8058234E-04  0.1441186E+04  0.7818609E-02  0.8924534E-01
        1   -1    0    0  501    0  0.00000000000E+00  0.00000000000E+00  0.13691530036E+04  0.13691530036E+04  0.50400001928E-02 0. -1.
       -1   -1    0    0    0  501  0.00000000000E+00  0.00000000000E+00 -0.37925201843E+03  0.37925201846E+03  0.50400001928E-02 0.  1.
    10030    2    1    2    0    0  0.00000000000E+00  0.00000000000E+00  0.98990098513E+03  0.17484050220E+04  0.14411856788E+04 0.  0.
        5    1    3    3  502    0 -0.50836957063E+03  0.35320201137E+03  0.47488155178E+02  0.62086109240E+03  0.46999998093E+01 0.  1.
       -5    1    3    3    0  502  0.50836957063E+03 -0.35320201137E+03  0.94241282995E+03  0.11275439296E+04  0.46999998093E+01 0. -1.
</event>
<event>
 5   0  0.7870317E-04  0.1503117E+04  0.7818609E-02  0.8882383E-01
        1   -1    0    0  501    0  0.00000000000E+00  0.00000000000E+00  0.83932503550E+03  0.83932503552E+03  0.50400001928E-02 0. -1.
       -1   -1    0    0    0  501  0.00000000000E+00  0.00000000000E+00 -0.67296944853E+03  0.67296944855E+03  0.50400001928E-02 0.  1.
    10030    2    1    2    0    0  0.00000000000E+00  0.00000000000E+00  0.16635558697E+03  0.15122944841E+04  0.15031169034E+04 0.  0.
        1    1    3    3  502    0 -0.34095316492E+01  0.69312034945E+03  0.37549030808E+03  0.78830223596E+03  0.50400001928E-02 0. -1.
       -1    1    3    3    0  502  0.34095316492E+01 -0.69312034945E+03 -0.20913472111E+03  0.72399224811E+03  0.50400001928E-02 0.  1.
</event>
<event>
 5   0  0.1500956E-03  0.1513677E+04  0.7818609E-02  0.8875408E-01
        2   -1    0    0  501    0  0.00000000000E+00  0.00000000000E+00  0.20662613129E+04  0.20662613129E+04  0.25500000920E-02 0. -1.
       -2   -1    0    0    0  501  0.00000000000E+00  0.00000000000E+00 -0.27721786031E+03  0.27721786032E+03  0.25500000920E-02 0.  1.
    10030    2    1    2    0    0  0.00000000000E+00  0.00000000000E+00  0.17890434526E+04  0.23434791732E+04  0.15136770329E+04 0.  0.
        4    1    3    3  502    0 -0.19784921591E+02  0.75647864655E+03  0.87546302101E+03  0.11571899152E+04  0.12699999809E+01 0.  1.
       -4    1    3    3    0  502  0.19784921591E+02 -0.75647864655E+03  0.91358043159E+03  0.11862892580E+04  0.12699999809E+01 0. -1.
</event>
<event>
 5   0  0.1511546E-03  0.1420230E+04  0.7818609E-02  0.8939304E-01
        2   -1    0    0  501    0  0.00000000000E+00  0.00000000000E+00  0.20122234814E+04  0.20122234814E+04  0.25500000920E-02 0. -1.
       -2   -1    0    0    0  501  0.00000000000E+00  0.00000000000E+00 -0.25059990190E+03  0.25059990191E+03  0.25500000920E-02 0.  1.
    10030    2    1    2    0    0  0.00000000000E+00  0.00000000000E+00  0.17616235795E+04  0.22628233834E+04  0.14202295689E+04 0.  0.
        1    1    3    3  502    0 -0.39739473138E+02  0.39910154319E+03  0.18144816789E+04  0.18582801271E+04  0.50400001928E-02 0. -1.
       -1    1    3    3    0  502  0.39739473138E+02 -0.39910154319E+03 -0.52858099386E+02  0.40454325627E+03  0.50400001928E-02 0.  1.
</event>
<event>
 5   0  0.1526126E-03  0.1536063E+04  0.7818609E-02  0.8860820E-01
        2   -1    0    0  501    0  0.00000000000E+00  0.00000000000E+00  0.12099108801E+04  0.12099108801E+04  0.25500000920E-02 0.  1.
       -2   -1    0    0    0  501  0.00000000000E+00  0.00000000000E+00 -0.48753345576E+03  0.48753345577E+03  0.25500000920E-02 0. -1.
    10030    2    1    2    0    0  0.00000000000E+00  0.00000000000E+00  0.72237742434E+03  0.16974443359E+04  0.15360625411E+04 0.  0.
        2    1    3    3  502    0 -0.35620614651E+03 -0.35578028097E+03 -0.27975639526E+03  0.57595665448E+03  0.25500000920E-02 0. -1.
       -2    1    3    3    0  502  0.35620614651E+03  0.35578028097E+03  0.10021338196E+04  0.11214876814E+04  0.25500000920E-02 0.  1.
</event>
<event>
 5   0  0.8365016E-04  0.1546430E+04  0.7818609E-02  0.8854151E-01
        1   -1    0    0  501    0  0.00000000000E+00  0.00000000000E+00  0.53436134964E+03  0.53436134967E+03  0.50400001928E-02 0. -1.
       -1   -1    0    0    0  501  0.00000000000E+00  0.00000000000E+00 -0.11188333629E+04  0.11188333629E+04  0.50400001928E-02 0.  1.
    10030    2    1    2    0    0  0.00000000000E+00  0.00000000000E+00 -0.58447201321E+03  0.16531947125E+04  0.15464298314E+04 0.  0.
        3    1    3    3  502    0 -0.29618439592E+03 -0.62776836432E+03  0.71933204432E+02  0.69784863096E+03  0.10100000352E+00 0. -1.
       -3    1    3    3    0  502  0.29618439592E+03  0.62776836432E+03 -0.65640521764E+03  0.95534608157E+03  0.10100000352E+00 0.  1.
</event>
<event>
 5   0  0.1552067E-03  0.1517380E+04  0.7818609E-02  0.8872977E-01
        2   -1    0    0  501    0  0.00000000000E+00  0.00000000000E+00  0.11226862026E+04  0.11226862026E+04  0.25500000920E-02 0. -1.
       -2   -1    0    0    0  501  0.00000000000E+00  0.00000000000E+00 -0.51270861778E+03  0.51270861779E+03  0.25500000920E-02 0.  1.
    10030    2    1    2    0    0  0.00000000000E+00  0.00000000000E+00  0.60997758486E+03  0.16353948204E+04  0.15173804944E+04 0.  0.
        3    1    3    3  502    0  0.16318518762E+03 -0.30020600491E+03 -0.42508573243E+03  0.54539063152E+03  0.10100000352E+00 0.  1.
       -3    1    3    3    0  502 -0.16318518762E+03  0.30020600491E+03  0.10350633173E+04  0.10900041889E+04  0.10100000352E+00 0. -1.
</event>
<event>
 5   0  0.1484056E-03  0.1489950E+04  0.7818609E-02  0.8891164E-01
       -2   -1    0    0    0  501  0.00000000000E+00  0.00000000000E+00  0.65649427524E+03  0.65649427525E+03  0.25500000920E-02 0. -1.
        2   -1    0    0  501    0  0.00000000000E+00  0.00000000000E+00 -0.84538040549E+03  0.84538040549E+03  0.25500000920E-02 0.  1.
    10030    2    1    2    0    0  0.00000000000E+00  0.00000000000E+00 -0.18888613024E+03  0.15018746807E+04  0.14899495248E+04 0.  0.
        5    1    3    3  502    0  0.47122852176E+03 -0.39262213871E+03  0.33173734005E+03  0.69733794985E+03  0.46999998093E+01 0. -1.
       -5    1    3    3    0  502 -0.47122852176E+03  0.39262213871E+03 -0.52062347030E+03  0.80453673089E+03  0.46999998093E+01 0.  1.
</event>
<event>
 5   0  0.1511546E-03  0.1486406E+04  0.7818609E-02  0.8893543E-01
       -2   -1    0    0    0  501  0.00000000000E+00  0.00000000000E+00  0.24410422977E+03  0.24410422979E+03  0.25500000920E-02 0. -1.
        2   -1    0    0  501    0  0.00000000000E+00  0.00000000000E+00 -0.22627658204E+04  0.22627658204E+04  0.25500000920E-02 0.  1.
    10030    2    1    2    0    0  0.00000000000E+00  0.00000000000E+00 -0.20186615906E+04  0.25068700502E+04  0.14864060115E+04 0.  0.
        1    1    3    3  502    0 -0.26045937555E+03 -0.36698898710E+03 -0.20068547443E+04  0.20566929688E+04  0.50400001928E-02 0.  1.
       -1    1    3    3    0  502  0.26045937555E+03  0.36698898710E+03 -0.11806846277E+02  0.45017708139E+03  0.50400001928E-02 0. -1.
</event>
<event>
 5   0  0.8365016E-04  0.1488394E+04  0.7818609E-02  0.8892207E-01
        1   -1    0    0  501    0  0.00000000000E+00  0.00000000000E+00  0.13056140252E+04  0.13056140252E+04  0.50400001928E-02 0. -1.
       -1   -1    0    0    0  501  0.00000000000E+00  0.00000000000E+00 -0.42419083771E+03  0.42419083774E+03  0.50400001928E-02 0.  1.
    10030    2    1    2    0    0  0.00000000000E+00  0.00000000000E+00  0.88142318747E+03  0.17298048629E+04  0.14883944465E+04 0.  0.
        3    1    3    3  502    0 -0.27372079764E+03  0.67841592712E+03  0.59946189062E+03  0.94579374799E+03  0.10100000352E+00 0. -1.
       -3    1    3    3    0  502  0.27372079764E+03 -0.67841592712E+03  0.28196129685E+03  0.78401111494E+03  0.10100000352E+00 0.  1.
</event>
<event>
 5   0  0.8306301E-04  0.1480145E+04  0.7818609E-02  0.8897765E-01
       -1   -1    0    0    0  501  0.00000000000E+00  0.00000000000E+00  0.19313651253E+04  0.19313651254E+04  0.50400001928E-02 0.  1.
        1   -1    0    0  501    0  0.00000000000E+00  0.00000000000E+00 -0.28358540732E+03  0.28358540737E+03  0.50400001928E-02 0. -1.
    10030    2    1    2    0    0  0.00000000000E+00  0.00000000000E+00  0.16477797180E+04  0.22149505327E+04  0.14801445413E+04 0.  0.
        4    1    3    3  502    0  0.24421282505E+03 -0.60193279824E+03  0.29324898550E+03  0.71271282990E+03  0.12699999809E+01 0. -1.
       -4    1    3    3    0  502 -0.24421282505E+03  0.60193279824E+03  0.13545307325E+04  0.15022377028E+04  0.12699999809E+01 0.  1.
</event>
<event>
 5   0  0.8365016E-04  0.1585578E+04  0.7818609E-02  0.8829458E-01
       -1   -1    0    0    0  501  0.00000000000E+00  0.00000000000E+00  0.79291866911E+03  0.79291866913E+03  0.50400001928E-02 0.  1.
        1   -1    0    0  501    0  0.00000000000E+00  0.00000000000E+00 -0.79265887521E+03  0.79265887523E+03  0.50400001928E-02 0. -1.
    10030    2    1    2    0    0  0.00000000000E+00  0.00000000000E+00  0.25979390023E+00  0.15855775444E+04  0.15855775231E+04 0.  0.
        3    1    3    3  502    0  0.67932440097E+03  0.27424352209E+03 -0.30289297598E+03  0.79273912245E+03  0.10100000352E+00 0.  1.
       -3    1    3    3    0  502 -0.67932440097E+03 -0.27424352209E+03  0.30315276988E+03  0.79283842191E+03  0.10100000352E+00 0. -1.
</event>
<event>
 5   0  0.1500956E-03  0.1491684E+04  0.7818609E-02  0.8890002E-01
        2   -1    0    0  501    0  0.00000000000E+00  0.00000000000E+00  0.10400316568E+04  0.10400316568E+04  0.25500000920E-02 0. -1.
       -2   -1    0    0    0  501  0.00000000000E+00  0.00000000000E+00 -0.53486886106E+03  0.53486886107E+03  0.25500000920E-02 0.  1.
    10030    2    1    2    0    0  0.00000000000E+00  0.00000000000E+00  0.50516279578E+03  0.15749005179E+04  0.14916843470E+04 0.  0.
        4    1    3    3  502    0 -0.62397540971E+03 -0.38645171100E+02 -0.17685285500E+03  0.64970555361E+03  0.12699999809E+01 0.  1.
       -4    1    3    3    0  502  0.62397540971E+03  0.38645171100E+02  0.68201565078E+03  0.92519496431E+03  0.12699999809E+01 0. -1.
</event>
<event>
 5   0  0.1484056E-03  0.1075840E+04  0.7818609E-02  0.9229065E-01
        2   -1    0    0  501    0  0.00000000000E+00  0.00000000000E+00  0.10456142629E+04  0.10456142629E+04  0.25500000920E-02 0. -1.
       -2   -1    0    0    0  501  0.00000000000E+00  0.00000000000E+00 -0.27673504885E+03  0.27673504886E+03  0.25500000920E-02 0.  1.
    10030    2    1    2    0    0  0.00000000000E+00  0.00000000000E+00  0.76887921406E+03  0.13223493118E+04  0.10758403490E+04 0.  0.
        5    1    3    3  502    0 -0.32225629290E+03 -0.27455038576E+03  0.79229833242E+03  0.89832386709E+03  0.46999998093E+01 0. -1.
       -5    1    3    3    0  502  0.32225629290E+03  0.27455038576E+03 -0.23419118353E+02  0.42402544468E+03  0.46999998093E+01 0.  1.
</event>
<event>
 5   0  0.1526126E-03  0.1495511E+04  0.7818609E-02  0.8887444E-01
        2   -1    0    0  501    0  0.00000000000E+00  0.00000000000E+00  0.40160641020E+03  0.40160641021E+03  0.25500000920E-02 0.  1.
       -2   -1    0    0    0  501  0.00000000000E+00  0.00000000000E+00 -0.13922534624E+04  0.13922534624E+04  0.25500000920E-02 0. -1.
    10030    2    1    2    0    0  0.00000000000E+00  0.00000000000E+00 -0.99064705218E+03  0.17938598726E+04  0.14955105016E+04 0.  0.
        2    1    3    3  502    0  0.22096158826E+03  0.70912195666E+03 -0.59892520176E+03  0.95414326504E+03  0.25500000920E-02 0.  1.
       -2    1    3    3    0  502 -0.22096158826E+03 -0.70912195666E+03 -0.39172185042E+03  0.83971660755E+03  0.25500000920E-02 0. -1.
</event>
<event>
 5   0  0.1552067E-03  0.1428266E+04  0.7818609E-02  0.8933608E-01
       -2   -1    0    0    0  501  0.00000000000E+00  0.00000000000E+00  0.57521617281E+03  0.57521617282E+03  0.25500000920E-02 0.  1.
        2   -1    0    0  501    0  0.00000000000E+00  0.00000000000E+00 -0.88659904936E+03  0.88659904936E+03  0.25500000920E-02 0. -1.
    10030    2    1    2    0    0  0.00000000000E+00  0.00000000000E+00 -0.31138287655E+03  0.14618152222E+04  0.14282662385E+04 0.  0.
        3    1    3    3  502    0 -0.12380773126E+03  0.36163802799E+03 -0.77308177411E+03  0.86241860907E+03  0.10100000352E+00 0. -1.
       -3    1    3    3    0  502  0.12380773126E+03 -0.36163802799E+03  0.46169889756E+03  0.59939661311E+03  0.10100000352E+00 0.  1.
</event>
<event>
 5   0  0.1526126E-03  0.1499539E+04  0.7818609E-02  0.8884760E-01
        2   -1    0    0  501    0  0.00000000000E+00  0.00000000000E+00  0.55744347323E+03  0.55744347324E+03  0.25500000920E-02 0.  1.
       -2   -1    0    0    0  501  0.00000000000E+00  0.00000000000E+00 -0.10084507472E+04  0.10084507472E+04  0.25500000920E-02 0. -1.
    10030    2    1    2    0    0  0.00000000000E+00  0.00000000000E+00 -0.45100727393E+03  0.15658942204E+04  0.14995389786E+04 0.  0.
        2    1    3    3  502    0  0.51819104159E+03  0.95234431864E+02 -0.78255299075E+03  0.94338790321E+03  0.25500000920E-02 0. -1.
       -2    1    3    3    0  502 -0.51819104159E+03 -0.95234431864E+02  0.33154571682E+03  0.62250631719E+03  0.25500000920E-02 0.  1.
</event>
<event>
 5   0  0.1552067E-03  0.1445971E+04  0.7818609E-02  0.8921199E-01
       -2   -1    0    0    0  501  0.00000000000E+00  0.00000000000E+00  0.99783800978E+03  0.99783800978E+03  0.25500000920E-02 0. -1.
        2   -1    0    0  501    0  0.00000000000E+00  0.00000000000E+00 -0.52384044590E+03  0.52384044591E+03  0.25500000920E-02 0.  1.
    10030    2    1    2    0    0  0.00000000000E+00  0.00000000000E+00  0.47399756388E+03  0.15216784557E+04  0.14459708268E+04 0.  0.
        3    1    3    3  502    0 -0.11180075118E+03  0.61729812119E+03 -0.14119389983E+03  0.64303351852E+03  0.10100000352E+00 0.  1.
       -3    1    3    3    0  502  0.11180075118E+03 -0.61729812119E+03  0.61519146371E+03  0.87864493717E+03  0.10100000352E+00 0. -1.
</event>
<event>
 5   0  0.1552067E-03  0.1506763E+04  0.7818609E-02  0.8879968E-01
       -2   -1    0    0    0  501  0.00000000000E+00  0.00000000000E+00  0.80377210244E+03  0.80377210245E+03  0.25500000920E-02 0. -1.
        2   -1    0    0  501    0  0.00000000000E+00  0.00000000000E+00 -0.70614966685E+03  0.70614966685E+03  0.25500000920E-02 0.  1.
    10030    2    1    2    0    0  0.00000000000E+00  0.00000000000E+00  0.97622435597E+02  0.15099217693E+04  0.15067626255E+04 0.  0.
        3    1    3    3  502    0 -0.61294578822E+03 -0.35197353115E+03 -0.21249494307E+03  0.73806640417E+03  0.10100000352E+00 0.  1.
       -3    1    3    3    0  502  0.61294578822E+03  0.35197353115E+03  0.31011737867E+03  0.77185536513E+03  0.10100000352E+00 0. -1.
</event>
<event>
 5   0  0.1500956E-03  0.1493940E+04  0.7818609E-02  0.8888493E-01
        2   -1    0    0  501    0  0.00000000000E+00  0.00000000000E+00  0.86283023910E+03  0.86283023910E+03  0.25500000920E-02 0.  1.
       -2   -1    0    0    0  501  0.00000000000E+00  0.00000000000E+00 -0.64666727144E+03  0.64666727145E+03  0.25500000920E-02 0. -1.
    10030    2    1    2    0    0  0.00000000000E+00  0.00000000000E+00  0.21616296765E+03  0.15094975105E+04  0.14939398602E+04 0.  0.
        4    1    3    3  502    0  0.57460927623E+03  0.10898196296E+03  0.57758109554E+03  0.82198200917E+03  0.12699999809E+01 0.  1.
       -4    1    3    3    0  502 -0.57460927623E+03 -0.10898196296E+03 -0.36141812788E+03  0.68751550138E+03  0.12699999809E+01 0. -1.
</event>
<event>
 5   0  0.8058234E-04  0.1515407E+04  0.7818609E-02  0.8874272E-01
       -1   -1    0    0    0  501  0.00000000000E+00  0.00000000000E+00  0.74682143621E+03  0.74682143623E+03  0.50400001928E-02 0.  1.
        1   -1    0    0  501    0  0.00000000000E+00  0.00000000000E+00 -0.76874400832E+03  0.76874400834E+03  0.50400001928E-02 0. -1.
    10030    2    1    2    0    0  0.00000000000E+00  0.00000000000E+00 -0.21922572108E+02  0.15155654446E+04  0.15154068819E+04 0.  0.
        5    1    3    3  502    0  0.32870009762E+02  0.67912118374E+03  0.32344833301E+03  0.75294550525E+03  0.46999998093E+01 0.  1.
       -5    1    3    3    0  502 -0.32870009762E+02 -0.67912118374E+03 -0.34537090512E+03  0.76261993932E+03  0.46999998093E+01 0. -1.
</event>
<event>
 5   0  0.8191876E-04  0.1349783E+04  0.7818609E-02  0.8990993E-01
       -1   -1    0    0    0  501  0.00000000000E+00  0.00000000000E+00  0.33922400334E+03  0.33922400338E+03  0.50400001928E-02 0.  1.
        1   -1    0    0  501    0  0.00000000000E+00  0.00000000000E+00 -0.13427065325E+04  0.13427065325E+04  0.50400001928E-02 0. -1.
    10030    2    1    2    0    0  0.00000000000E+00  0.00000000000E+00 -0.10034825291E+04  0.16819305358E+04  0.13497826274E+04 0.  0.
        2    1    3    3  502    0  0.29242252810E+03 -0.60440799191E+03 -0.41669419955E+03  0.79022402619E+03  0.25500000920E-02 0. -1.
       -2    1    3    3    0  502 -0.29242252810E+03  0.60440799191E+03 -0.58678832957E+03  0.89170650965E+03  0.25500000920E-02 0.  1.
</event>
<event>
 5   0  0.8191876E-04  0.1452836E+04  0.7818609E-02  0.8916437E-01
       -1   -1    0    0    0  501  0.00000000000E+00  0.00000000000E+00  0.27017070327E+03  0.27017070332E+03  0.50400001928E-02 0. -1.
        1   -1    0    0  501    0  0.00000000000E+00  0.00000000000E+00 -0.19531468633E+04  0.19531468633E+04  0.50400001928E-02 0.  1.
    10030    2    1    2    0    0  0.00000000000E+00  0.00000000000E+00 -0.16829761600E+04  0.22233175666E+04  0.14528359325E+04 0.  0.
        2    1    3    3  502    0  0.20451624917E+03 -0.43241439503E+03 -0.48666915965E+01  0.47836470386E+03  0.25500000920E-02 0. -1.
       -2    1    3    3    0  502 -0.20451624917E+03  0.43241439503E+03 -0.16781094684E+04  0.17449528627E+04  0.25500000920E-02 0.  1.
</event>
<event>
 5   0  0.8365016E-04  0.1493005E+04  0.7818609E-02  0.8889118E-01
       -1   -1    0    0    0  501  0.00000000000E+00  0.00000000000E+00  0.32743548117E+03  0.32743548121E+03  0.50400001928E-02 0. -1.
        1   -1    0    0  501    0  0.00000000000E+00  0.00000000000E+00 -0.17019098506E+04  0.17019098506E+04  0.50400001928E-02 0.  1.
    10030    2    1    2    0    0  0.00000000000E+00  0.00000000000E+00 -0.13744743694E+04  0.20293453318E+04  0.14930045826E+04 0.  0.
        3    1    3    3  502    0  0.42304554988E+03  0.45521088396E+03 -0.12494437692E+04  0.13954548465E+04  0.10100000352E+00 0.  1.
       -3    1    3    3    0  502 -0.42304554988E+03 -0.45521088396E+03 -0.12503060025E+03  0.63389048530E+03  0.10100000352E+00 0. -1.
</event>
<event>
 5   0  0.1511546E-03  0.1470585E+04  0.7818609E-02  0.8904252E-01
       -2   -1    0    0    0  501  0.00000000000E+00  0.00000000000E+00  0.25049291392E+03  0.25049291393E+03  0.25500000920E-02 0.  1.
        2   -1    0    0  501    0  0.00000000000E+00  0.00000000000E+00 -0.21583655012E+04  0.21583655012E+04  0.25500000920E-02 0. -1.
    10030    2    1    2    0    0  0.00000000000E+00  0.00000000000E+00 -0.19078725873E+04  0.24088584152E+04  0.14705852763E+04 0.  0.
        1    1    3    3  502    0 -0.17067205362E+03 -0.67441091914E+03 -0.56390618302E+03  0.89551617574E+03  0.50400001928E-02 0.  1.
       -1    1    3    3    0  502  0.17067205362E+03  0.67441091914E+03 -0.13439664043E+04  0.15133422394E+04  0.50400001928E-02 0. -1.
</event>
<event>
 5   0  0.8365016E-04  0.1503289E+04  0.7818609E-02  0.8882269E-01
        1   -1    0    0  501    0  0.00000000000E+00  0.00000000000E+00  0.60188900730E+03  0.60188900732E+03  0.50400001928E-02 0. -1.
       -1   -1    0    0    0  501  0.00000000000E+00  0.00000000000E+00 -0.93866059920E+03  0.93866059922E+03  0.50400001928E-02 0.  1.
    10030    2    1    2    0    0  0.00000000000E+00  0.00000000000E+00 -0.33677159191E+03  0.15405496065E+04  0.15032890557E+04 0.  0.
        3    1    3    3  502    0  0.51453032906E+03 -0.48595221741E+03 -0.42779731385E+03  0.82698341523E+03  0.10100000352E+00 0.  1.
       -3    1    3    3    0  502 -0.51453032906E+03  0.48595221741E+03  0.91025721942E+02  0.71356619131E+03  0.10100000352E+00 0. -1.
</event>
<event>
 5   0  0.1552067E-03  0.1460508E+04  0.7818609E-02  0.8911148E-01
        2   -1    0    0  501    0  0.00000000000E+00  0.00000000000E+00  0.80467121607E+03  0.80467121607E+03  0.25500000920E-02 0.  1.
       -2   -1    0    0    0  501  0.00000000000E+00  0.00000000000E+00 -0.66271869220E+03  0.66271869221E+03  0.25500000920E-02 0. -1.
    10030    2    1    2    0    0  0.00000000000E+00  0.00000000000E+00  0.14195252386E+03  0.14673899083E+04  0.14605076596E+04 0.  0.
        3    1    3    3  502    0 -0.69576449976E+03 -0.18077802594E+03 -0.58088055927E+02  0.72120951618E+03  0.10100000352E+00 0.  1.
       -3    1    3    3    0  502  0.69576449976E+03  0.18077802594E+03  0.20004057979E+03  0.74618039210E+03  0.10100000352E+00 0. -1.
</event>
<event>
 5   0  0.7870317E-04  0.1502583E+04  0.7818609E-02  0.8882737E-01
        1   -1    0    0  501    0  0.00000000000E+00  0.00000000000E+00  0.71276950779E+03  0.71276950781E+03  0.50400001928E-02 0.  1.
       -1   -1    0    0    0  501  0.00000000000E+00  0.00000000000E+00 -0.79189502297E+03  0.79189502298E+03  0.50400001928E-02 0. -1.
    10030    2    1    2    0    0  0.00000000000E+00  0.00000000000E+00 -0.79125515179E+02  0.15046645308E+04  0.15025826111E+04 0.  0.
        1    1    3    3  502    0 -0.15283812287E+03 -0.63979975372E+03 -0.40301938066E+03  0.77144529156E+03  0.50400001928E-02 0. -1.
       -1    1    3    3    0  502  0.15283812287E+03  0.63979975372E+03  0.32389386548E+03  0.73321923923E+03  0.50400001928E-02 0.  1.
</event>
<event>
 5   0  0.1500956E-03  0.1470998E+04  0.7818609E-02  0.8903971E-01
       -2   -1    0    0    0  501  0.00000000000E+00  0.00000000000E+00  0.69537274923E+03  0.69537274923E+03  0.25500000920E-02 0. -1.
        2   -1    0    0  501    0  0.00000000000E+00  0.00000000000E+00 -0.77794082733E+03  0.77794082734E+03  0.25500000920E-02 0.  1.
    10030    2    1    2    0    0  0.00000000000E+00  0.00000000000E+00 -0.82568078101E+02  0.14733135766E+04  0.14709980990E+04 0.  0.
        4    1    3    3  502    0 -0.90810823897E+02 -0.57559371677E+03 -0.49076936160E+03  0.76184703957E+03  0.12699999809E+01 0.  1.
       -4    1    3    3    0  502  0.90810823897E+02  0.57559371677E+03  0.40820128350E+03  0.71146653700E+03  0.12699999809E+01 0. -1.
</event>
<event>
 5   0  0.1500956E-03  0.1500246E+04  0.7818609E-02  0.8884289E-01
       -2   -1    0    0    0  501  0.00000000000E+00  0.00000000000E+00  0.58553796054E+03  0.58553796055E+03  0.25500000920E-02 0. -1.
        2   -1    0    0  501    0  0.00000000000E+00  0.00000000000E+00 -0.96097057668E+03  0.96097057668E+03  0.25500000920E-02 0.  1.
    10030    2    1    2    0    0  0.00000000000E+00  0.00000000000E+00 -0.37543261614E+03  0.15465085372E+04  0.15002463153E+04 0.  0.
        4    1    3    3  502    0 -0.39173889209E+03  0.24065901785E+03  0.42327237307E+03  0.62492978578E+03  0.12699999809E+01 0. -1.
       -4    1    3    3    0  502  0.39173889209E+03 -0.24065901785E+03 -0.79870498921E+03  0.92157875146E+03  0.12699999809E+01 0.  1.
</event>
<event>
 5   0  0.8058234E-04  0.1502338E+04  0.7818609E-02  0.8882900E-01
       -1   -1    0    0    0  501  0.00000000000E+00  0.00000000000E+00  0.82367757768E+03  0.82367757770E+03  0.50400001928E-02 0. -1.
        1   -1    0    0  501    0  0.00000000000E+00  0.00000000000E+00 -0.68504308015E+03  0.68504308016E+03  0.50400001928E-02 0.  1.
    10030    2    1    2    0    0  0.00000000000E+00  0.00000000000E+00  0.13863449754E+03  0.15087206579E+04  0.15023376783E+04 0.  0.
        5    1    3    3  502    0 -0.17883084676E+03  0.25789019358E+03  0.75467170897E+03  0.81733671275E+03  0.46999998093E+01 0. -1.
       -5    1    3    3    0  502  0.17883084676E+03 -0.25789019358E+03 -0.61603721143E+03  0.69138394511E+03  0.46999998093E+01 0.  1.
</event>
<event>
 5   0  0.8365016E-04  0.1504916E+04  0.7818609E-02  0.8881190E-01
        1   -1    0    0  501    0  0.00000000000E+00  0.00000000000E+00  0.18611528498E+04  0.18611528498E+04  0.50400001928E-02 0.  1.
       -1   -1    0    0    0  501  0.00000000000E+00  0.00000000000E+00 -0.30421637314E+03  0.30421637318E+03  0.50400001928E-02 0. -1.
    10030    2    1    2    0    0  0.00000000000E+00  0.00000000000E+00  0.15569364767E+04  0.21653692230E+04  0.15049161703E+04 0.  0.
        3    1    3    3  502    0 -0.38421391103E+03  0.23014671622E+03 -0.91545085961E+02  0.45713056492E+03  0.10100000352E+00 0. -1.
       -3    1    3    3    0  502  0.38421391103E+03 -0.23014671622E+03  0.16484815627E+04  0.17082386581E+04  0.10100000352E+00 0.  1.
</event>
<event>
 5   0  0.8191876E-04  0.1518699E+04  0.7818609E-02  0.8872112E-01
       -1   -1    0    0    0  501  0.00000000000E+00  0.00000000000E+00  0.57119357033E+03  0.57119357035E+03  0.50400001928E-02 0.  1.
        1   -1    0    0  501    0  0.00000000000E+00  0.00000000000E+00 -0.10094861842E+04  0.10094861843E+04  0.50400001928E-02 0. -1.
    10030    2    1    2    0    0  0.00000000000E+00  0.00000000000E+00 -0.43829261391E+03  0.15806797546E+04  0.15186994670E+04 0.  0.
        2    1    3    3  502    0  0.17200493850E+03  0.81896930213E+02 -0.98420940574E+03  0.10024774114E+04  0.25500000920E-02 0. -1.
       -2    1    3    3    0  502 -0.17200493850E+03 -0.81896930213E+02  0.54591679183E+03  0.57820234318E+03  0.25500000920E-02 0.  1.
</event>
<event>
 5   0  0.1500956E-03  0.1135940E+04  0.7818609E-02  0.9170853E-01
        2   -1    0    0  501    0  0.00000000000E+00  0.00000000000E+00  0.59797200686E+03  0.59797200686E+03  0.25500000920E-02 0.  1.
       -2   -1    0    0    0  501  0.00000000000E+00  0.00000000000E+00 -0.53947337231E+03  0.53947337231E+03  0.25500000920E-02 0. -1.
    10030    2    1    2    0    0  0.00000000000E+00  0.00000000000E+00  0.58498634549E+02  0.11374453792E+04  0.11359400954E+04 0.  0.
        4    1    3    3  502    0  0.77211228305E+02 -0.40898015956E+03  0.41623527571E+03  0.58862531575E+03  0.12699999809E+01 0.  1.
       -4    1    3    3    0  502 -0.77211228305E+02  0.40898015956E+03 -0.35773664116E+03  0.54882006343E+03  0.12699999809E+01 0. -1.
</event>
<event>
 5   0  0.8365016E-04  0.1488457E+04  0.7818609E-02  0.8892165E-01
        1   -1    0    0  501    0  0.00000000000E+00  0.00000000000E+00  0.10383416808E+04  0.10383416808E+04  0.50400001928E-02 0.  1.
       -1   -1    0    0    0  501  0.00000000000E+00  0.00000000000E+00 -0.53342364035E+03  0.53342364037E+03  0.50400001928E-02 0. -1.
    10030    2    1    2    0    0  0.00000000000E+00  0.00000000000E+00  0.50491804042E+03  0.15717653211E+04  0.14884569182E+04 0.  0.
        3    1    3    3  502    0  0.63050597875E+03  0.37702048860E+03  0.37826463524E+03  0.82629678841E+03  0.10100000352E+00 0. -1.
       -3    1    3    3    0  502 -0.63050597875E+03 -0.37702048860E+03  0.12665340518E+03  0.74546853274E+03  0.10100000352E+00 0.  1.
</event>
<event>
 5   0  0.1526126E-03  0.1509938E+04  0.7818609E-02  0.8877871E-01
        2   -1    0    0  501    0  0.00000000000E+00  0.00000000000E+00  0.21327551270E+04  0.21327551270E+04  0.25500000920E-02 0. -1.
       -2   -1    0    0    0  501  0.00000000000E+00  0.00000000000E+00 -0.26724957552E+03  0.26724957553E+03  0.25500000920E-02 0.  1.
    10030    2    1    2    0    0  0.00000000000E+00  0.00000000000E+00  0.18655055515E+04  0.24000047025E+04  0.15099376178E+04 0.  0.
        2    1    3    3  502    0  0.58266499509E+03  0.24895517465E+03  0.15852129038E+04  0.17071546871E+04  0.25500000920E-02 0. -1.
       -2    1    3    3    0  502 -0.58266499509E+03 -0.24895517465E+03  0.28029264772E+03  0.69285001541E+03  0.25500000920E-02 0.  1.
</event>
<event>
 5   0  0.1500956E-03  0.1503743E+04  0.7818609E-02  0.8881968E-01
       -2   -1    0    0    0  501  0.00000000000E+00  0.00000000000E+00  0.13799699458E+04  0.13799699458E+04  0.25500000920E-02 0.  1.
        2   -1    0    0  501    0  0.00000000000E+00  0.00000000000E+00 -0.40965418747E+03  0.40965418748E+03  0.25500000920E-02 0. -1.
    10030    2    1    2    0    0  0.00000000000E+00  0.00000000000E+00  0.97031575828E+03  0.17896241332E+04  0.15037426201E+04 0.  0.
        4    1    3    3  502    0  0.14828066568E+03 -0.91095314581E+02  0.13556697213E+04  0.13667946145E+04  0.12699999809E+01 0.  1.
       -4    1    3    3    0  502 -0.14828066568E+03  0.91095314581E+02 -0.38535396304E+03  0.42282951869E+03  0.12699999809E+01 0. -1.
</event>
<event>
 5   0  0.8058234E-04  0.1481610E+04  0.7818609E-02  0.8896775E-01
        1   -1    0    0  501    0  0.00000000000E+00  0.00000000000E+00  0.16922507890E+04  0.16922507890E+04  0.50400001928E-02 0. -1.
       -1   -1    0    0    0  501  0.00000000000E+00  0.00000000000E+00 -0.32429704009E+03  0.32429704013E+03  0.50400001928E-02 0.  1.
    10030    2    1    2    0    0  0.00000000000E+00  0.00000000000E+00  0.13679537489E+04  0.20165478292E+04  0.14816098299E+04 0.  0.
        5    1    3    3  502    0 -0.88451104787E+02  0.16959010002E+03  0.16580426567E+04  0.16690452185E+04  0.46999998093E+01 0. -1.
       -5    1    3    3    0  502  0.88451104787E+02 -0.16959010002E+03 -0.29008890780E+03  0.34750261063E+03  0.46999998093E+01 0.  1.
</event>
<event>
 5   0  0.8191876E-04  0.1538736E+04  0.7818609E-02  0.8859095E-01
        1   -1    0    0  501    0  0.00000000000E+00  0.00000000000E+00  0.80524947143E+03  0.80524947144E+03  0.50400001928E-02 0.  1.
       -1   -1    0    0    0  501  0.00000000000E+00  0.00000000000E+00 -0.73508556402E+03  0.73508556404E+03  0.50400001928E-02 0. -1.
    10030    2    1    2    0    0  0.00000000000E+00  0.00000000000E+00  0.70163907410E+02  0.15403350355E+04  0.15387361852E+04 0.  0.
        2    1    3    3  502    0 -0.21499190916E+03  0.46928727742E+03 -0.53601517003E+03  0.74415343328E+03  0.25500000920E-02 0. -1.
       -2    1    3    3    0  502  0.21499190916E+03 -0.46928727742E+03  0.60617907744E+03  0.79618160220E+03  0.25500000920E-02 0.  1.
</event>
<event>
 5   0  0.1526126E-03  0.1494135E+04  0.7818609E-02  0.8888362E-01
        2   -1    0    0  501    0  0.00000000000E+00  0.00000000000E+00  0.20381160511E+04  0.20381160511E+04  0.25500000920E-02 0.  1.
       -2   -1    0    0    0  501  0.00000000000E+00  0.00000000000E+00 -0.27383627347E+03  0.27383627348E+03  0.25500000920E-02 0. -1.
    10030    2    1    2    0    0  0.00000000000E+00  0.00000000000E+00  0.17642797777E+04  0.23119523246E+04  0.14941353411E+04 0.  0.
        2    1    3    3  502    0 -0.32057949030E+03 -0.40420822708E+03  0.46062266069E+02  0.51795485595E+03  0.25500000920E-02 0. -1.
       -2    1    3    3    0  502  0.32057949030E+03  0.40420822708E+03  0.17182175116E+04  0.17939974687E+04  0.25500000920E-02 0.  1.
</event>
<event>
 5   0  0.1552067E-03  0.1470887E+04  0.7818609E-02  0.8904047E-01
       -2   -1    0    0    0  501  0.00000000000E+00  0.00000000000E+00  0.13734498396E+04  0.13734498396E+04  0.25500000920E-02 0. -1.
        2   -1    0    0  501    0  0.00000000000E+00  0.00000000000E+00 -0.39380940854E+03  0.39380940855E+03  0.25500000920E-02 0.  1.
    10030    2    1    2    0    0  0.00000000000E+00  0.00000000000E+00  0.97964043101E+03  0.17672592481E+04  0.14708874450E+04 0.  0.
        3    1    3    3  502    0  0.37435251471E+03 -0.45843086572E+03 -0.34695023133E+02  0.59287639416E+03  0.10100000352E+00 0.  1.
       -3    1    3    3    0  502 -0.37435251471E+03  0.45843086572E+03  0.10143354541E+04  0.11743828539E+04  0.10100000352E+00 0. -1.
</event>
<event>
 5   0  0.1484056E-03  0.1517330E+04  0.7818609E-02  0.8873010E-01
       -2   -1    0    0    0  501  0.00000000000E+00  0.00000000000E+00  0.73881317603E+03  0.73881317604E+03  0.25500000920E-02 0.  1.
        2   -1    0    0  501    0  0.00000000000E+00  0.00000000000E+00 -0.77905063685E+03  0.77905063685E+03  0.25500000920E-02 0. -1.
    10030    2    1    2    0    0  0.00000000000E+00  0.00000000000E+00 -0.40237460816E+02  0.15178638129E+04  0.15173303863E+04 0.  0.
        5    1    3    3  502    0  0.22016015147E+03 -0.21944602383E+03 -0.71240518257E+03  0.77728391455E+03  0.46999998093E+01 0. -1.
       -5    1    3    3    0  502 -0.22016015147E+03  0.21944602383E+03  0.67216772175E+03  0.74057989834E+03  0.46999998093E+01 0.  1.
</event>
<event>
 5   0  0.8191876E-04  0.1501190E+04  0.7818609E-02  0.8883662E-01
       -1   -1    0    0    0  501  0.00000000000E+00  0.00000000000E+00  0.41394925054E+03  0.41394925057E+03  0.50400001928E-02 0. -1.
        1   -1    0    0  501    0  0.00000000000E+00  0.00000000000E+00 -0.13610187731E+04  0.13610187731E+04  0.50400001928E-02 0.  1.
    10030    2    1    2    0    0  0.00000000000E+00  0.00000000000E+00 -0.94706952254E+03  0.17749680237E+04  0.15011897963E+04 0.  0.
        2    1    3    3  502    0 -0.60171364491E+03 -0.44015145658E+03 -0.57661233334E+03  0.94248310233E+03  0.25500000920E-02 0. -1.
       -2    1    3    3    0  502  0.60171364491E+03  0.44015145658E+03 -0.37045718920E+03  0.83248492133E+03  0.25500000920E-02 0.  1.
</event>
<event>
 5   0  0.1526126E-03  0.1468489E+04  0.7818609E-02  0.8905682E-01
       -2   -1    0    0    0  501  0.00000000000E+00  0.00000000000E+00  0.69618938604E+03  0.69618938604E+03  0.25500000920E-02 0.  1.
        2   -1    0    0  501    0  0.00000000000E+00  0.00000000000E+00 -0.77437998849E+03  0.77437998850E+03  0.25500000920E-02 0. -1.
    10030    2    1    2    0    0  0.00000000000E+00  0.00000000000E+00 -0.78190602457E+02  0.14705693745E+04  0.14684891947E+04 0.  0.
        2    1    3    3  502    0 -0.24460269569E+02 -0.71466228553E+03 -0.20598863648E+03  0.74415845457E+03  0.25500000920E-02 0. -1.
       -2    1    3    3    0  502  0.24460269569E+02  0.71466228553E+03  0.12779803403E+03  0.72641091997E+03  0.25500000920E-02 0.  1.
</event>
<event>
 5   0  0.8191876E-04  0.1458673E+04  0.7818609E-02  0.8912410E-01
        1   -1    0    0  501    0  0.00000000000E+00  0.00000000000E+00  0.16261153776E+04  0.16261153776E+04  0.50400001928E-02 0.  1.
       -1   -1    0    0    0  501  0.00000000000E+00  0.00000000000E+00 -0.32711791016E+03  0.32711791020E+03  0.50400001928E-02 0. -1.
    10030    2    1    2    0    0  0.00000000000E+00  0.00000000000E+00  0.12989974675E+04  0.19532332878E+04  0.14586726350E+04 0.  0.
        2    1    3    3  502    0 -0.54259879521E+02 -0.18342021650E+03  0.15919304429E+04  0.16033806926E+04  0.25500000920E-02 0.  1.
       -2    1    3    3    0  502  0.54259879521E+02  0.18342021650E+03 -0.29293297539E+03  0.34985259528E+03  0.25500000920E-02 0. -1.
</event>
<event>
 5   0  0.1484056E-03  0.1514717E+04  0.7818609E-02  0.8874725E-01
        2   -1    0    0  501    0  0.00000000000E+00  0.00000000000E+00  0.10048952557E+04  0.10048952557E+04  0.25500000920E-02 0. -1.
       -2   -1    0    0    0  501  0.00000000000E+00  0.00000000000E+00 -0.57079785872E+03  0.57079785873E+03  0.25500000920E-02 0.  1.
    10030    2    1    2    0    0  0.00000000000E+00  0.00000000000E+00  0.43409739702E+03  0.15756931145E+04  0.15147172148E+04 0.  0.
        5    1    3    3  502    0  0.39779794189E+03  0.31196959962E+03  0.80366593792E+03  0.94945735209E+03  0.46999998093E+01 0. -1.
       -5    1    3    3    0  502 -0.39779794189E+03 -0.31196959962E+03 -0.36956854090E+03  0.62623576238E+03  0.46999998093E+01 0.  1.
</event>
<event>
 5   0  0.7870317E-04  0.1356393E+04  0.7818609E-02  0.8986003E-01
       -1   -1    0    0    0  501  0.00000000000E+00  0.00000000000E+00  0.27064019541E+03  0.27064019546E+03  0.50400001928E-02 0.  1.
        1   -1    0    0  501    0  0.00000000000E+00  0.00000000000E+00 -0.16994894402E+04  0.16994894402E+04  0.50400001928E-02 0. -1.
    10030    2    1    2    0    0  0.00000000000E+00  0.00000000000E+00 -0.14288492448E+04  0.19701296357E+04  0.13563925011E+04 0.  0.
        1    1    3    3  502    0 -0.48743765295E+03  0.45748890206E+03 -0.54844391143E+03  0.86468623502E+03  0.50400001928E-02 0.  1.
       -1    1    3    3    0  502  0.48743765295E+03 -0.45748890206E+03 -0.88040533336E+03  0.11054434007E+04  0.50400001928E-02 0. -1.
</event>
<event>
 5   0  0.8191876E-04  0.1469256E+04  0.7818609E-02  0.8905159E-01
       -1   -1    0    0    0  501  0.00000000000E+00  0.00000000000E+00  0.37617266957E+03  0.37617266960E+03  0.50400001928E-02 0. -1.
        1   -1    0    0  501    0  0.00000000000E+00  0.00000000000E+00 -0.14346558902E+04  0.14346558902E+04  0.50400001928E-02 0.  1.
    10030    2    1    2    0    0  0.00000000000E+00  0.00000000000E+00 -0.10584832206E+04  0.18108285598E+04  0.14692560514E+04 0.  0.
        2    1    3    3  502    0  0.56153076655E+03 -0.34001306120E+03 -0.12279849019E+03  0.66783617210E+03  0.25500000920E-02 0. -1.
       -2    1    3    3    0  502 -0.56153076655E+03  0.34001306120E+03 -0.93568473043E+03  0.11429923877E+04  0.25500000920E-02 0.  1.
</event>
<event>
 5   0  0.7870317E-04  0.1507350E+04  0.7818609E-02  0.8879580E-01
        1   -1    0    0  501    0  0.00000000000E+00  0.00000000000E+00  0.12351542668E+04  0.12351542668E+04  0.50400001928E-02 0. -1.
       -1   -1    0    0    0  501  0.00000000000E+00  0.00000000000E+00 -0.45988252416E+03  0.45988252419E+03  0.50400001928E-02 0.  1.
    10030    2    1    2    0    0  0.00000000000E+00  0.00000000000E+00  0.77527174268E+03  0.16950367910E+04  0.15073498094E+04 0.  0.
        1    1    3    3  502    0 -0.35712736882E+03  0.15731040556E+03  0.11126986987E+04  0.11791458414E+04  0.50400001928E-02 0. -1.
       -1    1    3    3    0  502  0.35712736882E+03 -0.15731040556E+03 -0.33742695598E+03  0.51589094963E+03  0.50400001928E-02 0.  1.
</event>
<event>
 5   0  0.1484056E-03  0.1493217E+04  0.7818609E-02  0.8888976E-01
        2   -1    0    0  501    0  0.00000000000E+00  0.00000000000E+00  0.12830821978E+04  0.12830821978E+04  0.25500000920E-02 0. -1.
       -2   -1    0    0    0  501  0.00000000000E+00  0.00000000000E+00 -0.43444163067E+03  0.43444163068E+03  0.25500000920E-02 0.  1.
    10030    2    1    2    0    0  0.00000000000E+00  0.00000000000E+00  0.84864056711E+03  0.17175238285E+04  0.14932170938E+04 0.  0.
        5    1    3    3  502    0 -0.18518518766E+03  0.36822294818E+03 -0.29170305940E+03  0.50496975964E+03  0.46999998093E+01 0.  1.
       -5    1    3    3    0  502  0.18518518766E+03 -0.36822294818E+03  0.11403436265E+04  0.12125540688E+04  0.46999998093E+01 0. -1.
</event>
<event>
 5   0  0.8058234E-04  0.1473283E+04  0.7818609E-02  0.8902417E-01
       -1   -1    0    0    0  501  0.00000000000E+00  0.00000000000E+00  0.50456491812E+03  0.50456491815E+03  0.50400001928E-02 0. -1.
        1   -1    0    0  501    0  0.00000000000E+00  0.00000000000E+00 -0.10754618915E+04  0.10754618915E+04  0.50400001928E-02 0.  1.
    10030    2    1    2    0    0  0.00000000000E+00  0.00000000000E+00 -0.57089697336E+03  0.15800268096E+04  0.14732825136E+04 0.  0.
        5    1    3    3  502    0  0.50994553606E+03  0.34998509773E+03  0.14364576975E+03  0.63497261008E+03  0.46999998093E+01 0. -1.
       -5    1    3    3    0  502 -0.50994553606E+03 -0.34998509773E+03 -0.71454274312E+03  0.94505419957E+03  0.46999998093E+01 0.  1.
</event>
<event>
 5   0  0.8365016E-04  0.1496334E+04  0.7818609E-02  0.8886894E-01
       -1   -1    0    0    0  501  0.00000000000E+00  0.00000000000E+00  0.91528902430E+03  0.91528902432E+03  0.50400001928E-02 0.  1.
        1   -1    0    0  501    0  0.00000000000E+00  0.00000000000E+00 -0.61155977414E+03  0.61155977416E+03  0.50400001928E-02 0. -1.
    10030    2    1    2    0    0  0.00000000000E+00  0.00000000000E+00  0.30372925017E+03  0.15268487985E+04  0.14963341191E+04 0.  0.
        3    1    3    3  502    0  0.49296430536E+03 -0.51628624903E+03  0.38046143903E+03  0.80889814815E+03  0.10100000352E+00 0.  1.
       -3    1    3    3    0  502 -0.49296430536E+03  0.51628624903E+03 -0.76732188857E+02  0.71795065032E+03  0.10100000352E+00 0. -1.
</event>
<event>
 5   0  0.1511546E-03  0.1606261E+04  0.7818609E-02  0.8816711E-01
        2   -1    0    0  501    0  0.00000000000E+00  0.00000000000E+00  0.72423628706E+03  0.72423628707E+03  0.25500000920E-02 0. -1.
       -2   -1    0    0    0  501  0.00000000000E+00  0.00000000000E+00 -0.89061848862E+03  0.89061848863E+03  0.25500000920E-02 0.  1.
    10030    2    1    2    0    0  0.00000000000E+00  0.00000000000E+00 -0.16638220156E+03  0.16148547757E+04  0.16062605360E+04 0.  0.
        1    1    3    3  502    0 -0.58976948123E+03 -0.18649063145E+03 -0.59819303178E+03  0.86048922126E+03  0.50400001928E-02 0.  1.
       -1    1    3    3    0  502  0.58976948123E+03  0.18649063145E+03  0.43181083021E+03  0.75436555444E+03  0.50400001928E-02 0. -1.
</event>
<event>
 5   0  0.8365016E-04  0.1522960E+04  0.7818609E-02  0.8869327E-01
        1   -1    0    0  501    0  0.00000000000E+00  0.00000000000E+00  0.18547349574E+04  0.18547349574E+04  0.50400001928E-02 0. -1.
       -1   -1    0    0    0  501  0.00000000000E+00  0.00000000000E+00 -0.31263310317E+03  0.31263310321E+03  0.50400001928E-02 0.  1.
    10030    2    1    2    0    0  0.00000000000E+00  0.00000000000E+00  0.15421018542E+04  0.21673680606E+04  0.15229596782E+04 0.  0.
        3    1    3    3  502    0  0.38098158137E+03  0.34371782744E+03 -0.29656917162E+02  0.51397320279E+03  0.10100000352E+00 0.  1.
       -3    1    3    3    0  502 -0.38098158137E+03 -0.34371782744E+03  0.15717587714E+04  0.16533948578E+04  0.10100000352E+00 0. -1.
</event>
<event>
 5   0  0.1552067E-03  0.1520262E+04  0.7818609E-02  0.8871090E-01
        2   -1    0    0  501    0  0.00000000000E+00  0.00000000000E+00  0.12615597968E+04  0.12615597968E+04  0.25500000920E-02 0.  1.
       -2   -1    0    0    0  501  0.00000000000E+00  0.00000000000E+00 -0.45800367788E+03  0.45800367789E+03  0.25500000920E-02 0. -1.
    10030    2    1    2    0    0  0.00000000000E+00  0.00000000000E+00  0.80355611896E+03  0.17195634747E+04  0.15202618549E+04 0.  0.
        3    1    3    3  502    0 -0.48288760747E+03  0.22210159739E+01 -0.26221883163E+03  0.54949440418E+03  0.10100000352E+00 0. -1.
       -3    1    3    3    0  502  0.48288760747E+03 -0.22210159739E+01  0.10657749506E+04  0.11700690706E+04  0.10100000352E+00 0.  1.
</event>
<event>
 5   0  0.7870317E-04  0.1509322E+04  0.7818609E-02  0.8878278E-01
        1   -1    0    0  501    0  0.00000000000E+00  0.00000000000E+00  0.19406180060E+04  0.19406180060E+04  0.50400001928E-02 0.  1.
       -1   -1    0    0    0  501  0.00000000000E+00  0.00000000000E+00 -0.29346989249E+03  0.29346989253E+03  0.50400001928E-02 0. -1.
    10030    2    1    2    0    0  0.00000000000E+00  0.00000000000E+00  0.16471481135E+04  0.22340878986E+04  0.15093216458E+04 0.  0.
        1    1    3    3  502    0  0.63335888027E+03  0.22951865009E+02  0.14299887031E+04  0.15641412821E+04  0.50400001928E-02 0.  1.
       -1    1    3    3    0  502 -0.63335888027E+03 -0.22951865009E+02  0.21715941040E+03  0.66994661644E+03  0.50400001928E-02 0. -1.
</event>
<event>
 5   0  0.7870317E-04  0.1464581E+04  0.7818609E-02  0.8908354E-01
        1   -1    0    0  501    0  0.00000000000E+00  0.00000000000E+00  0.69079593212E+03  0.69079593213E+03  0.50400001928E-02 0.  1.
       -1   -1    0    0    0  501  0.00000000000E+00  0.00000000000E+00 -0.77627712309E+03  0.77627712311E+03  0.50400001928E-02 0. -1.
    10030    2    1    2    0    0  0.00000000000E+00  0.00000000000E+00 -0.85481190976E+02  0.14670730552E+04  0.14645805937E+04 0.  0.
        1    1    3    3  502    0 -0.39068060282E+03 -0.42292556802E+03 -0.49600564593E+03  0.75994668913E+03  0.50400001928E-02 0. -1.
       -1    1    3    3    0  502  0.39068060282E+03  0.42292556802E+03  0.41052445495E+03  0.70712636611E+03  0.50400001928E-02 0.  1.
</event>
<event>
 5   0  0.1511546E-03  0.1526300E+04  0.7818609E-02  0.8867149E-01
       -2   -1    0    0    0  501  0.00000000000E+00  0.00000000000E+00  0.91590476860E+03  0.91590476860E+03  0.25500000920E-02 0. -1.
        2   -1    0    0  501    0  0.00000000000E+00  0.00000000000E+00 -0.63587195574E+03  0.63587195575E+03  0.25500000920E-02 0.  1.
    10030    2    1    2    0    0  0.00000000000E+00  0.00000000000E+00  0.28003281286E+03  0.15517767243E+04  0.15263003066E+04 0.  0.
        1    1    3    3  502    0  0.43386321831E+03  0.56395351371E+03 -0.14048234050E+03  0.72526970559E+03  0.50400001928E-02 0.  1.
       -1    1    3    3    0  502 -0.43386321831E+03 -0.56395351371E+03  0.42051515336E+03  0.82650701876E+03  0.50400001928E-02 0. -1.
</event>
<event>
 5   0  0.8365016E-04  0.1279776E+04  0.7818609E-02  0.9045758E-01
        1   -1    0    0  501    0  0.00000000000E+00  0.00000000000E+00  0.69692859136E+03  0.69692859138E+03  0.50400001928E-02 0. -1.
       -1   -1    0    0    0  501  0.00000000000E+00  0.00000000000E+00 -0.58751602261E+03  0.58751602263E+03  0.50400001928E-02 0.  1.
    10030    2    1    2    0    0  0.00000000000E+00  0.00000000000E+00  0.10941256875E+03  0.12844446140E+04  0.12797760961E+04 0.  0.
        3    1    3    3  502    0 -0.28424581092E+03  0.57325927678E+03  0.48783535663E+02  0.64171779078E+03  0.10100000352E+00 0. -1.
       -3    1    3    3    0  502  0.28424581092E+03 -0.57325927678E+03  0.60629033089E+02  0.64272682323E+03  0.10100000352E+00 0.  1.
</event>
<event>
 5   0  0.7870317E-04  0.1486035E+04  0.7818609E-02  0.8893793E-01
       -1   -1    0    0    0  501  0.00000000000E+00  0.00000000000E+00  0.99021071668E+03  0.99021071670E+03  0.50400001928E-02 0.  1.
        1   -1    0    0  501    0  0.00000000000E+00  0.00000000000E+00 -0.55753304113E+03  0.55753304116E+03  0.50400001928E-02 0. -1.
    10030    2    1    2    0    0  0.00000000000E+00  0.00000000000E+00  0.43267767555E+03  0.15477437579E+04  0.14860352516E+04 0.  0.
        1    1    3    3  502    0  0.35338842956E+03  0.37532275571E+03 -0.34097433765E+03  0.61807285336E+03  0.50400001928E-02 0.  1.
       -1    1    3    3    0  502 -0.35338842956E+03 -0.37532275571E+03  0.77365201320E+03  0.92967090449E+03  0.50400001928E-02 0. -1.
</event>
<event>
 5   0  0.1552067E-03  0.9443933E+03  0.7818609E-02  0.9371728E-01
       -2   -1    0    0    0  501  0.00000000000E+00  0.00000000000E+00  0.34260778384E+03  0.34260778384E+03  0.25500000920E-02 0.  1.
        2   -1    0    0  501    0  0.00000000000E+00  0.00000000000E+00 -0.65080148586E+03  0.65080148586E+03  0.25500000920E-02 0. -1.
    10030    2    1    2    0    0  0.00000000000E+00  0.00000000000E+00 -0.30819370202E+03  0.99340926971E+03  0.94439325451E+03 0.  0.
        3    1    3    3  502    0 -0.52511670948E+02 -0.39425607544E+03 -0.42181434406E+03  0.57976088145E+03  0.10100000352E+00 0. -1.
       -3    1    3    3    0  502  0.52511670948E+02  0.39425607544E+03  0.11362064204E+03  0.41364838825E+03  0.10100000352E+00 0.  1.
</event>
<event>
 5   0  0.1484056E-03  0.1493991E+04  0.7818609E-02  0.8888458E-01
        2   -1    0    0  501    0  0.00000000000E+00  0.00000000000E+00  0.87788635150E+03  0.87788635150E+03  0.25500000920E-02 0. -1.
       -2   -1    0    0    0  501  0.00000000000E+00  0.00000000000E+00 -0.63562045788E+03  0.63562045789E+03  0.25500000920E-02 0.  1.
    10030    2    1    2    0    0  0.00000000000E+00  0.00000000000E+00  0.24226589362E+03  0.15135068094E+04  0.14939913316E+04 0.  0.
        5    1    3    3  502    0  0.20256903411E+02 -0.63573337397E+03  0.51792925543E+03  0.82026829059E+03  0.46999998093E+01 0.  1.
       -5    1    3    3    0  502 -0.20256903411E+02  0.63573337397E+03 -0.27566336181E+03  0.69323851880E+03  0.46999998093E+01 0. -1.
</event>
<event>
 5   0  0.1526126E-03  0.1491048E+04  0.7818609E-02  0.8890428E-01
       -2   -1    0    0    0  501  0.00000000000E+00  0.00000000000E+00  0.22495945875E+03  0.22495945876E+03  0.25500000920E-02 0.  1.
        2   -1    0    0  501    0  0.00000000000E+00  0.00000000000E+00 -0.24706927817E+04  0.24706927817E+04  0.25500000920E-02 0. -1.
    10030    2    1    2    0    0  0.00000000000E+00  0.00000000000E+00 -0.22457333229E+04  0.26956522405E+04  0.14910475659E+04 0.  0.
        2    1    3    3  502    0  0.28223686732E+03 -0.71706004573E+02  0.11788746728E+03  0.31416055658E+03  0.25500000920E-02 0.  1.
       -2    1    3    3    0  502 -0.28223686732E+03  0.71706004573E+02 -0.23636207902E+04  0.23814916839E+04  0.25500000920E-02 0. -1.
</event>
<event>
 5   0  0.1526126E-03  0.1289505E+04  0.7818609E-02  0.9037930E-01
        2   -1    0    0  501    0  0.00000000000E+00  0.00000000000E+00  0.58701364587E+03  0.58701364588E+03  0.25500000920E-02 0.  1.
       -2   -1    0    0    0  501  0.00000000000E+00  0.00000000000E+00 -0.70817020219E+03  0.70817020220E+03  0.25500000920E-02 0. -1.
    10030    2    1    2    0    0  0.00000000000E+00  0.00000000000E+00 -0.12115655632E+03  0.12951838481E+04  0.12895046681E+04 0.  0.
        2    1    3    3  502    0  0.37098279640E+02  0.23717908475E+03 -0.66160769245E+03  0.70381456315E+03  0.25500000920E-02 0. -1.
       -2    1    3    3    0  502 -0.37098279640E+02 -0.23717908475E+03  0.54045113613E+03  0.59136928492E+03  0.25500000920E-02 0.  1.
</event>
<event>
 5   0  0.1552067E-03  0.1483188E+04  0.7818609E-02  0.8895711E-01
       -2   -1    0    0    0  501  0.00000000000E+00  0.00000000000E+00  0.50513763033E+03  0.50513763034E+03  0.25500000920E-02 0.  1.
        2   -1    0    0  501    0  0.00000000000E+00  0.00000000000E+00 -0.10887355634E+04  0.10887355634E+04  0.25500000920E-02 0. -1.
    10030    2    1    2    0    0  0.00000000000E+00  0.00000000000E+00 -0.58359793309E+03  0.15938731938E+04  0.14831875169E+04 0.  0.
        3    1    3    3  502    0 -0.43581589431E+03 -0.55192784264E+03 -0.38858514178E+02  0.70432224979E+03  0.10100000352E+00 0.  1.
       -3    1    3    3    0  502  0.43581589431E+03  0.55192784264E+03 -0.54473941892E+03  0.88955094398E+03  0.10100000352E+00 0. -1.
</event>
<event>
 5   0  0.8191876E-04  0.1209355E+04  0.7818609E-02  0.9104707E-01
       -1   -1    0    0    0  501  0.00000000000E+00  0.00000000000E+00  0.35781851166E+03  0.35781851170E+03  0.50400001928E-02 0.  1.
        1   -1    0    0  501    0  0.00000000000E+00  0.00000000000E+00 -0.10218444026E+04  0.10218444026E+04  0.50400001928E-02 0. -1.
    10030    2    1    2    0    0  0.00000000000E+00  0.00000000000E+00 -0.66402589095E+03  0.13796629143E+04  0.12093549410E+04 0.  0.
        2    1    3    3  502    0  0.12263145365E+03 -0.15992512866E+03 -0.98240386029E+03  0.10028618374E+04  0.25500000920E-02 0. -1.
       -2    1    3    3    0  502 -0.12263145365E+03  0.15992512866E+03  0.31837796934E+03  0.37680107692E+03  0.25500000920E-02 0.  1.
</event>
<event>
 5   0  0.1511546E-03  0.1506154E+04  0.7818609E-02  0.8880371E-01
        2   -1    0    0  501    0  0.00000000000E+00  0.00000000000E+00  0.81035438698E+03  0.81035438699E+03  0.25500000920E-02 0. -1.
       -2   -1    0    0    0  501  0.00000000000E+00  0.00000000000E+00 -0.69984780011E+03  0.69984780012E+03  0.25500000920E-02 0.  1.
    10030    2    1    2    0    0  0.00000000000E+00  0.00000000000E+00  0.11050658687E+03  0.15102021871E+04  0.15061536908E+04 0.  0.
        1    1    3    3  502    0 -0.52613901396E+03  0.36953900564E+03  0.44840850770E+03  0.78386958641E+03  0.50400001928E-02 0. -1.
       -1    1    3    3    0  502  0.52613901396E+03 -0.36953900564E+03 -0.33790192083E+03  0.72633260069E+03  0.50400001928E-02 0.  1.
</event>
<event>
 5   0  0.8365016E-04  0.1470655E+04  0.7818609E-02  0.8904205E-01
       -1   -1    0    0    0  501  0.00000000000E+00  0.00000000000E+00  0.51184344311E+03  0.51184344314E+03  0.50400001928E-02 0. -1.
        1   -1    0    0  501    0  0.00000000000E+00  0.00000000000E+00 -0.10563909261E+04  0.10563909261E+04  0.50400001928E-02 0.  1.
    10030    2    1    2    0    0  0.00000000000E+00  0.00000000000E+00 -0.54454748298E+03  0.15682343692E+04  0.14706553218E+04 0.  0.
        3    1    3    3  502    0  0.47153120987E+03  0.37628055061E+03 -0.72062067771E+03  0.93979939668E+03  0.10100000352E+00 0.  1.
       -3    1    3    3    0  502 -0.47153120987E+03 -0.37628055061E+03  0.17607319473E+03  0.62843497257E+03  0.10100000352E+00 0. -1.
</event>
<event>
 5   0  0.8365016E-04  0.1480434E+04  0.7818609E-02  0.8897569E-01
        1   -1    0    0  501    0  0.00000000000E+00  0.00000000000E+00  0.77036495002E+03  0.77036495003E+03  0.50400001928E-02 0.  1.
       -1   -1    0    0    0  501  0.00000000000E+00  0.00000000000E+00 -0.71124913485E+03  0.71124913487E+03  0.50400001928E-02 0. -1.
    10030    2    1    2    0    0  0.00000000000E+00  0.00000000000E+00  0.59115815166E+02  0.14816140849E+04  0.14804342663E+04 0.  0.
        3    1    3    3  502    0 -0.73534372251E+03  0.76684584347E+02 -0.66714715510E+01  0.73936150457E+03  0.10100000352E+00 0.  1.
       -3    1    3    3    0  502  0.73534372251E+03 -0.76684584347E+02  0.65787286717E+02  0.74225258033E+03  0.10100000352E+00 0. -1.
</event>
<event>
 5   0  0.8306301E-04  0.1472978E+04  0.7818609E-02  0.8902624E-01
        1   -1    0    0  501    0  0.00000000000E+00  0.00000000000E+00  0.10417635575E+04  0.10417635575E+04  0.50400001928E-02 0. -1.
       -1   -1    0    0    0  501  0.00000000000E+00  0.00000000000E+00 -0.52067073176E+03  0.52067073178E+03  0.50400001928E-02 0.  1.
    10030    2    1    2    0    0  0.00000000000E+00  0.00000000000E+00  0.52109282575E+03  0.15624342893E+04  0.14729776561E+04 0.  0.
        4    1    3    3  502    0  0.73270242426E+03 -0.24251636386E+02  0.33535017045E+03  0.80616520274E+03  0.12699999809E+01 0. -1.
       -4    1    3    3    0  502 -0.73270242426E+03  0.24251636386E+02  0.18574265530E+03  0.75626908656E+03  0.12699999809E+01 0.  1.
</event>
<event>
 5   0  0.1500956E-03  0.1498868E+04  0.7818609E-02  0.8885206E-01
       -2   -1    0    0    0  501  0.00000000000E+00  0.00000000000E+00  0.42218411205E+03  0.42218411206E+03  0.25500000920E-02 0. -1.
        2   -1    0    0  501    0  0.00000000000E+00  0.00000000000E+00 -0.13303461929E+04  0.13303461929E+04  0.25500000920E-02 0.  1.
    10030    2    1    2    0    0  0.00000000000E+00  0.00000000000E+00 -0.90816208083E+03  0.17525303049E+04  0.14988676075E+04 0.  0.
        4    1    3    3  502    0 -0.66338435787E+03  0.20074057192E+03 -0.78741351397E+03  0.10489982070E+04  0.12699999809E+01 0.  1.
       -4    1    3    3    0  502  0.66338435787E+03 -0.20074057192E+03 -0.12074856686E+03  0.70353209790E+03  0.12699999809E+01 0. -1.
</event>
<event>
 5   0  0.8365016E-04  0.1524178E+04  0.7818609E-02  0.8868532E-01
        1   -1    0    0  501    0  0.00000000000E+00  0.00000000000E+00  0.14246982444E+04  0.14246982444E+04  0.50400001928E-02 0. -1.
       -1   -1    0    0    0  501  0.00000000000E+00  0.00000000000E+00 -0.40765103541E+03  0.40765103544E+03  0.50400001928E-02 0.  1.
    10030    2    1    2    0    0  0.00000000000E+00  0.00000000000E+00  0.10170472089E+04  0.18323492798E+04  0.15241780926E+04 0.  0.
        3    1    3    3  502    0  0.31447351240E+03  0.13036383950E+03 -0.31116386330E+03  0.46120633200E+03  0.10100000352E+00 0.  1.
       -3    1    3    3    0  502 -0.31447351240E+03 -0.13036383950E+03  0.13282110722E+04  0.13711429478E+04  0.10100000352E+00 0. -1.
</event>
<event>
 5   0  0.1484056E-03  0.1086751E+04  0.7818609E-02  0.9218202E-01
       -2   -1    0    0    0  501  0.00000000000E+00  0.00000000000E+00  0.28499454874E+03  0.28499454875E+03  0.25500000920E-02 0.  1.
        2   -1    0    0  501    0  0.00000000000E+00  0.00000000000E+00 -0.10360090219E+04  0.10360090219E+04  0.25500000920E-02 0. -1.
    10030    2    1    2    0    0  0.00000000000E+00  0.00000000000E+00 -0.75101447317E+03  0.13210035707E+04  0.10867509810E+04 0.  0.
        5    1    3    3  502    0  0.22288702701E+03 -0.98175889923E+02 -0.96591793004E+03  0.99616096578E+03  0.46999998093E+01 0. -1.
       -5    1    3    3    0  502 -0.22288702701E+03  0.98175889923E+02  0.21490345687E+03  0.32484260488E+03  0.46999998093E+01 0.  1.
</event>
<event>
 5   0  0.8365016E-04  0.1521598E+04  0.7818609E-02  0.8870216E-01
       -1   -1    0    0    0  501  0.00000000000E+00  0.00000000000E+00  0.56888217765E+03  0.56888217767E+03  0.50400001928E-02 0. -1.
        1   -1    0    0  501    0  0.00000000000E+00  0.00000000000E+00 -0.10174598732E+04  0.10174598732E+04  0.50400001928E-02 0.  1.
    10030    2    1    2    0    0  0.00000000000E+00  0.00000000000E+00 -0.44857769555E+03  0.15863420509E+04  0.15215975662E+04 0.  0.
        3    1    3    3  502    0 -0.28290833677E+03  0.12999807055E+02  0.51187915770E+03  0.58500120024E+03  0.10100000352E+00 0. -1.
       -3    1    3    3    0  502  0.28290833677E+03 -0.12999807055E+02 -0.96045685325E+03  0.10013408506E+04  0.10100000352E+00 0.  1.
</event>
<event>
 5   0  0.1511546E-03  0.1378536E+04  0.7818609E-02  0.8969503E-01
        2   -1    0    0  501    0  0.00000000000E+00  0.00000000000E+00  0.20590831121E+04  0.20590831121E+04  0.25500000920E-02 0. -1.
       -2   -1    0    0    0  501  0.00000000000E+00  0.00000000000E+00 -0.23072921492E+03  0.23072921493E+03  0.25500000920E-02 0.  1.
    10030    2    1    2    0    0  0.00000000000E+00  0.00000000000E+00  0.18283538972E+04  0.22898123270E+04  0.13785363687E+04 0.  0.
        1    1    3    3  502    0 -0.49111889396E+03  0.16023392803E+03  0.16721272748E+04  0.17501092260E+04  0.50400001928E-02 0. -1.
       -1    1    3    3    0  502  0.49111889396E+03 -0.16023392803E+03  0.15622662235E+03  0.53970310103E+03  0.50400001928E-02 0.  1.
</event>
<event>
 5   0  0.8365016E-04  0.1527308E+04  0.7818609E-02  0.8866493E-01
        1   -1    0    0  501    0  0.00000000000E+00  0.00000000000E+00  0.17982937141E+04  0.17982937141E+04  0.50400001928E-02 0. -1.
       -1   -1    0    0    0  501  0.00000000000E+00  0.00000000000E+00 -0.32428950583E+03  0.32428950587E+03  0.50400001928E-02 0.  1.
    10030    2    1    2    0    0  0.00000000000E+00  0.00000000000E+00  0.14740042083E+04  0.21225832200E+04  0.15273084560E+04 0.  0.
        3    1    3    3  502    0  0.64186393950E+03 -0.14261121020E+03  0.19724676657E+03  0.68646454478E+03  0.10100000352E+00 0.  1.
       -3    1    3    3    0  502 -0.64186393950E+03  0.14261121020E+03  0.12767574417E+04  0.14361186752E+04  0.10100000352E+00 0. -1.
</event>
<event>
 5   0  0.1484056E-03  0.1470504E+04  0.7818609E-02  0.8904308E-01
       -2   -1    0    0    0  501  0.00000000000E+00  0.00000000000E+00  0.78697944376E+03  0.78697944376E+03  0.25500000920E-02 0. -1.
        2   -1    0    0  501    0  0.00000000000E+00  0.00000000000E+00 -0.68692428302E+03  0.68692428303E+03  0.25500000920E-02 0.  1.
    10030    2    1    2    0    0  0.00000000000E+00  0.00000000000E+00  0.10005516073E+03  0.14739037268E+04  0.14705037098E+04 0.  0.
        5    1    3    3  502    0 -0.58723131372E+03 -0.39108943849E+03 -0.15728787686E+03  0.72287836523E+03  0.46999998093E+01 0. -1.
       -5    1    3    3    0  502  0.58723131372E+03  0.39108943849E+03  0.25734303759E+03  0.75102536156E+03  0.46999998093E+01 0.  1.
</event>
<event>
 5   0  0.1552067E-03  0.1664843E+04  0.7818609E-02  0.8781674E-01
        2   -1    0    0  501    0  0.00000000000E+00  0.00000000000E+00  0.59717042007E+03  0.59717042008E+03  0.25500000920E-02 0.  1.
       -2   -1    0    0    0  501  0.00000000000E+00  0.00000000000E+00 -0.11603482061E+04  0.11603482061E+04  0.25500000920E-02 0. -1.
    10030    2    1    2    0    0  0.00000000000E+00  0.00000000000E+00 -0.56317778606E+03  0.17575186262E+04  0.16648430865E+04 0.  0.
        3    1    3    3  502    0  0.29298927560E+03  0.55910055842E+03 -0.85446605765E+03  0.10623315885E+04  0.10100000352E+00 0. -1.
       -3    1    3    3    0  502 -0.29298927560E+03 -0.55910055842E+03  0.29128827159E+03  0.69518703772E+03  0.10100000352E+00 0.  1.
</event>
<event>
 5   0  0.1552067E-03  0.1500653E+04  0.7818609E-02  0.8884019E-01
       -2   -1    0    0    0  501  0.00000000000E+00  0.00000000000E+00  0.78655787211E+03  0.78655787211E+03  0.25500000920E-02 0.  1.
        2   -1    0    0  501    0  0.00000000000E+00  0.00000000000E+00 -0.71576417995E+03  0.71576417996E+03  0.25500000920E-02 0. -1.
    10030    2    1    2    0    0  0.00000000000E+00  0.00000000000E+00  0.70793692156E+02  0.15023220521E+04  0.15006531249E+04 0.  0.
        3    1    3    3  502    0 -0.64860554246E+03  0.37287615600E+03  0.92593236817E+02  0.75385628280E+03  0.10100000352E+00 0. -1.
       -3    1    3    3    0  502  0.64860554246E+03 -0.37287615600E+03 -0.21799544660E+02  0.74846576927E+03  0.10100000352E+00 0.  1.
</event>
<event>
 5   0  0.7870317E-04  0.1507240E+04  0.7818609E-02  0.8879652E-01
        1   -1    0    0  501    0  0.00000000000E+00  0.00000000000E+00  0.79216648233E+03  0.79216648235E+03  0.50400001928E-02 0. -1.
       -1   -1    0    0    0  501  0.00000000000E+00  0.00000000000E+00 -0.71694939003E+03  0.71694939005E+03  0.50400001928E-02 0.  1.
    10030    2    1    2    0    0  0.00000000000E+00  0.00000000000E+00  0.75217092303E+02  0.15091158724E+04  0.15072402281E+04 0.  0.
        1    1    3    3  502    0  0.57394537534E+03  0.22216639832E+03  0.47308895554E+03  0.77626307544E+03  0.50400001928E-02 0. -1.
       -1    1    3    3    0  502 -0.57394537534E+03 -0.22216639832E+03 -0.39787186323E+03  0.73285279695E+03  0.50400001928E-02 0.  1.
</event>
<event>
 5   0  0.8306301E-04  0.1497752E+04  0.7818609E-02  0.8885949E-01
        1   -1    0    0  501    0  0.00000000000E+00  0.00000000000E+00  0.98627744605E+03  0.98627744606E+03  0.50400001928E-02 0.  1.
       -1   -1    0    0    0  501  0.00000000000E+00  0.00000000000E+00 -0.56861810709E+03  0.56861810711E+03  0.50400001928E-02 0. -1.
    10030    2    1    2    0    0  0.00000000000E+00  0.00000000000E+00  0.41765933896E+03  0.15548955532E+04  0.14977519347E+04 0.  0.
        4    1    3    3  502    0  0.46020165130E+03 -0.50750800373E+03  0.52279785198E+03  0.86178253675E+03  0.12699999809E+01 0.  1.
       -4    1    3    3    0  502 -0.46020165130E+03  0.50750800373E+03 -0.10513851302E+03  0.69311301642E+03  0.12699999809E+01 0. -1.
</event>
<event>
 5   0  0.7870317E-04  0.1494201E+04  0.7818609E-02  0.8888318E-01
       -1   -1    0    0    0  501  0.00000000000E+00  0.00000000000E+00  0.83584168416E+03  0.83584168418E+03  0.50400001928E-02 0.  1.
        1   -1    0    0  501    0  0.00000000000E+00  0.00000000000E+00 -0.66778104327E+03  0.66778104329E+03  0.50400001928E-02 0. -1.
    10030    2    1    2    0    0  0.00000000000E+00  0.00000000000E+00  0.16806064089E+03  0.15036227275E+04  0.14942011001E+04 0.  0.
        1    1    3    3  502    0 -0.38311665211E+03 -0.54940128988E+02 -0.55903150260E+03  0.67993603215E+03  0.50400001928E-02 0. -1.
       -1    1    3    3    0  502  0.38311665211E+03  0.54940128988E+02  0.72709214349E+03  0.82368669532E+03  0.50400001928E-02 0.  1.
</event>
<event>
 5   0  0.5603875E-04  0.1520123E+04  0.7818609E-02  0.8871181E-01
       -3   -1    0    0    0  501  0.00000000000E+00  0.00000000000E+00  0.15250360733E+04  0.15250360767E+04  0.10100000352E+00 0. -1.
        3   -1    0    0  501    0  0.00000000000E+00  0.00000000000E+00 -0.37880621577E+03  0.37880622923E+03  0.10100000352E+00 0.  1.
    10030    2    1    2    0    0  0.00000000000E+00  0.00000000000E+00  0.11462298576E+04  0.19038423059E+04  0.15201225738E+04 0.  0.
        4    1    3    3  502    0  0.44373851786E+03 -0.37950751976E+03 -0.36293007083E+02  0.58502019201E+03  0.12699999809E+01 0.  1.
       -4    1    3    3    0  502 -0.44373851786E+03  0.37950751976E+03  0.11825228647E+04  0.13188221139E+04  0.12699999809E+01 0. -1.
</event>
<event>
 5   0  0.8058234E-04  0.1310387E+04  0.7818609E-02  0.9021369E-01
        1   -1    0    0  501    0  0.00000000000E+00  0.00000000000E+00  0.18789364732E+04  0.18789364732E+04  0.50400001928E-02 0. -1.
       -1   -1    0    0    0  501  0.00000000000E+00  0.00000000000E+00 -0.22846876660E+03  0.22846876665E+03  0.50400001928E-02 0.  1.
    10030    2    1    2    0    0  0.00000000000E+00  0.00000000000E+00  0.16504677066E+04  0.21074052398E+04  0.13103866584E+04 0.  0.
        5    1    3    3  502    0 -0.47037511434E+03 -0.44371694811E+03  0.65565324358E+03  0.92089127699E+03  0.46999998093E+01 0. -1.
       -5    1    3    3    0  502  0.47037511434E+03  0.44371694811E+03  0.99481446298E+03  0.11865139628E+04  0.46999998093E+01 0.  1.
</event>
<event>
 5   0  0.8306301E-04  0.1491690E+04  0.7818609E-02  0.8889998E-01
        1   -1    0    0  501    0  0.00000000000E+00  0.00000000000E+00  0.83435883616E+03  0.83435883617E+03  0.50400001928E-02 0.  1.
       -1   -1    0    0    0  501  0.00000000000E+00  0.00000000000E+00 -0.66672110587E+03  0.66672110589E+03  0.50400001928E-02 0. -1.
    10030    2    1    2    0    0  0.00000000000E+00  0.00000000000E+00  0.16763773028E+03  0.15010799421E+04  0.14916898417E+04 0.  0.
        4    1    3    3  502    0 -0.56935565624E+03  0.37195849148E+02  0.56719003850E+03  0.80452193703E+03  0.12699999809E+01 0.  1.
       -4    1    3    3    0  502  0.56935565624E+03 -0.37195849148E+02 -0.39955230821E+03  0.69655800504E+03  0.12699999809E+01 0. -1.
</event>
<event>
 5   0  0.8191876E-04  0.1497903E+04  0.7818609E-02  0.8885849E-01
       -1   -1    0    0    0  501  0.00000000000E+00  0.00000000000E+00  0.66457242238E+03  0.66457242240E+03  0.50400001928E-02 0.  1.
        1   -1    0    0  501    0  0.00000000000E+00  0.00000000000E+00 -0.84404358878E+03  0.84404358880E+03  0.50400001928E-02 0. -1.
    10030    2    1    2    0    0  0.00000000000E+00  0.00000000000E+00 -0.17947116640E+03  0.15086160112E+04  0.14979026569E+04 0.  0.
        2    1    3    3  502    0 -0.11581564277E+03  0.71514476171E+03  0.10157774705E+03  0.73154858486E+03  0.25500000920E-02 0. -1.
       -2    1    3    3    0  502  0.11581564277E+03 -0.71514476171E+03 -0.28104891346E+03  0.77706742634E+03  0.25500000920E-02 0.  1.
</event>
<event>
 5   0  0.1526126E-03  0.1434029E+04  0.7818609E-02  0.8929549E-01
        2   -1    0    0  501    0  0.00000000000E+00  0.00000000000E+00  0.90665435981E+03  0.90665435982E+03  0.25500000920E-02 0. -1.
       -2   -1    0    0    0  501  0.00000000000E+00  0.00000000000E+00 -0.56704019512E+03  0.56704019512E+03  0.25500000920E-02 0.  1.
    10030    2    1    2    0    0  0.00000000000E+00  0.00000000000E+00  0.33961416470E+03  0.14736945549E+04  0.14340285424E+04 0.  0.
        2    1    3    3  502    0  0.98234460529E+02 -0.14852922933E+03 -0.54395367798E+03  0.57236050265E+03  0.25500000920E-02 0.  1.
       -2    1    3    3    0  502 -0.98234460529E+02  0.14852922933E+03  0.88356784268E+03  0.90133405229E+03  0.25500000920E-02 0. -1.
</event>
<event>
 5   0  0.8058234E-04  0.1477753E+04  0.7818609E-02  0.8899383E-01
       -1   -1    0    0    0  501  0.00000000000E+00  0.00000000000E+00  0.47839550786E+03  0.47839550788E+03  0.50400001928E-02 0. -1.
        1   -1    0    0  501    0  0.00000000000E+00  0.00000000000E+00 -0.11411863248E+04  0.11411863248E+04  0.50400001928E-02 0.  1.
    10030    2    1    2    0    0  0.00000000000E+00  0.00000000000E+00 -0.66279081692E+03  0.16195818327E+04  0.14777529042E+04 0.  0.
        5    1    3    3  502    0 -0.24585758295E+03 -0.44929698424E+03  0.25225953944E+03  0.57093843484E+03  0.46999998093E+01 0. -1.
       -5    1    3    3    0  502  0.24585758295E+03  0.44929698424E+03 -0.91505035636E+03  0.10486433978E+04  0.46999998093E+01 0.  1.
</event>
<event>
 5   0  0.8365016E-04  0.1484528E+04  0.7818609E-02  0.8894807E-01
       -1   -1    0    0    0  501  0.00000000000E+00  0.00000000000E+00  0.27883376205E+03  0.27883376209E+03  0.50400001928E-02 0. -1.
        1   -1    0    0  501    0  0.00000000000E+00  0.00000000000E+00 -0.19759290610E+04  0.19759290610E+04  0.50400001928E-02 0.  1.
    10030    2    1    2    0    0  0.00000000000E+00  0.00000000000E+00 -0.16970952989E+04  0.22547628231E+04  0.14845278491E+04 0.  0.
        3    1    3    3  502    0  0.43819718905E+03 -0.37922626954E+03 -0.15530125417E+04  0.16576119283E+04  0.10100000352E+00 0.  1.
       -3    1    3    3    0  502 -0.43819718905E+03  0.37922626954E+03 -0.14408275725E+03  0.59715089478E+03  0.10100000352E+00 0. -1.
</event>
<event>
 5   0  0.1526126E-03  0.1381190E+04  0.7818609E-02  0.8967548E-01
       -2   -1    0    0    0  501  0.00000000000E+00  0.00000000000E+00  0.26682355330E+03  0.26682355332E+03  0.25500000920E-02 0. -1.
        2   -1    0    0  501    0  0.00000000000E+00  0.00000000000E+00 -0.17874026116E+04  0.17874026116E+04  0.25500000920E-02 0.  1.
    10030    2    1    2    0    0  0.00000000000E+00  0.00000000000E+00 -0.15205790583E+04  0.20542261649E+04  0.13811895106E+04 0.  0.
        2    1    3    3  502    0 -0.34951476117E+03  0.57435585659E+03 -0.52571310238E+03  0.85347494650E+03  0.25500000920E-02 0. -1.
       -2    1    3    3    0  502  0.34951476117E+03 -0.57435585659E+03 -0.99486595588E+03  0.12007512184E+04  0.25500000920E-02 0.  1.
</event>
<event>
 5   0  0.8191876E-04  0.1495831E+04  0.7818609E-02  0.8887230E-01
        1   -1    0    0  501    0  0.00000000000E+00  0.00000000000E+00  0.42931707557E+03  0.42931707560E+03  0.50400001928E-02 0.  1.
       -1   -1    0    0    0  501  0.00000000000E+00  0.00000000000E+00 -0.13029472693E+04  0.13029472693E+04  0.50400001928E-02 0. -1.
    10030    2    1    2    0    0  0.00000000000E+00  0.00000000000E+00 -0.87363019375E+03  0.17322643449E+04  0.14958308879E+04 0.  0.
        2    1    3    3  502    0  0.59637897406E+02 -0.19110221285E+03 -0.12713435638E+04  0.12870086215E+04  0.25500000920E-02 0. -1.
       -2    1    3    3    0  502 -0.59637897406E+02  0.19110221285E+03  0.39771337003E+03  0.44525572346E+03  0.25500000920E-02 0.  1.
</event>
<event>
 5   0  0.8058234E-04  0.1492619E+04  0.7818609E-02  0.8889376E-01
        1   -1    0    0  501    0  0.00000000000E+00  0.00000000000E+00  0.93810125257E+03  0.93810125259E+03  0.50400001928E-02 0.  1.
       -1   -1    0    0    0  501  0.00000000000E+00  0.00000000000E+00 -0.59372875218E+03  0.59372875220E+03  0.50400001928E-02 0. -1.
    10030    2    1    2    0    0  0.00000000000E+00  0.00000000000E+00  0.34437250039E+03  0.15318300048E+04  0.14926187539E+04 0.  0.
        5    1    3    3  502    0  0.24300829298E+03  0.13910742996E+03  0.88213353825E+03  0.92551908507E+03  0.46999998093E+01 0.  1.
       -5    1    3    3    0  502 -0.24300829298E+03 -0.13910742996E+03 -0.53776103786E+03  0.60631091972E+03  0.46999998093E+01 0. -1.
</event>
<event>
 5   0  0.1511546E-03  0.1522512E+04  0.7818609E-02  0.8869619E-01
        2   -1    0    0  501    0  0.00000000000E+00  0.00000000000E+00  0.50631513044E+03  0.50631513045E+03  0.25500000920E-02 0. -1.
       -2   -1    0    0    0  501  0.00000000000E+00  0.00000000000E+00 -0.11445657130E+04  0.11445657130E+04  0.25500000920E-02 0.  1.
    10030    2    1    2    0    0  0.00000000000E+00  0.00000000000E+00 -0.63825058258E+03  0.16508808435E+04  0.15225123163E+04 0.  0.
        1    1    3    3  502    0  0.34534665487E+03 -0.31222740733E+03 -0.97220322897E+03  0.10779282835E+04  0.50400001928E-02 0.  1.
       -1    1    3    3    0  502 -0.34534665487E+03  0.31222740733E+03  0.33395264640E+03  0.57295255997E+03  0.50400001928E-02 0. -1.
</event>
<event>
 5   0  0.1526126E-03  0.1368366E+04  0.7818609E-02  0.8977041E-01
        2   -1    0    0  501    0  0.00000000000E+00  0.00000000000E+00  0.13788486038E+04  0.13788486038E+04  0.25500000920E-02 0.  1.
       -2   -1    0    0    0  501  0.00000000000E+00  0.00000000000E+00 -0.33949064184E+03  0.33949064185E+03  0.25500000920E-02 0. -1.
    10030    2    1    2    0    0  0.00000000000E+00  0.00000000000E+00  0.10393579620E+04  0.17183392457E+04  0.13683657370E+04 0.  0.
        2    1    3    3  502    0 -0.14841853648E+03  0.43025552470E+03 -0.12181456465E+03  0.47115461015E+03  0.25500000920E-02 0. -1.
       -2    1    3    3    0  502  0.14841853648E+03 -0.43025552470E+03  0.11611725266E+04  0.12471846355E+04  0.25500000920E-02 0.  1.
</event>
<event>
 5   0  0.1500956E-03  0.1508775E+04  0.7818609E-02  0.8878639E-01
       -2   -1    0    0    0  501  0.00000000000E+00  0.00000000000E+00  0.95602042316E+03  0.95602042316E+03  0.25500000920E-02 0. -1.
        2   -1    0    0  501    0  0.00000000000E+00  0.00000000000E+00 -0.59528060966E+03  0.59528060966E+03  0.25500000920E-02 0.  1.
    10030    2    1    2    0    0  0.00000000000E+00  0.00000000000E+00  0.36073981350E+03  0.15513010328E+04  0.15087748942E+04 0.  0.
        4    1    3    3  502    0 -0.47425142617E+03  0.57920735144E+03  0.27629053606E+03  0.79795591633E+03  0.12699999809E+01 0. -1.
       -4    1    3    3    0  502  0.47425142617E+03 -0.57920735144E+03  0.84449277438E+02  0.75334511650E+03  0.12699999809E+01 0.  1.
</event>
<event>
 5   0  0.1484056E-03  0.1490074E+04  0.7818609E-02  0.8891080E-01
       -2   -1    0    0    0  501  0.00000000000E+00  0.00000000000E+00  0.18435483028E+04  0.18435483028E+04  0.25500000920E-02 0. -1.
        2   -1    0    0  501    0  0.00000000000E+00  0.00000000000E+00 -0.30109343679E+03  0.30109343680E+03  0.25500000920E-02 0.  1.
    10030    2    1    2    0    0  0.00000000000E+00  0.00000000000E+00  0.15424548660E+04  0.21446417396E+04  0.14900742188E+04 0.  0.
        5    1    3    3  502    0 -0.20501173557E+03 -0.60283380034E+03  0.13279532882E+04  0.14727255101E+04  0.46999998093E+01 0. -1.
       -5    1    3    3    0  502  0.20501173557E+03  0.60283380034E+03  0.21450157783E+03  0.67191622948E+03  0.46999998093E+01 0.  1.
</event>
<event>
 5   0  0.1500956E-03  0.9574478E+03  0.7818609E-02  0.9356487E-01
       -2   -1    0    0    0  501  0.00000000000E+00  0.00000000000E+00  0.26192063839E+03  0.26192063840E+03  0.25500000920E-02 0. -1.
        2   -1    0    0  501    0  0.00000000000E+00  0.00000000000E+00 -0.87498480649E+03  0.87498480649E+03  0.25500000920E-02 0.  1.
    10030    2    1    2    0    0  0.00000000000E+00  0.00000000000E+00 -0.61306416810E+03  0.11369054449E+04  0.95744781395E+03 0.  0.
        4    1    3    3  502    0 -0.45652676723E+03 -0.74494182700E+02 -0.16009264807E+03  0.48948681425E+03  0.12699999809E+01 0. -1.
       -4    1    3    3    0  502  0.45652676723E+03  0.74494182700E+02 -0.45297152003E+03  0.64741863065E+03  0.12699999809E+01 0.  1.
</event>
<event>
 5   0  0.1511546E-03  0.1482266E+04  0.7818609E-02  0.8896332E-01
        2   -1    0    0  501    0  0.00000000000E+00  0.00000000000E+00  0.11600214018E+04  0.11600214018E+04  0.25500000920E-02 0.  1.
       -2   -1    0    0    0  501  0.00000000000E+00  0.00000000000E+00 -0.47350661121E+03  0.47350661122E+03  0.25500000920E-02 0. -1.
    10030    2    1    2    0    0  0.00000000000E+00  0.00000000000E+00  0.68651479060E+03  0.16335280130E+04  0.14822655672E+04 0.  0.
        1    1    3    3  502    0  0.10804296473E+03 -0.46454135493E+03 -0.28191174748E+03  0.55402724307E+03  0.50400001928E-02 0. -1.
       -1    1    3    3    0  502 -0.10804296473E+03  0.46454135493E+03  0.96842653807E+03  0.10795007700E+04  0.50400001928E-02 0.  1.
</event>
<event>
 5   0  0.8191876E-04  0.1376797E+04  0.7818609E-02  0.8970788E-01
       -1   -1    0    0    0  501  0.00000000000E+00  0.00000000000E+00  0.81626252015E+03  0.81626252017E+03  0.50400001928E-02 0. -1.
        1   -1    0    0  501    0  0.00000000000E+00  0.00000000000E+00 -0.58056365875E+03  0.58056365878E+03  0.50400001928E-02 0.  1.
    10030    2    1    2    0    0  0.00000000000E+00  0.00000000000E+00  0.23569886140E+03  0.13968261789E+04  0.13767967973E+04 0.  0.
        2    1    3    3  502    0 -0.26085354526E+03  0.18224156283E+03 -0.50147014072E+03  0.59390980909E+03  0.25500000920E-02 0.  1.
       -2    1    3    3    0  502  0.26085354526E+03 -0.18224156283E+03  0.73716900212E+03  0.80291636986E+03  0.25500000920E-02 0. -1.
</event>
<event>
 5   0  0.1526126E-03  0.1478791E+04  0.7818609E-02  0.8898681E-01
       -2   -1    0    0    0  501  0.00000000000E+00  0.00000000000E+00  0.82322293526E+03  0.82322293526E+03  0.25500000920E-02 0.  1.
        2   -1    0    0  501    0  0.00000000000E+00  0.00000000000E+00 -0.66410377139E+03  0.66410377140E+03  0.25500000920E-02 0. -1.
    10030    2    1    2    0    0  0.00000000000E+00  0.00000000000E+00  0.15911916387E+03  0.14873267067E+04  0.14787906627E+04 0.  0.
        2    1    3    3  502    0  0.26330423871E+03 -0.13552374319E+03 -0.60185368367E+03  0.67076349307E+03  0.25500000920E-02 0. -1.
       -2    1    3    3    0  502 -0.26330423871E+03  0.13552374319E+03  0.76097284753E+03  0.81656321358E+03  0.25500000920E-02 0.  1.
</event>
<event>
 5   0  0.1552067E-03  0.1458004E+04  0.7818609E-02  0.8912870E-01
        2   -1    0    0  501    0  0.00000000000E+00  0.00000000000E+00  0.22806054668E+04  0.22806054668E+04  0.25500000920E-02 0. -1.
       -2   -1    0    0    0  501  0.00000000000E+00  0.00000000000E+00 -0.23302756637E+03  0.23302756639E+03  0.25500000920E-02 0.  1.
    10030    2    1    2    0    0  0.00000000000E+00  0.00000000000E+00  0.20475779004E+04  0.25136330332E+04  0.14580040354E+04 0.  0.
        3    1    3    3  502    0  0.97568560566E+02 -0.20951464826E+03 -0.16819327827E+03  0.28584086640E+03  0.10100000352E+00 0.  1.
       -3    1    3    3    0  502 -0.97568560566E+02  0.20951464826E+03  0.22157711787E+04  0.22277921668E+04  0.10100000352E+00 0. -1.
</event>
<event>
 5   0  0.5603875E-04  0.1500167E+04  0.7818609E-02  0.8884342E-01
       -4   -1    0    0    0  501  0.00000000000E+00  0.00000000000E+00  0.14036577056E+04  0.14036582801E+04  0.12699999809E+01 0. -1.
        4   -1    0    0  501    0  0.00000000000E+00  0.00000000000E+00 -0.40082621130E+03  0.40082822327E+03  0.12699999809E+01 0.  1.
    10030    2    1    2    0    0  0.00000000000E+00  0.00000000000E+00  0.10028314943E+04  0.18044865034E+04  0.15001668357E+04 0.  0.
        4    1    3    3  502    0  0.53152549033E+03  0.32287286993E+03  0.10058380243E+04  0.11825726113E+04  0.12699999809E+01 0. -1.
       -4    1    3    3    0  502 -0.53152549033E+03 -0.32287286993E+03 -0.30065300446E+01  0.62191389205E+03  0.12699999809E+01 0.  1.
</event>
<event>
 5   0  0.1511546E-03  0.1498700E+04  0.7818609E-02  0.8885318E-01
       -2   -1    0    0    0  501  0.00000000000E+00  0.00000000000E+00  0.41717719758E+03  0.41717719759E+03  0.25500000920E-02 0.  1.
        2   -1    0    0  501    0  0.00000000000E+00  0.00000000000E+00 -0.13460126302E+04  0.13460126302E+04  0.25500000920E-02 0. -1.
    10030    2    1    2    0    0  0.00000000000E+00  0.00000000000E+00 -0.92883543265E+03  0.17631898278E+04  0.14987004731E+04 0.  0.
        1    1    3    3  502    0  0.74928444191E+03 -0.88293322859E+01 -0.45907217717E+03  0.87877892320E+03  0.50400001928E-02 0.  1.
       -1    1    3    3    0  502 -0.74928444191E+03  0.88293322859E+01 -0.46976325548E+03  0.88441090462E+03  0.50400001928E-02 0. -1.
</event>
<event>
 5   0  0.7870317E-04  0.1508414E+04  0.7818609E-02  0.8878877E-01
       -1   -1    0    0    0  501  0.00000000000E+00  0.00000000000E+00  0.10604549047E+04  0.10604549047E+04  0.50400001928E-02 0. -1.
        1   -1    0    0  501    0  0.00000000000E+00  0.00000000000E+00 -0.53639982205E+03  0.53639982208E+03  0.50400001928E-02 0.  1.
    10030    2    1    2    0    0  0.00000000000E+00  0.00000000000E+00  0.52405508262E+03  0.15968547268E+04  0.15084135006E+04 0.  0.
        1    1    3    3  502    0  0.57819704899E+03  0.90275772414E+02  0.76570308510E+03  0.96372338205E+03  0.50400001928E-02 0. -1.
       -1    1    3    3    0  502 -0.57819704899E+03 -0.90275772414E+02 -0.24164800248E+03  0.63313134472E+03  0.50400001928E-02 0.  1.
</event>
<event>
 5   0  0.1526126E-03  0.1552885E+04  0.7818609E-02  0.8850027E-01
        2   -1    0    0  501    0  0.00000000000E+00  0.00000000000E+00  0.15701730836E+04  0.15701730836E+04  0.25500000920E-02 0. -1.
       -2   -1    0    0    0  501  0.00000000000E+00  0.00000000000E+00 -0.38394694558E+03  0.38394694559E+03  0.25500000920E-02 0.  1.
    10030    2    1    2    0    0  0.00000000000E+00  0.00000000000E+00  0.11862261380E+04  0.19541200292E+04  0.15528852623E+04 0.  0.
        2    1    3    3  502    0  0.42963642301E+03 -0.44191404429E+03  0.11873399627E+04  0.13377786310E+04  0.25500000920E-02 0. -1.
       -2    1    3    3    0  502 -0.42963642301E+03  0.44191404429E+03 -0.11138246716E+01  0.61634139820E+03  0.25500000920E-02 0.  1.
</event>
<event>
 5   0  0.8058234E-04  0.1499930E+04  0.7818609E-02  0.8884500E-01
        1   -1    0    0  501    0  0.00000000000E+00  0.00000000000E+00  0.17551994918E+04  0.17551994918E+04  0.50400001928E-02 0. -1.
       -1   -1    0    0    0  501  0.00000000000E+00  0.00000000000E+00 -0.32044644494E+03  0.32044644498E+03  0.50400001928E-02 0.  1.
    10030    2    1    2    0    0  0.00000000000E+00  0.00000000000E+00  0.14347530469E+04  0.20756459368E+04  0.14999299148E+04 0.  0.
        5    1    3    3  502    0 -0.42357339102E+03 -0.54572117261E+03  0.31345183328E+03  0.75861726687E+03  0.46999998093E+01 0.  1.
       -5    1    3    3    0  502  0.42357339102E+03  0.54572117261E+03  0.11213012136E+04  0.13170286699E+04  0.46999998093E+01 0. -1.
</event>
<event>
 5   0  0.1484056E-03  0.1513126E+04  0.7818609E-02  0.8875771E-01
        2   -1    0    0  501    0  0.00000000000E+00  0.00000000000E+00  0.12387990631E+04  0.12387990631E+04  0.25500000920E-02 0. -1.
       -2   -1    0    0    0  501  0.00000000000E+00  0.00000000000E+00 -0.46205055671E+03  0.46205055671E+03  0.25500000920E-02 0.  1.
    10030    2    1    2    0    0  0.00000000000E+00  0.00000000000E+00  0.77674850641E+03  0.17008496198E+04  0.15131262958E+04 0.  0.
        5    1    3    3  502    0 -0.58016256740E+03 -0.39215913450E+03  0.66514465799E+02  0.70343703026E+03  0.46999998093E+01 0. -1.
       -5    1    3    3    0  502  0.58016256740E+03  0.39215913450E+03  0.71023404061E+03  0.99741258957E+03  0.46999998093E+01 0.  1.
</event>
<event>
 5   0  0.8306301E-04  0.1504197E+04  0.7818609E-02  0.8881667E-01
       -1   -1    0    0    0  501  0.00000000000E+00  0.00000000000E+00  0.49470596326E+03  0.49470596328E+03  0.50400001928E-02 0.  1.
        1   -1    0    0  501    0  0.00000000000E+00  0.00000000000E+00 -0.11434106926E+04  0.11434106926E+04  0.50400001928E-02 0. -1.
    10030    2    1    2    0    0  0.00000000000E+00  0.00000000000E+00 -0.64870472937E+03  0.16381166559E+04  0.15041969128E+04 0.  0.
        4    1    3    3  502    0 -0.44641621787E+03  0.26533917781E+03 -0.91680725654E+03  0.10536742748E+04  0.12699999809E+01 0. -1.
       -4    1    3    3    0  502  0.44641621787E+03 -0.26533917781E+03  0.26810252718E+03  0.58444238111E+03  0.12699999809E+01 0.  1.
</event>
<event>
 5   0  0.1500956E-03  0.1493125E+04  0.7818609E-02  0.8889038E-01
        2   -1    0    0  501    0  0.00000000000E+00  0.00000000000E+00  0.11758050385E+04  0.11758050385E+04  0.25500000920E-02 0. -1.
       -2   -1    0    0    0  501  0.00000000000E+00  0.00000000000E+00 -0.47402010416E+03  0.47402010417E+03  0.25500000920E-02 0.  1.
    10030    2    1    2    0    0  0.00000000000E+00  0.00000000000E+00  0.70178493435E+03  0.16498251427E+04  0.14931245451E+04 0.  0.
        4    1    3    3  502    0  0.86957825933E+02  0.67468231491E+02  0.11667902122E+04  0.11719704083E+04  0.12699999809E+01 0. -1.
       -4    1    3    3    0  502 -0.86957825933E+02 -0.67468231491E+02 -0.46500527789E+03  0.47785473433E+03  0.12699999809E+01 0.  1.
</event>
<event>
 5   0  0.7870317E-04  0.1511698E+04  0.7818609E-02  0.8876711E-01
       -1   -1    0    0    0  501  0.00000000000E+00  0.00000000000E+00  0.31868573179E+03  0.31868573183E+03  0.50400001928E-02 0. -1.
        1   -1    0    0  501    0  0.00000000000E+00  0.00000000000E+00 -0.17926999577E+04  0.17926999577E+04  0.50400001928E-02 0.  1.
    10030    2    1    2    0    0  0.00000000000E+00  0.00000000000E+00 -0.14740142259E+04  0.21113856895E+04  0.15116982476E+04 0.  0.
        1    1    3    3  502    0  0.75138640071E+03  0.82014041069E+02 -0.73738141335E+03  0.10559541538E+04  0.50400001928E-02 0. -1.
       -1    1    3    3    0  502 -0.75138640071E+03 -0.82014041069E+02 -0.73663281256E+03  0.10554315358E+04  0.50400001928E-02 0.  1.
</event>
<event>
 5   0  0.1511546E-03  0.1498800E+04  0.7818609E-02  0.8885252E-01
       -2   -1    0    0    0  501  0.00000000000E+00  0.00000000000E+00  0.41397288493E+03  0.41397288494E+03  0.25500000920E-02 0. -1.
        2   -1    0    0  501    0  0.00000000000E+00  0.00000000000E+00 -0.13566105962E+04  0.13566105962E+04  0.25500000920E-02 0.  1.
    10030    2    1    2    0    0  0.00000000000E+00  0.00000000000E+00 -0.94263771124E+03  0.17705834811E+04  0.14987995226E+04 0.  0.
        1    1    3    3  502    0  0.12492918439E+03  0.13684585386E+03  0.38648443918E+03  0.42860740846E+03  0.50400001928E-02 0. -1.
       -1    1    3    3    0  502 -0.12492918439E+03 -0.13684585386E+03 -0.13291221504E+04  0.13419760727E+04  0.50400001928E-02 0.  1.
</event>
<event>
 5   0  0.8306301E-04  0.1520906E+04  0.7818609E-02  0.8870669E-01
        1   -1    0    0  501    0  0.00000000000E+00  0.00000000000E+00  0.11826258495E+04  0.11826258495E+04  0.50400001928E-02 0. -1.
       -1   -1    0    0    0  501  0.00000000000E+00  0.00000000000E+00 -0.48898697409E+03  0.48898697411E+03  0.50400001928E-02 0.  1.
    10030    2    1    2    0    0  0.00000000000E+00  0.00000000000E+00  0.69363887537E+03  0.16716128236E+04  0.15209058296E+04 0.  0.
        4    1    3    3  502    0  0.63057399307E+02  0.32829104522E+03  0.10975357390E+04  0.11473175486E+04  0.12699999809E+01 0. -1.
       -4    1    3    3    0  502 -0.63057399307E+02 -0.32829104522E+03 -0.40389686367E+03  0.52429527498E+03  0.12699999809E+01 0.  1.
</event>
<event>
 5   0  0.1552067E-03  0.1523640E+04  0.7818609E-02  0.8868883E-01
        2   -1    0    0  501    0  0.00000000000E+00  0.00000000000E+00  0.19034142593E+04  0.19034142593E+04  0.25500000920E-02 0. -1.
       -2   -1    0    0    0  501  0.00000000000E+00  0.00000000000E+00 -0.30491000695E+03  0.30491000696E+03  0.25500000920E-02 0.  1.
    10030    2    1    2    0    0  0.00000000000E+00  0.00000000000E+00  0.15985042524E+04  0.22083242663E+04  0.15236404498E+04 0.  0.
        3    1    3    3  502    0 -0.44035294553E+03 -0.52527391871E+03  0.31735634798E+03  0.75533996857E+03  0.10100000352E+00 0.  1.
       -3    1    3    3    0  502  0.44035294553E+03  0.52527391871E+03  0.12811479044E+04  0.14529842977E+04  0.10100000352E+00 0. -1.
</event>
<event>
 5   0  0.8365016E-04  0.1478777E+04  0.7818609E-02  0.8898690E-01
        1   -1    0    0  501    0  0.00000000000E+00  0.00000000000E+00  0.10440327004E+04  0.10440327004E+04  0.50400001928E-02 0.  1.
       -1   -1    0    0    0  501  0.00000000000E+00  0.00000000000E+00 -0.52363799528E+03  0.52363799530E+03  0.50400001928E-02 0. -1.
    10030    2    1    2    0    0  0.00000000000E+00  0.00000000000E+00  0.52039470515E+03  0.15676706957E+04  0.14787767787E+04 0.  0.
        3    1    3    3  502    0  0.60869898134E+02 -0.52131090104E+02 -0.51901997779E+03  0.52517096511E+03  0.10100000352E+00 0. -1.
       -3    1    3    3    0  502 -0.60869898134E+02  0.52131090104E+02  0.10394146829E+04  0.10424997306E+04  0.10100000352E+00 0.  1.
</event>
<event>
 5   0  0.1511546E-03  0.1553008E+04  0.7818609E-02  0.8849948E-01
       -2   -1    0    0    0  501  0.00000000000E+00  0.00000000000E+00  0.53600057421E+03  0.53600057422E+03  0.25500000920E-02 0. -1.
        2   -1    0    0  501    0  0.00000000000E+00  0.00000000000E+00 -0.11249219274E+04  0.11249219274E+04  0.25500000920E-02 0.  1.
    10030    2    1    2    0    0  0.00000000000E+00  0.00000000000E+00 -0.58892135316E+03  0.16609225016E+04  0.15530084340E+04 0.  0.
        1    1    3    3  502    0 -0.61468195328E+03  0.38027792797E+03  0.90054056671E+01  0.72285980905E+03  0.50400001928E-02 0. -1.
       -1    1    3    3    0  502  0.61468195328E+03 -0.38027792797E+03 -0.59792675883E+03  0.93806269254E+03  0.50400001928E-02 0.  1.
</event>
<event>
 5   0  0.8306301E-04  0.1480414E+04  0.7818609E-02  0.8897583E-01
       -1   -1    0    0    0  501  0.00000000000E+00  0.00000000000E+00  0.94144427341E+03  0.94144427342E+03  0.50400001928E-02 0.  1.
        1   -1    0    0  501    0  0.00000000000E+00  0.00000000000E+00 -0.58198492528E+03  0.58198492530E+03  0.50400001928E-02 0. -1.
    10030    2    1    2    0    0  0.00000000000E+00  0.00000000000E+00  0.35945934813E+03  0.15234291987E+04  0.14804139626E+04 0.  0.
        4    1    3    3  502    0  0.15263036929E+03 -0.35457700851E+02  0.92418018570E+03  0.93737074134E+03  0.12699999809E+01 0.  1.
       -4    1    3    3    0  502 -0.15263036929E+03  0.35457700851E+02 -0.56472083757E+03  0.58605845738E+03  0.12699999809E+01 0. -1.
</event>
<event>
 5   0  0.1552067E-03  0.1338091E+04  0.7818609E-02  0.8999892E-01
       -2   -1    0    0    0  501  0.00000000000E+00  0.00000000000E+00  0.37160334434E+03  0.37160334435E+03  0.25500000920E-02 0. -1.
        2   -1    0    0  501    0  0.00000000000E+00  0.00000000000E+00 -0.12045686515E+04  0.12045686515E+04  0.25500000920E-02 0.  1.
    10030    2    1    2    0    0  0.00000000000E+00  0.00000000000E+00 -0.83296530715E+03  0.15761719958E+04  0.13380907882E+04 0.  0.
        3    1    3    3  502    0 -0.84805506154E+02  0.66285106701E+03 -0.45480090260E+03  0.80833618137E+03  0.10100000352E+00 0.  1.
       -3    1    3    3    0  502  0.84805506154E+02 -0.66285106701E+03 -0.37816440455E+03  0.76783581447E+03  0.10100000352E+00 0. -1.
</event>
<event>
 5   0  0.8306301E-04  0.1493451E+04  0.7818609E-02  0.8888820E-01
        1   -1    0    0  501    0  0.00000000000E+00  0.00000000000E+00  0.12392538341E+04  0.12392538341E+04  0.50400001928E-02 0.  1.
       -1   -1    0    0    0  501  0.00000000000E+00  0.00000000000E+00 -0.44994736517E+03  0.44994736520E+03  0.50400001928E-02 0. -1.
    10030    2    1    2    0    0  0.00000000000E+00  0.00000000000E+00  0.78930646894E+03  0.16892011993E+04  0.14934510336E+04 0.  0.
        4    1    3    3  502    0 -0.61290056995E+03  0.30352633127E+03  0.73363930730E+03  0.10029973024E+04  0.12699999809E+01 0.  1.
       -4    1    3    3    0  502  0.61290056995E+03 -0.30352633127E+03  0.55667161636E+02  0.68620389696E+03  0.12699999809E+01 0. -1.
</event>
<event>
 5   0  0.5603875E-04  0.1524793E+04  0.7818609E-02  0.8868132E-01
        3   -1    0    0  501    0  0.00000000000E+00  0.00000000000E+00  0.63686652353E+03  0.63686653154E+03  0.10100000352E+00 0. -1.
       -3   -1    0    0    0  501  0.00000000000E+00  0.00000000000E+00 -0.91266863003E+03  0.91266863561E+03  0.10100000352E+00 0.  1.
    10030    2    1    2    0    0  0.00000000000E+00  0.00000000000E+00 -0.27580210649E+03  0.15495351672E+04  0.15247925867E+04 0.  0.
        4    1    3    3  502    0  0.33296422910E+02  0.28087341840E+03  0.58157604940E+03  0.64670769524E+03  0.12699999809E+01 0. -1.
       -4    1    3    3    0  502 -0.33296422910E+02 -0.28087341840E+03 -0.85737815590E+03  0.90282747192E+03  0.12699999809E+01 0.  1.
</event>
<event>
 5   0  0.8306301E-04  0.1487296E+04  0.7818609E-02  0.8892945E-01
        1   -1    0    0  501    0  0.00000000000E+00  0.00000000000E+00  0.35280130412E+03  0.35280130415E+03  0.50400001928E-02 0.  1.
       -1   -1    0    0    0  501  0.00000000000E+00  0.00000000000E+00 -0.15674894123E+04  0.15674894123E+04  0.50400001928E-02 0. -1.
    10030    2    1    2    0    0  0.00000000000E+00  0.00000000000E+00 -0.12146881081E+04  0.19202907164E+04  0.14872959475E+04 0.  0.
        4    1    3    3  502    0 -0.80045486147E+02  0.70857813090E+03 -0.87977055560E+03  0.11324699073E+04  0.12699999809E+01 0. -1.
       -4    1    3    3    0  502  0.80045486147E+02 -0.70857813090E+03 -0.33491755254E+03  0.78782080916E+03  0.12699999809E+01 0.  1.
</event>
<event>
 5   0  0.8058234E-04  0.1491699E+04  0.7818609E-02  0.8889992E-01
       -1   -1    0    0    0  501  0.00000000000E+00  0.00000000000E+00  0.34126573666E+03  0.34126573670E+03  0.50400001928E-02 0. -1.
        1   -1    0    0  501    0  0.00000000000E+00  0.00000000000E+00 -0.16300819380E+04  0.16300819380E+04  0.50400001928E-02 0.  1.
    10030    2    1    2    0    0  0.00000000000E+00  0.00000000000E+00 -0.12888162013E+04  0.19713476747E+04  0.14916985130E+04 0.  0.
        5    1    3    3  502    0  0.22361085365E+03  0.28545754549E+03  0.21691245418E+03  0.42256470147E+03  0.46999998093E+01 0. -1.
       -5    1    3    3    0  502 -0.22361085365E+03 -0.28545754549E+03 -0.15057286555E+04  0.15487829732E+04  0.46999998093E+01 0.  1.
</event>
<event>
 5   0  0.1526126E-03  0.1527595E+04  0.7818609E-02  0.8866307E-01
        2   -1    0    0  501    0  0.00000000000E+00  0.00000000000E+00  0.26761957005E+03  0.26761957006E+03  0.25500000920E-02 0.  1.
       -2   -1    0    0    0  501  0.00000000000E+00  0.00000000000E+00 -0.21799093149E+04  0.21799093149E+04  0.25500000920E-02 0. -1.
    10030    2    1    2    0    0  0.00000000000E+00  0.00000000000E+00 -0.19122897449E+04  0.24475288850E+04  0.15275947023E+04 0.  0.
        2    1    3    3  502    0 -0.62335297526E+03 -0.26519611292E+03 -0.39083799294E+03  0.78208199494E+03  0.25500000920E-02 0.  1.
       -2    1    3    3    0  502  0.62335297526E+03  0.26519611292E+03 -0.15214517519E+04  0.16654468900E+04  0.25500000920E-02 0. -1.
</event>
<event>
 5   0  0.1500956E-03  0.1517642E+04  0.7818609E-02  0.8872805E-01
       -2   -1    0    0    0  501  0.00000000000E+00  0.00000000000E+00  0.44047104242E+03  0.44047104243E+03  0.25500000920E-02 0. -1.
        2   -1    0    0  501    0  0.00000000000E+00  0.00000000000E+00 -0.13072585080E+04  0.13072585080E+04  0.25500000920E-02 0.  1.
    10030    2    1    2    0    0  0.00000000000E+00  0.00000000000E+00 -0.86678746559E+03  0.17477295504E+04  0.15176422737E+04 0.  0.
        4    1    3    3  502    0 -0.88960327649E+02  0.75223930595E+03 -0.38150752542E+03  0.84813178113E+03  0.12699999809E+01 0.  1.
       -4    1    3    3    0  502  0.88960327649E+02 -0.75223930595E+03 -0.48527994018E+03  0.89959776931E+03  0.12699999809E+01 0. -1.
</event>
<event>
 5   0  0.1484056E-03  0.1499350E+04  0.7818609E-02  0.8884885E-01
        2   -1    0    0  501    0  0.00000000000E+00  0.00000000000E+00  0.15498408272E+04  0.15498408272E+04  0.25500000920E-02 0.  1.
       -2   -1    0    0    0  501  0.00000000000E+00  0.00000000000E+00 -0.36262589679E+03  0.36262589680E+03  0.25500000920E-02 0. -1.
    10030    2    1    2    0    0  0.00000000000E+00  0.00000000000E+00  0.11872149304E+04  0.19124667240E+04  0.14993497522E+04 0.  0.
        5    1    3    3  502    0 -0.74434611621E+03 -0.47420893247E+02  0.68982720234E+03  0.10159643404E+04  0.46999998093E+01 0.  1.
       -5    1    3    3    0  502  0.74434611621E+03  0.47420893247E+02  0.49738772810E+03  0.89650238365E+03  0.46999998093E+01 0. -1.
</event>
<event>
 5   0  0.5603875E-04  0.1500263E+04  0.7818609E-02  0.8884278E-01
       -4   -1    0    0    0  501  0.00000000000E+00  0.00000000000E+00  0.50347570690E+03  0.50347730867E+03  0.12699999809E+01 0. -1.
        4   -1    0    0  501    0  0.00000000000E+00  0.00000000000E+00 -0.11176223060E+04  0.11176230276E+04  0.12699999809E+01 0.  1.
    10030    2    1    2    0    0  0.00000000000E+00  0.00000000000E+00 -0.61414659914E+03  0.16211003363E+04  0.15002633952E+04 0.  0.
        2    1    3    3  502    0  0.28605797957E+03  0.58025292457E+03  0.10321324260E+03  0.65511494991E+03  0.25500000920E-02 0. -1.
       -2    1    3    3    0  502 -0.28605797957E+03 -0.58025292457E+03 -0.71735984174E+03  0.96598538637E+03  0.25500000920E-02 0.  1.
</event>
<event>
 5   0  0.8306301E-04  0.1532997E+04  0.7818609E-02  0.8862802E-01
        1   -1    0    0  501    0  0.00000000000E+00  0.00000000000E+00  0.10704912508E+04  0.10704912509E+04  0.50400001928E-02 0.  1.
       -1   -1    0    0    0  501  0.00000000000E+00  0.00000000000E+00 -0.54883230710E+03  0.54883230712E+03  0.50400001928E-02 0. -1.
    10030    2    1    2    0    0  0.00000000000E+00  0.00000000000E+00  0.52165894374E+03  0.16193235580E+04  0.15329973033E+04 0.  0.
        4    1    3    3  502    0 -0.17184130151E+03 -0.49592352248E+03 -0.32924066893E+03  0.61957292067E+03  0.12699999809E+01 0. -1.
       -4    1    3    3    0  502  0.17184130151E+03  0.49592352248E+03  0.85089961267E+03  0.99975063730E+03  0.12699999809E+01 0.  1.
</event>
<event>
 5   0  0.7870317E-04  0.1513608E+04  0.7818609E-02  0.8875454E-01
        1   -1    0    0  501    0  0.00000000000E+00  0.00000000000E+00  0.10302899832E+04  0.10302899832E+04  0.50400001928E-02 0.  1.
       -1   -1    0    0    0  501  0.00000000000E+00  0.00000000000E+00 -0.55591358424E+03  0.55591358426E+03  0.50400001928E-02 0. -1.
    10030    2    1    2    0    0  0.00000000000E+00  0.00000000000E+00  0.47437639891E+03  0.15862035674E+04  0.15136078718E+04 0.  0.
        1    1    3    3  502    0 -0.25023362094E+03  0.70029314920E+03  0.90007025947E+02  0.74908519183E+03  0.50400001928E-02 0. -1.
       -1    1    3    3    0  502  0.25023362094E+03 -0.70029314920E+03  0.38436937297E+03  0.83711837560E+03  0.50400001928E-02 0.  1.
</event>
<event>
 5   0  0.1552067E-03  0.1507654E+04  0.7818609E-02  0.8879379E-01
        2   -1    0    0  501    0  0.00000000000E+00  0.00000000000E+00  0.13883773029E+04  0.13883773029E+04  0.25500000920E-02 0. -1.
       -2   -1    0    0    0  501  0.00000000000E+00  0.00000000000E+00 -0.40929424885E+03  0.40929424886E+03  0.25500000920E-02 0.  1.
    10030    2    1    2    0    0  0.00000000000E+00  0.00000000000E+00  0.97908305409E+03  0.17976715518E+04  0.15076536012E+04 0.  0.
        3    1    3    3  502    0  0.58306089489E+03 -0.33131980677E+03  0.90003691967E+03  0.11224078085E+04  0.10100000352E+00 0. -1.
       -3    1    3    3    0  502 -0.58306089489E+03  0.33131980677E+03  0.79046134428E+02  0.67526374335E+03  0.10100000352E+00 0.  1.
</event>
<event>
 5   0  0.1511546E-03  0.1460098E+04  0.7818609E-02  0.8911429E-01
        2   -1    0    0  501    0  0.00000000000E+00  0.00000000000E+00  0.13754436364E+04  0.13754436364E+04  0.25500000920E-02 0.  1.
       -2   -1    0    0    0  501  0.00000000000E+00  0.00000000000E+00 -0.38749091061E+03  0.38749091062E+03  0.25500000920E-02 0. -1.
    10030    2    1    2    0    0  0.00000000000E+00  0.00000000000E+00  0.98795272579E+03  0.17629345470E+04  0.14600984997E+04 0.  0.
        1    1    3    3  502    0  0.41125291369E+03  0.27378281781E+03  0.11429353019E+04  0.12451454111E+04  0.50400001928E-02 0.  1.
       -1    1    3    3    0  502 -0.41125291369E+03 -0.27378281781E+03 -0.15498257615E+03  0.51778913592E+03  0.50400001928E-02 0. -1.
</event>
<event>
 5   0  0.1484056E-03  0.1099118E+04  0.7818609E-02  0.9206052E-01
       -2   -1    0    0    0  501  0.00000000000E+00  0.00000000000E+00  0.24981158964E+03  0.24981158965E+03  0.25500000920E-02 0.  1.
        2   -1    0    0  501    0  0.00000000000E+00  0.00000000000E+00 -0.12089710648E+04  0.12089710648E+04  0.25500000920E-02 0. -1.
    10030    2    1    2    0    0  0.00000000000E+00  0.00000000000E+00 -0.95915947520E+03  0.14587826545E+04  0.10991177981E+04 0.  0.
        5    1    3    3  502    0 -0.97257733074E+02 -0.52240516488E+03 -0.66551838494E+03  0.85164724717E+03  0.46999998093E+01 0. -1.
       -5    1    3    3    0  502  0.97257733074E+02  0.52240516488E+03 -0.29364109027E+03  0.60713540732E+03  0.46999998093E+01 0.  1.
</event>
<event>
 5   0  0.8365016E-04  0.1514195E+04  0.7818609E-02  0.8875068E-01
       -1   -1    0    0    0  501  0.00000000000E+00  0.00000000000E+00  0.10083098435E+04  0.10083098435E+04  0.50400001928E-02 0.  1.
        1   -1    0    0  501    0  0.00000000000E+00  0.00000000000E+00 -0.56847280185E+03  0.56847280188E+03  0.50400001928E-02 0. -1.
    10030    2    1    2    0    0  0.00000000000E+00  0.00000000000E+00  0.43983704168E+03  0.15767826454E+04  0.15141951287E+04 0.  0.
        3    1    3    3  502    0  0.56111816186E+03  0.49058967127E+03  0.35832152335E+03  0.82699827171E+03  0.10100000352E+00 0.  1.
       -3    1    3    3    0  502 -0.56111816186E+03 -0.49058967127E+03  0.81515518333E+02  0.74978437371E+03  0.10100000352E+00 0. -1.
</event>
<event>
 5   0  0.1526126E-03  0.1577264E+04  0.7818609E-02  0.8834639E-01
       -2   -1    0    0    0  501  0.00000000000E+00  0.00000000000E+00  0.71478454817E+03  0.71478454817E+03  0.25500000920E-02 0. -1.
        2   -1    0    0  501    0  0.00000000000E+00  0.00000000000E+00 -0.87010913291E+03  0.87010913291E+03  0.25500000920E-02 0.  1.
    10030    2    1    2    0    0  0.00000000000E+00  0.00000000000E+00 -0.15532458474E+03  0.15848936811E+04  0.15772641674E+04 0.  0.
        2    1    3    3  502    0 -0.12424960952E+03 -0.76456443542E+03 -0.22651331860E+03  0.80703471108E+03  0.25500000920E-02 0.  1.
       -2    1    3    3    0  502  0.12424960952E+03  0.76456443542E+03  0.71188733866E+02  0.77785897000E+03  0.25500000920E-02 0. -1.
</event>
<event>
 5   0  0.7870317E-04  0.1485170E+04  0.7818609E-02  0.8894375E-01
        1   -1    0    0  501    0  0.00000000000E+00  0.00000000000E+00  0.11013901605E+04  0.11013901605E+04  0.50400001928E-02 0. -1.
       -1   -1    0    0    0  501  0.00000000000E+00  0.00000000000E+00 -0.50066980816E+03  0.50066980818E+03  0.50400001928E-02 0.  1.
    10030    2    1    2    0    0  0.00000000000E+00  0.00000000000E+00  0.60072035232E+03  0.16020599687E+04  0.14851704284E+04 0.  0.
        1    1    3    3  502    0  0.74150626676E+03  0.20068053120E+02  0.33770469961E+03  0.81503296532E+03  0.50400001928E-02 0.  1.
       -1    1    3    3    0  502 -0.74150626676E+03 -0.20068053120E+02  0.26301565272E+03  0.78702700335E+03  0.50400001928E-02 0. -1.
</event>
<event>
 5   0  0.1552067E-03  0.1456635E+04  0.7818609E-02  0.8913814E-01
       -2   -1    0    0    0  501  0.00000000000E+00  0.00000000000E+00  0.68286604137E+03  0.68286604138E+03  0.25500000920E-02 0.  1.
        2   -1    0    0  501    0  0.00000000000E+00  0.00000000000E+00 -0.77679411441E+03  0.77679411442E+03  0.25500000920E-02 0. -1.
    10030    2    1    2    0    0  0.00000000000E+00  0.00000000000E+00 -0.93928073037E+02  0.14596601558E+04  0.14566349191E+04 0.  0.
        3    1    3    3  502    0  0.49182475722E+02 -0.13327540571E+03  0.66884792768E+03  0.68376809683E+03  0.10100000352E+00 0.  1.
       -3    1    3    3    0  502 -0.49182475722E+02  0.13327540571E+03 -0.76277600072E+03  0.77589205896E+03  0.10100000352E+00 0. -1.
</event>
<event>
 5   0  0.1526126E-03  0.1004950E+04  0.7818609E-02  0.9303132E-01
        2   -1    0    0  501    0  0.00000000000E+00  0.00000000000E+00  0.10067820680E+04  0.10067820680E+04  0.25500000920E-02 0.  1.
       -2   -1    0    0    0  501  0.00000000000E+00  0.00000000000E+00 -0.25078031120E+03  0.25078031122E+03  0.25500000920E-02 0. -1.
    10030    2    1    2    0    0  0.00000000000E+00  0.00000000000E+00  0.75600175680E+03  0.12575623792E+04  0.10049499895E+04 0.  0.
        2    1    3    3  502    0 -0.17719315837E+03  0.25729329486E+03 -0.11447864292E+03  0.33272002441E+03  0.25500000920E-02 0. -1.
       -2    1    3    3    0  502  0.17719315837E+03 -0.25729329486E+03  0.87048039971E+03  0.92484235481E+03  0.25500000920E-02 0.  1.
</event>
<event>
 5   0  0.7870317E-04  0.1508331E+04  0.7818609E-02  0.8878932E-01
        1   -1    0    0  501    0  0.00000000000E+00  0.00000000000E+00  0.45126664064E+03  0.45126664066E+03  0.50400001928E-02 0.  1.
       -1   -1    0    0    0  501  0.00000000000E+00  0.00000000000E+00 -0.12603758389E+04  0.12603758389E+04  0.50400001928E-02 0. -1.
    10030    2    1    2    0    0  0.00000000000E+00  0.00000000000E+00 -0.80910919830E+03  0.17116424796E+04  0.15083309595E+04 0.  0.
        1    1    3    3  502    0 -0.69664655506E+03  0.28345512728E+03 -0.46776099575E+03  0.88569948686E+03  0.50400001928E-02 0.  1.
       -1    1    3    3    0  502  0.69664655506E+03 -0.28345512728E+03 -0.34134820255E+03  0.82594299275E+03  0.50400001928E-02 0. -1.
</event>
<event>
 5   0  0.1484056E-03  0.1492598E+04  0.7818609E-02  0.8889390E-01
        2   -1    0    0  501    0  0.00000000000E+00  0.00000000000E+00  0.18769681570E+03  0.18769681571E+03  0.25500000920E-02 0.  1.
       -2   -1    0    0    0  501  0.00000000000E+00  0.00000000000E+00 -0.29673502923E+04  0.29673502923E+04  0.25500000920E-02 0. -1.
    10030    2    1    2    0    0  0.00000000000E+00  0.00000000000E+00 -0.27796534766E+04  0.31550471080E+04  0.14925980047E+04 0.  0.
        5    1    3    3  502    0 -0.29116916891E+03 -0.25027525870E+03 -0.27425286332E+04  0.27692783508E+04  0.46999998093E+01 0. -1.
       -5    1    3    3    0  502  0.29116916891E+03  0.25027525870E+03 -0.37124843340E+02  0.38576875720E+03  0.46999998093E+01 0.  1.
</event>
<event>
 5   0  0.1526126E-03  0.1522369E+04  0.7818609E-02  0.8869713E-01
        2   -1    0    0  501    0  0.00000000000E+00  0.00000000000E+00  0.12039751124E+04  0.12039751124E+04  0.25500000920E-02 0.  1.
       -2   -1    0    0    0  501  0.00000000000E+00  0.00000000000E+00 -0.48124065719E+03  0.48124065719E+03  0.25500000920E-02 0. -1.
    10030    2    1    2    0    0  0.00000000000E+00  0.00000000000E+00  0.72273445526E+03  0.16852157696E+04  0.15223689098E+04 0.  0.
        2    1    3    3  502    0 -0.10405781591E+03  0.44399794439E+02  0.11946162535E+04  0.11999614010E+04  0.25500000920E-02 0.  1.
       -2    1    3    3    0  502  0.10405781591E+03 -0.44399794439E+02 -0.47188179822E+03  0.48525436865E+03  0.25500000920E-02 0. -1.
</event>
<event>
 5   0  0.1484056E-03  0.1509564E+04  0.7818609E-02  0.8878118E-01
        2   -1    0    0  501    0  0.00000000000E+00  0.00000000000E+00  0.16000879353E+04  0.16000879353E+04  0.25500000920E-02 0.  1.
       -2   -1    0    0    0  501  0.00000000000E+00  0.00000000000E+00 -0.35604020012E+03  0.35604020013E+03  0.25500000920E-02 0. -1.
    10030    2    1    2    0    0  0.00000000000E+00  0.00000000000E+00  0.12440477352E+04  0.19561281355E+04  0.15095636836E+04 0.  0.
        5    1    3    3  502    0  0.26443149901E+03  0.18237203831E+03 -0.26302451210E+03  0.41519581163E+03  0.46999998093E+01 0. -1.
       -5    1    3    3    0  502 -0.26443149901E+03 -0.18237203831E+03  0.15070722473E+04  0.15409323238E+04  0.46999998093E+01 0.  1.
</event>
<event>
 5   0  0.7870317E-04  0.1403651E+04  0.7818609E-02  0.8951180E-01
       -1   -1    0    0    0  501  0.00000000000E+00  0.00000000000E+00  0.42482645540E+03  0.42482645543E+03  0.50400001928E-02 0. -1.
        1   -1    0    0  501    0  0.00000000000E+00  0.00000000000E+00 -0.11594360961E+04  0.11594360961E+04  0.50400001928E-02 0.  1.
    10030    2    1    2    0    0  0.00000000000E+00  0.00000000000E+00 -0.73460964068E+03  0.15842625515E+04  0.14036511347E+04 0.  0.
        1    1    3    3  502    0  0.44124463873E+03 -0.50881061789E+02 -0.98061496411E+03  0.10765181938E+04  0.50400001928E-02 0.  1.
       -1    1    3    3    0  502 -0.44124463873E+03  0.50881061789E+02  0.24600532343E+03  0.50774435776E+03  0.50400001928E-02 0. -1.
</event>
<event>
 5   0  0.1500956E-03  0.1535796E+04  0.7818609E-02  0.8860992E-01
       -2   -1    0    0    0  501  0.00000000000E+00  0.00000000000E+00  0.13453833653E+04  0.13453833653E+04  0.25500000920E-02 0.  1.
        2   -1    0    0  501    0  0.00000000000E+00  0.00000000000E+00 -0.43828952010E+03  0.43828952011E+03  0.25500000920E-02 0. -1.
    10030    2    1    2    0    0  0.00000000000E+00  0.00000000000E+00  0.90709384517E+03  0.17836728854E+04  0.15357961187E+04 0.  0.
        4    1    3    3  502    0 -0.21614824923E+03  0.47782532713E+03  0.11049965169E+04  0.12231336903E+04  0.12699999809E+01 0.  1.
       -4    1    3    3    0  502  0.21614824923E+03 -0.47782532713E+03 -0.19790267176E+03  0.56053919514E+03  0.12699999809E+01 0. -1.
</event>
<event>
 5   0  0.1552067E-03  0.1470223E+04  0.7818609E-02  0.8904499E-01
        2   -1    0    0  501    0  0.00000000000E+00  0.00000000000E+00  0.67784895839E+03  0.67784895839E+03  0.25500000920E-02 0. -1.
       -2   -1    0    0    0  501  0.00000000000E+00  0.00000000000E+00 -0.79721187227E+03  0.79721187228E+03  0.25500000920E-02 0.  1.
    10030    2    1    2    0    0  0.00000000000E+00  0.00000000000E+00 -0.11936291388E+03  0.14750608307E+04  0.14702234350E+04 0.  0.
        3    1    3    3  502    0  0.66356043687E+02 -0.69810986332E+03  0.16156331365E+03  0.71962713979E+03  0.10100000352E+00 0. -1.
       -3    1    3    3    0  502 -0.66356043687E+02  0.69810986332E+03 -0.28092622753E+03  0.75543369088E+03  0.10100000352E+00 0.  1.
</event>
<event>
 5   0  0.5603875E-04  0.1496918E+04  0.7818609E-02  0.8886505E-01
        4   -1    0    0  501    0  0.00000000000E+00  0.00000000000E+00  0.47599618292E+03  0.47599787715E+03  0.12699999809E+01 0.  1.
       -4   -1    0    0    0  501  0.00000000000E+00  0.00000000000E+00 -0.11768775921E+04  0.11768782774E+04  0.12699999809E+01 0. -1.
    10030    2    1    2    0    0  0.00000000000E+00  0.00000000000E+00 -0.70088140922E+03  0.16528761545E+04  0.14969184455E+04 0.  0.
        2    1    3    3  502    0  0.65036709855E+03  0.19179908922E+03 -0.70035954054E+03  0.97481677229E+03  0.25500000920E-02 0.  1.
       -2    1    3    3    0  502 -0.65036709855E+03 -0.19179908922E+03 -0.52186867963E+00  0.67805938225E+03  0.25500000920E-02 0. -1.
</event>
<event>
 5   0  0.1552067E-03  0.1467417E+04  0.7818609E-02  0.8906414E-01
       -2   -1    0    0    0  501  0.00000000000E+00  0.00000000000E+00  0.28901775374E+03  0.28901775375E+03  0.25500000920E-02 0.  1.
        2   -1    0    0  501    0  0.00000000000E+00  0.00000000000E+00 -0.18626128663E+04  0.18626128663E+04  0.25500000920E-02 0. -1.
    10030    2    1    2    0    0  0.00000000000E+00  0.00000000000E+00 -0.15735951126E+04  0.21516306201E+04  0.14674170324E+04 0.  0.
        3    1    3    3  502    0  0.74681985677E+02 -0.51577130978E+02  0.28075484715E+03  0.29506083071E+03  0.10100000352E+00 0.  1.
       -3    1    3    3    0  502 -0.74681985677E+02  0.51577130978E+02 -0.18543499597E+04  0.18565697894E+04  0.10100000352E+00 0. -1.
</event>
<event>
 5   0  0.8365016E-04  0.1576720E+04  0.7818609E-02  0.8834979E-01
       -1   -1    0    0    0  501  0.00000000000E+00  0.00000000000E+00  0.43963185347E+03  0.43963185350E+03  0.50400001928E-02 0.  1.
        1   -1    0    0  501    0  0.00000000000E+00  0.00000000000E+00 -0.14137084044E+04  0.14137084044E+04  0.50400001928E-02 0. -1.
    10030    2    1    2    0    0  0.00000000000E+00  0.00000000000E+00 -0.97407655089E+03  0.18533402579E+04  0.15767196911E+04 0.  0.
        3    1    3    3  502    0  0.52027543608E+03  0.58197679182E+03 -0.61648475815E+03  0.99470447010E+03  0.10100000352E+00 0.  1.
       -3    1    3    3    0  502 -0.52027543608E+03 -0.58197679182E+03 -0.35759179274E+03  0.85863578777E+03  0.10100000352E+00 0. -1.
</event>
<event>
 5   0  0.8365016E-04  0.1504914E+04  0.7818609E-02  0.8881192E-01
       -1   -1    0    0    0  501  0.00000000000E+00  0.00000000000E+00  0.80789944220E+03  0.80789944222E+03  0.50400001928E-02 0.  1.
        1   -1    0    0  501    0  0.00000000000E+00  0.00000000000E+00 -0.70081907492E+03  0.70081907494E+03  0.50400001928E-02 0. -1.
    10030    2    1    2    0    0  0.00000000000E+00  0.00000000000E+00  0.10708036728E+03  0.15087185172E+04  0.15049137380E+04 0.  0.
        3    1    3    3  502    0 -0.15545927734E+03  0.52516280656E+03 -0.46373696154E+03  0.71764583187E+03  0.10100000352E+00 0. -1.
       -3    1    3    3    0  502  0.15545927734E+03 -0.52516280656E+03  0.57081732883E+03  0.79107268528E+03  0.10100000352E+00 0.  1.
</event>
<event>
 5   0  0.1500956E-03  0.1502516E+04  0.7818609E-02  0.8882781E-01
       -2   -1    0    0    0  501  0.00000000000E+00  0.00000000000E+00  0.74307766259E+03  0.74307766260E+03  0.25500000920E-02 0. -1.
        2   -1    0    0  501    0  0.00000000000E+00  0.00000000000E+00 -0.75952860821E+03  0.75952860822E+03  0.25500000920E-02 0.  1.
    10030    2    1    2    0    0  0.00000000000E+00  0.00000000000E+00 -0.16450945618E+02  0.15026062708E+04  0.15025162134E+04 0.  0.
        4    1    3    3  502    0 -0.17801148041E+03 -0.66056927686E+03  0.30219170343E+03  0.74790460301E+03  0.12699999809E+01 0. -1.
       -4    1    3    3    0  502  0.17801148041E+03  0.66056927686E+03 -0.31864264905E+03  0.75470166780E+03  0.12699999809E+01 0.  1.
</event>
<event>
 5   0  0.8058234E-04  0.1477308E+04  0.7818609E-02  0.8899684E-01
       -1   -1    0    0    0  501  0.00000000000E+00  0.00000000000E+00  0.58408037306E+03  0.58408037308E+03  0.50400001928E-02 0. -1.
        1   -1    0    0  501    0  0.00000000000E+00  0.00000000000E+00 -0.93413522346E+03  0.93413522347E+03  0.50400001928E-02 0.  1.
    10030    2    1    2    0    0  0.00000000000E+00  0.00000000000E+00 -0.35005485040E+03  0.15182155966E+04  0.14773084307E+04 0.  0.
        5    1    3    3  502    0 -0.62962837155E+03  0.21486208031E+03 -0.50483495025E+03  0.83515149333E+03  0.46999998093E+01 0.  1.
       -5    1    3    3    0  502  0.62962837155E+03 -0.21486208031E+03  0.15478009985E+03  0.68306410323E+03  0.46999998093E+01 0. -1.
</event>
<event>
 5   0  0.5603875E-04  0.1129716E+04  0.7818609E-02  0.9176703E-01
        3   -1    0    0  501    0  0.00000000000E+00  0.00000000000E+00  0.31838432975E+03  0.31838434577E+03  0.10100000352E+00 0. -1.
       -3   -1    0    0    0  501  0.00000000000E+00  0.00000000000E+00 -0.10021364819E+04  0.10021364870E+04  0.10100000352E+00 0.  1.
    10030    2    1    2    0    0  0.00000000000E+00  0.00000000000E+00 -0.68375215218E+03  0.13205208328E+04  0.11297160104E+04 0.  0.
        5    1    3    3  502    0  0.53406434066E+03  0.18327088770E+03 -0.35958544505E+03  0.66943014612E+03  0.46999998093E+01 0.  1.
       -5    1    3    3    0  502 -0.53406434066E+03 -0.18327088770E+03 -0.32416670713E+03  0.65109068666E+03  0.46999998093E+01 0. -1.
</event>
<event>
 5   0  0.8365016E-04  0.1520264E+04  0.7818609E-02  0.8871088E-01
        1   -1    0    0  501    0  0.00000000000E+00  0.00000000000E+00  0.16806287691E+04  0.16806287691E+04  0.50400001928E-02 0. -1.
       -1   -1    0    0    0  501  0.00000000000E+00  0.00000000000E+00 -0.34380018490E+03  0.34380018494E+03  0.50400001928E-02 0.  1.
    10030    2    1    2    0    0  0.00000000000E+00  0.00000000000E+00  0.13368285842E+04  0.20244289541E+04  0.15202637687E+04 0.  0.
        3    1    3    3  502    0 -0.49088138385E+03  0.40215785313E+03  0.12256422109E+04  0.13801790867E+04  0.10100000352E+00 0. -1.
       -3    1    3    3    0  502  0.49088138385E+03 -0.40215785313E+03  0.11118637328E+03  0.64424986740E+03  0.10100000352E+00 0.  1.
</event>
<event>
 5   0  0.5603875E-04  0.1430578E+04  0.7818609E-02  0.8931977E-01
       -3   -1    0    0    0  501  0.00000000000E+00  0.00000000000E+00  0.59224849170E+03  0.59224850031E+03  0.10100000352E+00 0.  1.
        3   -1    0    0  501    0  0.00000000000E+00  0.00000000000E+00 -0.86389118482E+03  0.86389119072E+03  0.10100000352E+00 0. -1.
    10030    2    1    2    0    0  0.00000000000E+00  0.00000000000E+00 -0.27164269312E+03  0.14561396910E+04  0.14305778717E+04 0.  0.
        1    1    3    3  502    0  0.18470576147E+03  0.38517285776E+03  0.44815821152E+03  0.61912852563E+03  0.50400001928E-02 0.  1.
       -1    1    3    3    0  502 -0.18470576147E+03 -0.38517285776E+03 -0.71980090463E+03  0.83701116540E+03  0.50400001928E-02 0. -1.
</event>
<event>
 5   0  0.8365016E-04  0.1494014E+04  0.7818609E-02  0.8888443E-01
        1   -1    0    0  501    0  0.00000000000E+00  0.00000000000E+00  0.56597689835E+03  0.56597689838E+03  0.50400001928E-02 0. -1.
       -1   -1    0    0    0  501  0.00000000000E+00  0.00000000000E+00 -0.98594067318E+03  0.98594067320E+03  0.50400001928E-02 0.  1.
    10030    2    1    2    0    0  0.00000000000E+00  0.00000000000E+00 -0.41996377483E+03  0.15519175716E+04  0.14940142492E+04 0.  0.
        3    1    3    3  502    0 -0.28329417862E+02  0.15925484325E+03  0.54756675291E+03  0.57095886025E+03  0.10100000352E+00 0. -1.
       -3    1    3    3    0  502  0.28329417862E+02 -0.15925484325E+03 -0.96753052773E+03  0.98095871132E+03  0.10100000352E+00 0.  1.
</event>
<event>
 5   0  0.1511546E-03  0.1499236E+04  0.7818609E-02  0.8884961E-01
        2   -1    0    0  501    0  0.00000000000E+00  0.00000000000E+00  0.94102115837E+03  0.94102115838E+03  0.25500000920E-02 0.  1.
       -2   -1    0    0    0  501  0.00000000000E+00  0.00000000000E+00 -0.59714601398E+03  0.59714601398E+03  0.25500000920E-02 0. -1.
    10030    2    1    2    0    0  0.00000000000E+00  0.00000000000E+00  0.34387514439E+03  0.15381671724E+04  0.14992358504E+04 0.  0.
        1    1    3    3  502    0  0.55375339229E+03 -0.44277436845E+03  0.42164016016E+03  0.82490750118E+03  0.50400001928E-02 0. -1.
       -1    1    3    3    0  502 -0.55375339229E+03  0.44277436845E+03 -0.77765015770E+02  0.71325967118E+03  0.50400001928E-02 0.  1.
</event>
<event>
 5   0  0.8191876E-04  0.1543969E+04  0.7818609E-02  0.8855730E-01
        1   -1    0    0  501    0  0.00000000000E+00  0.00000000000E+00  0.21686724859E+04  0.21686724859E+04  0.50400001928E-02 0. -1.
       -1   -1    0    0    0  501  0.00000000000E+00  0.00000000000E+00 -0.27480393436E+03  0.27480393440E+03  0.50400001928E-02 0.  1.
    10030    2    1    2    0    0  0.00000000000E+00  0.00000000000E+00  0.18938685516E+04  0.24434764203E+04  0.15439685638E+04 0.  0.
        2    1    3    3  502    0  0.40806491756E+03 -0.48790442389E+03  0.16392937201E+04  0.17583661747E+04  0.25500000920E-02 0. -1.
       -2    1    3    3    0  502 -0.40806491756E+03  0.48790442389E+03  0.25457483150E+03  0.68511024560E+03  0.25500000920E-02 0.  1.
</event>
<event>
 5   0  0.8365016E-04  0.1451711E+04  0.7818609E-02  0.8917215E-01
        1   -1    0    0  501    0  0.00000000000E+00  0.00000000000E+00  0.48997663441E+03  0.48997663443E+03  0.50400001928E-02 0. -1.
       -1   -1    0    0    0  501  0.00000000000E+00  0.00000000000E+00 -0.10752877117E+04  0.10752877117E+04  0.50400001928E-02 0.  1.
    10030    2    1    2    0    0  0.00000000000E+00  0.00000000000E+00 -0.58531107729E+03  0.15652643461E+04  0.14517105139E+04 0.  0.
        3    1    3    3  502    0  0.62615425885E+03  0.33937802385E+02 -0.68682582958E+03  0.93002723653E+03  0.10100000352E+00 0.  1.
       -3    1    3    3    0  502 -0.62615425885E+03 -0.33937802385E+02  0.10151475228E+03  0.63523710962E+03  0.10100000352E+00 0. -1.
</event>
<event>
 5   0  0.8191876E-04  0.1489408E+04  0.7818609E-02  0.8891527E-01
        1   -1    0    0  501    0  0.00000000000E+00  0.00000000000E+00  0.91227382361E+03  0.91227382363E+03  0.50400001928E-02 0.  1.
       -1   -1    0    0    0  501  0.00000000000E+00  0.00000000000E+00 -0.60791396781E+03  0.60791396783E+03  0.50400001928E-02 0. -1.
    10030    2    1    2    0    0  0.00000000000E+00  0.00000000000E+00  0.30435985580E+03  0.15201877915E+04  0.14894079359E+04 0.  0.
        2    1    3    3  502    0 -0.71772967516E+03  0.19159705505E+03  0.98766019014E+02  0.74939978958E+03  0.25500000920E-02 0.  1.
       -2    1    3    3    0  502  0.71772967516E+03 -0.19159705505E+03  0.20559383679E+03  0.77078800188E+03  0.25500000920E-02 0. -1.
</event>
<event>
 5   0  0.8365016E-04  0.1516523E+04  0.7818609E-02  0.8873539E-01
        1   -1    0    0  501    0  0.00000000000E+00  0.00000000000E+00  0.96784465406E+03  0.96784465408E+03  0.50400001928E-02 0. -1.
       -1   -1    0    0    0  501  0.00000000000E+00  0.00000000000E+00 -0.59406272538E+03  0.59406272540E+03  0.50400001928E-02 0.  1.
    10030    2    1    2    0    0  0.00000000000E+00  0.00000000000E+00  0.37378192869E+03  0.15619073795E+04  0.15165229084E+04 0.  0.
        3    1    3    3  502    0  0.48583997003E+03  0.21538753341E+03 -0.37015385431E+03  0.64764662594E+03  0.10100000352E+00 0.  1.
       -3    1    3    3    0  502 -0.48583997003E+03 -0.21538753341E+03  0.74393578300E+03  0.91426075354E+03  0.10100000352E+00 0. -1.
</event>
<event>
 5   0  0.1484056E-03  0.1477224E+04  0.7818609E-02  0.8899742E-01
        2   -1    0    0  501    0  0.00000000000E+00  0.00000000000E+00  0.14647229464E+04  0.14647229464E+04  0.25500000920E-02 0. -1.
       -2   -1    0    0    0  501  0.00000000000E+00  0.00000000000E+00 -0.37245783806E+03  0.37245783807E+03  0.25500000920E-02 0.  1.
    10030    2    1    2    0    0  0.00000000000E+00  0.00000000000E+00  0.10922651083E+04  0.18371807844E+04  0.14772238043E+04 0.  0.
        5    1    3    3  502    0 -0.66715980264E+03 -0.68804862862E+01  0.94015443688E+03  0.11528495125E+04  0.46999998093E+01 0. -1.
       -5    1    3    3    0  502  0.66715980264E+03  0.68804862862E+01  0.15211067142E+03  0.68433127191E+03  0.46999998093E+01 0.  1.
</event>
<event>
 5   0  0.1511546E-03  0.1546716E+04  0.7818609E-02  0.8853968E-01
        2   -1    0    0  501    0  0.00000000000E+00  0.00000000000E+00  0.23119202100E+04  0.23119202100E+04  0.25500000920E-02 0. -1.
       -2   -1    0    0    0  501  0.00000000000E+00  0.00000000000E+00 -0.25869510735E+03  0.25869510736E+03  0.25500000920E-02 0.  1.
    10030    2    1    2    0    0  0.00000000000E+00  0.00000000000E+00  0.20532251026E+04  0.25706153173E+04  0.15467158070E+04 0.  0.
        1    1    3    3  502    0  0.18509934598E+03 -0.21469225253E+03  0.22224643426E+04  0.22404692110E+04  0.50400001928E-02 0. -1.
       -1    1    3    3    0  502 -0.18509934598E+03  0.21469225253E+03 -0.16923923997E+03  0.33014610636E+03  0.50400001928E-02 0.  1.
</event>
<event>
 5   0  0.7870317E-04  0.1281771E+04  0.7818609E-02  0.9044147E-01
        1   -1    0    0  501    0  0.00000000000E+00  0.00000000000E+00  0.87150563077E+03  0.87150563078E+03  0.50400001928E-02 0.  1.
       -1   -1    0    0    0  501  0.00000000000E+00  0.00000000000E+00 -0.47129293560E+03  0.47129293562E+03  0.50400001928E-02 0. -1.
    10030    2    1    2    0    0  0.00000000000E+00  0.00000000000E+00  0.40021269517E+03  0.13427985664E+04  0.12817713480E+04 0.  0.
        1    1    3    3  502    0 -0.60497527961E+03 -0.21610821656E+02 -0.20321521257E+02  0.60570213868E+03  0.50400001928E-02 0. -1.
       -1    1    3    3    0  502  0.60497527961E+03  0.21610821656E+02  0.42053421643E+03  0.73709642772E+03  0.50400001928E-02 0.  1.
</event>
<event>
 5   0  0.1526126E-03  0.1468238E+04  0.7818609E-02  0.8905853E-01
       -2   -1    0    0    0  501  0.00000000000E+00  0.00000000000E+00  0.32384055493E+03  0.32384055494E+03  0.25500000920E-02 0.  1.
        2   -1    0    0  501    0  0.00000000000E+00  0.00000000000E+00 -0.16641850916E+04  0.16641850916E+04  0.25500000920E-02 0. -1.
    10030    2    1    2    0    0  0.00000000000E+00  0.00000000000E+00 -0.13403445366E+04  0.19880256465E+04  0.14682378875E+04 0.  0.
        2    1    3    3  502    0  0.40362209809E+02  0.49649902807E+03 -0.14003279382E+04  0.14862902568E+04  0.25500000920E-02 0. -1.
       -2    1    3    3    0  502 -0.40362209809E+02 -0.49649902807E+03  0.59983401559E+02  0.50173538975E+03  0.25500000920E-02 0.  1.
</event>
<event>
 5   0  0.1484056E-03  0.1616743E+04  0.7818609E-02  0.8810328E-01
        2   -1    0    0  501    0  0.00000000000E+00  0.00000000000E+00  0.11216695865E+04  0.11216695865E+04  0.25500000920E-02 0. -1.
       -2   -1    0    0    0  501  0.00000000000E+00  0.00000000000E+00 -0.58258196605E+03  0.58258196605E+03  0.25500000920E-02 0.  1.
    10030    2    1    2    0    0  0.00000000000E+00  0.00000000000E+00  0.53908762045E+03  0.17042515526E+04  0.16167429888E+04 0.  0.
        5    1    3    3  502    0 -0.53458092968E+03  0.20328004826E+02  0.90835869126E+03  0.10541952382E+04  0.46999998093E+01 0. -1.
       -5    1    3    3    0  502  0.53458092968E+03 -0.20328004826E+02 -0.36927107081E+03  0.65005631440E+03  0.46999998093E+01 0.  1.
</event>
<event>
 5   0  0.8191876E-04  0.1505506E+04  0.7818609E-02  0.8880800E-01
       -1   -1    0    0    0  501  0.00000000000E+00  0.00000000000E+00  0.68586992237E+03  0.68586992239E+03  0.50400001928E-02 0.  1.
        1   -1    0    0  501    0  0.00000000000E+00  0.00000000000E+00 -0.82615769625E+03  0.82615769627E+03  0.50400001928E-02 0. -1.
    10030    2    1    2    0    0  0.00000000000E+00  0.00000000000E+00 -0.14028777388E+03  0.15120276187E+04  0.15055055165E+04 0.  0.
        2    1    3    3  502    0 -0.63835225526E+03  0.39411096065E+03 -0.80727144356E+01  0.75025476994E+03  0.25500000920E-02 0.  1.
       -2    1    3    3    0  502  0.63835225526E+03 -0.39411096065E+03 -0.13221505944E+03  0.76177284872E+03  0.25500000920E-02 0. -1.
</event>
<event>
 5   0  0.1526126E-03  0.1497054E+04  0.7818609E-02  0.8886415E-01
        2   -1    0    0  501    0  0.00000000000E+00  0.00000000000E+00  0.27641759548E+03  0.27641759549E+03  0.25500000920E-02 0. -1.
       -2   -1    0    0    0  501  0.00000000000E+00  0.00000000000E+00 -0.20269783016E+04  0.20269783016E+04  0.25500000920E-02 0.  1.
    10030    2    1    2    0    0  0.00000000000E+00  0.00000000000E+00 -0.17505607061E+04  0.23033958971E+04  0.14970537308E+04 0.  0.
        2    1    3    3  502    0  0.93993135801E+02 -0.42290036961E+03 -0.18144849800E+04  0.18654852384E+04  0.25500000920E-02 0.  1.
       -2    1    3    3    0  502 -0.93993135801E+02  0.42290036961E+03  0.63924273851E+02  0.43791065868E+03  0.25500000920E-02 0. -1.
</event>
<event>
 5   0  0.1552067E-03  0.1546968E+04  0.7818609E-02  0.8853807E-01
       -2   -1    0    0    0  501  0.00000000000E+00  0.00000000000E+00  0.65443274130E+03  0.65443274131E+03  0.25500000920E-02 0.  1.
        2   -1    0    0  501    0  0.00000000000E+00  0.00000000000E+00 -0.91419200043E+03  0.91419200043E+03  0.25500000920E-02 0. -1.
    10030    2    1    2    0    0  0.00000000000E+00  0.00000000000E+00 -0.25975925913E+03  0.15686247417E+04  0.15469675846E+04 0.  0.
        3    1    3    3  502    0  0.43704740596E+03  0.14151878814E+03 -0.76087690552E+03  0.88880350922E+03  0.10100000352E+00 0. -1.
       -3    1    3    3    0  502 -0.43704740596E+03 -0.14151878814E+03  0.50111764639E+03  0.67982123252E+03  0.10100000352E+00 0.  1.
</event>
<event>
 5   0  0.5603875E-04  0.1501487E+04  0.7818609E-02  0.8883465E-01
       -3   -1    0    0    0  501  0.00000000000E+00  0.00000000000E+00  0.82525113831E+03  0.82525114449E+03  0.10100000352E+00 0. -1.
        3   -1    0    0  501    0  0.00000000000E+00  0.00000000000E+00 -0.68296245170E+03  0.68296245916E+03  0.10100000352E+00 0.  1.
    10030    2    1    2    0    0  0.00000000000E+00  0.00000000000E+00  0.14228868661E+03  0.15082136036E+04  0.15014866646E+04 0.  0.
        4    1    3    3  502    0 -0.17489069111E+03 -0.62050592983E+03 -0.31528634531E+03  0.71764995313E+03  0.12699999809E+01 0.  1.
       -4    1    3    3    0  502  0.17489069111E+03  0.62050592983E+03  0.45757503192E+03  0.79056365052E+03  0.12699999809E+01 0. -1.
</event>
<event>
 5   0  0.8058234E-04  0.1502493E+04  0.7818609E-02  0.8882797E-01
       -1   -1    0    0    0  501  0.00000000000E+00  0.00000000000E+00  0.58621286714E+03  0.58621286716E+03  0.50400001928E-02 0. -1.
        1   -1    0    0  501    0  0.00000000000E+00  0.00000000000E+00 -0.96274071226E+03  0.96274071227E+03  0.50400001928E-02 0.  1.
    10030    2    1    2    0    0  0.00000000000E+00  0.00000000000E+00 -0.37652784512E+03  0.15489535794E+04  0.15024925867E+04 0.  0.
        5    1    3    3  502    0 -0.59184747817E+03 -0.22981938501E+01 -0.66523716027E+03  0.89042197217E+03  0.46999998093E+01 0.  1.
       -5    1    3    3    0  502  0.59184747817E+03  0.22981938501E+01  0.28870931515E+03  0.65853160727E+03  0.46999998093E+01 0. -1.
</event>
<event>
 5   0  0.1511546E-03  0.1460307E+04  0.7818609E-02  0.8911286E-01
       -2   -1    0    0    0  501  0.00000000000E+00  0.00000000000E+00  0.28320678107E+03  0.28320678108E+03  0.25500000920E-02 0.  1.
        2   -1    0    0  501    0  0.00000000000E+00  0.00000000000E+00 -0.18824554970E+04  0.18824554970E+04  0.25500000920E-02 0. -1.
    10030    2    1    2    0    0  0.00000000000E+00  0.00000000000E+00 -0.15992487160E+04  0.21656622781E+04  0.14603070387E+04 0.  0.
        1    1    3    3  502    0 -0.65421754738E+03 -0.56447258814E+02 -0.32613191543E+03  0.73317727639E+03  0.50400001928E-02 0.  1.
       -1    1    3    3    0  502  0.65421754738E+03  0.56447258814E+02 -0.12731168005E+04  0.14324850017E+04  0.50400001928E-02 0. -1.
</event>
<event>
 5   0  0.8306301E-04  0.1539962E+04  0.7818609E-02  0.8858305E-01
       -1   -1    0    0    0  501  0.00000000000E+00  0.00000000000E+00  0.66995334532E+03  0.66995334534E+03  0.50400001928E-02 0.  1.
        1   -1    0    0  501    0  0.00000000000E+00  0.00000000000E+00 -0.88494316303E+03  0.88494316305E+03  0.50400001928E-02 0. -1.
    10030    2    1    2    0    0  0.00000000000E+00  0.00000000000E+00 -0.21498981771E+03  0.15548965084E+04  0.15399618599E+04 0.  0.
        4    1    3    3  502    0 -0.29608655267E+03  0.67256280995E+03  0.12465011221E+03  0.74535041650E+03  0.12699999809E+01 0.  1.
       -4    1    3    3    0  502  0.29608655267E+03 -0.67256280995E+03 -0.33963992992E+03  0.80954609189E+03  0.12699999809E+01 0. -1.
</event>
<event>
 5   0  0.8191876E-04  0.1812303E+04  0.7818609E-02  0.8699784E-01
        1   -1    0    0  501    0  0.00000000000E+00  0.00000000000E+00  0.15588569636E+04  0.15588569636E+04  0.50400001928E-02 0.  1.
       -1   -1    0    0    0  501  0.00000000000E+00  0.00000000000E+00 -0.52673861103E+03  0.52673861105E+03  0.50400001928E-02 0. -1.
    10030    2    1    2    0    0  0.00000000000E+00  0.00000000000E+00  0.10321183525E+04  0.20855955746E+04  0.18123025706E+04 0.  0.
        2    1    3    3  502    0 -0.69365661498E+03 -0.63586411242E+02  0.11830336134E+04  0.13728697177E+04  0.25500000920E-02 0.  1.
       -2    1    3    3    0  502  0.69365661498E+03  0.63586411242E+02 -0.15091526088E+03  0.71272585696E+03  0.25500000920E-02 0. -1.
</event>
<event>
 5   0  0.1500956E-03  0.1534398E+04  0.7818609E-02  0.8861895E-01
        2   -1    0    0  501    0  0.00000000000E+00  0.00000000000E+00  0.10093225394E+04  0.10093225394E+04  0.25500000920E-02 0.  1.
       -2   -1    0    0    0  501  0.00000000000E+00  0.00000000000E+00 -0.58315777974E+03  0.58315777975E+03  0.25500000920E-02 0. -1.
    10030    2    1    2    0    0  0.00000000000E+00  0.00000000000E+00  0.42616475962E+03  0.15924803191E+04  0.15343979811E+04 0.  0.
        4    1    3    3  502    0 -0.66626595330E+02 -0.28929539235E+02 -0.57957999548E+03  0.58411523307E+03  0.12699999809E+01 0. -1.
       -4    1    3    3    0  502  0.66626595330E+02  0.28929539235E+02  0.10057447551E+04  0.10083650860E+04  0.12699999809E+01 0.  1.
</event>
<event>
 5   0  0.1526126E-03  0.1497152E+04  0.7818609E-02  0.8886349E-01
       -2   -1    0    0    0  501  0.00000000000E+00  0.00000000000E+00  0.29948731071E+03  0.29948731072E+03  0.25500000920E-02 0.  1.
        2   -1    0    0  501    0  0.00000000000E+00  0.00000000000E+00 -0.18710835185E+04  0.18710835186E+04  0.25500000920E-02 0. -1.
    10030    2    1    2    0    0  0.00000000000E+00  0.00000000000E+00 -0.15715962078E+04  0.21705708293E+04  0.14971516571E+04 0.  0.
        2    1    3    3  502    0 -0.58005033364E+03 -0.10574480510E+03 -0.14544773735E+04  0.15694409142E+04  0.25500000920E-02 0. -1.
       -2    1    3    3    0  502  0.58005033364E+03  0.10574480510E+03 -0.11711883438E+03  0.60112991502E+03  0.25500000920E-02 0.  1.
</event>
<event>
 5   0  0.1484056E-03  0.1501958E+04  0.7818609E-02  0.8883152E-01
        2   -1    0    0  501    0  0.00000000000E+00  0.00000000000E+00  0.15203872613E+04  0.15203872613E+04  0.25500000920E-02 0.  1.
       -2   -1    0    0    0  501  0.00000000000E+00  0.00000000000E+00 -0.37093787849E+03  0.37093787850E+03  0.25500000920E-02 0. -1.
    10030    2    1    2    0    0  0.00000000000E+00  0.00000000000E+00  0.11494493828E+04  0.18913251398E+04  0.15019576894E+04 0.  0.
        5    1    3    3  502    0  0.50523041286E+03 -0.53433028627E+03  0.76644582695E+03  0.10621807382E+04  0.46999998093E+01 0.  1.
       -5    1    3    3    0  502 -0.50523041286E+03  0.53433028627E+03  0.38300355581E+03  0.82914440158E+03  0.46999998093E+01 0. -1.
</event>
<event>
 5   0  0.5603875E-04  0.1485375E+04  0.7818609E-02  0.8894237E-01
        4   -1    0    0  501    0  0.00000000000E+00  0.00000000000E+00  0.92396957882E+03  0.92397045163E+03  0.12699999809E+01 0.  1.
       -4   -1    0    0    0  501  0.00000000000E+00  0.00000000000E+00 -0.59697110809E+03  0.59697245900E+03  0.12699999809E+01 0. -1.
    10030    2    1    2    0    0  0.00000000000E+00  0.00000000000E+00  0.32699847073E+03  0.15209429106E+04  0.14853751504E+04 0.  0.
        5    1    3    3  502    0 -0.16890631988E+03  0.11143375683E+03 -0.56818539633E+03  0.60316130649E+03  0.46999998093E+01 0. -1.
       -5    1    3    3    0  502  0.16890631988E+03 -0.11143375683E+03  0.89518386705E+03  0.91778160413E+03  0.46999998093E+01 0.  1.
</event>
<event>
 5   0  0.1500956E-03  0.1330094E+04  0.7818609E-02  0.9006035E-01
       -2   -1    0    0    0  501  0.00000000000E+00  0.00000000000E+00  0.33074401617E+03  0.33074401618E+03  0.25500000920E-02 0. -1.
        2   -1    0    0  501    0  0.00000000000E+00  0.00000000000E+00 -0.13372497395E+04  0.13372497395E+04  0.25500000920E-02 0.  1.
    10030    2    1    2    0    0  0.00000000000E+00  0.00000000000E+00 -0.10065057233E+04  0.16679937557E+04  0.13300937553E+04 0.  0.
        4    1    3    3  502    0 -0.26465224904E+03 -0.40240143256E+03  0.71856449091E+02  0.48696271728E+03  0.12699999809E+01 0.  1.
       -4    1    3    3    0  502  0.26465224904E+03  0.40240143256E+03 -0.10783621724E+04  0.11810310384E+04  0.12699999809E+01 0. -1.
</event>
<event>
 5   0  0.1552067E-03  0.1271301E+04  0.7818609E-02  0.9052638E-01
       -2   -1    0    0    0  501  0.00000000000E+00  0.00000000000E+00  0.72734025061E+03  0.72734025061E+03  0.25500000920E-02 0. -1.
        2   -1    0    0  501    0  0.00000000000E+00  0.00000000000E+00 -0.55551956398E+03  0.55551956399E+03  0.25500000920E-02 0.  1.
    10030    2    1    2    0    0  0.00000000000E+00  0.00000000000E+00  0.17182068663E+03  0.12828598146E+04  0.12713012843E+04 0.  0.
        3    1    3    3  502    0  0.46024399200E+03 -0.33677464850E+03 -0.19737328033E+03  0.60348812585E+03  0.10100000352E+00 0.  1.
       -3    1    3    3    0  502 -0.46024399200E+03  0.33677464850E+03  0.36919396696E+03  0.67937168876E+03  0.10100000352E+00 0. -1.
</event>
<event>
 5   0  0.8365016E-04  0.1513649E+04  0.7818609E-02  0.8875427E-01
        1   -1    0    0  501    0  0.00000000000E+00  0.00000000000E+00  0.85051340007E+03  0.85051340008E+03  0.50400001928E-02 0. -1.
       -1   -1    0    0    0  501  0.00000000000E+00  0.00000000000E+00 -0.67345638071E+03  0.67345638073E+03  0.50400001928E-02 0.  1.
    10030    2    1    2    0    0  0.00000000000E+00  0.00000000000E+00  0.17705701936E+03  0.15239697808E+04  0.15136494656E+04 0.  0.
        3    1    3    3  502    0  0.33216312335E+03  0.67882669674E+03  0.12937160303E+03  0.76673010022E+03  0.10100000352E+00 0.  1.
       -3    1    3    3    0  502 -0.33216312335E+03 -0.67882669674E+03  0.47685416331E+02  0.75723968058E+03  0.10100000352E+00 0. -1.
</event>
<event>
 5   0  0.1552067E-03  0.1660193E+04  0.7818609E-02  0.8784399E-01
       -2   -1    0    0    0  501  0.00000000000E+00  0.00000000000E+00  0.69988366671E+03  0.69988366671E+03  0.25500000920E-02 0. -1.
        2   -1    0    0  501    0  0.00000000000E+00  0.00000000000E+00 -0.98453547205E+03  0.98453547205E+03  0.25500000920E-02 0.  1.
    10030    2    1    2    0    0  0.00000000000E+00  0.00000000000E+00 -0.28465180534E+03  0.16844191388E+04  0.16601931167E+04 0.  0.
        3    1    3    3  502    0  0.14139287790E+03 -0.17511850804E+03 -0.95298568219E+03  0.97920383907E+03  0.10100000352E+00 0.  1.
       -3    1    3    3    0  502 -0.14139287790E+03  0.17511850804E+03  0.66833387685E+03  0.70521529970E+03  0.10100000352E+00 0. -1.
</event>
<event>
 5   0  0.8191876E-04  0.1494972E+04  0.7818609E-02  0.8887804E-01
        1   -1    0    0  501    0  0.00000000000E+00  0.00000000000E+00  0.80540546953E+03  0.80540546954E+03  0.50400001928E-02 0.  1.
       -1   -1    0    0    0  501  0.00000000000E+00  0.00000000000E+00 -0.69373138010E+03  0.69373138012E+03  0.50400001928E-02 0. -1.
    10030    2    1    2    0    0  0.00000000000E+00  0.00000000000E+00  0.11167408943E+03  0.14991368497E+04  0.14949716358E+04 0.  0.
        2    1    3    3  502    0  0.10674008376E+03  0.44701995919E+03  0.64698331429E+03  0.79360424543E+03  0.25500000920E-02 0.  1.
       -2    1    3    3    0  502 -0.10674008376E+03 -0.44701995919E+03 -0.53530922486E+03  0.70553260423E+03  0.25500000920E-02 0. -1.
</event>
<event>
 5   0  0.7870317E-04  0.1253802E+04  0.7818609E-02  0.9067025E-01
       -1   -1    0    0    0  501  0.00000000000E+00  0.00000000000E+00  0.66483130818E+03  0.66483130820E+03  0.50400001928E-02 0.  1.
        1   -1    0    0  501    0  0.00000000000E+00  0.00000000000E+00 -0.59113486224E+03  0.59113486226E+03  0.50400001928E-02 0. -1.
    10030    2    1    2    0    0  0.00000000000E+00  0.00000000000E+00  0.73696445947E+02  0.12559661705E+04  0.12538021595E+04 0.  0.
        1    1    3    3  502    0 -0.30616555064E+03  0.40447798377E+03  0.40581148564E+03  0.64963277754E+03  0.50400001928E-02 0.  1.
       -1    1    3    3    0  502  0.30616555064E+03 -0.40447798377E+03 -0.33211503969E+03  0.60633339292E+03  0.50400001928E-02 0. -1.
</event>
<event>
 5   0  0.1500956E-03  0.1512377E+04  0.7818609E-02  0.8876264E-01
       -2   -1    0    0    0  501  0.00000000000E+00  0.00000000000E+00  0.60594245451E+03  0.60594245452E+03  0.25500000920E-02 0.  1.
        2   -1    0    0  501    0  0.00000000000E+00  0.00000000000E+00 -0.94368852064E+03  0.94368852064E+03  0.25500000920E-02 0. -1.
    10030    2    1    2    0    0  0.00000000000E+00  0.00000000000E+00 -0.33774606613E+03  0.15496309752E+04  0.15123768558E+04 0.  0.
        4    1    3    3  502    0 -0.38852211102E+03 -0.32961852625E+03 -0.74140492637E+03  0.89960028977E+03  0.12699999809E+01 0.  1.
       -4    1    3    3    0  502  0.38852211102E+03  0.32961852625E+03  0.40365886025E+03  0.65003068540E+03  0.12699999809E+01 0. -1.
</event>
<event>
 5   0  0.1500956E-03  0.1532078E+04  0.7818609E-02  0.8863397E-01
        2   -1    0    0  501    0  0.00000000000E+00  0.00000000000E+00  0.16625657978E+04  0.16625657978E+04  0.25500000920E-02 0. -1.
       -2   -1    0    0    0  501  0.00000000000E+00  0.00000000000E+00 -0.35295781219E+03  0.35295781220E+03  0.25500000920E-02 0.  1.
    10030    2    1    2    0    0  0.00000000000E+00  0.00000000000E+00  0.13096079856E+04  0.20155236100E+04  0.15320777873E+04 0.  0.
        4    1    3    3  502    0 -0.23481160561E+03 -0.74275470341E+02 -0.29945497852E+03  0.38772184963E+03  0.12699999809E+01 0.  1.
       -4    1    3    3    0  502  0.23481160561E+03  0.74275470341E+02  0.16090629641E+04  0.16278017603E+04  0.12699999809E+01 0. -1.
</event>
<event>
 5   0  0.1500956E-03  0.1124563E+04  0.7818609E-02  0.9181577E-01
       -2   -1    0    0    0  501  0.00000000000E+00  0.00000000000E+00  0.11375455378E+03  0.11375455381E+03  0.25500000920E-02 0.  1.
        2   -1    0    0  501    0  0.00000000000E+00  0.00000000000E+00 -0.27793204612E+04  0.27793204612E+04  0.25500000920E-02 0. -1.
    10030    2    1    2    0    0  0.00000000000E+00  0.00000000000E+00 -0.26655659074E+04  0.28930750150E+04  0.11245627754E+04 0.  0.
        4    1    3    3  502    0 -0.46943643010E+03  0.24487097900E+03 -0.18197252530E+04  0.18951870535E+04  0.12699999809E+01 0.  1.
       -4    1    3    3    0  502  0.46943643010E+03 -0.24487097900E+03 -0.84584065437E+03  0.99788796152E+03  0.12699999809E+01 0. -1.
</event>
<event>
 5   0  0.5603875E-04  0.1250907E+04  0.7818609E-02  0.9069429E-01
       -3   -1    0    0    0  501  0.00000000000E+00  0.00000000000E+00  0.60592160425E+03  0.60592161267E+03  0.10100000352E+00 0.  1.
        3   -1    0    0  501    0  0.00000000000E+00  0.00000000000E+00 -0.64561523328E+03  0.64561524118E+03  0.10100000352E+00 0. -1.
    10030    2    1    2    0    0  0.00000000000E+00  0.00000000000E+00 -0.39693629028E+02  0.12515368538E+04  0.12509072357E+04 0.  0.
        5    1    3    3  502    0  0.26638539686E+03  0.34053276509E+03 -0.47201055965E+03  0.64010921114E+03  0.46999998093E+01 0. -1.
       -5    1    3    3    0  502 -0.26638539686E+03 -0.34053276509E+03  0.43231693062E+03  0.61142764271E+03  0.46999998093E+01 0.  1.
</event>
<event>
 5   0  0.7870317E-04  0.1479452E+04  0.7818609E-02  0.8898233E-01
        1   -1    0    0  501    0  0.00000000000E+00  0.00000000000E+00  0.15847696947E+04  0.15847696947E+04  0.50400001928E-02 0. -1.
       -1   -1    0    0    0  501  0.00000000000E+00  0.00000000000E+00 -0.34528347555E+03  0.34528347559E+03  0.50400001928E-02 0.  1.
    10030    2    1    2    0    0  0.00000000000E+00  0.00000000000E+00  0.12394862192E+04  0.19300531703E+04  0.14794523151E+04 0.  0.
        1    1    3    3  502    0  0.72976263274E+02  0.67757267129E+03  0.99505335799E+03  0.12060520076E+04  0.50400001928E-02 0. -1.
       -1    1    3    3    0  502 -0.72976263274E+02 -0.67757267129E+03  0.24443286117E+03  0.72400116265E+03  0.50400001928E-02 0.  1.
</event>
<event>
 5   0  0.1552067E-03  0.1515117E+04  0.7818609E-02  0.8874462E-01
        2   -1    0    0  501    0  0.00000000000E+00  0.00000000000E+00  0.87964265556E+03  0.87964265557E+03  0.25500000920E-02 0.  1.
       -2   -1    0    0    0  501  0.00000000000E+00  0.00000000000E+00 -0.65241836103E+03  0.65241836103E+03  0.25500000920E-02 0. -1.
    10030    2    1    2    0    0  0.00000000000E+00  0.00000000000E+00  0.22722429454E+03  0.15320610166E+04  0.15151171831E+04 0.  0.
        3    1    3    3  502    0 -0.15621390592E+03  0.53023087975E+03 -0.41020361901E+03  0.68834191322E+03  0.10100000352E+00 0. -1.
       -3    1    3    3    0  502  0.15621390592E+03 -0.53023087975E+03  0.63742791355E+03  0.84371910338E+03  0.10100000352E+00 0.  1.
</event>
<event>
 5   0  0.1511546E-03  0.1508335E+04  0.7818609E-02  0.8878929E-01
        2   -1    0    0  501    0  0.00000000000E+00  0.00000000000E+00  0.16344235992E+04  0.16344235992E+04  0.25500000920E-02 0. -1.
       -2   -1    0    0    0  501  0.00000000000E+00  0.00000000000E+00 -0.34799323985E+03  0.34799323986E+03  0.25500000920E-02 0.  1.
    10030    2    1    2    0    0  0.00000000000E+00  0.00000000000E+00  0.12864303593E+04  0.19824168391E+04  0.15083346626E+04 0.  0.
        1    1    3    3  502    0 -0.56339170751E+03 -0.25105293807E+03  0.12135864956E+04  0.13613338959E+04  0.50400001928E-02 0. -1.
       -1    1    3    3    0  502  0.56339170751E+03  0.25105293807E+03  0.72843863784E+02  0.62108294319E+03  0.50400001928E-02 0.  1.
</event>
<event>
 5   0  0.8191876E-04  0.1449519E+04  0.7818609E-02  0.8918734E-01
       -1   -1    0    0    0  501  0.00000000000E+00  0.00000000000E+00  0.95016461368E+03  0.95016461369E+03  0.50400001928E-02 0.  1.
        1   -1    0    0  501    0  0.00000000000E+00  0.00000000000E+00 -0.55282651866E+03  0.55282651868E+03  0.50400001928E-02 0. -1.
    10030    2    1    2    0    0  0.00000000000E+00  0.00000000000E+00  0.39733809502E+03  0.15029911324E+04  0.14495188106E+04 0.  0.
        2    1    3    3  502    0  0.45452844981E+03 -0.48125233221E+03 -0.10730351787E+03  0.67060716063E+03  0.25500000920E-02 0. -1.
       -2    1    3    3    0  502 -0.45452844981E+03  0.48125233221E+03  0.50464161290E+03  0.83238397174E+03  0.25500000920E-02 0.  1.
</event>
<event>
 5   0  0.7870317E-04  0.1522232E+04  0.7818609E-02  0.8869802E-01
       -1   -1    0    0    0  501  0.00000000000E+00  0.00000000000E+00  0.88683236799E+03  0.88683236800E+03  0.50400001928E-02 0. -1.
        1   -1    0    0  501    0  0.00000000000E+00  0.00000000000E+00 -0.65322069902E+03  0.65322069904E+03  0.50400001928E-02 0.  1.
    10030    2    1    2    0    0  0.00000000000E+00  0.00000000000E+00  0.23361166897E+03  0.15400530670E+04  0.15222315978E+04 0.  0.
        1    1    3    3  502    0 -0.12472220175E+03  0.52174001381E+03 -0.42944967113E+03  0.68716467436E+03  0.50400001928E-02 0.  1.
       -1    1    3    3    0  502  0.12472220175E+03 -0.52174001381E+03  0.66306134010E+03  0.85288839269E+03  0.50400001928E-02 0. -1.
</event>
<event>
 5   0  0.8191876E-04  0.1455579E+04  0.7818609E-02  0.8914542E-01
       -1   -1    0    0    0  501  0.00000000000E+00  0.00000000000E+00  0.30408928427E+03  0.30408928431E+03  0.50400001928E-02 0. -1.
        1   -1    0    0  501    0  0.00000000000E+00  0.00000000000E+00 -0.17418496273E+04  0.17418496273E+04  0.50400001928E-02 0.  1.
    10030    2    1    2    0    0  0.00000000000E+00  0.00000000000E+00 -0.14377603430E+04  0.20459389116E+04  0.14555793438E+04 0.  0.
        2    1    3    3  502    0  0.12812397270E+03 -0.40648898998E+03  0.11032946866E+03  0.44025179502E+03  0.25500000920E-02 0. -1.
       -2    1    3    3    0  502 -0.12812397270E+03  0.40648898998E+03 -0.15480898117E+04  0.16056871166E+04  0.25500000920E-02 0.  1.
</event>
<event>
 5   0  0.1552067E-03  0.1513895E+04  0.7818609E-02  0.8875265E-01
       -2   -1    0    0    0  501  0.00000000000E+00  0.00000000000E+00  0.40812903310E+03  0.40812903311E+03  0.25500000920E-02 0.  1.
        2   -1    0    0  501    0  0.00000000000E+00  0.00000000000E+00 -0.14038930964E+04  0.14038930964E+04  0.25500000920E-02 0. -1.
    10030    2    1    2    0    0  0.00000000000E+00  0.00000000000E+00 -0.99576406332E+03  0.18120221295E+04  0.15138950189E+04 0.  0.
        3    1    3    3  502    0  0.43945464133E+03 -0.37235842029E+03 -0.10857163008E+04  0.12290447799E+04  0.10100000352E+00 0. -1.
       -3    1    3    3    0  502 -0.43945464133E+03  0.37235842029E+03  0.89952237503E+02  0.58297734963E+03  0.10100000352E+00 0.  1.
</event>
<event>
 5   0  0.8191876E-04  0.1565928E+04  0.7818609E-02  0.8841758E-01
        1   -1    0    0  501    0  0.00000000000E+00  0.00000000000E+00  0.16335264889E+04  0.16335264889E+04  0.50400001928E-02 0. -1.
       -1   -1    0    0    0  501  0.00000000000E+00  0.00000000000E+00 -0.37528155921E+03  0.37528155924E+03  0.50400001928E-02 0.  1.
    10030    2    1    2    0    0  0.00000000000E+00  0.00000000000E+00  0.12582449297E+04  0.20088080481E+04  0.15659276711E+04 0.  0.
        2    1    3    3  502    0 -0.58565796913E+03 -0.47552819629E+02  0.12929456803E+04  0.14201989507E+04  0.25500000920E-02 0. -1.
       -2    1    3    3    0  502  0.58565796913E+03  0.47552819629E+02 -0.34700750599E+02  0.58860909741E+03  0.25500000920E-02 0.  1.
</event>
<event>
 5   0  0.1500956E-03  0.1485529E+04  0.7818609E-02  0.8894133E-01
       -2   -1    0    0    0  501  0.00000000000E+00  0.00000000000E+00  0.23581942013E+03  0.23581942014E+03  0.25500000920E-02 0. -1.
        2   -1    0    0  501    0  0.00000000000E+00  0.00000000000E+00 -0.23394982474E+04  0.23394982474E+04  0.25500000920E-02 0.  1.
    10030    2    1    2    0    0  0.00000000000E+00  0.00000000000E+00 -0.21036788273E+04  0.25753176676E+04  0.14855290238E+04 0.  0.
        4    1    3    3  502    0  0.42587020159E+03 -0.60832396101E+03 -0.10805375920E+04  0.13111012817E+04  0.12699999809E+01 0. -1.
       -4    1    3    3    0  502 -0.42587020159E+03  0.60832396101E+03 -0.10231412353E+04  0.12642163859E+04  0.12699999809E+01 0.  1.
</event>
<event>
 5   0  0.8365016E-04  0.1495933E+04  0.7818609E-02  0.8887162E-01
        1   -1    0    0  501    0  0.00000000000E+00  0.00000000000E+00  0.10814860095E+04  0.10814860095E+04  0.50400001928E-02 0. -1.
       -1   -1    0    0    0  501  0.00000000000E+00  0.00000000000E+00 -0.51730126504E+03  0.51730126507E+03  0.50400001928E-02 0.  1.
    10030    2    1    2    0    0  0.00000000000E+00  0.00000000000E+00  0.56418474444E+03  0.15987872746E+04  0.14959332617E+04 0.  0.
        3    1    3    3  502    0  0.25422639051E+03 -0.68095780445E+02  0.10303633583E+04  0.10634456984E+04  0.10100000352E+00 0. -1.
       -3    1    3    3    0  502 -0.25422639051E+03  0.68095780445E+02 -0.46617861390E+03  0.53534157620E+03  0.10100000352E+00 0.  1.
</event>
<event>
 5   0  0.7870317E-04  0.1513993E+04  0.7818609E-02  0.8875201E-01
        1   -1    0    0  501    0  0.00000000000E+00  0.00000000000E+00  0.11918796808E+04  0.11918796808E+04  0.50400001928E-02 0. -1.
       -1   -1    0    0    0  501  0.00000000000E+00  0.00000000000E+00 -0.48079002833E+03  0.48079002836E+03  0.50400001928E-02 0.  1.
    10030    2    1    2    0    0  0.00000000000E+00  0.00000000000E+00  0.71108965243E+03  0.16726697091E+04  0.15139932173E+04 0.  0.
        1    1    3    3  502    0 -0.24167787970E+03  0.58792342518E+01 -0.43699595539E+03  0.49940787738E+03  0.50400001928E-02 0.  1.
       -1    1    3    3    0  502  0.24167787970E+03 -0.58792342518E+01  0.11480856078E+04  0.11732618318E+04  0.50400001928E-02 0. -1.
</event>
<event>
 5   0  0.1500956E-03  0.1490023E+04  0.7818609E-02  0.8891115E-01
       -2   -1    0    0    0  501  0.00000000000E+00  0.00000000000E+00  0.39264855640E+03  0.39264855641E+03  0.25500000920E-02 0. -1.
        2   -1    0    0  501    0  0.00000000000E+00  0.00000000000E+00 -0.14135845765E+04  0.14135845765E+04  0.25500000920E-02 0.  1.
    10030    2    1    2    0    0  0.00000000000E+00  0.00000000000E+00 -0.10209360201E+04  0.18062331329E+04  0.14900227425E+04 0.  0.
        4    1    3    3  502    0 -0.53270010859E+03 -0.43939750696E+03 -0.84945761593E+03  0.10947234486E+04  0.12699999809E+01 0. -1.
       -4    1    3    3    0  502  0.53270010859E+03  0.43939750696E+03 -0.17147840415E+03  0.71150968427E+03  0.12699999809E+01 0.  1.
</event>
<event>
 5   0  0.1484056E-03  0.1800650E+04  0.7818609E-02  0.8705954E-01
       -2   -1    0    0    0  501  0.00000000000E+00  0.00000000000E+00  0.91179668264E+03  0.91179668265E+03  0.25500000920E-02 0.  1.
        2   -1    0    0  501    0  0.00000000000E+00  0.00000000000E+00 -0.88899781552E+03  0.88899781552E+03  0.25500000920E-02 0. -1.
    10030    2    1    2    0    0  0.00000000000E+00  0.00000000000E+00  0.22798867129E+02  0.18007944982E+04  0.18006501704E+04 0.  0.
        5    1    3    3  502    0 -0.72538789811E+03 -0.32759763557E+03 -0.40941375509E+03  0.89506956512E+03  0.46999998093E+01 0. -1.
       -5    1    3    3    0  502  0.72538789811E+03  0.32759763557E+03  0.43221262222E+03  0.90572493305E+03  0.46999998093E+01 0.  1.
</event>
<event>
 5   0  0.8191876E-04  0.1499801E+04  0.7818609E-02  0.8884585E-01
        1   -1    0    0  501    0  0.00000000000E+00  0.00000000000E+00  0.62247798254E+03  0.62247798256E+03  0.50400001928E-02 0.  1.
       -1   -1    0    0    0  501  0.00000000000E+00  0.00000000000E+00 -0.90340696325E+03  0.90340696327E+03  0.50400001928E-02 0. -1.
    10030    2    1    2    0    0  0.00000000000E+00  0.00000000000E+00 -0.28092898071E+03  0.15258849458E+04  0.14998012454E+04 0.  0.
        2    1    3    3  502    0  0.21467212971E+03  0.71340322429E+03 -0.53403717196E+02  0.74691381077E+03  0.25500000920E-02 0.  1.
       -2    1    3    3    0  502 -0.21467212971E+03 -0.71340322429E+03 -0.22752526352E+03  0.77897113506E+03  0.25500000920E-02 0. -1.
</event>
<event>
 5   0  0.8191876E-04  0.1519151E+04  0.7818609E-02  0.8871817E-01
       -1   -1    0    0    0  501  0.00000000000E+00  0.00000000000E+00  0.67950096831E+03  0.67950096833E+03  0.50400001928E-02 0. -1.
        1   -1    0    0  501    0  0.00000000000E+00  0.00000000000E+00 -0.84908596684E+03  0.84908596686E+03  0.50400001928E-02 0.  1.
    10030    2    1    2    0    0  0.00000000000E+00  0.00000000000E+00 -0.16958499853E+03  0.15285869352E+04  0.15191507321E+04 0.  0.
        2    1    3    3  502    0  0.48134755823E+03 -0.58476426811E+03 -0.26902399762E+02  0.75787100498E+03  0.25500000920E-02 0. -1.
       -2    1    3    3    0  502 -0.48134755823E+03  0.58476426811E+03 -0.14268259877E+03  0.77071593020E+03  0.25500000920E-02 0.  1.
</event>
<event>
 5   0  0.7870317E-04  0.1498045E+04  0.7818609E-02  0.8885754E-01
       -1   -1    0    0    0  501  0.00000000000E+00  0.00000000000E+00  0.49676611074E+03  0.49676611077E+03  0.50400001928E-02 0.  1.
        1   -1    0    0  501    0  0.00000000000E+00  0.00000000000E+00 -0.11293743105E+04  0.11293743105E+04  0.50400001928E-02 0. -1.
    10030    2    1    2    0    0  0.00000000000E+00  0.00000000000E+00 -0.63260819974E+03  0.16261404213E+04  0.14980452381E+04 0.  0.
        1    1    3    3  502    0  0.10138535701E+03  0.52289990585E+03  0.25534928728E+03  0.59068313053E+03  0.50400001928E-02 0.  1.
       -1    1    3    3    0  502 -0.10138535701E+03 -0.52289990585E+03 -0.88795748702E+03  0.10354572907E+04  0.50400001928E-02 0. -1.
</event>
<event>
 5   0  0.8058234E-04  0.1501431E+04  0.7818609E-02  0.8883502E-01
        1   -1    0    0  501    0  0.00000000000E+00  0.00000000000E+00  0.16900057934E+04  0.16900057935E+04  0.50400001928E-02 0. -1.
       -1   -1    0    0    0  501  0.00000000000E+00  0.00000000000E+00 -0.33347446612E+03  0.33347446616E+03  0.50400001928E-02 0.  1.
    10030    2    1    2    0    0  0.00000000000E+00  0.00000000000E+00  0.13565313273E+04  0.20234802596E+04  0.15014310237E+04 0.  0.
        5    1    3    3  502    0  0.10103234376E+03  0.67945045787E+03  0.10863571055E+04  0.12853226482E+04  0.46999998093E+01 0. -1.
       -5    1    3    3    0  502 -0.10103234376E+03 -0.67945045787E+03  0.27017422178E+03  0.73815761142E+03  0.46999998093E+01 0.  1.
</event>
<event>
 5   0  0.8365016E-04  0.1100147E+04  0.7818609E-02  0.9205049E-01
       -1   -1    0    0    0  501  0.00000000000E+00  0.00000000000E+00  0.31972516267E+03  0.31972516271E+03  0.50400001928E-02 0.  1.
        1   -1    0    0  501    0  0.00000000000E+00  0.00000000000E+00 -0.94637738674E+03  0.94637738675E+03  0.50400001928E-02 0. -1.
    10030    2    1    2    0    0  0.00000000000E+00  0.00000000000E+00 -0.62665222407E+03  0.12661025495E+04  0.11001466520E+04 0.  0.
        3    1    3    3  502    0 -0.17327033619E+03  0.16943187138E+03  0.25497757047E+03  0.35177171587E+03  0.10100000352E+00 0.  1.
       -3    1    3    3    0  502  0.17327033619E+03 -0.16943187138E+03 -0.88162979454E+03  0.91433083360E+03  0.10100000352E+00 0. -1.
</event>
<event>
 5   0  0.1511546E-03  0.1518060E+04  0.7818609E-02  0.8872531E-01
        2   -1    0    0  501    0  0.00000000000E+00  0.00000000000E+00  0.13538686943E+04  0.13538686943E+04  0.25500000920E-02 0.  1.
       -2   -1    0    0    0  501  0.00000000000E+00  0.00000000000E+00 -0.42554082183E+03  0.42554082184E+03  0.25500000920E-02 0. -1.
    10030    2    1    2    0    0  0.00000000000E+00  0.00000000000E+00  0.92832787251E+03  0.17794095162E+04  0.15180598102E+04 0.  0.
        1    1    3    3  502    0  0.39161107515E+03  0.87753064868E+02  0.12193359730E+04  0.12836822230E+04  0.50400001928E-02 0.  1.
       -1    1    3    3    0  502 -0.39161107515E+03 -0.87753064868E+02 -0.29100810052E+03  0.49572729315E+03  0.50400001928E-02 0. -1.
</event>
<event>
 5   0  0.8058234E-04  0.1174780E+04  0.7818609E-02  0.9135223E-01
        1   -1    0    0  501    0  0.00000000000E+00  0.00000000000E+00  0.63673819477E+03  0.63673819479E+03  0.50400001928E-02 0. -1.
       -1   -1    0    0    0  501  0.00000000000E+00  0.00000000000E+00 -0.54186616676E+03  0.54186616678E+03  0.50400001928E-02 0.  1.
    10030    2    1    2    0    0  0.00000000000E+00  0.00000000000E+00  0.94872028007E+02  0.11786043616E+04  0.11747797834E+04 0.  0.
        5    1    3    3  502    0 -0.36678927965E+03  0.16002504910E+03  0.47879204707E+03  0.62402428345E+03  0.46999998093E+01 0. -1.
       -5    1    3    3    0  502  0.36678927965E+03 -0.16002504910E+03 -0.38392001906E+03  0.55458007811E+03  0.46999998093E+01 0.  1.
</event>
<event>
 5   0  0.7870317E-04  0.1501812E+04  0.7818609E-02  0.8883249E-01
       -1   -1    0    0    0  501  0.00000000000E+00  0.00000000000E+00  0.35710289594E+03  0.35710289598E+03  0.50400001928E-02 0. -1.
        1   -1    0    0  501    0  0.00000000000E+00  0.00000000000E+00 -0.15789841720E+04  0.15789841721E+04  0.50400001928E-02 0.  1.
    10030    2    1    2    0    0  0.00000000000E+00  0.00000000000E+00 -0.12218812761E+04  0.19360870680E+04  0.15018119996E+04 0.  0.
        1    1    3    3  502    0 -0.18595634142E+02 -0.35970298296E+03  0.23847080275E+03  0.43197263495E+03  0.50400001928E-02 0. -1.
       -1    1    3    3    0  502  0.18595634142E+02  0.35970298296E+03 -0.14603520789E+04  0.15041144331E+04  0.50400001928E-02 0.  1.
</event>
<event>
 5   0  0.7870317E-04  0.1423985E+04  0.7818609E-02  0.8936638E-01
       -1   -1    0    0    0  501  0.00000000000E+00  0.00000000000E+00  0.41103657792E+03  0.41103657795E+03  0.50400001928E-02 0. -1.
        1   -1    0    0  501    0  0.00000000000E+00  0.00000000000E+00 -0.12333043805E+04  0.12333043805E+04  0.50400001928E-02 0.  1.
    10030    2    1    2    0    0  0.00000000000E+00  0.00000000000E+00 -0.82226780260E+03  0.16443409585E+04  0.14239848484E+04 0.  0.
        1    1    3    3  502    0 -0.29654090062E+03 -0.38939206963E+03 -0.10082286734E+04  0.11207532054E+04  0.50400001928E-02 0.  1.
       -1    1    3    3    0  502  0.29654090062E+03  0.38939206963E+03  0.18596087080E+03  0.52358775303E+03  0.50400001928E-02 0. -1.
</event>
<event>
 5   0  0.8306301E-04  0.1492976E+04  0.7818609E-02  0.8889138E-01
       -1   -1    0    0    0  501  0.00000000000E+00  0.00000000000E+00  0.58556162743E+03  0.58556162745E+03  0.50400001928E-02 0.  1.
        1   -1    0    0  501    0  0.00000000000E+00  0.00000000000E+00 -0.95164026699E+03  0.95164026700E+03  0.50400001928E-02 0. -1.
    10030    2    1    2    0    0  0.00000000000E+00  0.00000000000E+00 -0.36607863956E+03  0.15372018944E+04  0.14929755838E+04 0.  0.
        4    1    3    3  502    0  0.19524773873E+03 -0.71626368802E+03 -0.10270853515E+03  0.74947048397E+03  0.12699999809E+01 0. -1.
       -4    1    3    3    0  502 -0.19524773873E+03  0.71626368802E+03 -0.26337010441E+03  0.78773141048E+03  0.12699999809E+01 0.  1.
</event>
<event>
 5   0  0.8365016E-04  0.1429389E+04  0.7818609E-02  0.8932816E-01
        1   -1    0    0  501    0  0.00000000000E+00  0.00000000000E+00  0.68825352522E+03  0.68825352523E+03  0.50400001928E-02 0.  1.
       -1   -1    0    0    0  501  0.00000000000E+00  0.00000000000E+00 -0.74215097440E+03  0.74215097442E+03  0.50400001928E-02 0. -1.
    10030    2    1    2    0    0  0.00000000000E+00  0.00000000000E+00 -0.53897449187E+02  0.14304044997E+04  0.14293887147E+04 0.  0.
        3    1    3    3  502    0 -0.91123384597E+02 -0.31285017996E+03  0.60959237990E+03  0.69121746661E+03  0.10100000352E+00 0.  1.
       -3    1    3    3    0  502  0.91123384597E+02  0.31285017996E+03 -0.66348982909E+03  0.73918703304E+03  0.10100000352E+00 0. -1.
</event>
<event>
 5   0  0.1511546E-03  0.1512876E+04  0.7818609E-02  0.8875935E-01
        2   -1    0    0  501    0  0.00000000000E+00  0.00000000000E+00  0.10653888281E+04  0.10653888281E+04  0.25500000920E-02 0. -1.
       -2   -1    0    0    0  501  0.00000000000E+00  0.00000000000E+00 -0.53707947215E+03  0.53707947215E+03  0.25500000920E-02 0.  1.
    10030    2    1    2    0    0  0.00000000000E+00  0.00000000000E+00  0.52830935599E+03  0.16024683003E+04  0.15128760286E+04 0.  0.
        1    1    3    3  502    0 -0.25692592442E+03  0.26132626092E+03  0.96507984890E+03  0.10323184877E+04  0.50400001928E-02 0. -1.
       -1    1    3    3    0  502  0.25692592442E+03 -0.26132626092E+03 -0.43677049291E+03  0.57014981259E+03  0.50400001928E-02 0.  1.
</event>
<event>
 5   0  0.1484056E-03  0.1357214E+04  0.7818609E-02  0.8985385E-01
        2   -1    0    0  501    0  0.00000000000E+00  0.00000000000E+00  0.69382355958E+03  0.69382355959E+03  0.25500000920E-02 0.  1.
       -2   -1    0    0    0  501  0.00000000000E+00  0.00000000000E+00 -0.66372389964E+03  0.66372389965E+03  0.25500000920E-02 0. -1.
    10030    2    1    2    0    0  0.00000000000E+00  0.00000000000E+00  0.30099659941E+02  0.13575474592E+04  0.13572137321E+04 0.  0.
        5    1    3    3  502    0  0.17875747352E+02 -0.22138258482E+03  0.65642150180E+03  0.69299427792E+03  0.46999998093E+01 0.  1.
       -5    1    3    3    0  502 -0.17875747352E+02  0.22138258482E+03 -0.62632184186E+03  0.66455318132E+03  0.46999998093E+01 0. -1.
</event>
<event>
 5   0  0.8365016E-04  0.1513107E+04  0.7818609E-02  0.8875783E-01
        1   -1    0    0  501    0  0.00000000000E+00  0.00000000000E+00  0.55601563168E+03  0.55601563170E+03  0.50400001928E-02 0. -1.
       -1   -1    0    0    0  501  0.00000000000E+00  0.00000000000E+00 -0.10294191688E+04  0.10294191688E+04  0.50400001928E-02 0.  1.
    10030    2    1    2    0    0  0.00000000000E+00  0.00000000000E+00 -0.47340353708E+03  0.15854348005E+04  0.15131069353E+04 0.  0.
        3    1    3    3  502    0 -0.33410640239E+03 -0.73643931414E+02  0.47032910642E+03  0.58160123392E+03  0.10100000352E+00 0. -1.
       -3    1    3    3    0  502  0.33410640239E+03  0.73643931414E+02 -0.94373264350E+03  0.10038335666E+04  0.10100000352E+00 0.  1.
</event>
<event>
 5   0  0.5603875E-04  0.1490790E+04  0.7818609E-02  0.8890600E-01
        4   -1    0    0  501    0  0.00000000000E+00  0.00000000000E+00  0.11023364354E+04  0.11023371669E+04  0.12699999809E+01 0. -1.
       -4   -1    0    0    0  501  0.00000000000E+00  0.00000000000E+00 -0.50403137466E+03  0.50403297466E+03  0.12699999809E+01 0.  1.
    10030    2    1    2    0    0  0.00000000000E+00  0.00000000000E+00  0.59830506070E+03  0.16063701416E+04  0.14907904233E+04 0.  0.
        4    1    3    3  502    0 -0.36028886990E+02  0.81120790558E+02  0.10966214720E+04  0.11002085844E+04  0.12699999809E+01 0. -1.
       -4    1    3    3    0  502  0.36028886990E+02 -0.81120790558E+02 -0.49831641130E+03  0.50616155724E+03  0.12699999809E+01 0.  1.
</event>
<event>
 5   0  0.8306301E-04  0.1507187E+04  0.7818609E-02  0.8879688E-01
        1   -1    0    0  501    0  0.00000000000E+00  0.00000000000E+00  0.92197249180E+03  0.92197249182E+03  0.50400001928E-02 0. -1.
       -1   -1    0    0    0  501  0.00000000000E+00  0.00000000000E+00 -0.61596508650E+03  0.61596508652E+03  0.50400001928E-02 0.  1.
    10030    2    1    2    0    0  0.00000000000E+00  0.00000000000E+00  0.30600740530E+03  0.15379375783E+04  0.15071866052E+04 0.  0.
        4    1    3    3  502    0  0.52842479184E+03 -0.53289939593E+03  0.22286014500E+03  0.78286830562E+03  0.12699999809E+01 0.  1.
       -4    1    3    3    0  502 -0.52842479184E+03  0.53289939593E+03  0.83147260301E+02  0.75506927272E+03  0.12699999809E+01 0. -1.
</event>
<event>
 5   0  0.8191876E-04  0.1615727E+04  0.7818609E-02  0.8810944E-01
       -1   -1    0    0    0  501  0.00000000000E+00  0.00000000000E+00  0.56785616350E+03  0.56785616353E+03  0.50400001928E-02 0.  1.
        1   -1    0    0  501    0  0.00000000000E+00  0.00000000000E+00 -0.11493108068E+04  0.11493108068E+04  0.50400001928E-02 0. -1.
    10030    2    1    2    0    0  0.00000000000E+00  0.00000000000E+00 -0.58145464332E+03  0.17171669704E+04  0.16157267411E+04 0.  0.
        2    1    3    3  502    0 -0.56184540609E+03  0.10117845671E+03 -0.89822277371E+03  0.10642891955E+04  0.25500000920E-02 0. -1.
       -2    1    3    3    0  502  0.56184540609E+03 -0.10117845671E+03  0.31676813040E+03  0.65287777485E+03  0.25500000920E-02 0.  1.
</event>
<event>
 5   0  0.7870317E-04  0.9226244E+03  0.7818609E-02  0.9397733E-01
        1   -1    0    0  501    0  0.00000000000E+00  0.00000000000E+00  0.26431020891E+03  0.26431020896E+03  0.50400001928E-02 0. -1.
       -1   -1    0    0    0  501  0.00000000000E+00  0.00000000000E+00 -0.80514848721E+03  0.80514848722E+03  0.50400001928E-02 0.  1.
    10030    2    1    2    0    0  0.00000000000E+00  0.00000000000E+00 -0.54083827830E+03  0.10694586962E+04  0.92262444124E+03 0.  0.
        1    1    3    3  502    0  0.33591729304E+03 -0.25937801338E+03 -0.48000261472E+03  0.64071826238E+03  0.50400001928E-02 0.  1.
       -1    1    3    3    0  502 -0.33591729304E+03  0.25937801338E+03 -0.60835663577E+02  0.42874043380E+03  0.50400001928E-02 0. -1.
</event>
<event>
 5   0  0.8058234E-04  0.1280718E+04  0.7818609E-02  0.9044998E-01
        1   -1    0    0  501    0  0.00000000000E+00  0.00000000000E+00  0.17221465542E+04  0.17221465542E+04  0.50400001928E-02 0. -1.
       -1   -1    0    0    0  501  0.00000000000E+00  0.00000000000E+00 -0.23810945408E+03  0.23810945413E+03  0.50400001928E-02 0.  1.
    10030    2    1    2    0    0  0.00000000000E+00  0.00000000000E+00  0.14840371001E+04  0.19602560084E+04  0.12807175738E+04 0.  0.
        5    1    3    3  502    0 -0.21008500782E+03  0.31215455618E+03  0.15350677190E+04  0.15805161085E+04  0.46999998093E+01 0. -1.
       -5    1    3    3    0  502  0.21008500782E+03 -0.31215455618E+03 -0.51030618853E+02  0.37973989982E+03  0.46999998093E+01 0.  1.
</event>
<event>
 5   0  0.1484056E-03  0.1544311E+04  0.7818609E-02  0.8855510E-01
       -2   -1    0    0    0  501  0.00000000000E+00  0.00000000000E+00  0.39448192566E+03  0.39448192567E+03  0.25500000920E-02 0. -1.
        2   -1    0    0  501    0  0.00000000000E+00  0.00000000000E+00 -0.15114104864E+04  0.15114104864E+04  0.25500000920E-02 0.  1.
    10030    2    1    2    0    0  0.00000000000E+00  0.00000000000E+00 -0.11169285607E+04  0.19058924121E+04  0.15443110038E+04 0.  0.
        5    1    3    3  502    0  0.14072246799E+03  0.51007303510E+03 -0.12524675555E+04  0.13596596565E+04  0.46999998093E+01 0.  1.
       -5    1    3    3    0  502 -0.14072246799E+03 -0.51007303510E+03  0.13553899472E+03  0.54623275554E+03  0.46999998093E+01 0. -1.
</event>
<event>
 5   0  0.1500956E-03  0.1488085E+04  0.7818609E-02  0.8892415E-01
       -2   -1    0    0    0  501  0.00000000000E+00  0.00000000000E+00  0.22669636629E+03  0.22669636630E+03  0.25500000920E-02 0.  1.
        2   -1    0    0  501    0  0.00000000000E+00  0.00000000000E+00 -0.24420291903E+04  0.24420291903E+04  0.25500000920E-02 0. -1.
    10030    2    1    2    0    0  0.00000000000E+00  0.00000000000E+00 -0.22153328241E+04  0.26687255566E+04  0.14880848683E+04 0.  0.
        4    1    3    3  502    0 -0.85506871147E+02  0.35257251126E+03  0.57321702260E+02  0.36729578157E+03  0.12699999809E+01 0.  1.
       -4    1    3    3    0  502  0.85506871147E+02 -0.35257251126E+03 -0.22726545263E+04  0.23014297751E+04  0.12699999809E+01 0. -1.
</event>
<event>
 5   0  0.8058234E-04  0.1408772E+04  0.7818609E-02  0.8947494E-01
       -1   -1    0    0    0  501  0.00000000000E+00  0.00000000000E+00  0.39985548790E+03  0.39985548793E+03  0.50400001928E-02 0.  1.
        1   -1    0    0  501    0  0.00000000000E+00  0.00000000000E+00 -0.12408468387E+04  0.12408468387E+04  0.50400001928E-02 0. -1.
    10030    2    1    2    0    0  0.00000000000E+00  0.00000000000E+00 -0.84099135081E+03  0.16407023266E+04  0.14087716893E+04 0.  0.
        5    1    3    3  502    0  0.16538302906E+03 -0.30559614830E+03  0.29307081609E+03  0.45459118491E+03  0.46999998093E+01 0.  1.
       -5    1    3    3    0  502 -0.16538302906E+03  0.30559614830E+03 -0.11340621669E+04  0.11861111417E+04  0.46999998093E+01 0. -1.
</event>
<event>
 5   0  0.5603875E-04  0.1493493E+04  0.7818609E-02  0.8888791E-01
       -3   -1    0    0    0  501  0.00000000000E+00  0.00000000000E+00  0.98571382125E+03  0.98571382642E+03  0.10100000352E+00 0.  1.
        3   -1    0    0  501    0  0.00000000000E+00  0.00000000000E+00 -0.56571232550E+03  0.56571233451E+03  0.10100000352E+00 0. -1.
    10030    2    1    2    0    0  0.00000000000E+00  0.00000000000E+00  0.42000149575E+03  0.15514261609E+04  0.14934931792E+04 0.  0.
        1    1    3    3  502    0 -0.28478367197E+03 -0.35859537299E+03 -0.40274294982E+03  0.60983134144E+03  0.50400001928E-02 0. -1.
       -1    1    3    3    0  502  0.28478367197E+03  0.35859537299E+03  0.82274444557E+03  0.94159481949E+03  0.50400001928E-02 0.  1.
</event>
<event>
 5   0  0.1511546E-03  0.1469636E+04  0.7818609E-02  0.8904900E-01
        2   -1    0    0  501    0  0.00000000000E+00  0.00000000000E+00  0.17675276263E+04  0.17675276263E+04  0.25500000920E-02 0.  1.
       -2   -1    0    0    0  501  0.00000000000E+00  0.00000000000E+00 -0.30548727101E+03  0.30548727102E+03  0.25500000920E-02 0. -1.
    10030    2    1    2    0    0  0.00000000000E+00  0.00000000000E+00  0.14620403553E+04  0.20730148973E+04  0.14696355889E+04 0.  0.
        1    1    3    3  502    0  0.65383254260E+03  0.18282258265E+03  0.11275770815E+04  0.13161881192E+04  0.50400001928E-02 0.  1.
       -1    1    3    3    0  502 -0.65383254260E+03 -0.18282258265E+03  0.33446327381E+03  0.75682677809E+03  0.50400001928E-02 0. -1.
</event>
<event>
 5   0  0.1500956E-03  0.1514280E+04  0.7818609E-02  0.8875012E-01
       -2   -1    0    0    0  501  0.00000000000E+00  0.00000000000E+00  0.69312667922E+03  0.69312667923E+03  0.25500000920E-02 0.  1.
        2   -1    0    0  501    0  0.00000000000E+00  0.00000000000E+00 -0.82706474516E+03  0.82706474516E+03  0.25500000920E-02 0. -1.
    10030    2    1    2    0    0  0.00000000000E+00  0.00000000000E+00 -0.13393806594E+03  0.15201914244E+04  0.15142795519E+04 0.  0.
        4    1    3    3  502    0 -0.49971855831E+03  0.56295001937E+03  0.14759276202E+02  0.75289495347E+03  0.12699999809E+01 0.  1.
       -4    1    3    3    0  502  0.49971855831E+03 -0.56295001937E+03 -0.14869734214E+03  0.76729647092E+03  0.12699999809E+01 0. -1.
</event>
<event>
 5   0  0.1500956E-03  0.1509109E+04  0.7818609E-02  0.8878418E-01
        2   -1    0    0  501    0  0.00000000000E+00  0.00000000000E+00  0.12358032673E+04  0.12358032673E+04  0.25500000920E-02 0. -1.
       -2   -1    0    0    0  501  0.00000000000E+00  0.00000000000E+00 -0.46071441537E+03  0.46071441538E+03  0.25500000920E-02 0.  1.
    10030    2    1    2    0    0  0.00000000000E+00  0.00000000000E+00  0.77508885190E+03  0.16965176827E+04  0.15091088494E+04 0.  0.
        4    1    3    3  502    0 -0.14077550504E+02  0.74243490762E+03  0.53813067726E+03  0.91705725459E+03  0.12699999809E+01 0. -1.
       -4    1    3    3    0  502  0.14077550504E+02 -0.74243490762E+03  0.23695817464E+03  0.77946042806E+03  0.12699999809E+01 0.  1.
</event>
<event>
 5   0  0.7870317E-04  0.1506811E+04  0.7818609E-02  0.8879936E-01
       -1   -1    0    0    0  501  0.00000000000E+00  0.00000000000E+00  0.64495477453E+03  0.64495477455E+03  0.50400001928E-02 0.  1.
        1   -1    0    0  501    0  0.00000000000E+00  0.00000000000E+00 -0.88009286620E+03  0.88009286622E+03  0.50400001928E-02 0. -1.
    10030    2    1    2    0    0  0.00000000000E+00  0.00000000000E+00 -0.23513809167E+03  0.15250476408E+04  0.15068113301E+04 0.  0.
        1    1    3    3  502    0 -0.25135912370E+03 -0.21198702997E+03 -0.80363738755E+03  0.86830464736E+03  0.50400001928E-02 0. -1.
       -1    1    3    3    0  502  0.25135912370E+03  0.21198702997E+03  0.56849929588E+03  0.65674299340E+03  0.50400001928E-02 0.  1.
</event>
<event>
 5   0  0.8365016E-04  0.1338249E+04  0.7818609E-02  0.8999771E-01
       -1   -1    0    0    0  501  0.00000000000E+00  0.00000000000E+00  0.18220925081E+03  0.18220925088E+03  0.50400001928E-02 0.  1.
        1   -1    0    0  501    0  0.00000000000E+00  0.00000000000E+00 -0.24572178649E+04  0.24572178649E+04  0.50400001928E-02 0. -1.
    10030    2    1    2    0    0  0.00000000000E+00  0.00000000000E+00 -0.22750086141E+04  0.26394271158E+04  0.13382493435E+04 0.  0.
        3    1    3    3  502    0 -0.17488479461E+03 -0.49085147366E+03 -0.19654186210E+04  0.20333200010E+04  0.10100000352E+00 0. -1.
       -3    1    3    3    0  502  0.17488479461E+03  0.49085147366E+03 -0.30958999315E+03  0.60610711483E+03  0.10100000352E+00 0.  1.
</event>
<event>
 5   0  0.8365016E-04  0.1490749E+04  0.7818609E-02  0.8890628E-01
       -1   -1    0    0    0  501  0.00000000000E+00  0.00000000000E+00  0.42286675779E+03  0.42286675782E+03  0.50400001928E-02 0.  1.
        1   -1    0    0  501    0  0.00000000000E+00  0.00000000000E+00 -0.13138493988E+04  0.13138493988E+04  0.50400001928E-02 0. -1.
    10030    2    1    2    0    0  0.00000000000E+00  0.00000000000E+00 -0.89098264105E+03  0.17367161567E+04  0.14907491211E+04 0.  0.
        3    1    3    3  502    0  0.39131205180E+03 -0.61616145909E+03 -0.26956865453E+03  0.77810496417E+03  0.10100000352E+00 0.  1.
       -3    1    3    3    0  502 -0.39131205180E+03  0.61616145909E+03 -0.62141398652E+03  0.95861119251E+03  0.10100000352E+00 0. -1.
</event>
<event>
 5   0  0.1500956E-03  0.1542313E+04  0.7818609E-02  0.8856793E-01
        2   -1    0    0  501    0  0.00000000000E+00  0.00000000000E+00  0.10713624361E+04  0.10713624361E+04  0.25500000920E-02 0. -1.
       -2   -1    0    0    0  501  0.00000000000E+00  0.00000000000E+00 -0.55507137554E+03  0.55507137554E+03  0.25500000920E-02 0.  1.
    10030    2    1    2    0    0  0.00000000000E+00  0.00000000000E+00  0.51629106055E+03  0.16264338116E+04  0.15423133548E+04 0.  0.
        4    1    3    3  502    0  0.41229656334E+03 -0.65154428111E+03  0.27239557848E+03  0.81774040530E+03  0.12699999809E+01 0. -1.
       -4    1    3    3    0  502 -0.41229656334E+03  0.65154428111E+03  0.24389548208E+03  0.80869340634E+03  0.12699999809E+01 0.  1.
</event>
<event>
 5   0  0.8306301E-04  0.1480504E+04  0.7818609E-02  0.8897522E-01
        1   -1    0    0  501    0  0.00000000000E+00  0.00000000000E+00  0.84241177137E+03  0.84241177139E+03  0.50400001928E-02 0.  1.
       -1   -1    0    0    0  501  0.00000000000E+00  0.00000000000E+00 -0.65048113116E+03  0.65048113118E+03  0.50400001928E-02 0. -1.
    10030    2    1    2    0    0  0.00000000000E+00  0.00000000000E+00  0.19193064021E+03  0.14928929026E+04  0.14805039169E+04 0.  0.
        4    1    3    3  502    0 -0.11014276778E+03  0.71049160776E+03 -0.81695272877E+02  0.72360589032E+03  0.12699999809E+01 0. -1.
       -4    1    3    3    0  502  0.11014276778E+03 -0.71049160776E+03  0.27362591309E+03  0.76928701225E+03  0.12699999809E+01 0.  1.
</event>
<event>
 5   0  0.1552067E-03  0.1475854E+04  0.7818609E-02  0.8900671E-01
        2   -1    0    0  501    0  0.00000000000E+00  0.00000000000E+00  0.11998612153E+04  0.11998612153E+04  0.25500000920E-02 0.  1.
       -2   -1    0    0    0  501  0.00000000000E+00  0.00000000000E+00 -0.45383240525E+03  0.45383240526E+03  0.25500000920E-02 0. -1.
    10030    2    1    2    0    0  0.00000000000E+00  0.00000000000E+00  0.74602881003E+03  0.16536936205E+04  0.14758535175E+04 0.  0.
        3    1    3    3  502    0  0.11592853139E+03 -0.41438054085E+03 -0.29871121216E+03  0.52381204214E+03  0.10100000352E+00 0. -1.
       -3    1    3    3    0  502 -0.11592853139E+03  0.41438054085E+03  0.10447400222E+04  0.11298815784E+04  0.10100000352E+00 0.  1.
</event>
<event>
 5   0  0.8058234E-04  0.1503053E+04  0.7818609E-02  0.8882425E-01
        1   -1    0    0  501    0  0.00000000000E+00  0.00000000000E+00  0.11441654585E+04  0.11441654586E+04  0.50400001928E-02 0. -1.
       -1   -1    0    0    0  501  0.00000000000E+00  0.00000000000E+00 -0.49362792610E+03  0.49362792612E+03  0.50400001928E-02 0.  1.
    10030    2    1    2    0    0  0.00000000000E+00  0.00000000000E+00  0.65053753244E+03  0.16377933847E+04  0.15030529231E+04 0.  0.
        5    1    3    3  502    0  0.17157905704E+02 -0.21489616389E+03 -0.45919596698E+03  0.50730442643E+03  0.46999998093E+01 0.  1.
       -5    1    3    3    0  502 -0.17157905704E+02  0.21489616389E+03  0.11097334994E+04  0.11304889582E+04  0.46999998093E+01 0. -1.
</event>
<event>
 5   0  0.1552067E-03  0.1452635E+04  0.7818609E-02  0.8916576E-01
       -2   -1    0    0    0  501  0.00000000000E+00  0.00000000000E+00  0.11988853989E+04  0.11988853989E+04  0.25500000920E-02 0. -1.
        2   -1    0    0  501    0  0.00000000000E+00  0.00000000000E+00 -0.44002306527E+03  0.44002306528E+03  0.25500000920E-02 0.  1.
    10030    2    1    2    0    0  0.00000000000E+00  0.00000000000E+00  0.75886233365E+03  0.16389084642E+04  0.14526351616E+04 0.  0.
        3    1    3    3  502    0 -0.45245415068E+03 -0.10064757863E+03  0.10103258904E+04  0.11115768568E+04  0.10100000352E+00 0. -1.
       -3    1    3    3    0  502  0.45245415068E+03  0.10064757863E+03 -0.25146355678E+03  0.52733160738E+03  0.10100000352E+00 0.  1.
</event>
<event>
 5   0  0.1511546E-03  0.1521456E+04  0.7818609E-02  0.8870309E-01
       -2   -1    0    0    0  501  0.00000000000E+00  0.00000000000E+00  0.13195917449E+04  0.13195917449E+04  0.25500000920E-02 0.  1.
        2   -1    0    0  501    0  0.00000000000E+00  0.00000000000E+00 -0.43854981516E+03  0.43854981516E+03  0.25500000920E-02 0. -1.
    10030    2    1    2    0    0  0.00000000000E+00  0.00000000000E+00  0.88104192975E+03  0.17581415601E+04  0.15214555081E+04 0.  0.
        1    1    3    3  502    0 -0.33252682688E+02  0.62930591767E+03  0.93292619124E+03  0.11258254559E+04  0.50400001928E-02 0.  1.
       -1    1    3    3    0  502  0.33252682688E+02 -0.62930591767E+03 -0.51884261492E+02  0.63231610413E+03  0.50400001928E-02 0. -1.
</event>
<event>
 5   0  0.8058234E-04  0.1504938E+04  0.7818609E-02  0.8881176E-01
       -1   -1    0    0    0  501  0.00000000000E+00  0.00000000000E+00  0.26550788692E+03  0.26550788697E+03  0.50400001928E-02 0. -1.
        1   -1    0    0  501    0  0.00000000000E+00  0.00000000000E+00 -0.21325530111E+04  0.21325530111E+04  0.50400001928E-02 0.  1.
    10030    2    1    2    0    0  0.00000000000E+00  0.00000000000E+00 -0.18670451242E+04  0.23980608980E+04  0.15049380635E+04 0.  0.
        5    1    3    3  502    0  0.80849924023E+02  0.60771110770E+03 -0.16287139644E+04  0.17402818072E+04  0.46999998093E+01 0.  1.
       -5    1    3    3    0  502 -0.80849924023E+02 -0.60771110770E+03 -0.23833115975E+03  0.65777909084E+03  0.46999998093E+01 0. -1.
</event>
<event>
 5   0  0.8191876E-04  0.1470705E+04  0.7818609E-02  0.8904171E-01
        1   -1    0    0  501    0  0.00000000000E+00  0.00000000000E+00  0.73815284960E+03  0.73815284961E+03  0.50400001928E-02 0.  1.
       -1   -1    0    0    0  501  0.00000000000E+00  0.00000000000E+00 -0.73256318757E+03  0.73256318759E+03  0.50400001928E-02 0. -1.
    10030    2    1    2    0    0  0.00000000000E+00  0.00000000000E+00  0.55896620236E+01  0.14707160372E+04  0.14707054150E+04 0.  0.
        2    1    3    3  502    0 -0.18784496308E+03 -0.74481532800E+02 -0.70425367991E+03  0.73267078183E+03  0.25500000920E-02 0. -1.
       -2    1    3    3    0  502  0.18784496308E+03  0.74481532800E+02  0.70984334193E+03  0.73804525537E+03  0.25500000920E-02 0.  1.
</event>
<event>
 5   0  0.1526126E-03  0.1456063E+04  0.7818609E-02  0.8914208E-01
       -2   -1    0    0    0  501  0.00000000000E+00  0.00000000000E+00  0.32488971609E+03  0.32488971610E+03  0.25500000920E-02 0. -1.
        2   -1    0    0  501    0  0.00000000000E+00  0.00000000000E+00 -0.16314154829E+04  0.16314154829E+04  0.25500000920E-02 0.  1.
    10030    2    1    2    0    0  0.00000000000E+00  0.00000000000E+00 -0.13065257668E+04  0.19563051990E+04  0.14560633408E+04 0.  0.
        2    1    3    3  502    0 -0.57280599372E+02 -0.72018657476E+03 -0.77403627267E+03  0.10588115606E+04  0.25500000920E-02 0.  1.
       -2    1    3    3    0  502  0.57280599372E+02  0.72018657476E+03 -0.53248949411E+03  0.89749363834E+03  0.25500000920E-02 0. -1.
</event>
<event>
 5   0  0.1526126E-03  0.1476137E+04  0.7818609E-02  0.8900478E-01
        2   -1    0    0  501    0  0.00000000000E+00  0.00000000000E+00  0.42071029999E+03  0.42071030000E+03  0.25500000920E-02 0.  1.
       -2   -1    0    0    0  501  0.00000000000E+00  0.00000000000E+00 -0.12948223070E+04  0.12948223070E+04  0.25500000920E-02 0. -1.
    10030    2    1    2    0    0  0.00000000000E+00  0.00000000000E+00 -0.87411200701E+03  0.17155326070E+04  0.14761369601E+04 0.  0.
        2    1    3    3  502    0  0.72228808835E+03  0.15134461494E+03 -0.45079754563E+03  0.86476800484E+03  0.25500000920E-02 0.  1.
       -2    1    3    3    0  502 -0.72228808835E+03 -0.15134461494E+03 -0.42331446138E+03  0.85076460215E+03  0.25500000920E-02 0. -1.
</event>
<event>
 5   0  0.8365016E-04  0.1433234E+04  0.7818609E-02  0.8930107E-01
       -1   -1    0    0    0  501  0.00000000000E+00  0.00000000000E+00  0.29884812716E+03  0.29884812720E+03  0.50400001928E-02 0.  1.
        1   -1    0    0  501    0  0.00000000000E+00  0.00000000000E+00 -0.17183970144E+04  0.17183970144E+04  0.50400001928E-02 0. -1.
    10030    2    1    2    0    0  0.00000000000E+00  0.00000000000E+00 -0.14195488873E+04  0.20172451416E+04  0.14332337277E+04 0.  0.
        3    1    3    3  502    0 -0.35881278495E+03  0.44149003931E+03 -0.96463280394E+02  0.57703140653E+03  0.10100000352E+00 0.  1.
       -3    1    3    3    0  502  0.35881278495E+03 -0.44149003931E+03 -0.13230856069E+04  0.14402137351E+04  0.10100000352E+00 0. -1.
</event>
<event>
 5   0  0.8191876E-04  0.1479051E+04  0.7818609E-02  0.8898504E-01
       -1   -1    0    0    0  501  0.00000000000E+00  0.00000000000E+00  0.65175432011E+03  0.65175432013E+03  0.50400001928E-02 0.  1.
        1   -1    0    0  501    0  0.00000000000E+00  0.00000000000E+00 -0.83911719853E+03  0.83911719855E+03  0.50400001928E-02 0. -1.
    10030    2    1    2    0    0  0.00000000000E+00  0.00000000000E+00 -0.18736287842E+03  0.14908715187E+04  0.14790513977E+04 0.  0.
        2    1    3    3  502    0 -0.47222109953E+03 -0.32370076567E+03 -0.56552848304E+03  0.80473437709E+03  0.25500000920E-02 0. -1.
       -2    1    3    3    0  502  0.47222109953E+03  0.32370076567E+03  0.37816560462E+03  0.68613714159E+03  0.25500000920E-02 0.  1.
</event>
<event>
 5   0  0.1511546E-03  0.1495584E+04  0.7818609E-02  0.8887395E-01
       -2   -1    0    0    0  501  0.00000000000E+00  0.00000000000E+00  0.23858310567E+03  0.23858310569E+03  0.25500000920E-02 0. -1.
        2   -1    0    0  501    0  0.00000000000E+00  0.00000000000E+00 -0.23438085828E+04  0.23438085828E+04  0.25500000920E-02 0.  1.
    10030    2    1    2    0    0  0.00000000000E+00  0.00000000000E+00 -0.21052254771E+04  0.25823916884E+04  0.14955843417E+04 0.  0.
        1    1    3    3  502    0 -0.94658658843E+02  0.68465608915E+03 -0.15454843535E+04  0.16929961929E+04  0.50400001928E-02 0.  1.
       -1    1    3    3    0  502  0.94658658843E+02 -0.68465608915E+03 -0.55974112358E+03  0.88939549558E+03  0.50400001928E-02 0. -1.
</event>
<event>
 5   0  0.8306301E-04  0.1503934E+04  0.7818609E-02  0.8881841E-01
        1   -1    0    0  501    0  0.00000000000E+00  0.00000000000E+00  0.70026513632E+03  0.70026513634E+03  0.50400001928E-02 0.  1.
       -1   -1    0    0    0  501  0.00000000000E+00  0.00000000000E+00 -0.80748569434E+03  0.80748569436E+03  0.50400001928E-02 0. -1.
    10030    2    1    2    0    0  0.00000000000E+00  0.00000000000E+00 -0.10722055802E+03  0.15077508307E+04  0.15039336154E+04 0.  0.
        4    1    3    3  502    0 -0.74073238886E+03  0.10455230637E+03 -0.13020321167E+03  0.75932216213E+03  0.12699999809E+01 0. -1.
       -4    1    3    3    0  502  0.74073238886E+03 -0.10455230637E+03  0.22982653648E+02  0.74842866857E+03  0.12699999809E+01 0.  1.
</event>
<event>
 5   0  0.1511546E-03  0.1495565E+04  0.7818609E-02  0.8887407E-01
        2   -1    0    0  501    0  0.00000000000E+00  0.00000000000E+00  0.16993369481E+04  0.16993369481E+04  0.25500000920E-02 0. -1.
       -2   -1    0    0    0  501  0.00000000000E+00  0.00000000000E+00 -0.32905709823E+03  0.32905709824E+03  0.25500000920E-02 0.  1.
    10030    2    1    2    0    0  0.00000000000E+00  0.00000000000E+00  0.13702798499E+04  0.20283940464E+04  0.14955652912E+04 0.  0.
        1    1    3    3  502    0 -0.71017406760E+03  0.23235304490E+03  0.72453587717E+03  0.10408109248E+04  0.50400001928E-02 0.  1.
       -1    1    3    3    0  502  0.71017406760E+03 -0.23235304490E+03  0.64574397274E+03  0.98758312163E+03  0.50400001928E-02 0. -1.
</event>
<event>
 5   0  0.7870317E-04  0.1517301E+04  0.7818609E-02  0.8873029E-01
       -1   -1    0    0    0  501  0.00000000000E+00  0.00000000000E+00  0.37024985371E+03  0.37024985374E+03  0.50400001928E-02 0.  1.
        1   -1    0    0  501    0  0.00000000000E+00  0.00000000000E+00 -0.15544927641E+04  0.15544927641E+04  0.50400001928E-02 0. -1.
    10030    2    1    2    0    0  0.00000000000E+00  0.00000000000E+00 -0.11842429103E+04  0.19247426178E+04  0.15173011811E+04 0.  0.
        1    1    3    3  502    0  0.65811672468E+01  0.75835532267E+03 -0.61763788298E+03  0.97807088787E+03  0.50400001928E-02 0.  1.
       -1    1    3    3    0  502 -0.65811672468E+01 -0.75835532267E+03 -0.56660502736E+03  0.94667172993E+03  0.50400001928E-02 0. -1.
</event>
<event>
 5   0  0.1500956E-03  0.1507469E+04  0.7818609E-02  0.8879502E-01
       -2   -1    0    0    0  501  0.00000000000E+00  0.00000000000E+00  0.27738573151E+03  0.27738573152E+03  0.25500000920E-02 0. -1.
        2   -1    0    0  501    0  0.00000000000E+00  0.00000000000E+00 -0.20481059505E+04  0.20481059505E+04  0.25500000920E-02 0.  1.
    10030    2    1    2    0    0  0.00000000000E+00  0.00000000000E+00 -0.17707202190E+04  0.23254916820E+04  0.15074685633E+04 0.  0.
        4    1    3    3  502    0 -0.36873452449E+03  0.69503394517E+02  0.12306130676E+03  0.39489437768E+03  0.12699999809E+01 0. -1.
       -4    1    3    3    0  502  0.36873452449E+03 -0.69503394517E+02 -0.18937815257E+04  0.19305973043E+04  0.12699999809E+01 0.  1.
</event>
<event>
 5   0  0.5603875E-04  0.1495074E+04  0.7818609E-02  0.8887735E-01
        3   -1    0    0  501    0  0.00000000000E+00  0.00000000000E+00  0.14789572394E+04  0.14789572429E+04  0.10100000352E+00 0.  1.
       -3   -1    0    0    0  501  0.00000000000E+00  0.00000000000E+00 -0.37784177121E+03  0.37784178471E+03  0.10100000352E+00 0. -1.
    10030    2    1    2    0    0  0.00000000000E+00  0.00000000000E+00  0.11011154682E+04  0.18567990276E+04  0.14950743642E+04 0.  0.
        4    1    3    3  502    0  0.21193531359E+03 -0.33250397740E+02  0.14399043508E+04  0.14557981723E+04  0.12699999809E+01 0.  1.
       -4    1    3    3    0  502 -0.21193531359E+03  0.33250397740E+02 -0.33878888258E+03  0.40100085530E+03  0.12699999809E+01 0. -1.
</event>
<event>
 5   0  0.1552067E-03  0.1513961E+04  0.7818609E-02  0.8875222E-01
        2   -1    0    0  501    0  0.00000000000E+00  0.00000000000E+00  0.59084828731E+03  0.59084828732E+03  0.25500000920E-02 0. -1.
       -2   -1    0    0    0  501  0.00000000000E+00  0.00000000000E+00 -0.96982544143E+03  0.96982544143E+03  0.25500000920E-02 0.  1.
    10030    2    1    2    0    0  0.00000000000E+00  0.00000000000E+00 -0.37897715412E+03  0.15606737288E+04  0.15139612955E+04 0.  0.
        3    1    3    3  502    0  0.40465643381E+03  0.53260750330E+03  0.17585023557E+03  0.69162193252E+03  0.10100000352E+00 0. -1.
       -3    1    3    3    0  502 -0.40465643381E+03 -0.53260750330E+03 -0.55482738968E+03  0.86905179623E+03  0.10100000352E+00 0.  1.
</event>
<event>
 5   0  0.1526126E-03  0.1080463E+04  0.7818609E-02  0.9224446E-01
       -2   -1    0    0    0  501  0.00000000000E+00  0.00000000000E+00  0.24185842146E+03  0.24185842147E+03  0.25500000920E-02 0. -1.
        2   -1    0    0  501    0  0.00000000000E+00  0.00000000000E+00 -0.12066975319E+04  0.12066975319E+04  0.25500000920E-02 0.  1.
    10030    2    1    2    0    0  0.00000000000E+00  0.00000000000E+00 -0.96483911046E+03  0.14485559534E+04  0.10804627902E+04 0.  0.
        2    1    3    3  502    0 -0.32849599028E+03 -0.36973786209E+03 -0.19104339962E+03  0.53020117205E+03  0.25500000920E-02 0. -1.
       -2    1    3    3    0  502  0.32849599028E+03  0.36973786209E+03 -0.77379571084E+03  0.91835478135E+03  0.25500000920E-02 0.  1.
</event>
<event>
 5   0  0.1511546E-03  0.1527993E+04  0.7818609E-02  0.8866048E-01
        2   -1    0    0  501    0  0.00000000000E+00  0.00000000000E+00  0.85879165508E+03  0.85879165508E+03  0.25500000920E-02 0.  1.
       -2   -1    0    0    0  501  0.00000000000E+00  0.00000000000E+00 -0.67966546918E+03  0.67966546919E+03  0.25500000920E-02 0. -1.
    10030    2    1    2    0    0  0.00000000000E+00  0.00000000000E+00  0.17912618589E+03  0.15384571243E+04  0.15279934989E+04 0.  0.
        1    1    3    3  502    0 -0.36025539410E+03 -0.39694831636E+03  0.63766130201E+03  0.83304492733E+03  0.50400001928E-02 0.  1.
       -1    1    3    3    0  502  0.36025539410E+03  0.39694831636E+03 -0.45853511612E+03  0.70541219693E+03  0.50400001928E-02 0. -1.
</event>
<event>
 5   0  0.8306301E-04  0.1518586E+04  0.7818609E-02  0.8872187E-01
       -1   -1    0    0    0  501  0.00000000000E+00  0.00000000000E+00  0.50631640082E+03  0.50631640084E+03  0.50400001928E-02 0. -1.
        1   -1    0    0  501    0  0.00000000000E+00  0.00000000000E+00 -0.11386666324E+04  0.11386666324E+04  0.50400001928E-02 0.  1.
    10030    2    1    2    0    0  0.00000000000E+00  0.00000000000E+00 -0.63235023156E+03  0.16449830332E+04  0.15185856460E+04 0.  0.
        4    1    3    3  502    0 -0.31117911797E+03 -0.61976312782E+03 -0.65107689839E+03  0.95123157989E+03  0.12699999809E+01 0.  1.
       -4    1    3    3    0  502  0.31117911797E+03  0.61976312782E+03  0.18726666828E+02  0.69375145334E+03  0.12699999809E+01 0. -1.
</event>
<event>
 5   0  0.1526126E-03  0.1635763E+04  0.7818609E-02  0.8798873E-01
       -2   -1    0    0    0  501  0.00000000000E+00  0.00000000000E+00  0.56964594231E+03  0.56964594232E+03  0.25500000920E-02 0. -1.
        2   -1    0    0  501    0  0.00000000000E+00  0.00000000000E+00 -0.11742917384E+04  0.11742917384E+04  0.25500000920E-02 0.  1.
    10030    2    1    2    0    0  0.00000000000E+00  0.00000000000E+00 -0.60464579607E+03  0.17439376807E+04  0.16357634595E+04 0.  0.
        2    1    3    3  502    0 -0.81286021104E+03  0.66503456318E+02 -0.23689606614E+03  0.84928450978E+03  0.25500000920E-02 0. -1.
       -2    1    3    3    0  502  0.81286021104E+03 -0.66503456318E+02 -0.36774972994E+03  0.89465317093E+03  0.25500000920E-02 0.  1.
</event>
<event>
 5   0  0.8365016E-04  0.1468843E+04  0.7818609E-02  0.8905441E-01
       -1   -1    0    0    0  501  0.00000000000E+00  0.00000000000E+00  0.31861580860E+03  0.31861580864E+03  0.50400001928E-02 0. -1.
        1   -1    0    0  501    0  0.00000000000E+00  0.00000000000E+00 -0.16928686406E+04  0.16928686406E+04  0.50400001928E-02 0.  1.
    10030    2    1    2    0    0  0.00000000000E+00  0.00000000000E+00 -0.13742528320E+04  0.20114844492E+04  0.14688426884E+04 0.  0.
        3    1    3    3  502    0 -0.81610367434E+02  0.22471020332E+03 -0.16380900313E+04  0.16554437135E+04  0.10100000352E+00 0.  1.
       -3    1    3    3    0  502  0.81610367434E+02 -0.22471020332E+03  0.26383719935E+03  0.35604073575E+03  0.10100000352E+00 0. -1.
</event>
<event>
 5   0  0.8306301E-04  0.1497290E+04  0.7818609E-02  0.8886257E-01
        1   -1    0    0  501    0  0.00000000000E+00  0.00000000000E+00  0.14072919760E+04  0.14072919760E+04  0.50400001928E-02 0.  1.
       -1   -1    0    0    0  501  0.00000000000E+00  0.00000000000E+00 -0.39826087597E+03  0.39826087600E+03  0.50400001928E-02 0. -1.
    10030    2    1    2    0    0  0.00000000000E+00  0.00000000000E+00  0.10090311000E+04  0.18055528520E+04  0.14972899988E+04 0.  0.
        4    1    3    3  502    0 -0.20544769307E+03  0.45027216692E+03 -0.17283511286E+03  0.52423980012E+03  0.12699999809E+01 0. -1.
       -4    1    3    3    0  502  0.20544769307E+03 -0.45027216692E+03  0.11818662128E+04  0.12813130519E+04  0.12699999809E+01 0.  1.
</event>
<event>
 5   0  0.8191876E-04  0.1495571E+04  0.7818609E-02  0.8887404E-01
       -1   -1    0    0    0  501  0.00000000000E+00  0.00000000000E+00  0.45122543972E+03  0.45122543975E+03  0.50400001928E-02 0.  1.
        1   -1    0    0  501    0  0.00000000000E+00  0.00000000000E+00 -0.12392541363E+04  0.12392541364E+04  0.50400001928E-02 0. -1.
    10030    2    1    2    0    0  0.00000000000E+00  0.00000000000E+00 -0.78802869662E+03  0.16904795761E+04  0.14955707842E+04 0.  0.
        2    1    3    3  502    0  0.20846100600E+03  0.53496648497E+03  0.14752512856E+03  0.59279743136E+03  0.25500000920E-02 0.  1.
       -2    1    3    3    0  502 -0.20846100600E+03 -0.53496648497E+03 -0.93555382518E+03  0.10976821447E+04  0.25500000920E-02 0. -1.
</event>
<event>
 5   0  0.8058234E-04  0.1492848E+04  0.7818609E-02  0.8889223E-01
       -1   -1    0    0    0  501  0.00000000000E+00  0.00000000000E+00  0.66446961838E+03  0.66446961840E+03  0.50400001928E-02 0.  1.
        1   -1    0    0  501    0  0.00000000000E+00  0.00000000000E+00 -0.83848695579E+03  0.83848695581E+03  0.50400001928E-02 0. -1.
    10030    2    1    2    0    0  0.00000000000E+00  0.00000000000E+00 -0.17401733741E+03  0.15029565742E+04  0.14928484284E+04 0.  0.
        5    1    3    3  502    0 -0.66423537293E+03  0.33627841555E+03 -0.14061593373E+03  0.75768511549E+03  0.46999998093E+01 0.  1.
       -5    1    3    3    0  502  0.66423537293E+03 -0.33627841555E+03 -0.33401403679E+02  0.74527145872E+03  0.46999998093E+01 0. -1.
</event>
<event>
 5   0  0.1552067E-03  0.1500127E+04  0.7818609E-02  0.8884368E-01
        2   -1    0    0  501    0  0.00000000000E+00  0.00000000000E+00  0.11464761970E+04  0.11464761970E+04  0.25500000920E-02 0.  1.
       -2   -1    0    0    0  501  0.00000000000E+00  0.00000000000E+00 -0.49071703666E+03  0.49071703667E+03  0.25500000920E-02 0. -1.
    10030    2    1    2    0    0  0.00000000000E+00  0.00000000000E+00  0.65575916031E+03  0.16371932337E+04  0.15001271973E+04 0.  0.
        3    1    3    3  502    0  0.59196772416E+03  0.12641359275E+03  0.81128266130E+03  0.10122182322E+04  0.10100000352E+00 0. -1.
       -3    1    3    3    0  502 -0.59196772416E+03 -0.12641359275E+03 -0.15552350098E+03  0.62497500145E+03  0.10100000352E+00 0.  1.
</event>
<event>
 5   0  0.1500956E-03  0.1499464E+04  0.7818609E-02  0.8884810E-01
        2   -1    0    0  501    0  0.00000000000E+00  0.00000000000E+00  0.45288762814E+03  0.45288762815E+03  0.25500000920E-02 0. -1.
       -2   -1    0    0    0  501  0.00000000000E+00  0.00000000000E+00 -0.12411419010E+04  0.12411419010E+04  0.25500000920E-02 0.  1.
    10030    2    1    2    0    0  0.00000000000E+00  0.00000000000E+00 -0.78825427286E+03  0.16940295291E+04  0.14994636531E+04 0.  0.
        4    1    3    3  502    0  0.55865229510E+02  0.74460262381E+02  0.44633229026E+03  0.45593791328E+03  0.12699999809E+01 0. -1.
       -4    1    3    3    0  502 -0.55865229510E+02 -0.74460262381E+02 -0.12345865631E+04  0.12380916159E+04  0.12699999809E+01 0.  1.
</event>
<event>
 5   0  0.1484056E-03  0.1499768E+04  0.7818609E-02  0.8884607E-01
       -2   -1    0    0    0  501  0.00000000000E+00  0.00000000000E+00  0.49248389151E+03  0.49248389151E+03  0.25500000920E-02 0. -1.
        2   -1    0    0  501    0  0.00000000000E+00  0.00000000000E+00 -0.11418166293E+04  0.11418166293E+04  0.25500000920E-02 0.  1.
    10030    2    1    2    0    0  0.00000000000E+00  0.00000000000E+00 -0.64933273777E+03  0.16343005208E+04  0.14997683781E+04 0.  0.
        5    1    3    3  502    0 -0.63066012476E+03 -0.35912289607E+03 -0.53027888950E+03  0.89884327783E+03  0.46999998093E+01 0.  1.
       -5    1    3    3    0  502  0.63066012476E+03  0.35912289607E+03 -0.11905384827E+03  0.73545724297E+03  0.46999998093E+01 0. -1.
</event>
<event>
 5   0  0.8191876E-04  0.1505786E+04  0.7818609E-02  0.8880614E-01
       -1   -1    0    0    0  501  0.00000000000E+00  0.00000000000E+00  0.61186251934E+03  0.61186251936E+03  0.50400001928E-02 0.  1.
        1   -1    0    0  501    0  0.00000000000E+00  0.00000000000E+00 -0.92643048901E+03  0.92643048903E+03  0.50400001928E-02 0. -1.
    10030    2    1    2    0    0  0.00000000000E+00  0.00000000000E+00 -0.31456796968E+03  0.15382930084E+04  0.15057862970E+04 0.  0.
        2    1    3    3  502    0  0.27629441783E+03  0.91092514637E+02 -0.86668951705E+03  0.91421396321E+03  0.25500000920E-02 0. -1.
       -2    1    3    3    0  502 -0.27629441783E+03 -0.91092514637E+02  0.55212154738E+03  0.62407904518E+03  0.25500000920E-02 0.  1.
</event>
<event>
 5   0  0.8191876E-04  0.1647501E+04  0.7818609E-02  0.8791886E-01
       -1   -1    0    0    0  501  0.00000000000E+00  0.00000000000E+00  0.42431449084E+03  0.42431449087E+03  0.50400001928E-02 0.  1.
        1   -1    0    0  501    0  0.00000000000E+00  0.00000000000E+00 -0.15992023907E+04  0.15992023907E+04  0.50400001928E-02 0. -1.
    10030    2    1    2    0    0  0.00000000000E+00  0.00000000000E+00 -0.11748878998E+04  0.20235168815E+04  0.16475008324E+04 0.  0.
        2    1    3    3  502    0  0.32208723655E+03 -0.13774710600E+03 -0.15031584886E+04  0.15434376874E+04  0.25500000920E-02 0. -1.
       -2    1    3    3    0  502 -0.32208723655E+03  0.13774710600E+03  0.32827058877E+03  0.48007919411E+03  0.25500000920E-02 0.  1.
</event>
<event>
 5   0  0.5603875E-04  0.1792076E+04  0.7818609E-02  0.8710525E-01
       -3   -1    0    0    0  501  0.00000000000E+00  0.00000000000E+00  0.97140977376E+03  0.97140977902E+03  0.10100000352E+00 0. -1.
        3   -1    0    0  501    0  0.00000000000E+00  0.00000000000E+00 -0.82651447888E+03  0.82651448505E+03  0.10100000352E+00 0.  1.
    10030    2    1    2    0    0  0.00000000000E+00  0.00000000000E+00  0.14489529489E+03  0.17979242641E+04  0.17920761738E+04 0.  0.
        3    1    3    3  502    0 -0.38295533465E+03 -0.15098908349E+03  0.87092911762E+03  0.96331201061E+03  0.10100000352E+00 0. -1.
       -3    1    3    3    0  502  0.38295533465E+03  0.15098908349E+03 -0.72603382273E+03  0.83461225345E+03  0.10100000352E+00 0.  1.
</event>
<event>
 5   0  0.5603875E-04  0.1471668E+04  0.7818609E-02  0.8903515E-01
        3   -1    0    0  501    0  0.00000000000E+00  0.00000000000E+00  0.72120084853E+03  0.72120085560E+03  0.10100000352E+00 0. -1.
       -3   -1    0    0    0  501  0.00000000000E+00  0.00000000000E+00 -0.75076442464E+03  0.75076443144E+03  0.10100000352E+00 0.  1.
    10030    2    1    2    0    0  0.00000000000E+00  0.00000000000E+00 -0.29563576116E+02  0.14719652870E+04  0.14716683734E+04 0.  0.
        4    1    3    3  502    0 -0.32380521500E+03  0.41967814052E+03 -0.52524813434E+03  0.74623506646E+03  0.12699999809E+01 0.  1.
       -4    1    3    3    0  502  0.32380521500E+03 -0.41967814052E+03  0.49568455823E+03  0.72573022057E+03  0.12699999809E+01 0. -1.
</event>
<event>
 5   0  0.8306301E-04  0.1488571E+04  0.7818609E-02  0.8892089E-01
       -1   -1    0    0    0  501  0.00000000000E+00  0.00000000000E+00  0.99933646283E+03  0.99933646284E+03  0.50400001928E-02 0.  1.
        1   -1    0    0  501    0  0.00000000000E+00  0.00000000000E+00 -0.55432835401E+03  0.55432835403E+03  0.50400001928E-02 0. -1.
    10030    2    1    2    0    0  0.00000000000E+00  0.00000000000E+00  0.44500810882E+03  0.15536648169E+04  0.14885705043E+04 0.  0.
        4    1    3    3  502    0 -0.28226026994E+03  0.10552111727E+03  0.93281798191E+03  0.98028392134E+03  0.12699999809E+01 0.  1.
       -4    1    3    3    0  502  0.28226026994E+03 -0.10552111727E+03 -0.48780987309E+03  0.57338089553E+03  0.12699999809E+01 0. -1.
</event>
<event>
 5   0  0.7870317E-04  0.9835714E+03  0.7818609E-02  0.9326749E-01
       -1   -1    0    0    0  501  0.00000000000E+00  0.00000000000E+00  0.30776607310E+03  0.30776607314E+03  0.50400001928E-02 0.  1.
        1   -1    0    0  501    0  0.00000000000E+00  0.00000000000E+00 -0.78583448701E+03  0.78583448703E+03  0.50400001928E-02 0. -1.
    10030    2    1    2    0    0  0.00000000000E+00  0.00000000000E+00 -0.47806841391E+03  0.10936005602E+04  0.98357143962E+03 0.  0.
        1    1    3    3  502    0  0.35993923816E+03 -0.31493716706E+03 -0.11171927787E+03  0.49114445068E+03  0.50400001928E-02 0.  1.
       -1    1    3    3    0  502 -0.35993923816E+03  0.31493716706E+03 -0.36634913605E+03  0.60245610950E+03  0.50400001928E-02 0. -1.
</event>
<event>
 5   0  0.1500956E-03  0.1499990E+04  0.7818609E-02  0.8884460E-01
       -2   -1    0    0    0  501  0.00000000000E+00  0.00000000000E+00  0.53362497847E+03  0.53362497848E+03  0.25500000920E-02 0.  1.
        2   -1    0    0  501    0  0.00000000000E+00  0.00000000000E+00 -0.10540969482E+04  0.10540969482E+04  0.25500000920E-02 0. -1.
    10030    2    1    2    0    0  0.00000000000E+00  0.00000000000E+00 -0.52047196969E+03  0.15877219266E+04  0.14999899483E+04 0.  0.
        4    1    3    3  502    0  0.17167837649E+03  0.46757072169E+03 -0.85374034182E+03  0.98841794242E+03  0.12699999809E+01 0. -1.
       -4    1    3    3    0  502 -0.17167837649E+03 -0.46757072169E+03  0.33326837213E+03  0.59930398422E+03  0.12699999809E+01 0.  1.
</event>
<event>
 5   0  0.1484056E-03  0.1366870E+04  0.7818609E-02  0.8978155E-01
       -2   -1    0    0    0  501  0.00000000000E+00  0.00000000000E+00  0.28218054366E+03  0.28218054368E+03  0.25500000920E-02 0. -1.
        2   -1    0    0  501    0  0.00000000000E+00  0.00000000000E+00 -0.16552641542E+04  0.16552641542E+04  0.25500000920E-02 0.  1.
    10030    2    1    2    0    0  0.00000000000E+00  0.00000000000E+00 -0.13730836105E+04  0.19374446978E+04  0.13668699118E+04 0.  0.
        5    1    3    3  502    0 -0.88172227848E+02  0.45359766749E+03  0.27168557355E+02  0.46290971714E+03  0.46999998093E+01 0. -1.
       -5    1    3    3    0  502  0.88172227848E+02 -0.45359766749E+03 -0.14002521678E+04  0.14745349807E+04  0.46999998093E+01 0.  1.
</event>
<event>
 5   0  0.8058234E-04  0.1480670E+04  0.7818609E-02  0.8897410E-01
        1   -1    0    0  501    0  0.00000000000E+00  0.00000000000E+00  0.18466964543E+04  0.18466964543E+04  0.50400001928E-02 0. -1.
       -1   -1    0    0    0  501  0.00000000000E+00  0.00000000000E+00 -0.29679795438E+03  0.29679795442E+03  0.50400001928E-02 0.  1.
    10030    2    1    2    0    0  0.00000000000E+00  0.00000000000E+00  0.15498984999E+04  0.21434944087E+04  0.14806697539E+04 0.  0.
        5    1    3    3  502    0 -0.41140333527E+03 -0.32510582370E+03  0.15315148277E+04  0.16187977818E+04  0.46999998093E+01 0. -1.
       -5    1    3    3    0  502  0.41140333527E+03  0.32510582370E+03  0.18383672187E+02  0.52469662690E+03  0.46999998093E+01 0.  1.
</event>
<event>
 5   0  0.1511546E-03  0.1495371E+04  0.7818609E-02  0.8887537E-01
        2   -1    0    0  501    0  0.00000000000E+00  0.00000000000E+00  0.15925768734E+04  0.15925768734E+04  0.25500000920E-02 0.  1.
       -2   -1    0    0    0  501  0.00000000000E+00  0.00000000000E+00 -0.35102462769E+03  0.35102462769E+03  0.25500000920E-02 0. -1.
    10030    2    1    2    0    0  0.00000000000E+00  0.00000000000E+00  0.12415522457E+04  0.19436015011E+04  0.14953711299E+04 0.  0.
        1    1    3    3  502    0 -0.13077350430E+03  0.55630768758E+03  0.12474282434E+04  0.13720995500E+04  0.50400001928E-02 0.  1.
       -1    1    3    3    0  502  0.13077350430E+03 -0.55630768758E+03 -0.58759977206E+01  0.57150195105E+03  0.50400001928E-02 0. -1.
</event>
<event>
 5   0  0.1526126E-03  0.1390397E+04  0.7818609E-02  0.8960799E-01
       -2   -1    0    0    0  501  0.00000000000E+00  0.00000000000E+00  0.24982265149E+03  0.24982265150E+03  0.25500000920E-02 0. -1.
        2   -1    0    0  501    0  0.00000000000E+00  0.00000000000E+00 -0.19345768171E+04  0.19345768171E+04  0.25500000920E-02 0.  1.
    10030    2    1    2    0    0  0.00000000000E+00  0.00000000000E+00 -0.16847541656E+04  0.21843994686E+04  0.13903972238E+04 0.  0.
        2    1    3    3  502    0 -0.46204623662E+03 -0.33191689711E+03 -0.14701052125E+04  0.15763454213E+04  0.25500000920E-02 0.  1.
       -2    1    3    3    0  502  0.46204623662E+03  0.33191689711E+03 -0.21464895308E+03  0.60805404729E+03  0.25500000920E-02 0. -1.
</event>
<event>
 5   0  0.1526126E-03  0.1428818E+04  0.7818609E-02  0.8933219E-01
        2   -1    0    0  501    0  0.00000000000E+00  0.00000000000E+00  0.11722366752E+04  0.11722366752E+04  0.25500000920E-02 0.  1.
       -2   -1    0    0    0  501  0.00000000000E+00  0.00000000000E+00 -0.43538999011E+03  0.43538999012E+03  0.25500000920E-02 0. -1.
    10030    2    1    2    0    0  0.00000000000E+00  0.00000000000E+00  0.73684668506E+03  0.16076266653E+04  0.14288178532E+04 0.  0.
        2    1    3    3  502    0  0.62086504374E+03  0.32044477553E+03  0.53614861819E+03  0.88068927408E+03  0.25500000920E-02 0.  1.
       -2    1    3    3    0  502 -0.62086504374E+03 -0.32044477553E+03  0.20069806688E+03  0.72693739122E+03  0.25500000920E-02 0. -1.
</event>
<event>
 5   0  0.8306301E-04  0.1407312E+04  0.7818609E-02  0.8948543E-01
       -1   -1    0    0    0  501  0.00000000000E+00  0.00000000000E+00  0.12060569135E+04  0.12060569135E+04  0.50400001928E-02 0. -1.
        1   -1    0    0  501    0  0.00000000000E+00  0.00000000000E+00 -0.41053759075E+03  0.41053759078E+03  0.50400001928E-02 0.  1.
    10030    2    1    2    0    0  0.00000000000E+00  0.00000000000E+00  0.79551932275E+03  0.16165945043E+04  0.14073119052E+04 0.  0.
        4    1    3    3  502    0  0.41832722789E+03 -0.50226420121E+03  0.98514215701E+02  0.66103983314E+03  0.12699999809E+01 0. -1.
       -4    1    3    3    0  502 -0.41832722789E+03  0.50226420121E+03  0.69700510705E+03  0.95555467115E+03  0.12699999809E+01 0.  1.
</event>
<event>
 5   0  0.7870317E-04  0.1479952E+04  0.7818609E-02  0.8897895E-01
        1   -1    0    0  501    0  0.00000000000E+00  0.00000000000E+00  0.77702240326E+03  0.77702240328E+03  0.50400001928E-02 0.  1.
       -1   -1    0    0    0  501  0.00000000000E+00  0.00000000000E+00 -0.70469612086E+03  0.70469612088E+03  0.50400001928E-02 0. -1.
    10030    2    1    2    0    0  0.00000000000E+00  0.00000000000E+00  0.72326282404E+02  0.14817185242E+04  0.14799522606E+04 0.  0.
        1    1    3    3  502    0 -0.14175666023E+03  0.43494695778E+03 -0.54615878141E+03  0.71243471373E+03  0.50400001928E-02 0. -1.
       -1    1    3    3    0  502  0.14175666023E+03 -0.43494695778E+03  0.61848506381E+03  0.76928381042E+03  0.50400001928E-02 0.  1.
</event>
<event>
 5   0  0.1484056E-03  0.1571892E+04  0.7818609E-02  0.8838004E-01
       -2   -1    0    0    0  501  0.00000000000E+00  0.00000000000E+00  0.58427670397E+03  0.58427670398E+03  0.25500000920E-02 0.  1.
        2   -1    0    0  501    0  0.00000000000E+00  0.00000000000E+00 -0.10572232479E+04  0.10572232479E+04  0.25500000920E-02 0. -1.
    10030    2    1    2    0    0  0.00000000000E+00  0.00000000000E+00 -0.47294654390E+03  0.16414999518E+04  0.15718917452E+04 0.  0.
        5    1    3    3  502    0 -0.50906235072E+03 -0.59821400291E+03 -0.26379189370E+03  0.82862097691E+03  0.46999998093E+01 0. -1.
       -5    1    3    3    0  502  0.50906235072E+03  0.59821400291E+03 -0.20915465019E+03  0.81287897494E+03  0.46999998093E+01 0.  1.
</event>
<event>
 5   0  0.8058234E-04  0.1511844E+04  0.7818609E-02  0.8876615E-01
       -1   -1    0    0    0  501  0.00000000000E+00  0.00000000000E+00  0.11258131377E+04  0.11258131377E+04  0.50400001928E-02 0. -1.
        1   -1    0    0  501    0  0.00000000000E+00  0.00000000000E+00 -0.50756032811E+03  0.50756032813E+03  0.50400001928E-02 0.  1.
    10030    2    1    2    0    0  0.00000000000E+00  0.00000000000E+00  0.61825280956E+03  0.16333734658E+04  0.15118440205E+04 0.  0.
        5    1    3    3  502    0 -0.12526808328E+03  0.29389570892E+03  0.10492722478E+04  0.10968414290E+04  0.46999998093E+01 0. -1.
       -5    1    3    3    0  502  0.12526808328E+03 -0.29389570892E+03 -0.43101943822E+03  0.53653203681E+03  0.46999998093E+01 0.  1.
</event>
<event>
 5   0  0.1526126E-03  0.1494434E+04  0.7818609E-02  0.8888163E-01
        2   -1    0    0  501    0  0.00000000000E+00  0.00000000000E+00  0.12926397444E+04  0.12926397444E+04  0.25500000920E-02 0. -1.
       -2   -1    0    0    0  501  0.00000000000E+00  0.00000000000E+00 -0.43193246020E+03  0.43193246021E+03  0.25500000920E-02 0.  1.
    10030    2    1    2    0    0  0.00000000000E+00  0.00000000000E+00  0.86070728418E+03  0.17245722046E+04  0.14944337589E+04 0.  0.
        2    1    3    3  502    0  0.23963962330E+03 -0.66949378376E+03  0.69523051428E+03  0.99448204787E+03  0.25500000920E-02 0. -1.
       -2    1    3    3    0  502 -0.23963962330E+03  0.66949378376E+03  0.16547676990E+03  0.73009015672E+03  0.25500000920E-02 0.  1.
</event>
<event>
 5   0  0.1500956E-03  0.1509080E+04  0.7818609E-02  0.8878437E-01
       -2   -1    0    0    0  501  0.00000000000E+00  0.00000000000E+00  0.10072170351E+04  0.10072170351E+04  0.25500000920E-02 0.  1.
        2   -1    0    0  501    0  0.00000000000E+00  0.00000000000E+00 -0.56525112080E+03  0.56525112080E+03  0.25500000920E-02 0. -1.
    10030    2    1    2    0    0  0.00000000000E+00  0.00000000000E+00  0.44196591431E+03  0.15724681559E+04  0.15090799290E+04 0.  0.
        4    1    3    3  502    0  0.61057429038E+03 -0.83408235577E+02 -0.23270329684E+03  0.65871870710E+03  0.12699999809E+01 0. -1.
       -4    1    3    3    0  502 -0.61057429038E+03  0.83408235577E+02  0.67466921115E+03  0.91374944881E+03  0.12699999809E+01 0.  1.
</event>
<event>
 5   0  0.8306301E-04  0.1517777E+04  0.7818609E-02  0.8872717E-01
        1   -1    0    0  501    0  0.00000000000E+00  0.00000000000E+00  0.75449991499E+03  0.75449991500E+03  0.50400001928E-02 0.  1.
       -1   -1    0    0    0  501  0.00000000000E+00  0.00000000000E+00 -0.76330250093E+03  0.76330250095E+03  0.50400001928E-02 0. -1.
    10030    2    1    2    0    0  0.00000000000E+00  0.00000000000E+00 -0.88025859426E+01  0.15178024159E+04  0.15177768902E+04 0.  0.
        4    1    3    3  502    0 -0.32250265703E+03  0.65335558741E+03 -0.21660422975E+03  0.76013189160E+03  0.12699999809E+01 0. -1.
       -4    1    3    3    0  502  0.32250265703E+03 -0.65335558741E+03  0.20780164380E+03  0.75767052434E+03  0.12699999809E+01 0.  1.
</event>
<event>
 5   0  0.1484056E-03  0.1485813E+04  0.7818609E-02  0.8893942E-01
        2   -1    0    0  501    0  0.00000000000E+00  0.00000000000E+00  0.62250178174E+03  0.62250178175E+03  0.25500000920E-02 0.  1.
       -2   -1    0    0    0  501  0.00000000000E+00  0.00000000000E+00 -0.88660025844E+03  0.88660025844E+03  0.25500000920E-02 0. -1.
    10030    2    1    2    0    0  0.00000000000E+00  0.00000000000E+00 -0.26409847669E+03  0.15091020402E+04  0.14858132326E+04 0.  0.
        5    1    3    3  502    0  0.64522352145E+03  0.29710117563E+03 -0.35295695600E+03  0.79321069331E+03  0.46999998093E+01 0. -1.
       -5    1    3    3    0  502 -0.64522352145E+03 -0.29710117563E+03  0.88858479305E+02  0.71589134688E+03  0.46999998093E+01 0.  1.
</event>
<event>
 5   0  0.1552067E-03  0.1475504E+04  0.7818609E-02  0.8900908E-01
        2   -1    0    0  501    0  0.00000000000E+00  0.00000000000E+00  0.81519793663E+03  0.81519793663E+03  0.25500000920E-02 0. -1.
       -2   -1    0    0    0  501  0.00000000000E+00  0.00000000000E+00 -0.66766346710E+03  0.66766346711E+03  0.25500000920E-02 0.  1.
    10030    2    1    2    0    0  0.00000000000E+00  0.00000000000E+00  0.14753446952E+03  0.14828614037E+04  0.14755038201E+04 0.  0.
        3    1    3    3  502    0  0.19230092823E+03  0.68052183401E+03 -0.13749100590E+03  0.72041196580E+03  0.10100000352E+00 0. -1.
       -3    1    3    3    0  502 -0.19230092823E+03 -0.68052183401E+03  0.28502547542E+03  0.76244943794E+03  0.10100000352E+00 0.  1.
</event>
<event>
 5   0  0.1500956E-03  0.1481332E+04  0.7818609E-02  0.8896963E-01
       -2   -1    0    0    0  501  0.00000000000E+00  0.00000000000E+00  0.57766757220E+03  0.57766757220E+03  0.25500000920E-02 0. -1.
        2   -1    0    0  501    0  0.00000000000E+00  0.00000000000E+00 -0.94965723819E+03  0.94965723819E+03  0.25500000920E-02 0.  1.
    10030    2    1    2    0    0  0.00000000000E+00  0.00000000000E+00 -0.37198966599E+03  0.15273248104E+04  0.14813320913E+04 0.  0.
        4    1    3    3  502    0  0.88289803689E+02 -0.40299534864E+03 -0.82022295314E+03  0.91813269532E+03  0.12699999809E+01 0.  1.
       -4    1    3    3    0  502 -0.88289803689E+02  0.40299534864E+03  0.44823328714E+03  0.60919211507E+03  0.12699999809E+01 0. -1.
</event>
<event>
 5   0  0.8191876E-04  0.1509657E+04  0.7818609E-02  0.8878056E-01
       -1   -1    0    0    0  501  0.00000000000E+00  0.00000000000E+00  0.34268442792E+03  0.34268442796E+03  0.50400001928E-02 0.  1.
        1   -1    0    0  501    0  0.00000000000E+00  0.00000000000E+00 -0.16626563190E+04  0.16626563190E+04  0.50400001928E-02 0. -1.
    10030    2    1    2    0    0  0.00000000000E+00  0.00000000000E+00 -0.13199718911E+04  0.20053407470E+04  0.15096574837E+04 0.  0.
        2    1    3    3  502    0 -0.87931106570E+01 -0.75473984991E+03 -0.67000323552E+03  0.10092640365E+04  0.25500000920E-02 0.  1.
       -2    1    3    3    0  502  0.87931106570E+01  0.75473984991E+03 -0.64996865556E+03  0.99607671043E+03  0.25500000920E-02 0. -1.
</event>
<event>
 5   0  0.1484056E-03  0.1508441E+04  0.7818609E-02  0.8878859E-01
        2   -1    0    0  501    0  0.00000000000E+00  0.00000000000E+00  0.93602466474E+03  0.93602466475E+03  0.25500000920E-02 0.  1.
       -2   -1    0    0    0  501  0.00000000000E+00  0.00000000000E+00 -0.60772848000E+03  0.60772848001E+03  0.25500000920E-02 0. -1.
    10030    2    1    2    0    0  0.00000000000E+00  0.00000000000E+00  0.32829618474E+03  0.15437531448E+04  0.15084413767E+04 0.  0.
        5    1    3    3  502    0 -0.56360021233E+03  0.16273592364E+03  0.64926853881E+03  0.87504280219E+03  0.46999998093E+01 0.  1.
       -5    1    3    3    0  502  0.56360021233E+03 -0.16273592364E+03 -0.32097235407E+03  0.66871034256E+03  0.46999998093E+01 0. -1.
</event>
<event>
 5   0  0.8058234E-04  0.1506853E+04  0.7818609E-02  0.8879908E-01
       -1   -1    0    0    0  501  0.00000000000E+00  0.00000000000E+00  0.61064694253E+03  0.61064694255E+03  0.50400001928E-02 0.  1.
        1   -1    0    0  501    0  0.00000000000E+00  0.00000000000E+00 -0.92959046145E+03  0.92959046146E+03  0.50400001928E-02 0. -1.
    10030    2    1    2    0    0  0.00000000000E+00  0.00000000000E+00 -0.31894351892E+03  0.15402374040E+04  0.15068531091E+04 0.  0.
        5    1    3    3  502    0 -0.52458806353E+03 -0.34035952115E+03 -0.58901071702E+03  0.85906516330E+03  0.46999998093E+01 0. -1.
       -5    1    3    3    0  502  0.52458806353E+03  0.34035952115E+03  0.27006719810E+03  0.68117224072E+03  0.46999998093E+01 0.  1.
</event>
<event>
 5   0  0.1500956E-03  0.1512105E+04  0.7818609E-02  0.8876443E-01
        2   -1    0    0  501    0  0.00000000000E+00  0.00000000000E+00  0.11260409257E+04  0.11260409257E+04  0.25500000920E-02 0.  1.
       -2   -1    0    0    0  501  0.00000000000E+00  0.00000000000E+00 -0.50763261620E+03  0.50763261621E+03  0.25500000920E-02 0. -1.
    10030    2    1    2    0    0  0.00000000000E+00  0.00000000000E+00  0.61840830947E+03  0.16336735419E+04  0.15121046274E+04 0.  0.
        4    1    3    3  502    0 -0.40478941813E+03 -0.44344013748E+03  0.80562267680E+03  0.10047502868E+04  0.12699999809E+01 0.  1.
       -4    1    3    3    0  502  0.40478941813E+03  0.44344013748E+03 -0.18721436733E+03  0.62892325508E+03  0.12699999809E+01 0. -1.
</event>
<event>
 5   0  0.7870317E-04  0.1422563E+04  0.7818609E-02  0.8937646E-01
        1   -1    0    0  501    0  0.00000000000E+00  0.00000000000E+00  0.12360319200E+04  0.12360319200E+04  0.50400001928E-02 0.  1.
       -1   -1    0    0    0  501  0.00000000000E+00  0.00000000000E+00 -0.40931119679E+03  0.40931119682E+03  0.50400001928E-02 0. -1.
    10030    2    1    2    0    0  0.00000000000E+00  0.00000000000E+00  0.82672072321E+03  0.16453431168E+04  0.14225634671E+04 0.  0.
        1    1    3    3  502    0  0.28264998100E+03  0.65246092964E+03  0.39249565500E+03  0.81218785738E+03  0.50400001928E-02 0.  1.
       -1    1    3    3    0  502 -0.28264998100E+03 -0.65246092964E+03  0.43422506820E+03  0.83315525944E+03  0.50400001928E-02 0. -1.
</event>
<event>
 5   0  0.1484056E-03  0.1488175E+04  0.7818609E-02  0.8892355E-01
       -2   -1    0    0    0  501  0.00000000000E+00  0.00000000000E+00  0.26044183577E+03  0.26044183579E+03  0.25500000920E-02 0. -1.
        2   -1    0    0  501    0  0.00000000000E+00  0.00000000000E+00 -0.21258718177E+04  0.21258718177E+04  0.25500000920E-02 0.  1.
    10030    2    1    2    0    0  0.00000000000E+00  0.00000000000E+00 -0.18654299819E+04  0.23863136535E+04  0.14881746656E+04 0.  0.
        5    1    3    3  502    0 -0.11109633906E+03 -0.43572427215E+03  0.17895968905E+02  0.45004487954E+03  0.46999998093E+01 0. -1.
       -5    1    3    3    0  502  0.11109633906E+03  0.43572427215E+03 -0.18833259508E+04  0.19362687739E+04  0.46999998093E+01 0.  1.
</event>
<event>
 5   0  0.8058234E-04  0.1479761E+04  0.7818609E-02  0.8898024E-01
       -1   -1    0    0    0  501  0.00000000000E+00  0.00000000000E+00  0.87534039816E+03  0.87534039817E+03  0.50400001928E-02 0.  1.
        1   -1    0    0  501    0  0.00000000000E+00  0.00000000000E+00 -0.62538299636E+03  0.62538299638E+03  0.50400001928E-02 0. -1.
    10030    2    1    2    0    0  0.00000000000E+00  0.00000000000E+00  0.24995740180E+03  0.15007233945E+04  0.14797607929E+04 0.  0.
        5    1    3    3  502    0  0.29068516096E+03  0.57983999624E+03 -0.23599698579E+03  0.69023832938E+03  0.46999998093E+01 0. -1.
       -5    1    3    3    0  502 -0.29068516096E+03 -0.57983999624E+03  0.48595438760E+03  0.81048506517E+03  0.46999998093E+01 0.  1.
</event>
<event>
 5   0  0.8058234E-04  0.1498900E+04  0.7818609E-02  0.8885185E-01
       -1   -1    0    0    0  501  0.00000000000E+00  0.00000000000E+00  0.11671451296E+04  0.11671451296E+04  0.50400001928E-02 0.  1.
        1   -1    0    0  501    0  0.00000000000E+00  0.00000000000E+00 -0.48123833747E+03  0.48123833750E+03  0.50400001928E-02 0. -1.
    10030    2    1    2    0    0  0.00000000000E+00  0.00000000000E+00  0.68590679212E+03  0.16483834671E+04  0.14988995721E+04 0.  0.
        5    1    3    3  502    0  0.54751425668E+03  0.49718067296E+03  0.47625403114E+03  0.87965929484E+03  0.46999998093E+01 0. -1.
       -5    1    3    3    0  502 -0.54751425668E+03 -0.49718067296E+03  0.20965276098E+03  0.76872417226E+03  0.46999998093E+01 0.  1.
</event>
<event>
 5   0  0.1484056E-03  0.1516268E+04  0.7818609E-02  0.8873706E-01
       -2   -1    0    0    0  501  0.00000000000E+00  0.00000000000E+00  0.60455172892E+03  0.60455172893E+03  0.25500000920E-02 0.  1.
        2   -1    0    0  501    0  0.00000000000E+00  0.00000000000E+00 -0.95073337497E+03  0.95073337497E+03  0.25500000920E-02 0. -1.
    10030    2    1    2    0    0  0.00000000000E+00  0.00000000000E+00 -0.34618164604E+03  0.15552851039E+04  0.15162684533E+04 0.  0.
        5    1    3    3  502    0  0.63255814004E+03 -0.99906526435E+01 -0.60159128229E+03  0.87301991649E+03  0.46999998093E+01 0. -1.
       -5    1    3    3    0  502 -0.63255814004E+03  0.99906526435E+01  0.25540963624E+03  0.68226518741E+03  0.46999998093E+01 0.  1.
</event>
<event>
 5   0  0.8306301E-04  0.1493163E+04  0.7818609E-02  0.8889012E-01
        1   -1    0    0  501    0  0.00000000000E+00  0.00000000000E+00  0.10713835405E+04  0.10713835405E+04  0.50400001928E-02 0.  1.
       -1   -1    0    0    0  501  0.00000000000E+00  0.00000000000E+00 -0.52024658418E+03  0.52024658421E+03  0.50400001928E-02 0. -1.
    10030    2    1    2    0    0  0.00000000000E+00  0.00000000000E+00  0.55113695627E+03  0.15916301247E+04  0.14931625863E+04 0.  0.
        4    1    3    3  502    0  0.16385791665E+03 -0.72815323466E+03  0.25633814536E+03  0.78915613643E+03  0.12699999809E+01 0. -1.
       -4    1    3    3    0  502 -0.16385791665E+03  0.72815323466E+03  0.29479881091E+03  0.80247398825E+03  0.12699999809E+01 0.  1.
</event>
<event>
 5   0  0.8306301E-04  0.1511034E+04  0.7818609E-02  0.8877148E-01
        1   -1    0    0  501    0  0.00000000000E+00  0.00000000000E+00  0.63665137047E+03  0.63665137049E+03  0.50400001928E-02 0.  1.
       -1   -1    0    0    0  501  0.00000000000E+00  0.00000000000E+00 -0.89657592554E+03  0.89657592556E+03  0.50400001928E-02 0. -1.
    10030    2    1    2    0    0  0.00000000000E+00  0.00000000000E+00 -0.25992455507E+03  0.15332272960E+04  0.15110344692E+04 0.  0.
        4    1    3    3  502    0 -0.10491896940E+03  0.44187476918E+03 -0.74260429227E+03  0.87047346288E+03  0.12699999809E+01 0. -1.
       -4    1    3    3    0  502  0.10491896940E+03 -0.44187476918E+03  0.48267973720E+03  0.66275383317E+03  0.12699999809E+01 0.  1.
</event>
<event>
 5   0  0.8058234E-04  0.1492721E+04  0.7818609E-02  0.8889308E-01
        1   -1    0    0  501    0  0.00000000000E+00  0.00000000000E+00  0.40565866049E+03  0.40565866053E+03  0.50400001928E-02 0. -1.
       -1   -1    0    0    0  501  0.00000000000E+00  0.00000000000E+00 -0.13732090401E+04  0.13732090401E+04  0.50400001928E-02 0.  1.
    10030    2    1    2    0    0  0.00000000000E+00  0.00000000000E+00 -0.96755037960E+03  0.17788677006E+04  0.14927211927E+04 0.  0.
        5    1    3    3  502    0 -0.28700338996E+03  0.45344097163E+03 -0.11019102503E+04  0.12256459319E+04  0.46999998093E+01 0.  1.
       -5    1    3    3    0  502  0.28700338996E+03 -0.45344097163E+03  0.13435987067E+03  0.55322176878E+03  0.46999998093E+01 0. -1.
</event>
<event>
 5   0  0.8306301E-04  0.1510329E+04  0.7818609E-02  0.8877613E-01
       -1   -1    0    0    0  501  0.00000000000E+00  0.00000000000E+00  0.66886536333E+03  0.66886536335E+03  0.50400001928E-02 0.  1.
        1   -1    0    0  501    0  0.00000000000E+00  0.00000000000E+00 -0.85259847154E+03  0.85259847155E+03  0.50400001928E-02 0. -1.
    10030    2    1    2    0    0  0.00000000000E+00  0.00000000000E+00 -0.18373310821E+03  0.15214638349E+04  0.15103292177E+04 0.  0.
        4    1    3    3  502    0 -0.61709438597E+03  0.33550836066E+03  0.18748749138E+03  0.72699691443E+03  0.12699999809E+01 0. -1.
       -4    1    3    3    0  502  0.61709438597E+03 -0.33550836066E+03 -0.37122059959E+03  0.79446692047E+03  0.12699999809E+01 0.  1.
</event>
<event>
 5   0  0.8306301E-04  0.1538556E+04  0.7818609E-02  0.8859211E-01
       -1   -1    0    0    0  501  0.00000000000E+00  0.00000000000E+00  0.37691207075E+03  0.37691207078E+03  0.50400001928E-02 0. -1.
        1   -1    0    0  501    0  0.00000000000E+00  0.00000000000E+00 -0.15700980942E+04  0.15700980943E+04  0.50400001928E-02 0.  1.
    10030    2    1    2    0    0  0.00000000000E+00  0.00000000000E+00 -0.11931860235E+04  0.19470101650E+04  0.15385563675E+04 0.  0.
        4    1    3    3  502    0 -0.94136442221E+02  0.75498473348E+03 -0.74045568730E+03  0.10616684300E+04  0.12699999809E+01 0.  1.
       -4    1    3    3    0  502  0.94136442221E+02 -0.75498473348E+03 -0.45273033619E+03  0.88534173501E+03  0.12699999809E+01 0. -1.
</event>
<event>
 5   0  0.8306301E-04  0.1524585E+04  0.7818609E-02  0.8868266E-01
       -1   -1    0    0    0  501  0.00000000000E+00  0.00000000000E+00  0.63753917407E+03  0.63753917409E+03  0.50400001928E-02 0.  1.
        1   -1    0    0  501    0  0.00000000000E+00  0.00000000000E+00 -0.91145806330E+03  0.91145806332E+03  0.50400001928E-02 0. -1.
    10030    2    1    2    0    0  0.00000000000E+00  0.00000000000E+00 -0.27391888924E+03  0.15489972374E+04  0.15245854793E+04 0.  0.
        4    1    3    3  502    0 -0.24182587289E+03  0.44082015456E+03 -0.71909662853E+03  0.87744158526E+03  0.12699999809E+01 0. -1.
       -4    1    3    3    0  502  0.24182587289E+03 -0.44082015456E+03  0.44517773929E+03  0.67155565215E+03  0.12699999809E+01 0.  1.
</event>
<event>
 5   0  0.7870317E-04  0.1474723E+04  0.7818609E-02  0.8901438E-01
       -1   -1    0    0    0  501  0.00000000000E+00  0.00000000000E+00  0.76301946455E+03  0.76301946457E+03  0.50400001928E-02 0. -1.
        1   -1    0    0  501    0  0.00000000000E+00  0.00000000000E+00 -0.71256639481E+03  0.71256639483E+03  0.50400001928E-02 0.  1.
    10030    2    1    2    0    0  0.00000000000E+00  0.00000000000E+00  0.50453069743E+02  0.14755858594E+04  0.14747230642E+04 0.  0.
        1    1    3    3  502    0  0.68896157865E+02 -0.35764413412E+03 -0.61627727037E+03  0.71585870200E+03  0.50400001928E-02 0.  1.
       -1    1    3    3    0  502 -0.68896157865E+02  0.35764413412E+03  0.66673034011E+03  0.75972715740E+03  0.50400001928E-02 0. -1.
</event>
<event>
 5   0  0.1526126E-03  0.1485766E+04  0.7818609E-02  0.8893974E-01
        2   -1    0    0  501    0  0.00000000000E+00  0.00000000000E+00  0.74470214783E+03  0.74470214784E+03  0.25500000920E-02 0. -1.
       -2   -1    0    0    0  501  0.00000000000E+00  0.00000000000E+00 -0.74106822176E+03  0.74106822177E+03  0.25500000920E-02 0.  1.
    10030    2    1    2    0    0  0.00000000000E+00  0.00000000000E+00  0.36339260702E+01  0.14857703696E+04  0.14857659256E+04 0.  0.
        2    1    3    3  502    0 -0.37709304122E+03  0.86189893022E+02  0.63604850065E+03  0.74443640063E+03  0.25500000920E-02 0. -1.
       -2    1    3    3    0  502  0.37709304122E+03 -0.86189893022E+02 -0.63241457458E+03  0.74133396897E+03  0.25500000920E-02 0.  1.
</event>
<event>
 5   0  0.7870317E-04  0.1537293E+04  0.7818609E-02  0.8860025E-01
       -1   -1    0    0    0  501  0.00000000000E+00  0.00000000000E+00  0.46833667691E+03  0.46833667693E+03  0.50400001928E-02 0. -1.
        1   -1    0    0  501    0  0.00000000000E+00  0.00000000000E+00 -0.12615228052E+04  0.12615228052E+04  0.50400001928E-02 0.  1.
    10030    2    1    2    0    0  0.00000000000E+00  0.00000000000E+00 -0.79318612827E+03  0.17298594821E+04  0.15372929434E+04 0.  0.
        1    1    3    3  502    0 -0.38035626966E+03 -0.27039766208E+03 -0.10838624687E+04  0.11800608622E+04  0.50400001928E-02 0.  1.
       -1    1    3    3    0  502  0.38035626966E+03  0.27039766208E+03  0.29067634042E+03  0.54979861988E+03  0.50400001928E-02 0. -1.
</event>
<event>
 5   0  0.7870317E-04  0.1495563E+04  0.7818609E-02  0.8887409E-01
        1   -1    0    0  501    0  0.00000000000E+00  0.00000000000E+00  0.54652221077E+03  0.54652221079E+03  0.50400001928E-02 0. -1.
       -1   -1    0    0    0  501  0.00000000000E+00  0.00000000000E+00 -0.10231558040E+04  0.10231558040E+04  0.50400001928E-02 0.  1.
    10030    2    1    2    0    0  0.00000000000E+00  0.00000000000E+00 -0.47663359324E+03  0.15696780148E+04  0.14955632678E+04 0.  0.
        1    1    3    3  502    0  0.54405872335E+03 -0.28736147472E+03 -0.68434846307E+03  0.92027676844E+03  0.50400001928E-02 0.  1.
       -1    1    3    3    0  502 -0.54405872335E+03  0.28736147472E+03  0.20771486983E+03  0.64940124637E+03  0.50400001928E-02 0. -1.
</event>
<event>
 5   0  0.1484056E-03  0.1322185E+04  0.7818609E-02  0.9012155E-01
        2   -1    0    0  501    0  0.00000000000E+00  0.00000000000E+00  0.21138615248E+04  0.21138615248E+04  0.25500000920E-02 0.  1.
       -2   -1    0    0    0  501  0.00000000000E+00  0.00000000000E+00 -0.20675128802E+03  0.20675128803E+03  0.25500000920E-02 0. -1.
    10030    2    1    2    0    0  0.00000000000E+00  0.00000000000E+00  0.19071102368E+04  0.23206128128E+04  0.13221854529E+04 0.  0.
        5    1    3    3  502    0  0.14109289683E+03 -0.48873912657E+03  0.21254679381E+03  0.55133598553E+03  0.46999998093E+01 0. -1.
       -5    1    3    3    0  502 -0.14109289683E+03  0.48873912657E+03  0.16945634430E+04  0.17692768273E+04  0.46999998093E+01 0.  1.
</event>
<event>
 5   0  0.5603875E-04  0.1169042E+04  0.7818609E-02  0.9140394E-01
       -4   -1    0    0    0  501  0.00000000000E+00  0.00000000000E+00  0.60967584257E+03  0.60967716532E+03  0.12699999809E+01 0. -1.
        4   -1    0    0  501    0  0.00000000000E+00  0.00000000000E+00 -0.56040094520E+03  0.56040238426E+03  0.12699999809E+01 0.  1.
    10030    2    1    2    0    0  0.00000000000E+00  0.00000000000E+00  0.49274897365E+02  0.11700795496E+04  0.11690415462E+04 0.  0.
        1    1    3    3  502    0 -0.41277607301E+03  0.20530762407E+03  0.38430206917E+03  0.60018612725E+03  0.50400001928E-02 0. -1.
       -1    1    3    3    0  502  0.41277607301E+03 -0.20530762407E+03 -0.33502717180E+03  0.56989342233E+03  0.50400001928E-02 0.  1.
</event>
<event>
 5   0  0.8365016E-04  0.1538705E+04  0.7818609E-02  0.8859115E-01
       -1   -1    0    0    0  501  0.00000000000E+00  0.00000000000E+00  0.11072705045E+04  0.11072705045E+04  0.50400001928E-02 0. -1.
        1   -1    0    0  501    0  0.00000000000E+00  0.00000000000E+00 -0.53456098763E+03  0.53456098765E+03  0.50400001928E-02 0.  1.
    10030    2    1    2    0    0  0.00000000000E+00  0.00000000000E+00  0.57270951687E+03  0.16418314922E+04  0.15387054487E+04 0.  0.
        3    1    3    3  502    0  0.34704999785E+03 -0.48361789665E+03  0.80643722146E+03  0.10023327658E+04  0.10100000352E+00 0. -1.
       -3    1    3    3    0  502 -0.34704999785E+03  0.48361789665E+03 -0.23372770460E+03  0.63949872640E+03  0.10100000352E+00 0.  1.
</event>
<event>
 5   0  0.8306301E-04  0.1447689E+04  0.7818609E-02  0.8920004E-01
        1   -1    0    0  501    0  0.00000000000E+00  0.00000000000E+00  0.59722142215E+03  0.59722142217E+03  0.50400001928E-02 0. -1.
       -1   -1    0    0    0  501  0.00000000000E+00  0.00000000000E+00 -0.87731439865E+03  0.87731439867E+03  0.50400001928E-02 0.  1.
    10030    2    1    2    0    0  0.00000000000E+00  0.00000000000E+00 -0.28009297650E+03  0.14745358208E+04  0.14476891280E+04 0.  0.
        4    1    3    3  502    0  0.11325977700E+03 -0.53792526889E+03 -0.61969116743E+03  0.82837801026E+03  0.12699999809E+01 0.  1.
       -4    1    3    3    0  502 -0.11325977700E+03  0.53792526889E+03  0.33959819093E+03  0.64615781058E+03  0.12699999809E+01 0. -1.
</event>
<event>
 5   0  0.8306301E-04  0.1516855E+04  0.7818609E-02  0.8873321E-01
       -1   -1    0    0    0  501  0.00000000000E+00  0.00000000000E+00  0.36530441062E+03  0.36530441066E+03  0.50400001928E-02 0. -1.
        1   -1    0    0  501    0  0.00000000000E+00  0.00000000000E+00 -0.15746112245E+04  0.15746112245E+04  0.50400001928E-02 0.  1.
    10030    2    1    2    0    0  0.00000000000E+00  0.00000000000E+00 -0.12093068138E+04  0.19399156351E+04  0.15168552012E+04 0.  0.
        4    1    3    3  502    0  0.52754673939E+02  0.20348907150E+03 -0.15366066820E+04  0.15509199096E+04  0.12699999809E+01 0.  1.
       -4    1    3    3    0  502 -0.52754673939E+02 -0.20348907150E+03  0.32729986820E+03  0.38899572551E+03  0.12699999809E+01 0. -1.
</event>
<event>
 5   0  0.1500956E-03  0.1509314E+04  0.7818609E-02  0.8878283E-01
        2   -1    0    0  501    0  0.00000000000E+00  0.00000000000E+00  0.13395106941E+04  0.13395106941E+04  0.25500000920E-02 0. -1.
       -2   -1    0    0    0  501  0.00000000000E+00  0.00000000000E+00 -0.42516053562E+03  0.42516053562E+03  0.25500000920E-02 0.  1.
    10030    2    1    2    0    0  0.00000000000E+00  0.00000000000E+00  0.91435015848E+03  0.17646712297E+04  0.15093138629E+04 0.  0.
        4    1    3    3  502    0 -0.21067838312E+03 -0.52024309159E+03 -0.13261866699E+03  0.57673874432E+03  0.12699999809E+01 0.  1.
       -4    1    3    3    0  502  0.21067838312E+03  0.52024309159E+03  0.10469688255E+04  0.11879324854E+04  0.12699999809E+01 0. -1.
</event>
<event>
 5   0  0.5603875E-04  0.1624734E+04  0.7818609E-02  0.8805496E-01
       -3   -1    0    0    0  501  0.00000000000E+00  0.00000000000E+00  0.45555095379E+03  0.45555096499E+03  0.10100000352E+00 0. -1.
        3   -1    0    0  501    0  0.00000000000E+00  0.00000000000E+00 -0.14486630468E+04  0.14486630503E+04  0.10100000352E+00 0.  1.
    10030    2    1    2    0    0  0.00000000000E+00  0.00000000000E+00 -0.99311209300E+03  0.19042140153E+04  0.16247336356E+04 0.  0.
        1    1    3    3  502    0 -0.11025802270E+03 -0.65809988700E+03  0.46490454412E+02  0.66888986778E+03  0.50400001928E-02 0. -1.
       -1    1    3    3    0  502  0.11025802270E+03  0.65809988700E+03 -0.10396025474E+04  0.12353241475E+04  0.50400001928E-02 0.  1.
</event>
<event>
 5   0  0.8365016E-04  0.1472992E+04  0.7818609E-02  0.8902614E-01
        1   -1    0    0  501    0  0.00000000000E+00  0.00000000000E+00  0.54116796162E+03  0.54116796164E+03  0.50400001928E-02 0. -1.
       -1   -1    0    0    0  501  0.00000000000E+00  0.00000000000E+00 -0.10023257671E+04  0.10023257671E+04  0.50400001928E-02 0.  1.
    10030    2    1    2    0    0  0.00000000000E+00  0.00000000000E+00 -0.46115780548E+03  0.15434937287E+04  0.14729923181E+04 0.  0.
        3    1    3    3  502    0  0.68263734557E+02 -0.38507004693E+03  0.42338121441E+03  0.57635973265E+03  0.10100000352E+00 0. -1.
       -3    1    3    3    0  502 -0.68263734557E+02  0.38507004693E+03 -0.88453901989E+03  0.96713399610E+03  0.10100000352E+00 0.  1.
</event>
<event>
 5   0  0.1526126E-03  0.1545018E+04  0.7818609E-02  0.8855056E-01
       -2   -1    0    0    0  501  0.00000000000E+00  0.00000000000E+00  0.33156438230E+03  0.33156438231E+03  0.25500000920E-02 0. -1.
        2   -1    0    0  501    0  0.00000000000E+00  0.00000000000E+00 -0.17998615452E+04  0.17998615452E+04  0.25500000920E-02 0.  1.
    10030    2    1    2    0    0  0.00000000000E+00  0.00000000000E+00 -0.14682971629E+04  0.21314259275E+04  0.15450177752E+04 0.  0.
        2    1    3    3  502    0  0.46197545861E+03 -0.15935952978E+03  0.91223713857E+02  0.49713031497E+03  0.25500000920E-02 0. -1.
       -2    1    3    3    0  502 -0.46197545861E+03  0.15935952978E+03 -0.15595208767E+04  0.16342956125E+04  0.25500000920E-02 0.  1.
</event>
<event>
 5   0  0.1484056E-03  0.1493696E+04  0.7818609E-02  0.8888656E-01
       -2   -1    0    0    0  501  0.00000000000E+00  0.00000000000E+00  0.67703976136E+03  0.67703976136E+03  0.25500000920E-02 0.  1.
        2   -1    0    0  501    0  0.00000000000E+00  0.00000000000E+00 -0.82385397827E+03  0.82385397828E+03  0.25500000920E-02 0. -1.
    10030    2    1    2    0    0  0.00000000000E+00  0.00000000000E+00 -0.14681421692E+03  0.15008937396E+04  0.14936959541E+04 0.  0.
        5    1    3    3  502    0  0.23768631635E+03  0.70313477541E+03 -0.15667084186E+03  0.75859155021E+03  0.46999998093E+01 0. -1.
       -5    1    3    3    0  502 -0.23768631635E+03 -0.70313477541E+03  0.98566249398E+01  0.74230218942E+03  0.46999998093E+01 0.  1.
</event>
<event>
 5   0  0.1552067E-03  0.1513646E+04  0.7818609E-02  0.8875429E-01
       -2   -1    0    0    0  501  0.00000000000E+00  0.00000000000E+00  0.72800130548E+03  0.72800130548E+03  0.25500000920E-02 0. -1.
        2   -1    0    0  501    0  0.00000000000E+00  0.00000000000E+00 -0.78678576271E+03  0.78678576271E+03  0.25500000920E-02 0.  1.
    10030    2    1    2    0    0  0.00000000000E+00  0.00000000000E+00 -0.58784457227E+02  0.15147870682E+04  0.15136460120E+04 0.  0.
        3    1    3    3  502    0  0.73202768833E+03 -0.17962497903E+03  0.38860230023E+02  0.75474485573E+03  0.10100000352E+00 0.  1.
       -3    1    3    3    0  502 -0.73202768833E+03  0.17962497903E+03 -0.97644687250E+02  0.76004221246E+03  0.10100000352E+00 0. -1.
</event>
<event>
 5   0  0.8191876E-04  0.1518126E+04  0.7818609E-02  0.8872488E-01
        1   -1    0    0  501    0  0.00000000000E+00  0.00000000000E+00  0.50580299412E+03  0.50580299414E+03  0.50400001928E-02 0.  1.
       -1   -1    0    0    0  501  0.00000000000E+00  0.00000000000E+00 -0.11391325486E+04  0.11391325486E+04  0.50400001928E-02 0. -1.
    10030    2    1    2    0    0  0.00000000000E+00  0.00000000000E+00 -0.63332955446E+03  0.16449355427E+04  0.15181260208E+04 0.  0.
        2    1    3    3  502    0 -0.66656633748E+02  0.29863297097E+03 -0.10693494519E+04  0.11122648104E+04  0.25500000920E-02 0. -1.
       -2    1    3    3    0  502  0.66656633748E+02 -0.29863297097E+03  0.43601989740E+03  0.53267073236E+03  0.25500000920E-02 0.  1.
</event>
<event>
 5   0  0.1552067E-03  0.1503533E+04  0.7818609E-02  0.8882107E-01
       -2   -1    0    0    0  501  0.00000000000E+00  0.00000000000E+00  0.33517632122E+03  0.33517632123E+03  0.25500000920E-02 0.  1.
        2   -1    0    0  501    0  0.00000000000E+00  0.00000000000E+00 -0.16861357231E+04  0.16861357231E+04  0.25500000920E-02 0. -1.
    10030    2    1    2    0    0  0.00000000000E+00  0.00000000000E+00 -0.13509594019E+04  0.20213120443E+04  0.15035328646E+04 0.  0.
        3    1    3    3  502    0  0.15093927145E+02  0.67612605632E+03 -0.23412629597E+03  0.71567409017E+03  0.10100000352E+00 0.  1.
       -3    1    3    3    0  502 -0.15093927145E+02 -0.67612605632E+03 -0.11168331059E+04  0.13056379541E+04  0.10100000352E+00 0. -1.
</event>
<event>
 5   0  0.8058234E-04  0.1488551E+04  0.7818609E-02  0.8892102E-01
        1   -1    0    0  501    0  0.00000000000E+00  0.00000000000E+00  0.11141624422E+04  0.11141624422E+04  0.50400001928E-02 0.  1.
       -1   -1    0    0    0  501  0.00000000000E+00  0.00000000000E+00 -0.49718590063E+03  0.49718590065E+03  0.50400001928E-02 0. -1.
    10030    2    1    2    0    0  0.00000000000E+00  0.00000000000E+00  0.61697654158E+03  0.16113483429E+04  0.14885507815E+04 0.  0.
        5    1    3    3  502    0  0.98568682800E+02  0.73434571865E+03  0.23237151350E+03  0.77652947788E+03  0.46999998093E+01 0. -1.
       -5    1    3    3    0  502 -0.98568682800E+02 -0.73434571865E+03  0.38460502807E+03  0.83481886499E+03  0.46999998093E+01 0.  1.
</event>
<event>
 5   0  0.8365016E-04  0.1443507E+04  0.7818609E-02  0.8922914E-01
       -1   -1    0    0    0  501  0.00000000000E+00  0.00000000000E+00  0.38828392887E+03  0.38828392890E+03  0.50400001928E-02 0. -1.
        1   -1    0    0  501    0  0.00000000000E+00  0.00000000000E+00 -0.13416161641E+04  0.13416161641E+04  0.50400001928E-02 0.  1.
    10030    2    1    2    0    0  0.00000000000E+00  0.00000000000E+00 -0.95333223525E+03  0.17299000930E+04  0.14435068344E+04 0.  0.
        3    1    3    3  502    0  0.35323172175E+03 -0.38471174148E+02 -0.12295398657E+04  0.12798519336E+04  0.10100000352E+00 0.  1.
       -3    1    3    3    0  502 -0.35323172175E+03  0.38471174148E+02  0.27620763042E+03  0.45004815942E+03  0.10100000352E+00 0. -1.
</event>
<event>
 5   0  0.8306301E-04  0.1496891E+04  0.7818609E-02  0.8886523E-01
       -1   -1    0    0    0  501  0.00000000000E+00  0.00000000000E+00  0.82445031655E+03  0.82445031656E+03  0.50400001928E-02 0.  1.
        1   -1    0    0  501    0  0.00000000000E+00  0.00000000000E+00 -0.67944761978E+03  0.67944761980E+03  0.50400001928E-02 0. -1.
    10030    2    1    2    0    0  0.00000000000E+00  0.00000000000E+00  0.14500269677E+03  0.15038979364E+04  0.14968911854E+04 0.  0.
        4    1    3    3  502    0  0.36576430672E+03  0.45631304171E+03 -0.39676536366E+03  0.70670325229E+03  0.12699999809E+01 0. -1.
       -4    1    3    3    0  502 -0.36576430672E+03 -0.45631304171E+03  0.54176806043E+03  0.79719468407E+03  0.12699999809E+01 0.  1.
</event>
<event>
 5   0  0.1500956E-03  0.1516355E+04  0.7818609E-02  0.8873649E-01
        2   -1    0    0  501    0  0.00000000000E+00  0.00000000000E+00  0.19250392079E+04  0.19250392079E+04  0.25500000920E-02 0. -1.
       -2   -1    0    0    0  501  0.00000000000E+00  0.00000000000E+00 -0.29860855966E+03  0.29860855967E+03  0.25500000920E-02 0.  1.
    10030    2    1    2    0    0  0.00000000000E+00  0.00000000000E+00  0.16264306482E+04  0.22236477675E+04  0.15163550840E+04 0.  0.
        4    1    3    3  502    0 -0.19872971215E+03  0.30916532863E+03  0.17856723393E+04  0.18231028537E+04  0.12699999809E+01 0. -1.
       -4    1    3    3    0  502  0.19872971215E+03 -0.30916532863E+03 -0.15924169110E+03  0.40054491383E+03  0.12699999809E+01 0.  1.
</event>
<event>
 5   0  0.8306301E-04  0.1486196E+04  0.7818609E-02  0.8893685E-01
        1   -1    0    0  501    0  0.00000000000E+00  0.00000000000E+00  0.11445552772E+04  0.11445552772E+04  0.50400001928E-02 0.  1.
       -1   -1    0    0    0  501  0.00000000000E+00  0.00000000000E+00 -0.48245356085E+03  0.48245356087E+03  0.50400001928E-02 0. -1.
    10030    2    1    2    0    0  0.00000000000E+00  0.00000000000E+00  0.66210171633E+03  0.16270088381E+04  0.14861961769E+04 0.  0.
        4    1    3    3  502    0  0.70838972894E+03  0.30682038690E+02  0.87643118946E+02  0.71445106533E+03  0.12699999809E+01 0. -1.
       -4    1    3    3    0  502 -0.70838972894E+03 -0.30682038690E+02  0.57445859739E+03  0.91255777273E+03  0.12699999809E+01 0.  1.
</event>
<event>
 5   0  0.5603875E-04  0.1463441E+04  0.7818609E-02  0.8909135E-01
       -4   -1    0    0    0  501  0.00000000000E+00  0.00000000000E+00  0.44326291647E+03  0.44326473582E+03  0.12699999809E+01 0. -1.
        4   -1    0    0  501    0  0.00000000000E+00  0.00000000000E+00 -0.12078897038E+04  0.12078903714E+04  0.12699999809E+01 0.  1.
    10030    2    1    2    0    0  0.00000000000E+00  0.00000000000E+00 -0.76462678730E+03  0.16511551072E+04  0.14634408305E+04 0.  0.
        4    1    3    3  502    0  0.48975821982E+03  0.47985684073E+03 -0.94024731237E+02  0.69207511476E+03  0.12699999809E+01 0. -1.
       -4    1    3    3    0  502 -0.48975821982E+03 -0.47985684073E+03 -0.67060205606E+03  0.95907999248E+03  0.12699999809E+01 0.  1.
</event>
<event>
 5   0  0.8365016E-04  0.1508840E+04  0.7818609E-02  0.8878595E-01
        1   -1    0    0  501    0  0.00000000000E+00  0.00000000000E+00  0.11383979668E+04  0.11383979668E+04  0.50400001928E-02 0.  1.
       -1   -1    0    0    0  501  0.00000000000E+00  0.00000000000E+00 -0.49995680343E+03  0.49995680346E+03  0.50400001928E-02 0. -1.
    10030    2    1    2    0    0  0.00000000000E+00  0.00000000000E+00  0.63844116340E+03  0.16383547703E+04  0.15088403608E+04 0.  0.
        3    1    3    3  502    0 -0.29720436632E+02  0.56305834805E+03 -0.22503382512E+03  0.60708997711E+03  0.10100000352E+00 0. -1.
       -3    1    3    3    0  502  0.29720436632E+02 -0.56305834805E+03  0.86347498852E+03  0.10312647932E+04  0.10100000352E+00 0.  1.
</event>
<event>
 5   0  0.1526126E-03  0.1483933E+04  0.7818609E-02  0.8895208E-01
       -2   -1    0    0    0  501  0.00000000000E+00  0.00000000000E+00  0.49058176081E+03  0.49058176081E+03  0.25500000920E-02 0.  1.
        2   -1    0    0  501    0  0.00000000000E+00  0.00000000000E+00 -0.11221657025E+04  0.11221657025E+04  0.25500000920E-02 0. -1.
    10030    2    1    2    0    0  0.00000000000E+00  0.00000000000E+00 -0.63158394168E+03  0.16127474633E+04  0.14839326484E+04 0.  0.
        2    1    3    3  502    0 -0.31051553185E+03 -0.52640728695E+03 -0.77301271633E+03  0.98543045766E+03  0.25500000920E-02 0. -1.
       -2    1    3    3    0  502  0.31051553185E+03  0.52640728695E+03  0.14142877465E+03  0.62731700565E+03  0.25500000920E-02 0.  1.
</event>
<event>
 5   0  0.1500956E-03  0.1489727E+04  0.7818609E-02  0.8891313E-01
       -2   -1    0    0    0  501  0.00000000000E+00  0.00000000000E+00  0.55829246401E+03  0.55829246401E+03  0.25500000920E-02 0.  1.
        2   -1    0    0  501    0  0.00000000000E+00  0.00000000000E+00 -0.99378368576E+03  0.99378368576E+03  0.25500000920E-02 0. -1.
    10030    2    1    2    0    0  0.00000000000E+00  0.00000000000E+00 -0.43549122175E+03  0.15520761498E+04  0.14897274148E+04 0.  0.
        4    1    3    3  502    0  0.16792079247E+03 -0.38283599134E+02  0.53726128810E+03  0.56419352273E+03  0.12699999809E+01 0.  1.
       -4    1    3    3    0  502 -0.16792079247E+03  0.38283599134E+02 -0.97275250985E+03  0.98788262704E+03  0.12699999809E+01 0. -1.
</event>
<event>
 5   0  0.1526126E-03  0.1604621E+04  0.7818609E-02  0.8817714E-01
        2   -1    0    0  501    0  0.00000000000E+00  0.00000000000E+00  0.76656213313E+03  0.76656213314E+03  0.25500000920E-02 0.  1.
       -2   -1    0    0    0  501  0.00000000000E+00  0.00000000000E+00 -0.83972588852E+03  0.83972588852E+03  0.25500000920E-02 0. -1.
    10030    2    1    2    0    0  0.00000000000E+00  0.00000000000E+00 -0.73163755385E+02  0.16062880217E+04  0.16046209127E+04 0.  0.
        2    1    3    3  502    0 -0.71113411108E+03  0.20300645042E+03  0.27483412228E+03  0.78895952851E+03  0.25500000920E-02 0.  1.
       -2    1    3    3    0  502  0.71113411108E+03 -0.20300645042E+03 -0.34799787766E+03  0.81732849315E+03  0.25500000920E-02 0. -1.
</event>
<event>
 5   0  0.8306301E-04  0.1463559E+04  0.7818609E-02  0.8909054E-01
       -1   -1    0    0    0  501  0.00000000000E+00  0.00000000000E+00  0.10857559537E+04  0.10857559537E+04  0.50400001928E-02 0.  1.
        1   -1    0    0  501    0  0.00000000000E+00  0.00000000000E+00 -0.49320576988E+03  0.49320576990E+03  0.50400001928E-02 0. -1.
    10030    2    1    2    0    0  0.00000000000E+00  0.00000000000E+00  0.59255018383E+03  0.15789617236E+04  0.14635588148E+04 0.  0.
        4    1    3    3  502    0  0.15976320846E+03  0.11872148848E+03 -0.46343850605E+03  0.50437678019E+03  0.12699999809E+01 0. -1.
       -4    1    3    3    0  502 -0.15976320846E+03 -0.11872148848E+03  0.10559886899E+04  0.10745849434E+04  0.12699999809E+01 0.  1.
</event>
<event>
 5   0  0.1484056E-03  0.1519002E+04  0.7818609E-02  0.8871914E-01
       -2   -1    0    0    0  501  0.00000000000E+00  0.00000000000E+00  0.12579179065E+04  0.12579179065E+04  0.25500000920E-02 0. -1.
        2   -1    0    0  501    0  0.00000000000E+00  0.00000000000E+00 -0.45856893439E+03  0.45856893439E+03  0.25500000920E-02 0.  1.
    10030    2    1    2    0    0  0.00000000000E+00  0.00000000000E+00  0.79934897210E+03  0.17164868409E+04  0.15190024015E+04 0.  0.
        5    1    3    3  502    0  0.43607768996E+03  0.55575559358E+03  0.84501233408E+02  0.71147071614E+03  0.46999998093E+01 0.  1.
       -5    1    3    3    0  502 -0.43607768996E+03 -0.55575559358E+03  0.71484773870E+03  0.10050161247E+04  0.46999998093E+01 0. -1.
</event>
<event>
 5   0  0.8191876E-04  0.1553897E+04  0.7818609E-02  0.8849382E-01
       -1   -1    0    0    0  501  0.00000000000E+00  0.00000000000E+00  0.34264482436E+03  0.34264482439E+03  0.50400001928E-02 0.  1.
        1   -1    0    0  501    0  0.00000000000E+00  0.00000000000E+00 -0.17617347479E+04  0.17617347479E+04  0.50400001928E-02 0. -1.
    10030    2    1    2    0    0  0.00000000000E+00  0.00000000000E+00 -0.14190899235E+04  0.21043795723E+04  0.15538974140E+04 0.  0.
        2    1    3    3  502    0  0.21431234771E+03  0.49645319039E+03 -0.14650876780E+04  0.15616905765E+04  0.25500000920E-02 0. -1.
       -2    1    3    3    0  502 -0.21431234771E+03 -0.49645319039E+03  0.45997754509E+02  0.54268899571E+03  0.25500000920E-02 0.  1.
</event>
<event>
 5   0  0.7870317E-04  0.1530457E+04  0.7818609E-02  0.8864448E-01
        1   -1    0    0  501    0  0.00000000000E+00  0.00000000000E+00  0.12841811530E+04  0.12841811530E+04  0.50400001928E-02 0. -1.
       -1   -1    0    0    0  501  0.00000000000E+00  0.00000000000E+00 -0.45599084592E+03  0.45599084594E+03  0.50400001928E-02 0.  1.
    10030    2    1    2    0    0  0.00000000000E+00  0.00000000000E+00  0.82819030706E+03  0.17401719989E+04  0.15304572523E+04 0.  0.
        1    1    3    3  502    0  0.10314696782E+03 -0.50669543614E+03 -0.22728843727E+03  0.56483590158E+03  0.50400001928E-02 0.  1.
       -1    1    3    3    0  502 -0.10314696782E+03  0.50669543614E+03  0.10554787443E+04  0.11753360973E+04  0.50400001928E-02 0. -1.
</event>
<event>
 5   0  0.8058234E-04  0.1528177E+04  0.7818609E-02  0.8865929E-01
        1   -1    0    0  501    0  0.00000000000E+00  0.00000000000E+00  0.19634482619E+04  0.19634482619E+04  0.50400001928E-02 0. -1.
       -1   -1    0    0    0  501  0.00000000000E+00  0.00000000000E+00 -0.29735010900E+03  0.29735010905E+03  0.50400001928E-02 0.  1.
    10030    2    1    2    0    0  0.00000000000E+00  0.00000000000E+00  0.16660981529E+04  0.22607983709E+04  0.15281774174E+04 0.  0.
        5    1    3    3  502    0 -0.86004270071E+02  0.39547993244E+03  0.17918247754E+04  0.18369701215E+04  0.46999998093E+01 0. -1.
       -5    1    3    3    0  502  0.86004270071E+02 -0.39547993244E+03 -0.12572662253E+03  0.42382824946E+03  0.46999998093E+01 0.  1.
</event>
<event>
 5   0  0.8306301E-04  0.1498017E+04  0.7818609E-02  0.8885772E-01
       -1   -1    0    0    0  501  0.00000000000E+00  0.00000000000E+00  0.77691051721E+03  0.77691051723E+03  0.50400001928E-02 0.  1.
        1   -1    0    0  501    0  0.00000000000E+00  0.00000000000E+00 -0.72210888444E+03  0.72210888445E+03  0.50400001928E-02 0. -1.
    10030    2    1    2    0    0  0.00000000000E+00  0.00000000000E+00  0.54801632774E+02  0.14990194017E+04  0.14980173389E+04 0.  0.
        4    1    3    3  502    0 -0.10063378972E+03 -0.62843256469E+02 -0.71264506300E+03  0.72245486588E+03  0.12699999809E+01 0. -1.
       -4    1    3    3    0  502  0.10063378972E+03  0.62843256469E+02  0.76744669577E+03  0.77656453580E+03  0.12699999809E+01 0.  1.
</event>
<event>
 5   0  0.1511546E-03  0.1511192E+04  0.7818609E-02  0.8877044E-01
       -2   -1    0    0    0  501  0.00000000000E+00  0.00000000000E+00  0.63157815534E+03  0.63157815535E+03  0.25500000920E-02 0.  1.
        2   -1    0    0  501    0  0.00000000000E+00  0.00000000000E+00 -0.90396665585E+03  0.90396665585E+03  0.25500000920E-02 0. -1.
    10030    2    1    2    0    0  0.00000000000E+00  0.00000000000E+00 -0.27238850050E+03  0.15355448112E+04  0.15111923676E+04 0.  0.
        1    1    3    3  502    0 -0.49406444152E+03 -0.44542890978E+03  0.22793653434E+03  0.70317967104E+03  0.50400001928E-02 0.  1.
       -1    1    3    3    0  502  0.49406444152E+03  0.44542890978E+03 -0.50032503485E+03  0.83236514017E+03  0.50400001928E-02 0. -1.
</event>
<event>
 5   0  0.7870317E-04  0.1515808E+04  0.7818609E-02  0.8874008E-01
        1   -1    0    0  501    0  0.00000000000E+00  0.00000000000E+00  0.26791293892E+04  0.26791293892E+04  0.50400001928E-02 0. -1.
       -1   -1    0    0    0  501  0.00000000000E+00  0.00000000000E+00 -0.21440502582E+03  0.21440502588E+03  0.50400001928E-02 0.  1.
    10030    2    1    2    0    0  0.00000000000E+00  0.00000000000E+00  0.24647243634E+04  0.28935344151E+04  0.15158084390E+04 0.  0.
        1    1    3    3  502    0  0.63325048857E+03  0.40799320723E+01  0.43747802231E+03  0.76968165312E+03  0.50400001928E-02 0.  1.
       -1    1    3    3    0  502 -0.63325048857E+03 -0.40799320723E+01  0.20272463411E+04  0.21238527620E+04  0.50400001928E-02 0. -1.
</event>
<event>
 5   0  0.1552067E-03  0.1323421E+04  0.7818609E-02  0.9011196E-01
       -2   -1    0    0    0  501  0.00000000000E+00  0.00000000000E+00  0.36276814473E+03  0.36276814474E+03  0.25500000920E-02 0. -1.
        2   -1    0    0  501    0  0.00000000000E+00  0.00000000000E+00 -0.12069990033E+04  0.12069990033E+04  0.25500000920E-02 0.  1.
    10030    2    1    2    0    0  0.00000000000E+00  0.00000000000E+00 -0.84423085858E+03  0.15697671480E+04  0.13234210050E+04 0.  0.
        3    1    3    3  502    0  0.34602291943E+03 -0.55981875233E+03 -0.50370867281E+03  0.82876494466E+03  0.10100000352E+00 0. -1.
       -3    1    3    3    0  502 -0.34602291943E+03  0.55981875233E+03 -0.34052218577E+03  0.74100220339E+03  0.10100000352E+00 0.  1.
</event>
<event>
 5   0  0.1511546E-03  0.1475975E+04  0.7818609E-02  0.8900588E-01
       -2   -1    0    0    0  501  0.00000000000E+00  0.00000000000E+00  0.55761089332E+03  0.55761089333E+03  0.25500000920E-02 0.  1.
        2   -1    0    0  501    0  0.00000000000E+00  0.00000000000E+00 -0.97671241955E+03  0.97671241955E+03  0.25500000920E-02 0. -1.
    10030    2    1    2    0    0  0.00000000000E+00  0.00000000000E+00 -0.41910152623E+03  0.15343233129E+04  0.14759749114E+04 0.  0.
        1    1    3    3  502    0 -0.41456800324E+03  0.38492790092E+03 -0.70219397558E+03  0.90172750739E+03  0.50400001928E-02 0. -1.
       -1    1    3    3    0  502  0.41456800324E+03 -0.38492790092E+03  0.28309244935E+03  0.63259580549E+03  0.50400001928E-02 0.  1.
</event>
<event>
 5   0  0.1511546E-03  0.1506854E+04  0.7818609E-02  0.8879908E-01
       -2   -1    0    0    0  501  0.00000000000E+00  0.00000000000E+00  0.38925106933E+03  0.38925106934E+03  0.25500000920E-02 0. -1.
        2   -1    0    0  501    0  0.00000000000E+00  0.00000000000E+00 -0.14583196440E+04  0.14583196440E+04  0.25500000920E-02 0.  1.
    10030    2    1    2    0    0  0.00000000000E+00  0.00000000000E+00 -0.10690685747E+04  0.18475707133E+04  0.15068543139E+04 0.  0.
        1    1    3    3  502    0 -0.18614277065E+03 -0.54121263255E+03 -0.11353189843E+04  0.12714202456E+04  0.50400001928E-02 0.  1.
       -1    1    3    3    0  502  0.18614277065E+03  0.54121263255E+03  0.66250409651E+02  0.57615046776E+03  0.50400001928E-02 0. -1.
</event>
<event>
 5   0  0.1484056E-03  0.1501014E+04  0.7818609E-02  0.8883779E-01
       -2   -1    0    0    0  501  0.00000000000E+00  0.00000000000E+00  0.27308591005E+03  0.27308591006E+03  0.25500000920E-02 0.  1.
        2   -1    0    0  501    0  0.00000000000E+00  0.00000000000E+00 -0.20625779964E+04  0.20625779964E+04  0.25500000920E-02 0. -1.
    10030    2    1    2    0    0  0.00000000000E+00  0.00000000000E+00 -0.17894920864E+04  0.23356639065E+04  0.15010143094E+04 0.  0.
        5    1    3    3  502    0 -0.35122502903E+02  0.50713717588E+03 -0.17538490666E+04  0.18260422623E+04  0.46999998093E+01 0. -1.
       -5    1    3    3    0  502  0.35122502903E+02 -0.50713717588E+03 -0.35643019794E+02  0.50962164419E+03  0.46999998093E+01 0.  1.
</event>
<event>
 5   0  0.8058234E-04  0.1530014E+04  0.7818609E-02  0.8864736E-01
       -1   -1    0    0    0  501  0.00000000000E+00  0.00000000000E+00  0.49322941664E+03  0.49322941667E+03  0.50400001928E-02 0. -1.
        1   -1    0    0  501    0  0.00000000000E+00  0.00000000000E+00 -0.11865386315E+04  0.11865386315E+04  0.50400001928E-02 0.  1.
    10030    2    1    2    0    0  0.00000000000E+00  0.00000000000E+00 -0.69330921487E+03  0.16797680482E+04  0.15300140615E+04 0.  0.
        5    1    3    3  502    0 -0.25966804425E+03  0.55818913122E+03  0.15189672267E+03  0.63411142852E+03  0.46999998093E+01 0. -1.
       -5    1    3    3    0  502  0.25966804425E+03 -0.55818913122E+03 -0.84520593754E+03  0.10456566197E+04  0.46999998093E+01 0.  1.
</event>
<event>
 5   0  0.1552067E-03  0.1256672E+04  0.7818609E-02  0.9064649E-01
       -2   -1    0    0    0  501  0.00000000000E+00  0.00000000000E+00  0.20488418820E+03  0.20488418822E+03  0.25500000920E-02 0.  1.
        2   -1    0    0  501    0  0.00000000000E+00  0.00000000000E+00 -0.19269716702E+04  0.19269716702E+04  0.25500000920E-02 0. -1.
    10030    2    1    2    0    0  0.00000000000E+00  0.00000000000E+00 -0.17220874820E+04  0.21318558584E+04  0.12566718368E+04 0.  0.
        3    1    3    3  502    0  0.41058857901E+03  0.44362844725E+03 -0.11520041730E+04  0.13009622612E+04  0.10100000352E+00 0. -1.
       -3    1    3    3    0  502 -0.41058857901E+03 -0.44362844725E+03 -0.57008330906E+03  0.83089359722E+03  0.10100000352E+00 0.  1.
</event>
<event>
 5   0  0.8191876E-04  0.1472319E+04  0.7818609E-02  0.8903072E-01
       -1   -1    0    0    0  501  0.00000000000E+00  0.00000000000E+00  0.55663247388E+03  0.55663247391E+03  0.50400001928E-02 0.  1.
        1   -1    0    0  501    0  0.00000000000E+00  0.00000000000E+00 -0.97358758873E+03  0.97358758874E+03  0.50400001928E-02 0. -1.
    10030    2    1    2    0    0  0.00000000000E+00  0.00000000000E+00 -0.41695511484E+03  0.15302200626E+04  0.14723185363E+04 0.  0.
        2    1    3    3  502    0  0.61997210172E+03  0.20358432551E+03  0.14568511793E+03  0.66860761145E+03  0.25500000920E-02 0.  1.
       -2    1    3    3    0  502 -0.61997210172E+03 -0.20358432551E+03 -0.56264023278E+03  0.86161245119E+03  0.25500000920E-02 0. -1.
</event>
<event>
 5   0  0.7870317E-04  0.1517926E+04  0.7818609E-02  0.8872619E-01
       -1   -1    0    0    0  501  0.00000000000E+00  0.00000000000E+00  0.90105938101E+03  0.90105938103E+03  0.50400001928E-02 0.  1.
        1   -1    0    0  501    0  0.00000000000E+00  0.00000000000E+00 -0.63927552461E+03  0.63927552463E+03  0.50400001928E-02 0. -1.
    10030    2    1    2    0    0  0.00000000000E+00  0.00000000000E+00  0.26178385641E+03  0.15403349057E+04  0.15179264917E+04 0.  0.
        1    1    3    3  502    0 -0.48514334221E+02 -0.73598107529E+03 -0.50644022465E+02  0.73931495376E+03  0.50400001928E-02 0. -1.
       -1    1    3    3    0  502  0.48514334221E+02  0.73598107529E+03  0.31242787887E+03  0.80101995190E+03  0.50400001928E-02 0.  1.
</event>
<event>
 5   0  0.8365016E-04  0.1501235E+04  0.7818609E-02  0.8883632E-01
        1   -1    0    0  501    0  0.00000000000E+00  0.00000000000E+00  0.87789196073E+03  0.87789196075E+03  0.50400001928E-02 0. -1.
       -1   -1    0    0    0  501  0.00000000000E+00  0.00000000000E+00 -0.64179479209E+03  0.64179479211E+03  0.50400001928E-02 0.  1.
    10030    2    1    2    0    0  0.00000000000E+00  0.00000000000E+00  0.23609716864E+03  0.15196867529E+04  0.15012348097E+04 0.  0.
        3    1    3    3  502    0  0.56067168415E+03 -0.49769047900E+03  0.15562529024E+03  0.76568125970E+03  0.10100000352E+00 0. -1.
       -3    1    3    3    0  502 -0.56067168415E+03  0.49769047900E+03  0.80471878399E+02  0.75400549315E+03  0.10100000352E+00 0.  1.
</event>
<event>
 5   0  0.8365016E-04  0.1485884E+04  0.7818609E-02  0.8893894E-01
       -1   -1    0    0    0  501  0.00000000000E+00  0.00000000000E+00  0.24818121577E+03  0.24818121582E+03  0.50400001928E-02 0. -1.
        1   -1    0    0  501    0  0.00000000000E+00  0.00000000000E+00 -0.22240322273E+04  0.22240322274E+04  0.50400001928E-02 0.  1.
    10030    2    1    2    0    0  0.00000000000E+00  0.00000000000E+00 -0.19758510116E+04  0.24722134432E+04  0.14858842783E+04 0.  0.
        3    1    3    3  502    0 -0.68008021234E+03  0.29351872333E+03 -0.10835132935E+04  0.13125027252E+04  0.10100000352E+00 0. -1.
       -3    1    3    3    0  502  0.68008021234E+03 -0.29351872333E+03 -0.89233771805E+03  0.11597107180E+04  0.10100000352E+00 0.  1.
</event>
<event>
 5   0  0.1526126E-03  0.1487434E+04  0.7818609E-02  0.8892853E-01
        2   -1    0    0  501    0  0.00000000000E+00  0.00000000000E+00  0.14007086808E+04  0.14007086808E+04  0.25500000920E-02 0.  1.
       -2   -1    0    0    0  501  0.00000000000E+00  0.00000000000E+00 -0.39488216033E+03  0.39488216034E+03  0.25500000920E-02 0. -1.
    10030    2    1    2    0    0  0.00000000000E+00  0.00000000000E+00  0.10058265205E+04  0.17955908412E+04  0.14874338572E+04 0.  0.
        2    1    3    3  502    0 -0.11483470570E+03  0.45892853687E+03  0.11956588973E+04  0.12858470400E+04  0.25500000920E-02 0. -1.
       -2    1    3    3    0  502  0.11483470570E+03 -0.45892853687E+03 -0.18983237677E+03  0.50974380120E+03  0.25500000920E-02 0.  1.
</event>
<event>
 5   0  0.8058234E-04  0.1568857E+04  0.7818609E-02  0.8839912E-01
       -1   -1    0    0    0  501  0.00000000000E+00  0.00000000000E+00  0.78947383988E+03  0.78947383989E+03  0.50400001928E-02 0. -1.
        1   -1    0    0  501    0  0.00000000000E+00  0.00000000000E+00 -0.77941527749E+03  0.77941527750E+03  0.50400001928E-02 0.  1.
    10030    2    1    2    0    0  0.00000000000E+00  0.00000000000E+00  0.10058562387E+02  0.15688891174E+04  0.15688568730E+04 0.  0.
        5    1    3    3  502    0 -0.18790719248E+03  0.35284511100E+03 -0.66988984013E+03  0.78011747400E+03  0.46999998093E+01 0.  1.
       -5    1    3    3    0  502  0.18790719248E+03 -0.35284511100E+03  0.67994840252E+03  0.78877164339E+03  0.46999998093E+01 0. -1.
</event>
<event>
 5   0  0.1484056E-03  0.1502136E+04  0.7818609E-02  0.8883034E-01
        2   -1    0    0  501    0  0.00000000000E+00  0.00000000000E+00  0.73234913153E+03  0.73234913153E+03  0.25500000920E-02 0. -1.
       -2   -1    0    0    0  501  0.00000000000E+00  0.00000000000E+00 -0.77026561952E+03  0.77026561952E+03  0.25500000920E-02 0.  1.
    10030    2    1    2    0    0  0.00000000000E+00  0.00000000000E+00 -0.37916487993E+02  0.15026147511E+04  0.15021362888E+04 0.  0.
        5    1    3    3  502    0 -0.18556621726E+03 -0.72518739481E+03  0.42295964132E+02  0.74976170692E+03  0.46999998093E+01 0. -1.
       -5    1    3    3    0  502  0.18556621726E+03  0.72518739481E+03 -0.80212452124E+02  0.75285304413E+03  0.46999998093E+01 0.  1.
</event>
<event>
 5   0  0.8191876E-04  0.1614504E+04  0.7818609E-02  0.8811687E-01
       -1   -1    0    0    0  501  0.00000000000E+00  0.00000000000E+00  0.80967802993E+03  0.80967802995E+03  0.50400001928E-02 0.  1.
        1   -1    0    0  501    0  0.00000000000E+00  0.00000000000E+00 -0.80483347368E+03  0.80483347370E+03  0.50400001928E-02 0. -1.
    10030    2    1    2    0    0  0.00000000000E+00  0.00000000000E+00  0.48445562470E+01  0.16145115036E+04  0.16145042353E+04 0.  0.
        2    1    3    3  502    0 -0.57045182495E+03 -0.62348315195E+02  0.57018656623E+03  0.80895940399E+03  0.25500000920E-02 0.  1.
       -2    1    3    3    0  502  0.57045182495E+03  0.62348315195E+02 -0.56534200998E+03  0.80555209965E+03  0.25500000920E-02 0. -1.
</event>
<event>
 5   0  0.5603875E-04  0.1490328E+04  0.7818609E-02  0.8890910E-01
        4   -1    0    0  501    0  0.00000000000E+00  0.00000000000E+00  0.52112800874E+03  0.52112955625E+03  0.12699999809E+01 0. -1.
       -4   -1    0    0    0  501  0.00000000000E+00  0.00000000000E+00 -0.10655108550E+04  0.10655116119E+04  0.12699999809E+01 0.  1.
    10030    2    1    2    0    0  0.00000000000E+00  0.00000000000E+00 -0.54438284628E+03  0.15866411681E+04  0.14903279884E+04 0.  0.
        3    1    3    3  502    0  0.20674630768E+03 -0.70619147696E+03 -0.14704049562E+03  0.75038080694E+03  0.10100000352E+00 0. -1.
       -3    1    3    3    0  502 -0.20674630768E+03  0.70619147696E+03 -0.39734235067E+03  0.83626036120E+03  0.10100000352E+00 0.  1.
</event>
<event>
 5   0  0.7870317E-04  0.1386364E+04  0.7818609E-02  0.8963748E-01
        1   -1    0    0  501    0  0.00000000000E+00  0.00000000000E+00  0.11834474910E+04  0.11834474910E+04  0.50400001928E-02 0. -1.
       -1   -1    0    0    0  501  0.00000000000E+00  0.00000000000E+00 -0.40601845511E+03  0.40601845514E+03  0.50400001928E-02 0.  1.
    10030    2    1    2    0    0  0.00000000000E+00  0.00000000000E+00  0.77742903588E+03  0.15894659461E+04  0.13863643418E+04 0.  0.
        1    1    3    3  502    0  0.39199634090E+03  0.49095801740E+03  0.72454417875E+03  0.95899174820E+03  0.50400001928E-02 0. -1.
       -1    1    3    3    0  502 -0.39199634090E+03 -0.49095801740E+03  0.52884857132E+02  0.63047419794E+03  0.50400001928E-02 0.  1.
</event>
<event>
 5   0  0.8191876E-04  0.1505483E+04  0.7818609E-02  0.8880815E-01
        1   -1    0    0  501    0  0.00000000000E+00  0.00000000000E+00  0.16134489044E+04  0.16134489044E+04  0.50400001928E-02 0.  1.
       -1   -1    0    0    0  501  0.00000000000E+00  0.00000000000E+00 -0.35118554899E+03  0.35118554903E+03  0.50400001928E-02 0. -1.
    10030    2    1    2    0    0  0.00000000000E+00  0.00000000000E+00  0.12622633554E+04  0.19646344535E+04  0.15054832305E+04 0.  0.
        2    1    3    3  502    0  0.49971179973E+03 -0.56285157760E+03  0.64457734688E+03  0.99095597143E+03  0.25500000920E-02 0. -1.
       -2    1    3    3    0  502 -0.49971179973E+03  0.56285157760E+03  0.61768600855E+03  0.97367848203E+03  0.25500000920E-02 0.  1.
</event>
<event>
 5   0  0.1511546E-03  0.1486226E+04  0.7818609E-02  0.8893664E-01
        2   -1    0    0  501    0  0.00000000000E+00  0.00000000000E+00  0.72505841044E+03  0.72505841044E+03  0.25500000920E-02 0. -1.
       -2   -1    0    0    0  501  0.00000000000E+00  0.00000000000E+00 -0.76161722919E+03  0.76161722919E+03  0.25500000920E-02 0.  1.
    10030    2    1    2    0    0  0.00000000000E+00  0.00000000000E+00 -0.36558818750E+02  0.14866756396E+04  0.14862260630E+04 0.  0.
        1    1    3    3  502    0  0.38357779796E+02  0.50803871720E+03 -0.55940729890E+03  0.75664468777E+03  0.50400001928E-02 0.  1.
       -1    1    3    3    0  502 -0.38357779796E+02 -0.50803871720E+03  0.52284848015E+03  0.73003095186E+03  0.50400001928E-02 0. -1.
</event>
<event>
 5   0  0.1511546E-03  0.1496856E+04  0.7818609E-02  0.8886547E-01
        2   -1    0    0  501    0  0.00000000000E+00  0.00000000000E+00  0.47901063530E+03  0.47901063531E+03  0.25500000920E-02 0.  1.
       -2   -1    0    0    0  501  0.00000000000E+00  0.00000000000E+00 -0.11693771697E+04  0.11693771697E+04  0.25500000920E-02 0. -1.
    10030    2    1    2    0    0  0.00000000000E+00  0.00000000000E+00 -0.69036653439E+03  0.16483878050E+04  0.14968555053E+04 0.  0.
        1    1    3    3  502    0 -0.40037976120E+03 -0.19257144096E+03 -0.10084482180E+04  0.11019780041E+04  0.50400001928E-02 0. -1.
       -1    1    3    3    0  502  0.40037976120E+03  0.19257144096E+03  0.31808168362E+03  0.54640980091E+03  0.50400001928E-02 0.  1.
</event>
<event>
 5   0  0.5603875E-04  0.1494022E+04  0.7818609E-02  0.8888438E-01
       -3   -1    0    0    0  501  0.00000000000E+00  0.00000000000E+00  0.38101729489E+03  0.38101730828E+03  0.10100000352E+00 0.  1.
        3   -1    0    0  501    0  0.00000000000E+00  0.00000000000E+00 -0.14645670874E+04  0.14645670909E+04  0.10100000352E+00 0. -1.
    10030    2    1    2    0    0  0.00000000000E+00  0.00000000000E+00 -0.10835497926E+04  0.18455843992E+04  0.14940219616E+04 0.  0.
        3    1    3    3  502    0 -0.60883216719E+03  0.45896277753E+02 -0.10734508682E+04  0.12349412345E+04  0.10100000352E+00 0. -1.
       -3    1    3    3    0  502  0.60883216719E+03 -0.45896277753E+02 -0.10098924381E+02  0.61064316469E+03  0.10100000352E+00 0.  1.
</event>
<event>
 5   0  0.8306301E-04  0.1450422E+04  0.7818609E-02  0.8918108E-01
       -1   -1    0    0    0  501  0.00000000000E+00  0.00000000000E+00  0.10828640208E+04  0.10828640208E+04  0.50400001928E-02 0.  1.
        1   -1    0    0  501    0  0.00000000000E+00  0.00000000000E+00 -0.48568529550E+03  0.48568529553E+03  0.50400001928E-02 0. -1.
    10030    2    1    2    0    0  0.00000000000E+00  0.00000000000E+00  0.59717872529E+03  0.15685493163E+04  0.14504221895E+04 0.  0.
        4    1    3    3  502    0 -0.57618834892E+03 -0.37538230481E+03  0.54761414510E+03  0.87908347329E+03  0.12699999809E+01 0.  1.
       -4    1    3    3    0  502  0.57618834892E+03  0.37538230481E+03  0.49564580188E+02  0.68946584303E+03  0.12699999809E+01 0. -1.
</event>
<event>
 5   0  0.1484056E-03  0.1491825E+04  0.7818609E-02  0.8889908E-01
       -2   -1    0    0    0  501  0.00000000000E+00  0.00000000000E+00  0.44352802969E+03  0.44352802969E+03  0.25500000920E-02 0.  1.
        2   -1    0    0  501    0  0.00000000000E+00  0.00000000000E+00 -0.12544535594E+04  0.12544535594E+04  0.25500000920E-02 0. -1.
    10030    2    1    2    0    0  0.00000000000E+00  0.00000000000E+00 -0.81092552967E+03  0.16979815891E+04  0.14918248095E+04 0.  0.
        5    1    3    3  502    0  0.57789728236E+03 -0.47155827669E+03 -0.39915136956E+03  0.84597658543E+03  0.46999998093E+01 0.  1.
       -5    1    3    3    0  502 -0.57789728236E+03  0.47155827669E+03 -0.41177416011E+03  0.85200500363E+03  0.46999998093E+01 0. -1.
</event>
<event>
 5   0  0.8058234E-04  0.1413500E+04  0.7818609E-02  0.8944104E-01
        1   -1    0    0  501    0  0.00000000000E+00  0.00000000000E+00  0.61965392372E+03  0.61965392374E+03  0.50400001928E-02 0.  1.
       -1   -1    0    0    0  501  0.00000000000E+00  0.00000000000E+00 -0.80608840665E+03  0.80608840666E+03  0.50400001928E-02 0. -1.
    10030    2    1    2    0    0  0.00000000000E+00  0.00000000000E+00 -0.18643448293E+03  0.14257423304E+04  0.14135003984E+04 0.  0.
        5    1    3    3  502    0  0.64427912007E+03  0.24282277084E+03  0.67585143324E+02  0.69184414733E+03  0.46999998093E+01 0.  1.
       -5    1    3    3    0  502 -0.64427912007E+03 -0.24282277084E+03 -0.25401962625E+03  0.73389818307E+03  0.46999998093E+01 0. -1.
</event>
<event>
 5   0  0.8191876E-04  0.1481030E+04  0.7818609E-02  0.8897167E-01
        1   -1    0    0  501    0  0.00000000000E+00  0.00000000000E+00  0.30424501049E+03  0.30424501053E+03  0.50400001928E-02 0.  1.
       -1   -1    0    0    0  501  0.00000000000E+00  0.00000000000E+00 -0.18023703485E+04  0.18023703485E+04  0.50400001928E-02 0. -1.
    10030    2    1    2    0    0  0.00000000000E+00  0.00000000000E+00 -0.14981253380E+04  0.21066153591E+04  0.14810296225E+04 0.  0.
        2    1    3    3  502    0 -0.37500441716E+03 -0.56860157795E+03 -0.11623574415E+04  0.13472233999E+04  0.25500000920E-02 0. -1.
       -2    1    3    3    0  502  0.37500441716E+03  0.56860157795E+03 -0.33576789651E+03  0.75939195918E+03  0.25500000920E-02 0.  1.
</event>
<event>
 5   0  0.1484056E-03  0.1462359E+04  0.7818609E-02  0.8909877E-01
        2   -1    0    0  501    0  0.00000000000E+00  0.00000000000E+00  0.69535907423E+03  0.69535907423E+03  0.25500000920E-02 0. -1.
       -2   -1    0    0    0  501  0.00000000000E+00  0.00000000000E+00 -0.76884471010E+03  0.76884471010E+03  0.25500000920E-02 0.  1.
    10030    2    1    2    0    0  0.00000000000E+00  0.00000000000E+00 -0.73485635869E+02  0.14642037843E+04  0.14623585687E+04 0.  0.
        5    1    3    3  502    0 -0.38602225164E+03  0.30674707678E+03  0.50384037755E+03  0.70497103765E+03  0.46999998093E+01 0. -1.
       -5    1    3    3    0  502  0.38602225164E+03 -0.30674707678E+03 -0.57732601341E+03  0.75923274668E+03  0.46999998093E+01 0.  1.
</event>
<event>
 5   0  0.1511546E-03  0.1490348E+04  0.7818609E-02  0.8890897E-01
        2   -1    0    0  501    0  0.00000000000E+00  0.00000000000E+00  0.47996971999E+03  0.47996972000E+03  0.25500000920E-02 0.  1.
       -2   -1    0    0    0  501  0.00000000000E+00  0.00000000000E+00 -0.11569145017E+04  0.11569145017E+04  0.25500000920E-02 0. -1.
    10030    2    1    2    0    0  0.00000000000E+00  0.00000000000E+00 -0.67694478174E+03  0.16368842217E+04  0.14903475158E+04 0.  0.
        1    1    3    3  502    0  0.24123377998E+03 -0.70187928321E+03 -0.41178634810E+03  0.84876160452E+03  0.50400001928E-02 0.  1.
       -1    1    3    3    0  502 -0.24123377998E+03  0.70187928321E+03 -0.26515843364E+03  0.78812261721E+03  0.50400001928E-02 0. -1.
</event>
<event>
 5   0  0.8191876E-04  0.1488760E+04  0.7818609E-02  0.8891962E-01
       -1   -1    0    0    0  501  0.00000000000E+00  0.00000000000E+00  0.84411630628E+03  0.84411630629E+03  0.50400001928E-02 0. -1.
        1   -1    0    0  501    0  0.00000000000E+00  0.00000000000E+00 -0.65642793851E+03  0.65642793853E+03  0.50400001928E-02 0.  1.
    10030    2    1    2    0    0  0.00000000000E+00  0.00000000000E+00  0.18768836777E+03  0.15005442448E+04  0.14887599226E+04 0.  0.
        2    1    3    3  502    0 -0.70917654238E+03 -0.40108533258E+02 -0.13054204523E+03  0.72220584896E+03  0.25500000920E-02 0.  1.
       -2    1    3    3    0  502  0.70917654238E+03  0.40108533258E+02  0.31823041300E+03  0.77833839586E+03  0.25500000920E-02 0. -1.
</event>
<event>
 5   0  0.8058234E-04  0.1486352E+04  0.7818609E-02  0.8893580E-01
       -1   -1    0    0    0  501  0.00000000000E+00  0.00000000000E+00  0.64283242345E+03  0.64283242347E+03  0.50400001928E-02 0. -1.
        1   -1    0    0  501    0  0.00000000000E+00  0.00000000000E+00 -0.85918289667E+03  0.85918289668E+03  0.50400001928E-02 0.  1.
    10030    2    1    2    0    0  0.00000000000E+00  0.00000000000E+00 -0.21635047322E+03  0.15020153201E+04  0.14863520763E+04 0.  0.
        5    1    3    3  502    0 -0.12065783592E+03 -0.47631976477E+03  0.45523910272E+03  0.66985338868E+03  0.46999998093E+01 0. -1.
       -5    1    3    3    0  502  0.12065783592E+03  0.47631976477E+03 -0.67158957594E+03  0.83216193147E+03  0.46999998093E+01 0.  1.
</event>
<event>
 5   0  0.8365016E-04  0.1519544E+04  0.7818609E-02  0.8871559E-01
        1   -1    0    0  501    0  0.00000000000E+00  0.00000000000E+00  0.13932644651E+04  0.13932644651E+04  0.50400001928E-02 0. -1.
       -1   -1    0    0    0  501  0.00000000000E+00  0.00000000000E+00 -0.41431739205E+03  0.41431739208E+03  0.50400001928E-02 0.  1.
    10030    2    1    2    0    0  0.00000000000E+00  0.00000000000E+00  0.97894707302E+03  0.18075818572E+04  0.15195442733E+04 0.  0.
        3    1    3    3  502    0  0.67014317042E+03  0.61871773286E+02  0.90892242880E+03  0.11309553382E+04  0.10100000352E+00 0. -1.
       -3    1    3    3    0  502 -0.67014317042E+03 -0.61871773286E+02  0.70024644223E+02  0.67662651898E+03  0.10100000352E+00 0.  1.
</event>
<event>
 5   0  0.8365016E-04  0.1612267E+04  0.7818609E-02  0.8813047E-01
        1   -1    0    0  501    0  0.00000000000E+00  0.00000000000E+00  0.13059765043E+04  0.13059765043E+04  0.50400001928E-02 0.  1.
       -1   -1    0    0    0  501  0.00000000000E+00  0.00000000000E+00 -0.49759767061E+03  0.49759767063E+03  0.50400001928E-02 0. -1.
    10030    2    1    2    0    0  0.00000000000E+00  0.00000000000E+00  0.80837883365E+03  0.18035741749E+04  0.16122665616E+04 0.  0.
        3    1    3    3  502    0 -0.45731904877E+03 -0.65545471312E+03  0.28638854593E+03  0.84898763404E+03  0.10100000352E+00 0.  1.
       -3    1    3    3    0  502  0.45731904877E+03  0.65545471312E+03  0.52199028771E+03  0.95458654086E+03  0.10100000352E+00 0. -1.
</event>
<event>
 5   0  0.8058234E-04  0.1566535E+04  0.7818609E-02  0.8841375E-01
       -1   -1    0    0    0  501  0.00000000000E+00  0.00000000000E+00  0.88835226256E+03  0.88835226257E+03  0.50400001928E-02 0. -1.
        1   -1    0    0  501    0  0.00000000000E+00  0.00000000000E+00 -0.69061322654E+03  0.69061322655E+03  0.50400001928E-02 0.  1.
    10030    2    1    2    0    0  0.00000000000E+00  0.00000000000E+00  0.19773903602E+03  0.15789654891E+04  0.15665348032E+04 0.  0.
        5    1    3    3  502    0 -0.11434132199E+03  0.25318606991E+03 -0.63927257852E+03  0.69704278459E+03  0.46999998093E+01 0.  1.
       -5    1    3    3    0  502  0.11434132199E+03 -0.25318606991E+03  0.83701161454E+03  0.88192270454E+03  0.46999998093E+01 0. -1.
</event>
<event>
 5   0  0.8306301E-04  0.1502393E+04  0.7818609E-02  0.8882863E-01
        1   -1    0    0  501    0  0.00000000000E+00  0.00000000000E+00  0.65518434812E+03  0.65518434814E+03  0.50400001928E-02 0.  1.
       -1   -1    0    0    0  501  0.00000000000E+00  0.00000000000E+00 -0.86127838452E+03  0.86127838454E+03  0.50400001928E-02 0. -1.
    10030    2    1    2    0    0  0.00000000000E+00  0.00000000000E+00 -0.20609403640E+03  0.15164627327E+04  0.15023929139E+04 0.  0.
        4    1    3    3  502    0 -0.17626890979E+03  0.96898842654E+02 -0.83358906757E+03  0.85751528310E+03  0.12699999809E+01 0. -1.
       -4    1    3    3    0  502  0.17626890979E+03 -0.96898842654E+02  0.62749503117E+03  0.65894744958E+03  0.12699999809E+01 0.  1.
</event>
<event>
 5   0  0.8058234E-04  0.1494123E+04  0.7818609E-02  0.8888370E-01
        1   -1    0    0  501    0  0.00000000000E+00  0.00000000000E+00  0.10168153924E+04  0.10168153924E+04  0.50400001928E-02 0.  1.
       -1   -1    0    0    0  501  0.00000000000E+00  0.00000000000E+00 -0.54887148495E+03  0.54887148498E+03  0.50400001928E-02 0. -1.
    10030    2    1    2    0    0  0.00000000000E+00  0.00000000000E+00  0.46794390747E+03  0.15656868774E+04  0.14941231200E+04 0.  0.
        5    1    3    3  502    0  0.81684265800E+02 -0.67547715044E+02 -0.54093614559E+03  0.55124315569E+03  0.46999998093E+01 0. -1.
       -5    1    3    3    0  502 -0.81684265800E+02  0.67547715044E+02  0.10088800531E+04  0.10144437217E+04  0.46999998093E+01 0.  1.
</event>
<event>
 5   0  0.1500956E-03  0.1522487E+04  0.7818609E-02  0.8869635E-01
        2   -1    0    0  501    0  0.00000000000E+00  0.00000000000E+00  0.10254660735E+04  0.10254660735E+04  0.25500000920E-02 0. -1.
       -2   -1    0    0    0  501  0.00000000000E+00  0.00000000000E+00 -0.56510104641E+03  0.56510104641E+03  0.25500000920E-02 0.  1.
    10030    2    1    2    0    0  0.00000000000E+00  0.00000000000E+00  0.46036502707E+03  0.15905671199E+04  0.15224873742E+04 0.  0.
        4    1    3    3  502    0  0.13562134040E+03 -0.44275383075E+03  0.86140743150E+03  0.97798183958E+03  0.12699999809E+01 0. -1.
       -4    1    3    3    0  502 -0.13562134040E+03  0.44275383075E+03 -0.40104240442E+03  0.61258528031E+03  0.12699999809E+01 0.  1.
</event>
<event>
 5   0  0.8058234E-04  0.1529882E+04  0.7818609E-02  0.8864821E-01
        1   -1    0    0  501    0  0.00000000000E+00  0.00000000000E+00  0.96453112911E+03  0.96453112912E+03  0.50400001928E-02 0.  1.
       -1   -1    0    0    0  501  0.00000000000E+00  0.00000000000E+00 -0.60665224047E+03  0.60665224049E+03  0.50400001928E-02 0. -1.
    10030    2    1    2    0    0  0.00000000000E+00  0.00000000000E+00  0.35787888864E+03  0.15711833696E+04  0.15298823099E+04 0.  0.
        5    1    3    3  502    0 -0.31030103458E+03  0.42438118789E+03 -0.39169237557E+03  0.65561507897E+03  0.46999998093E+01 0. -1.
       -5    1    3    3    0  502  0.31030103458E+03 -0.42438118789E+03  0.74957126421E+03  0.91556829064E+03  0.46999998093E+01 0.  1.
</event>
<event>
 5   0  0.1552067E-03  0.1536139E+04  0.7818609E-02  0.8860770E-01
       -2   -1    0    0    0  501  0.00000000000E+00  0.00000000000E+00  0.74154308624E+03  0.74154308624E+03  0.25500000920E-02 0. -1.
        2   -1    0    0  501    0  0.00000000000E+00  0.00000000000E+00 -0.79554490790E+03  0.79554490790E+03  0.25500000920E-02 0.  1.
    10030    2    1    2    0    0  0.00000000000E+00  0.00000000000E+00 -0.54001821661E+02  0.15370879941E+04  0.15361390904E+04 0.  0.
        3    1    3    3  502    0 -0.68966203834E+03  0.10627935743E+02 -0.36512107750E+03  0.78042302092E+03  0.10100000352E+00 0.  1.
       -3    1    3    3    0  502  0.68966203834E+03 -0.10627935743E+02  0.31111925583E+03  0.75666497322E+03  0.10100000352E+00 0. -1.
</event>
<event>
 5   0  0.1552067E-03  0.1513232E+04  0.7818609E-02  0.8875701E-01
       -2   -1    0    0    0  501  0.00000000000E+00  0.00000000000E+00  0.70618686074E+03  0.70618686075E+03  0.25500000920E-02 0.  1.
        2   -1    0    0  501    0  0.00000000000E+00  0.00000000000E+00 -0.81064608692E+03  0.81064608692E+03  0.25500000920E-02 0. -1.
    10030    2    1    2    0    0  0.00000000000E+00  0.00000000000E+00 -0.10445922618E+03  0.15168329477E+04  0.15132317936E+04 0.  0.
        3    1    3    3  502    0 -0.61850871350E+03  0.22147537878E+03 -0.42844029463E+03  0.78432484874E+03  0.10100000352E+00 0. -1.
       -3    1    3    3    0  502  0.61850871350E+03 -0.22147537878E+03  0.32398106845E+03  0.73250809893E+03  0.10100000352E+00 0.  1.
</event>
<event>
 5   0  0.5603875E-04  0.1453091E+04  0.7818609E-02  0.8916260E-01
        4   -1    0    0  501    0  0.00000000000E+00  0.00000000000E+00  0.12370440278E+04  0.12370446797E+04  0.12699999809E+01 0.  1.
       -4   -1    0    0    0  501  0.00000000000E+00  0.00000000000E+00 -0.42671599060E+03  0.42671788049E+03  0.12699999809E+01 0. -1.
    10030    2    1    2    0    0  0.00000000000E+00  0.00000000000E+00  0.81032803716E+03  0.16637625602E+04  0.14530913009E+04 0.  0.
        5    1    3    3  502    0  0.51303493558E+03  0.48709939356E+02 -0.18120621433E+03  0.54629230768E+03  0.46999998093E+01 0. -1.
       -5    1    3    3    0  502 -0.51303493558E+03 -0.48709939356E+02  0.99153425150E+03  0.11174702525E+04  0.46999998093E+01 0.  1.
</event>
<event>
 5   0  0.1484056E-03  0.1470121E+04  0.7818609E-02  0.8904569E-01
        2   -1    0    0  501    0  0.00000000000E+00  0.00000000000E+00  0.82627924995E+03  0.82627924995E+03  0.25500000920E-02 0.  1.
       -2   -1    0    0    0  501  0.00000000000E+00  0.00000000000E+00 -0.65391242956E+03  0.65391242957E+03  0.25500000920E-02 0. -1.
    10030    2    1    2    0    0  0.00000000000E+00  0.00000000000E+00  0.17236682038E+03  0.14801916795E+04  0.14701214533E+04 0.  0.
        5    1    3    3  502    0 -0.63093088543E+03 -0.17428440500E+03  0.42290411261E+03  0.77930662417E+03  0.46999998093E+01 0.  1.
       -5    1    3    3    0  502  0.63093088543E+03  0.17428440500E+03 -0.25053729223E+03  0.70088505535E+03  0.46999998093E+01 0. -1.
</event>
<event>
 5   0  0.8058234E-04  0.1498279E+04  0.7818609E-02  0.8885598E-01
        1   -1    0    0  501    0  0.00000000000E+00  0.00000000000E+00  0.67798286844E+03  0.67798286846E+03  0.50400001928E-02 0. -1.
       -1   -1    0    0    0  501  0.00000000000E+00  0.00000000000E+00 -0.82776383433E+03  0.82776383434E+03  0.50400001928E-02 0.  1.
    10030    2    1    2    0    0  0.00000000000E+00  0.00000000000E+00 -0.14978096588E+03  0.15057467028E+04  0.14982786107E+04 0.  0.
        5    1    3    3  502    0  0.52697497404E+01  0.33117960022E+03  0.60038122852E+03  0.68570212733E+03  0.46999998093E+01 0. -1.
       -5    1    3    3    0  502 -0.52697497404E+01 -0.33117960022E+03 -0.75016219440E+03  0.82004457548E+03  0.46999998093E+01 0.  1.
</event>
<event>
 5   0  0.8191876E-04  0.1496136E+04  0.7818609E-02  0.8887026E-01
        1   -1    0    0  501    0  0.00000000000E+00  0.00000000000E+00  0.10440523716E+04  0.10440523716E+04  0.50400001928E-02 0. -1.
       -1   -1    0    0    0  501  0.00000000000E+00  0.00000000000E+00 -0.53599401948E+03  0.53599401951E+03  0.50400001928E-02 0.  1.
    10030    2    1    2    0    0  0.00000000000E+00  0.00000000000E+00  0.50805835209E+03  0.15800463911E+04  0.14961361265E+04 0.  0.
        2    1    3    3  502    0  0.28967498341E+03  0.58476150913E+03  0.64025625142E+03  0.91421315133E+03  0.25500000920E-02 0. -1.
       -2    1    3    3    0  502 -0.28967498341E+03 -0.58476150913E+03 -0.13219789932E+03  0.66583323976E+03  0.25500000920E-02 0.  1.
</event>
<event>
 5   0  0.1484056E-03  0.1507518E+04  0.7818609E-02  0.8879469E-01
       -2   -1    0    0    0  501  0.00000000000E+00  0.00000000000E+00  0.11640869674E+04  0.11640869674E+04  0.25500000920E-02 0. -1.
        2   -1    0    0  501    0  0.00000000000E+00  0.00000000000E+00 -0.48806702113E+03  0.48806702114E+03  0.25500000920E-02 0.  1.
    10030    2    1    2    0    0  0.00000000000E+00  0.00000000000E+00  0.67601994629E+03  0.16521539886E+04  0.15075177724E+04 0.  0.
        5    1    3    3  502    0  0.36516528664E+03  0.64991965254E+03  0.45999553712E+03  0.87599042546E+03  0.46999998093E+01 0. -1.
       -5    1    3    3    0  502 -0.36516528664E+03 -0.64991965254E+03  0.21602440917E+03  0.77616356310E+03  0.46999998093E+01 0.  1.
</event>
<event>
 5   0  0.1511546E-03  0.1503670E+04  0.7818609E-02  0.8882016E-01
        2   -1    0    0  501    0  0.00000000000E+00  0.00000000000E+00  0.21708978951E+03  0.21708978952E+03  0.25500000920E-02 0.  1.
       -2   -1    0    0    0  501  0.00000000000E+00  0.00000000000E+00 -0.26037870468E+04  0.26037870468E+04  0.25500000920E-02 0. -1.
    10030    2    1    2    0    0  0.00000000000E+00  0.00000000000E+00 -0.23866972573E+04  0.28208768363E+04  0.15036696205E+04 0.  0.
        1    1    3    3  502    0 -0.23393238236E+02 -0.36877646038E+03 -0.24216774750E+04  0.24497071487E+04  0.50400001928E-02 0. -1.
       -1    1    3    3    0  502  0.23393238236E+02  0.36877646038E+03  0.34980217766E+02  0.37116968759E+03  0.50400001928E-02 0.  1.
</event>
<event>
 5   0  0.8191876E-04  0.1385206E+04  0.7818609E-02  0.8964597E-01
       -1   -1    0    0    0  501  0.00000000000E+00  0.00000000000E+00  0.58900411466E+03  0.58900411468E+03  0.50400001928E-02 0. -1.
        1   -1    0    0  501    0  0.00000000000E+00  0.00000000000E+00 -0.81442395732E+03  0.81442395734E+03  0.50400001928E-02 0.  1.
    10030    2    1    2    0    0  0.00000000000E+00  0.00000000000E+00 -0.22541984266E+03  0.14034280720E+04  0.13852062113E+04 0.  0.
        2    1    3    3  502    0  0.27468450973E+03  0.26128433783E+03 -0.69997088614E+03  0.79604040508E+03  0.25500000920E-02 0.  1.
       -2    1    3    3    0  502 -0.27468450973E+03 -0.26128433783E+03  0.47455104347E+03  0.60738766694E+03  0.25500000920E-02 0. -1.
</event>
<event>
 5   0  0.1511546E-03  0.1481430E+04  0.7818609E-02  0.8896896E-01
       -2   -1    0    0    0  501  0.00000000000E+00  0.00000000000E+00  0.80568182435E+03  0.80568182435E+03  0.25500000920E-02 0.  1.
        2   -1    0    0  501    0  0.00000000000E+00  0.00000000000E+00 -0.68098703361E+03  0.68098703362E+03  0.25500000920E-02 0. -1.
    10030    2    1    2    0    0  0.00000000000E+00  0.00000000000E+00  0.12469479074E+03  0.14866688580E+04  0.14814302219E+04 0.  0.
        1    1    3    3  502    0  0.15801309008E+03 -0.72151305688E+03  0.63859866677E+01  0.73864064926E+03  0.50400001928E-02 0. -1.
       -1    1    3    3    0  502 -0.15801309008E+03  0.72151305688E+03  0.11830880407E+03  0.74802820871E+03  0.50400001928E-02 0.  1.
</event>
<event>
 5   0  0.8306301E-04  0.1576560E+04  0.7818609E-02  0.8835079E-01
        1   -1    0    0  501    0  0.00000000000E+00  0.00000000000E+00  0.12012222884E+04  0.12012222884E+04  0.50400001928E-02 0. -1.
       -1   -1    0    0    0  501  0.00000000000E+00  0.00000000000E+00 -0.51729451395E+03  0.51729451397E+03  0.50400001928E-02 0.  1.
    10030    2    1    2    0    0  0.00000000000E+00  0.00000000000E+00  0.68392777445E+03  0.17185168024E+04  0.15765604332E+04 0.  0.
        4    1    3    3  502    0 -0.27234681035E+03 -0.58575439067E+03  0.83442047969E+03  0.10552441145E+04  0.12699999809E+01 0. -1.
       -4    1    3    3    0  502  0.27234681035E+03  0.58575439067E+03 -0.15049270524E+03  0.66327268791E+03  0.12699999809E+01 0.  1.
</event>
<event>
 5   0  0.1552067E-03  0.1439237E+04  0.7818609E-02  0.8925896E-01
        2   -1    0    0  501    0  0.00000000000E+00  0.00000000000E+00  0.78228710832E+03  0.78228710833E+03  0.25500000920E-02 0.  1.
       -2   -1    0    0    0  501  0.00000000000E+00  0.00000000000E+00 -0.66197045188E+03  0.66197045189E+03  0.25500000920E-02 0. -1.
    10030    2    1    2    0    0  0.00000000000E+00  0.00000000000E+00  0.12031665644E+03  0.14442575602E+04  0.14392372294E+04 0.  0.
        3    1    3    3  502    0 -0.23330249114E+03 -0.56600722035E+03 -0.31938939312E+03  0.69050982650E+03  0.10100000352E+00 0. -1.
       -3    1    3    3    0  502  0.23330249114E+03  0.56600722035E+03  0.43970604956E+03  0.75374773371E+03  0.10100000352E+00 0.  1.
</event>
<event>
 5   0  0.8306301E-04  0.1508676E+04  0.7818609E-02  0.8878704E-01
        1   -1    0    0  501    0  0.00000000000E+00  0.00000000000E+00  0.96783998178E+03  0.96783998180E+03  0.50400001928E-02 0. -1.
       -1   -1    0    0    0  501  0.00000000000E+00  0.00000000000E+00 -0.58793412513E+03  0.58793412515E+03  0.50400001928E-02 0.  1.
    10030    2    1    2    0    0  0.00000000000E+00  0.00000000000E+00  0.37990585665E+03  0.15557741069E+04  0.15086764438E+04 0.  0.
        4    1    3    3  502    0 -0.34538290540E+03 -0.49410070753E+03 -0.27763322999E+03  0.66370677548E+03  0.12699999809E+01 0.  1.
       -4    1    3    3    0  502  0.34538290540E+03  0.49410070753E+03  0.65753908664E+03  0.89206733147E+03  0.12699999809E+01 0. -1.
</event>
<event>
 5   0  0.1552067E-03  0.1491463E+04  0.7818609E-02  0.8890150E-01
        2   -1    0    0  501    0  0.00000000000E+00  0.00000000000E+00  0.61130453628E+03  0.61130453629E+03  0.25500000920E-02 0.  1.
       -2   -1    0    0    0  501  0.00000000000E+00  0.00000000000E+00 -0.90971863831E+03  0.90971863831E+03  0.25500000920E-02 0. -1.
    10030    2    1    2    0    0  0.00000000000E+00  0.00000000000E+00 -0.29841410203E+03  0.15210231746E+04  0.14914625444E+04 0.  0.
        3    1    3    3  502    0 -0.15197217813E+03  0.34255489601E+03  0.50830059714E+03  0.63151318828E+03  0.10100000352E+00 0.  1.
       -3    1    3    3    0  502  0.15197217813E+03 -0.34255489601E+03 -0.80671469917E+03  0.88950998632E+03  0.10100000352E+00 0. -1.
</event>
<event>
 5   0  0.1500956E-03  0.1493689E+04  0.7818609E-02  0.8888661E-01
       -2   -1    0    0    0  501  0.00000000000E+00  0.00000000000E+00  0.29040302815E+03  0.29040302816E+03  0.25500000920E-02 0. -1.
        2   -1    0    0  501    0  0.00000000000E+00  0.00000000000E+00 -0.19206979513E+04  0.19206979513E+04  0.25500000920E-02 0.  1.
    10030    2    1    2    0    0  0.00000000000E+00  0.00000000000E+00 -0.16302949232E+04  0.22111009795E+04  0.14936887242E+04 0.  0.
        4    1    3    3  502    0 -0.54844098466E+03 -0.41884893794E+03 -0.12378825434E+04  0.14172426576E+04  0.12699999809E+01 0. -1.
       -4    1    3    3    0  502  0.54844098466E+03  0.41884893794E+03 -0.39241237978E+03  0.79385832185E+03  0.12699999809E+01 0.  1.
</event>
<event>
 5   0  0.1526126E-03  0.1192417E+04  0.7818609E-02  0.9119520E-01
        2   -1    0    0  501    0  0.00000000000E+00  0.00000000000E+00  0.99573657510E+03  0.99573657511E+03  0.25500000920E-02 0. -1.
       -2   -1    0    0    0  501  0.00000000000E+00  0.00000000000E+00 -0.35698680065E+03  0.35698680066E+03  0.25500000920E-02 0.  1.
    10030    2    1    2    0    0  0.00000000000E+00  0.00000000000E+00  0.63874977446E+03  0.13527233758E+04  0.11924174005E+04 0.  0.
        2    1    3    3  502    0  0.57366746450E+03  0.83736452015E+02  0.16153442374E+03  0.60183014488E+03  0.25500000920E-02 0. -1.
       -2    1    3    3    0  502 -0.57366746450E+03 -0.83736452015E+02  0.47721535072E+03  0.75089323089E+03  0.25500000920E-02 0.  1.
</event>
<event>
 5   0  0.1526126E-03  0.1519163E+04  0.7818609E-02  0.8871809E-01
       -2   -1    0    0    0  501  0.00000000000E+00  0.00000000000E+00  0.28028261995E+03  0.28028261997E+03  0.25500000920E-02 0.  1.
        2   -1    0    0  501    0  0.00000000000E+00  0.00000000000E+00 -0.20585071581E+04  0.20585071581E+04  0.25500000920E-02 0. -1.
    10030    2    1    2    0    0  0.00000000000E+00  0.00000000000E+00 -0.17782245381E+04  0.23387897780E+04  0.15191626371E+04 0.  0.
        2    1    3    3  502    0  0.41638832686E+03  0.67421863662E+02 -0.18616232130E+04  0.19088127026E+04  0.25500000920E-02 0. -1.
       -2    1    3    3    0  502 -0.41638832686E+03 -0.67421863662E+02  0.83398674859E+02  0.42997707545E+03  0.25500000920E-02 0.  1.
</event>
<event>
 5   0  0.8306301E-04  0.1559584E+04  0.7818609E-02  0.8845769E-01
       -1   -1    0    0    0  501  0.00000000000E+00  0.00000000000E+00  0.35012743354E+03  0.35012743357E+03  0.50400001928E-02 0.  1.
        1   -1    0    0  501    0  0.00000000000E+00  0.00000000000E+00 -0.17367264446E+04  0.17367264446E+04  0.50400001928E-02 0. -1.
    10030    2    1    2    0    0  0.00000000000E+00  0.00000000000E+00 -0.13865990111E+04  0.20868538782E+04  0.15595840123E+04 0.  0.
        4    1    3    3  502    0 -0.78878772439E+02  0.74714585405E+03 -0.41381879265E+03  0.85772745905E+03  0.12699999809E+01 0.  1.
       -4    1    3    3    0  502  0.78878772439E+02 -0.74714585405E+03 -0.97278021842E+03  0.12291264191E+04  0.12699999809E+01 0. -1.
</event>
<event>
 5   0  0.1526126E-03  0.1489076E+04  0.7818609E-02  0.8891750E-01
        2   -1    0    0  501    0  0.00000000000E+00  0.00000000000E+00  0.36608850798E+03  0.36608850799E+03  0.25500000920E-02 0.  1.
       -2   -1    0    0    0  501  0.00000000000E+00  0.00000000000E+00 -0.15142160836E+04  0.15142160836E+04  0.25500000920E-02 0. -1.
    10030    2    1    2    0    0  0.00000000000E+00  0.00000000000E+00 -0.11481275757E+04  0.18803045916E+04  0.14890763672E+04 0.  0.
        2    1    3    3  502    0  0.31444827062E+03  0.15901180386E+03 -0.14022607564E+04  0.14458553515E+04  0.25500000920E-02 0. -1.
       -2    1    3    3    0  502 -0.31444827062E+03 -0.15901180386E+03  0.25413318073E+03  0.43444924009E+03  0.25500000920E-02 0.  1.
</event>
<event>
 5   0  0.1484056E-03  0.1497839E+04  0.7818609E-02  0.8885891E-01
       -2   -1    0    0    0  501  0.00000000000E+00  0.00000000000E+00  0.47861669432E+03  0.47861669433E+03  0.25500000920E-02 0. -1.
        2   -1    0    0  501    0  0.00000000000E+00  0.00000000000E+00 -0.11718778924E+04  0.11718778924E+04  0.25500000920E-02 0.  1.
    10030    2    1    2    0    0  0.00000000000E+00  0.00000000000E+00 -0.69326119807E+03  0.16504945867E+04  0.14978388739E+04 0.  0.
        5    1    3    3  502    0 -0.44314351988E+03 -0.55236040788E+03 -0.61514601600E+03  0.93803246767E+03  0.46999998093E+01 0.  1.
       -5    1    3    3    0  502  0.44314351988E+03  0.55236040788E+03 -0.78115182066E+02  0.71246211905E+03  0.46999998093E+01 0. -1.
</event>
<event>
 5   0  0.1484056E-03  0.1500059E+04  0.7818609E-02  0.8884414E-01
       -2   -1    0    0    0  501  0.00000000000E+00  0.00000000000E+00  0.30629611552E+03  0.30629611553E+03  0.25500000920E-02 0. -1.
        2   -1    0    0  501    0  0.00000000000E+00  0.00000000000E+00 -0.18366022558E+04  0.18366022558E+04  0.25500000920E-02 0.  1.
    10030    2    1    2    0    0  0.00000000000E+00  0.00000000000E+00 -0.15303061403E+04  0.21428983714E+04  0.15000588478E+04 0.  0.
        5    1    3    3  502    0 -0.30850497025E+03 -0.62555196488E+03 -0.11590566879E+04  0.13527472318E+04  0.46999998093E+01 0.  1.
       -5    1    3    3    0  502  0.30850497025E+03  0.62555196488E+03 -0.37124945246E+03  0.79015113958E+03  0.46999998093E+01 0. -1.
</event>
<event>
 5   0  0.1552067E-03  0.1502207E+04  0.7818609E-02  0.8882987E-01
       -2   -1    0    0    0  501  0.00000000000E+00  0.00000000000E+00  0.97033744675E+03  0.97033744675E+03  0.25500000920E-02 0. -1.
        2   -1    0    0  501    0  0.00000000000E+00  0.00000000000E+00 -0.58140240805E+03  0.58140240805E+03  0.25500000920E-02 0.  1.
    10030    2    1    2    0    0  0.00000000000E+00  0.00000000000E+00  0.38893503870E+03  0.15517398548E+04  0.15022070805E+04 0.  0.
        3    1    3    3  502    0  0.53064513926E+03 -0.14226616848E+03 -0.33460503703E+03  0.64326080832E+03  0.10100000352E+00 0.  1.
       -3    1    3    3    0  502 -0.53064513926E+03  0.14226616848E+03  0.72354007573E+03  0.90847904649E+03  0.10100000352E+00 0. -1.
</event>
<event>
 5   0  0.8058234E-04  0.1480924E+04  0.7818609E-02  0.8897238E-01
        1   -1    0    0  501    0  0.00000000000E+00  0.00000000000E+00  0.45115686821E+03  0.45115686824E+03  0.50400001928E-02 0.  1.
       -1   -1    0    0    0  501  0.00000000000E+00  0.00000000000E+00 -0.12152845269E+04  0.12152845269E+04  0.50400001928E-02 0. -1.
    10030    2    1    2    0    0  0.00000000000E+00  0.00000000000E+00 -0.76412765873E+03  0.16664413952E+04  0.14809239835E+04 0.  0.
        5    1    3    3  502    0  0.53870561566E+03 -0.19164861823E+02  0.18916059448E+03  0.57129226563E+03  0.46999998093E+01 0.  1.
       -5    1    3    3    0  502 -0.53870561566E+03  0.19164861823E+02 -0.95328825321E+03  0.10951491296E+04  0.46999998093E+01 0. -1.
</event>
<event>
 5   0  0.7870317E-04  0.1470291E+04  0.7818609E-02  0.8904453E-01
       -1   -1    0    0    0  501  0.00000000000E+00  0.00000000000E+00  0.30000487344E+03  0.30000487348E+03  0.50400001928E-02 0.  1.
        1   -1    0    0  501    0  0.00000000000E+00  0.00000000000E+00 -0.18014342288E+04  0.18014342288E+04  0.50400001928E-02 0. -1.
    10030    2    1    2    0    0  0.00000000000E+00  0.00000000000E+00 -0.15014293553E+04  0.21014391023E+04  0.14702911928E+04 0.  0.
        1    1    3    3  502    0 -0.56829745014E+03 -0.89507163087E+02 -0.96576149658E+02  0.58335278931E+03  0.50400001928E-02 0.  1.
       -1    1    3    3    0  502  0.56829745014E+03  0.89507163087E+02 -0.14048532057E+04  0.15180863130E+04  0.50400001928E-02 0. -1.
</event>
<event>
 5   0  0.1552067E-03  0.1321722E+04  0.7818609E-02  0.9012515E-01
        2   -1    0    0  501    0  0.00000000000E+00  0.00000000000E+00  0.15243418644E+04  0.15243418644E+04  0.25500000920E-02 0.  1.
       -2   -1    0    0    0  501  0.00000000000E+00  0.00000000000E+00 -0.28650878073E+03  0.28650878074E+03  0.25500000920E-02 0. -1.
    10030    2    1    2    0    0  0.00000000000E+00  0.00000000000E+00  0.12378330837E+04  0.18108506452E+04  0.13217221024E+04 0.  0.
        3    1    3    3  502    0 -0.54631350175E+03 -0.28039169758E+03  0.28427348376E+03  0.67667523232E+03  0.10100000352E+00 0. -1.
       -3    1    3    3    0  502  0.54631350175E+03  0.28039169758E+03  0.95355959996E+03  0.11341754129E+04  0.10100000352E+00 0.  1.
</event>
<event>
 5   0  0.8191876E-04  0.1509740E+04  0.7818609E-02  0.8878002E-01
        1   -1    0    0  501    0  0.00000000000E+00  0.00000000000E+00  0.93891212961E+03  0.93891212962E+03  0.50400001928E-02 0.  1.
       -1   -1    0    0    0  501  0.00000000000E+00  0.00000000000E+00 -0.60690326055E+03  0.60690326057E+03  0.50400001928E-02 0. -1.
    10030    2    1    2    0    0  0.00000000000E+00  0.00000000000E+00  0.33200886906E+03  0.15458153902E+04  0.15097401536E+04 0.  0.
        2    1    3    3  502    0 -0.50214795006E+03 -0.53880914377E+03  0.33536847701E+03  0.80928355509E+03  0.25500000920E-02 0.  1.
       -2    1    3    3    0  502  0.50214795006E+03  0.53880914377E+03 -0.33596079564E+01  0.73653183511E+03  0.25500000920E-02 0. -1.
</event>
<event>
 5   0  0.1500956E-03  0.1486616E+04  0.7818609E-02  0.8893402E-01
       -2   -1    0    0    0  501  0.00000000000E+00  0.00000000000E+00  0.28722632681E+03  0.28722632683E+03  0.25500000920E-02 0. -1.
        2   -1    0    0  501    0  0.00000000000E+00  0.00000000000E+00 -0.19235948480E+04  0.19235948480E+04  0.25500000920E-02 0.  1.
    10030    2    1    2    0    0  0.00000000000E+00  0.00000000000E+00 -0.16363685212E+04  0.22108211748E+04  0.14866164031E+04 0.  0.
        4    1    3    3  502    0 -0.67184655096E+03  0.99115854731E+02 -0.36881956143E+03  0.77280736441E+03  0.12699999809E+01 0. -1.
       -4    1    3    3    0  502  0.67184655096E+03 -0.99115854731E+02 -0.12675489598E+04  0.14380138104E+04  0.12699999809E+01 0.  1.
</event>
<event>
 5   0  0.8306301E-04  0.1538856E+04  0.7818609E-02  0.8859018E-01
        1   -1    0    0  501    0  0.00000000000E+00  0.00000000000E+00  0.19664699494E+04  0.19664699494E+04  0.50400001928E-02 0. -1.
       -1   -1    0    0    0  501  0.00000000000E+00  0.00000000000E+00 -0.30105679943E+03  0.30105679947E+03  0.50400001928E-02 0.  1.
    10030    2    1    2    0    0  0.00000000000E+00  0.00000000000E+00  0.16654131500E+04  0.22675267489E+04  0.15388556127E+04 0.  0.
        4    1    3    3  502    0  0.31924519324E+03  0.47809682182E+03  0.15862527723E+04  0.16872147270E+04  0.12699999809E+01 0. -1.
       -4    1    3    3    0  502 -0.31924519324E+03 -0.47809682182E+03  0.79160377646E+02  0.58031202187E+03  0.12699999809E+01 0.  1.
</event>
<event>
 5   0  0.1500956E-03  0.1482994E+04  0.7818609E-02  0.8895841E-01
        2   -1    0    0  501    0  0.00000000000E+00  0.00000000000E+00  0.13760662790E+04  0.13760662790E+04  0.25500000920E-02 0.  1.
       -2   -1    0    0    0  501  0.00000000000E+00  0.00000000000E+00 -0.39955771645E+03  0.39955771646E+03  0.25500000920E-02 0. -1.
    10030    2    1    2    0    0  0.00000000000E+00  0.00000000000E+00  0.97650856253E+03  0.17756239954E+04  0.14829941337E+04 0.  0.
        4    1    3    3  502    0 -0.80541152337E+02  0.73678237014E+03  0.51451770789E+03  0.90225563052E+03  0.12699999809E+01 0.  1.
       -4    1    3    3    0  502  0.80541152337E+02 -0.73678237014E+03  0.46199085464E+03  0.87336836492E+03  0.12699999809E+01 0. -1.
</event>
<event>
 5   0  0.1511546E-03  0.1581284E+04  0.7818609E-02  0.8832129E-01
        2   -1    0    0  501    0  0.00000000000E+00  0.00000000000E+00  0.94375949175E+03  0.94375949175E+03  0.25500000920E-02 0. -1.
       -2   -1    0    0    0  501  0.00000000000E+00  0.00000000000E+00 -0.66236639680E+03  0.66236639680E+03  0.25500000920E-02 0.  1.
    10030    2    1    2    0    0  0.00000000000E+00  0.00000000000E+00  0.28139309495E+03  0.16061258886E+04  0.15812837494E+04 0.  0.
        1    1    3    3  502    0  0.55715296016E+03  0.16874043808E+03 -0.40270533953E+03  0.70785898805E+03  0.50400001928E-02 0.  1.
       -1    1    3    3    0  502 -0.55715296016E+03 -0.16874043808E+03  0.68409843448E+03  0.89826690050E+03  0.50400001928E-02 0. -1.
</event>
<event>
 5   0  0.1526126E-03  0.1479023E+04  0.7818609E-02  0.8898523E-01
       -2   -1    0    0    0  501  0.00000000000E+00  0.00000000000E+00  0.68820626491E+03  0.68820626491E+03  0.25500000920E-02 0. -1.
        2   -1    0    0  501    0  0.00000000000E+00  0.00000000000E+00 -0.79464142583E+03  0.79464142583E+03  0.25500000920E-02 0.  1.
    10030    2    1    2    0    0  0.00000000000E+00  0.00000000000E+00 -0.10643516092E+03  0.14828476907E+04  0.14790229310E+04 0.  0.
        2    1    3    3  502    0 -0.42628824013E+03 -0.45539292248E+03  0.34501587824E+03  0.71283962696E+03  0.25500000920E-02 0. -1.
       -2    1    3    3    0  502  0.42628824013E+03  0.45539292248E+03 -0.45145103917E+03  0.77000806378E+03  0.25500000920E-02 0.  1.
</event>
<event>
 5   0  0.8365016E-04  0.1644027E+04  0.7818609E-02  0.8793948E-01
        1   -1    0    0  501    0  0.00000000000E+00  0.00000000000E+00  0.98379225640E+03  0.98379225641E+03  0.50400001928E-02 0. -1.
       -1   -1    0    0    0  501  0.00000000000E+00  0.00000000000E+00 -0.68683857693E+03  0.68683857695E+03  0.50400001928E-02 0.  1.
    10030    2    1    2    0    0  0.00000000000E+00  0.00000000000E+00  0.29695367947E+03  0.16706308334E+04  0.16440273397E+04 0.  0.
        3    1    3    3  502    0  0.59979530248E+03 -0.35030643242E+03 -0.29822436031E+03  0.75591453270E+03  0.10100000352E+00 0.  1.
       -3    1    3    3    0  502 -0.59979530248E+03  0.35030643242E+03  0.59517803977E+03  0.91471630066E+03  0.10100000352E+00 0. -1.
</event>
<event>
 5   0  0.7870317E-04  0.1506595E+04  0.7818609E-02  0.8880079E-01
       -1   -1    0    0    0  501  0.00000000000E+00  0.00000000000E+00  0.70849268662E+03  0.70849268664E+03  0.50400001928E-02 0.  1.
        1   -1    0    0  501    0  0.00000000000E+00  0.00000000000E+00 -0.80093556590E+03  0.80093556591E+03  0.50400001928E-02 0. -1.
    10030    2    1    2    0    0  0.00000000000E+00  0.00000000000E+00 -0.92442879274E+02  0.15094282526E+04  0.15065948240E+04 0.  0.
        1    1    3    3  502    0 -0.65656162595E+03 -0.10584693625E+03 -0.40069504939E+03  0.77642338013E+03  0.50400001928E-02 0. -1.
       -1    1    3    3    0  502  0.65656162595E+03  0.10584693625E+03  0.30825217012E+03  0.73300487242E+03  0.50400001928E-02 0.  1.
</event>
<event>
 5   0  0.8191876E-04  0.1504404E+04  0.7818609E-02  0.8881530E-01
       -1   -1    0    0    0  501  0.00000000000E+00  0.00000000000E+00  0.49986864221E+03  0.49986864224E+03  0.50400001928E-02 0.  1.
        1   -1    0    0  501    0  0.00000000000E+00  0.00000000000E+00 -0.11319123311E+04  0.11319123311E+04  0.50400001928E-02 0. -1.
    10030    2    1    2    0    0  0.00000000000E+00  0.00000000000E+00 -0.63204368884E+03  0.16317809733E+04  0.15044035098E+04 0.  0.
        2    1    3    3  502    0 -0.71617613312E+03 -0.20560060047E+03 -0.20420286472E+03  0.77257923253E+03  0.25500000920E-02 0. -1.
       -2    1    3    3    0  502  0.71617613312E+03  0.20560060047E+03 -0.42784082412E+03  0.85920174078E+03  0.25500000920E-02 0.  1.
</event>
<event>
 5   0  0.1526126E-03  0.1453738E+04  0.7818609E-02  0.8915813E-01
       -2   -1    0    0    0  501  0.00000000000E+00  0.00000000000E+00  0.66898631805E+03  0.66898631805E+03  0.25500000920E-02 0. -1.
        2   -1    0    0  501    0  0.00000000000E+00  0.00000000000E+00 -0.78975991253E+03  0.78975991253E+03  0.25500000920E-02 0.  1.
    10030    2    1    2    0    0  0.00000000000E+00  0.00000000000E+00 -0.12077359448E+03  0.14587462306E+04  0.14537380452E+04 0.  0.
        2    1    3    3  502    0  0.24051959073E+03 -0.96289004595E+02 -0.74185625954E+03  0.78579383794E+03  0.25500000920E-02 0.  1.
       -2    1    3    3    0  502 -0.24051959073E+03  0.96289004595E+02  0.62108266505E+03  0.67295239264E+03  0.25500000920E-02 0. -1.
</event>
<event>
 5   0  0.1484056E-03  0.1373902E+04  0.7818609E-02  0.8972929E-01
        2   -1    0    0  501    0  0.00000000000E+00  0.00000000000E+00  0.10143909946E+04  0.10143909946E+04  0.25500000920E-02 0. -1.
       -2   -1    0    0    0  501  0.00000000000E+00  0.00000000000E+00 -0.46520694478E+03  0.46520694479E+03  0.25500000920E-02 0.  1.
    10030    2    1    2    0    0  0.00000000000E+00  0.00000000000E+00  0.54918404981E+03  0.14795979394E+04  0.13739020859E+04 0.  0.
        5    1    3    3  502    0 -0.44052363839E+03 -0.36797486262E+03 -0.13181654668E+03  0.58895183799E+03  0.46999998093E+01 0.  1.
       -5    1    3    3    0  502  0.44052363839E+03  0.36797486262E+03  0.68100059649E+03  0.89064610139E+03  0.46999998093E+01 0. -1.
</event>
<event>
 5   0  0.7870317E-04  0.1498273E+04  0.7818609E-02  0.8885602E-01
       -1   -1    0    0    0  501  0.00000000000E+00  0.00000000000E+00  0.79785495839E+03  0.79785495841E+03  0.50400001928E-02 0. -1.
        1   -1    0    0  501    0  0.00000000000E+00  0.00000000000E+00 -0.70339257236E+03  0.70339257237E+03  0.50400001928E-02 0.  1.
    10030    2    1    2    0    0  0.00000000000E+00  0.00000000000E+00  0.94462386039E+02  0.15012475308E+04  0.14982726742E+04 0.  0.
        1    1    3    3  502    0  0.29269631768E+03  0.10378060033E+03  0.73032059823E+03  0.79360552141E+03  0.50400001928E-02 0. -1.
       -1    1    3    3    0  502 -0.29269631768E+03 -0.10378060033E+03 -0.63585821219E+03  0.70764200937E+03  0.50400001928E-02 0.  1.
</event>
<event>
 5   0  0.1511546E-03  0.1497841E+04  0.7818609E-02  0.8885890E-01
        2   -1    0    0  501    0  0.00000000000E+00  0.00000000000E+00  0.40491974800E+03  0.40491974800E+03  0.25500000920E-02 0. -1.
       -2   -1    0    0    0  501  0.00000000000E+00  0.00000000000E+00 -0.13851683397E+04  0.13851683397E+04  0.25500000920E-02 0.  1.
    10030    2    1    2    0    0  0.00000000000E+00  0.00000000000E+00 -0.98024859172E+03  0.17900880877E+04  0.14978411332E+04 0.  0.
        1    1    3    3  502    0  0.31611381716E+03 -0.67627637467E+03 -0.56187418033E+03  0.93433413449E+03  0.50400001928E-02 0.  1.
       -1    1    3    3    0  502 -0.31611381716E+03  0.67627637467E+03 -0.41837441139E+03  0.85575395323E+03  0.50400001928E-02 0. -1.
</event>
<event>
 5   0  0.7870317E-04  0.1573741E+04  0.7818609E-02  0.8836844E-01
       -1   -1    0    0    0  501  0.00000000000E+00  0.00000000000E+00  0.44775660810E+03  0.44775660813E+03  0.50400001928E-02 0. -1.
        1   -1    0    0  501    0  0.00000000000E+00  0.00000000000E+00 -0.13828167180E+04  0.13828167180E+04  0.50400001928E-02 0.  1.
    10030    2    1    2    0    0  0.00000000000E+00  0.00000000000E+00 -0.93506010993E+03  0.18305733262E+04  0.15737411774E+04 0.  0.
        1    1    3    3  502    0 -0.25776777249E+03  0.32693577864E+03 -0.12442070839E+04  0.13120146705E+04  0.50400001928E-02 0.  1.
       -1    1    3    3    0  502  0.25776777249E+03 -0.32693577864E+03  0.30914697395E+03  0.51855865572E+03  0.50400001928E-02 0. -1.
</event>
<event>
 5   0  0.1484056E-03  0.1487148E+04  0.7818609E-02  0.8893045E-01
        2   -1    0    0  501    0  0.00000000000E+00  0.00000000000E+00  0.11455230117E+04  0.11455230117E+04  0.25500000920E-02 0. -1.
       -2   -1    0    0    0  501  0.00000000000E+00  0.00000000000E+00 -0.48266370057E+03  0.48266370058E+03  0.25500000920E-02 0.  1.
    10030    2    1    2    0    0  0.00000000000E+00  0.00000000000E+00  0.66285931115E+03  0.16281867123E+04  0.14871481109E+04 0.  0.
        5    1    3    3  502    0 -0.27673947392E+03 -0.63577649633E+02  0.10838101775E+04  0.11203987883E+04  0.46999998093E+01 0. -1.
       -5    1    3    3    0  502  0.27673947392E+03  0.63577649633E+02 -0.42095086631E+03  0.50778792404E+03  0.46999998093E+01 0.  1.
</event>
<event>
 5   0  0.1511546E-03  0.1412398E+04  0.7818609E-02  0.8944893E-01
        2   -1    0    0  501    0  0.00000000000E+00  0.00000000000E+00  0.16063391892E+04  0.16063391892E+04  0.25500000920E-02 0.  1.
       -2   -1    0    0    0  501  0.00000000000E+00  0.00000000000E+00 -0.31046806282E+03  0.31046806283E+03  0.25500000920E-02 0. -1.
    10030    2    1    2    0    0  0.00000000000E+00  0.00000000000E+00  0.12958711264E+04  0.19168072520E+04  0.14123979840E+04 0.  0.
        1    1    3    3  502    0  0.67983984590E+03  0.18722805454E+03  0.70015342439E+03  0.99370588114E+03  0.50400001928E-02 0. -1.
       -1    1    3    3    0  502 -0.67983984590E+03 -0.18722805454E+03  0.59571770199E+03  0.92310137091E+03  0.50400001928E-02 0.  1.
</event>
<event>
 5   0  0.1484056E-03  0.1477340E+04  0.7818609E-02  0.8899663E-01
        2   -1    0    0  501    0  0.00000000000E+00  0.00000000000E+00  0.93190770696E+03  0.93190770697E+03  0.25500000920E-02 0. -1.
       -2   -1    0    0    0  501  0.00000000000E+00  0.00000000000E+00 -0.58550124327E+03  0.58550124327E+03  0.25500000920E-02 0.  1.
    10030    2    1    2    0    0  0.00000000000E+00  0.00000000000E+00  0.34640646370E+03  0.15174089502E+04  0.14773396645E+04 0.  0.
        5    1    3    3  502    0  0.66751174782E+02  0.43393161899E+03 -0.43692718234E+03  0.61941893898E+03  0.46999998093E+01 0.  1.
       -5    1    3    3    0  502 -0.66751174782E+02 -0.43393161899E+03  0.78333364604E+03  0.89799001126E+03  0.46999998093E+01 0. -1.
</event>
<event>
 5   0  0.1484056E-03  0.1505427E+04  0.7818609E-02  0.8880852E-01
       -2   -1    0    0    0  501  0.00000000000E+00  0.00000000000E+00  0.10123151353E+04  0.10123151353E+04  0.25500000920E-02 0. -1.
        2   -1    0    0  501    0  0.00000000000E+00  0.00000000000E+00 -0.55968513473E+03  0.55968513474E+03  0.25500000920E-02 0.  1.
    10030    2    1    2    0    0  0.00000000000E+00  0.00000000000E+00  0.45263000056E+03  0.15720002700E+04  0.15054271592E+04 0.  0.
        5    1    3    3  502    0  0.10887938451E+02  0.45534886409E+03 -0.39942980197E+03  0.60582785668E+03  0.46999998093E+01 0.  1.
       -5    1    3    3    0  502 -0.10887938451E+02 -0.45534886409E+03  0.85205980253E+03  0.96617241335E+03  0.46999998093E+01 0. -1.
</event>
<event>
 5   0  0.5603875E-04  0.1454949E+04  0.7818609E-02  0.8914977E-01
       -4   -1    0    0    0  501  0.00000000000E+00  0.00000000000E+00  0.60913351813E+03  0.60913484206E+03  0.12699999809E+01 0. -1.
        4   -1    0    0  501    0  0.00000000000E+00  0.00000000000E+00 -0.86880336292E+03  0.86880429115E+03  0.12699999809E+01 0.  1.
    10030    2    1    2    0    0  0.00000000000E+00  0.00000000000E+00 -0.25966984478E+03  0.14779391332E+04  0.14549486772E+04 0.  0.
        5    1    3    3  502    0 -0.52431054499E+03  0.38153380564E+03  0.20511357841E+03  0.68012003535E+03  0.46999998093E+01 0. -1.
       -5    1    3    3    0  502  0.52431054499E+03 -0.38153380564E+03 -0.46478342320E+03  0.79781909786E+03  0.46999998093E+01 0.  1.
</event>
<event>
 5   0  0.1552067E-03  0.1509662E+04  0.7818609E-02  0.8878053E-01
        2   -1    0    0  501    0  0.00000000000E+00  0.00000000000E+00  0.44657524824E+03  0.44657524825E+03  0.25500000920E-02 0. -1.
       -2   -1    0    0    0  501  0.00000000000E+00  0.00000000000E+00 -0.12758660549E+04  0.12758660549E+04  0.25500000920E-02 0.  1.
    10030    2    1    2    0    0  0.00000000000E+00  0.00000000000E+00 -0.82929080670E+03  0.17224413032E+04  0.15096624791E+04 0.  0.
        3    1    3    3  502    0 -0.63081475887E+03  0.33175426948E+03 -0.69823851202E+03  0.99776008398E+03  0.10100000352E+00 0.  1.
       -3    1    3    3    0  502  0.63081475887E+03 -0.33175426948E+03 -0.13105229468E+03  0.72468121920E+03  0.10100000352E+00 0. -1.
</event>
<event>
 5   0  0.8191876E-04  0.1502838E+04  0.7818609E-02  0.8882568E-01
       -1   -1    0    0    0  501  0.00000000000E+00  0.00000000000E+00  0.60059829991E+03  0.60059829993E+03  0.50400001928E-02 0.  1.
        1   -1    0    0  501    0  0.00000000000E+00  0.00000000000E+00 -0.94011387980E+03  0.94011387981E+03  0.50400001928E-02 0. -1.
    10030    2    1    2    0    0  0.00000000000E+00  0.00000000000E+00 -0.33951557989E+03  0.15407121797E+04  0.15028383785E+04 0.  0.
        2    1    3    3  502    0 -0.43692041219E+03 -0.36898917874E+01  0.45697308947E+03  0.63224794692E+03  0.25500000920E-02 0.  1.
       -2    1    3    3    0  502  0.43692041219E+03  0.36898917874E+01 -0.79648866936E+03  0.90846423282E+03  0.25500000920E-02 0. -1.
</event>
<event>
 5   0  0.1500956E-03  0.1501404E+04  0.7818609E-02  0.8883520E-01
       -2   -1    0    0    0  501  0.00000000000E+00  0.00000000000E+00  0.34135612900E+03  0.34135612901E+03  0.25500000920E-02 0.  1.
        2   -1    0    0  501    0  0.00000000000E+00  0.00000000000E+00 -0.16509263731E+04  0.16509263731E+04  0.25500000920E-02 0. -1.
    10030    2    1    2    0    0  0.00000000000E+00  0.00000000000E+00 -0.13095702441E+04  0.19922825021E+04  0.15014044572E+04 0.  0.
        4    1    3    3  502    0  0.46697214975E+03 -0.85644391695E+02 -0.14264178854E+04  0.15033521036E+04  0.12699999809E+01 0. -1.
       -4    1    3    3    0  502 -0.46697214975E+03  0.85644391695E+02  0.11684764132E+03  0.48893039858E+03  0.12699999809E+01 0.  1.
</event>
<event>
 5   0  0.8365016E-04  0.1457983E+04  0.7818609E-02  0.8912885E-01
        1   -1    0    0  501    0  0.00000000000E+00  0.00000000000E+00  0.11364772753E+04  0.11364772753E+04  0.50400001928E-02 0. -1.
       -1   -1    0    0    0  501  0.00000000000E+00  0.00000000000E+00 -0.46761026565E+03  0.46761026568E+03  0.50400001928E-02 0.  1.
    10030    2    1    2    0    0  0.00000000000E+00  0.00000000000E+00  0.66886700964E+03  0.16040875410E+04  0.14579827717E+04 0.  0.
        3    1    3    3  502    0 -0.11069102356E+03  0.91006644457E+02  0.11208288877E+04  0.11299522634E+04  0.10100000352E+00 0. -1.
       -3    1    3    3    0  502  0.11069102356E+03 -0.91006644457E+02 -0.45196187802E+03  0.47413527755E+03  0.10100000352E+00 0.  1.
</event>
<event>
 5   0  0.1552067E-03  0.1494364E+04  0.7818609E-02  0.8888210E-01
        2   -1    0    0  501    0  0.00000000000E+00  0.00000000000E+00  0.11244991895E+04  0.11244991895E+04  0.25500000920E-02 0. -1.
       -2   -1    0    0    0  501  0.00000000000E+00  0.00000000000E+00 -0.49647052027E+03  0.49647052028E+03  0.25500000920E-02 0.  1.
    10030    2    1    2    0    0  0.00000000000E+00  0.00000000000E+00  0.62802866927E+03  0.16209697098E+04  0.14943636742E+04 0.  0.
        3    1    3    3  502    0  0.62394559305E+03  0.73339143640E+02 -0.12472060593E+03  0.64050134491E+03  0.10100000352E+00 0.  1.
       -3    1    3    3    0  502 -0.62394559305E+03 -0.73339143640E+02  0.75274927520E+03  0.98046836491E+03  0.10100000352E+00 0. -1.
</event>
<event>
 5   0  0.8306301E-04  0.1508760E+04  0.7818609E-02  0.8878648E-01
        1   -1    0    0  501    0  0.00000000000E+00  0.00000000000E+00  0.58191510524E+03  0.58191510527E+03  0.50400001928E-02 0. -1.
       -1   -1    0    0    0  501  0.00000000000E+00  0.00000000000E+00 -0.97795956838E+03  0.97795956839E+03  0.50400001928E-02 0.  1.
    10030    2    1    2    0    0  0.00000000000E+00  0.00000000000E+00 -0.39604446314E+03  0.15598746737E+04  0.15087603457E+04 0.  0.
        4    1    3    3  502    0 -0.29549176306E+03  0.23865806030E+02 -0.91521111916E+03  0.96202804754E+03  0.12699999809E+01 0.  1.
       -4    1    3    3    0  502  0.29549176306E+03 -0.23865806030E+02  0.51916665602E+03  0.59784662611E+03  0.12699999809E+01 0. -1.
</event>
<event>
 5   0  0.1511546E-03  0.1514950E+04  0.7818609E-02  0.8874572E-01
       -2   -1    0    0    0  501  0.00000000000E+00  0.00000000000E+00  0.22060039793E+03  0.22060039794E+03  0.25500000920E-02 0.  1.
        2   -1    0    0  501    0  0.00000000000E+00  0.00000000000E+00 -0.26009412877E+04  0.26009412877E+04  0.25500000920E-02 0. -1.
    10030    2    1    2    0    0  0.00000000000E+00  0.00000000000E+00 -0.23803408898E+04  0.28215416857E+04  0.15149504059E+04 0.  0.
        1    1    3    3  502    0 -0.60382475862E+03 -0.30479662568E+03 -0.18252227427E+04  0.19465208405E+04  0.50400001928E-02 0. -1.
       -1    1    3    3    0  502  0.60382475862E+03  0.30479662568E+03 -0.55511814706E+03  0.87502084510E+03  0.50400001928E-02 0.  1.
</event>
<event>
 5   0  0.8058234E-04  0.1461177E+04  0.7818609E-02  0.8910688E-01
        1   -1    0    0  501    0  0.00000000000E+00  0.00000000000E+00  0.52639448279E+03  0.52639448282E+03  0.50400001928E-02 0. -1.
       -1   -1    0    0    0  501  0.00000000000E+00  0.00000000000E+00 -0.10139921267E+04  0.10139921268E+04  0.50400001928E-02 0.  1.
    10030    2    1    2    0    0  0.00000000000E+00  0.00000000000E+00 -0.48759764394E+03  0.15403866096E+04  0.14611774172E+04 0.  0.
        5    1    3    3  502    0 -0.49462220727E+03 -0.46082618730E+03 -0.53580879841E+03  0.86262683779E+03  0.46999998093E+01 0.  1.
       -5    1    3    3    0  502  0.49462220727E+03  0.46082618730E+03  0.48211154472E+02  0.67775977178E+03  0.46999998093E+01 0. -1.
</event>
<event>
 5   0  0.8306301E-04  0.1554672E+04  0.7818609E-02  0.8848889E-01
        1   -1    0    0  501    0  0.00000000000E+00  0.00000000000E+00  0.21900876111E+04  0.21900876111E+04  0.50400001928E-02 0. -1.
       -1   -1    0    0    0  501  0.00000000000E+00  0.00000000000E+00 -0.27590282342E+03  0.27590282346E+03  0.50400001928E-02 0.  1.
    10030    2    1    2    0    0  0.00000000000E+00  0.00000000000E+00  0.19141847876E+04  0.24659904345E+04  0.15546721268E+04 0.  0.
        4    1    3    3  502    0 -0.53590672357E+02 -0.65952368559E+03  0.31004298437E+03  0.73073368410E+03  0.12699999809E+01 0.  1.
       -4    1    3    3    0  502  0.53590672357E+02  0.65952368559E+03  0.16041418033E+04  0.17352567504E+04  0.12699999809E+01 0. -1.
</event>
<event>
 5   0  0.1552067E-03  0.1504340E+04  0.7818609E-02  0.8881572E-01
        2   -1    0    0  501    0  0.00000000000E+00  0.00000000000E+00  0.12615257581E+04  0.12615257581E+04  0.25500000920E-02 0. -1.
       -2   -1    0    0    0  501  0.00000000000E+00  0.00000000000E+00 -0.44847269086E+03  0.44847269086E+03  0.25500000920E-02 0.  1.
    10030    2    1    2    0    0  0.00000000000E+00  0.00000000000E+00  0.81305306727E+03  0.17099984490E+04  0.15043401894E+04 0.  0.
        3    1    3    3  502    0 -0.50538460911E+03 -0.55706136029E+03  0.41263510806E+03  0.85790366875E+03  0.10100000352E+00 0.  1.
       -3    1    3    3    0  502  0.50538460911E+03  0.55706136029E+03  0.40041795922E+03  0.85209478024E+03  0.10100000352E+00 0. -1.
</event>
<event>
 5   0  0.8058234E-04  0.1522515E+04  0.7818609E-02  0.8869617E-01
       -1   -1    0    0    0  501  0.00000000000E+00  0.00000000000E+00  0.62050061758E+03  0.62050061760E+03  0.50400001928E-02 0.  1.
        1   -1    0    0  501    0  0.00000000000E+00  0.00000000000E+00 -0.93394429528E+03  0.93394429529E+03  0.50400001928E-02 0. -1.
    10030    2    1    2    0    0  0.00000000000E+00  0.00000000000E+00 -0.31344367770E+03  0.15544449129E+04  0.15225150404E+04 0.  0.
        5    1    3    3  502    0 -0.28337780199E+03 -0.17382231629E+03  0.54245657186E+03  0.63623769037E+03  0.46999998093E+01 0.  1.
       -5    1    3    3    0  502  0.28337780199E+03  0.17382231629E+03 -0.85590024956E+03  0.91820722252E+03  0.46999998093E+01 0. -1.
</event>
<event>
 5   0  0.8365016E-04  0.1400513E+04  0.7818609E-02  0.8953447E-01
       -1   -1    0    0    0  501  0.00000000000E+00  0.00000000000E+00  0.45379255418E+03  0.45379255421E+03  0.50400001928E-02 0. -1.
        1   -1    0    0  501    0  0.00000000000E+00  0.00000000000E+00 -0.10805797263E+04  0.10805797263E+04  0.50400001928E-02 0.  1.
    10030    2    1    2    0    0  0.00000000000E+00  0.00000000000E+00 -0.62678717209E+03  0.15343722805E+04  0.14005128118E+04 0.  0.
        3    1    3    3  502    0  0.66730868737E+03 -0.15737115928E+03 -0.15732662145E+03  0.70343318235E+03  0.10100000352E+00 0.  1.
       -3    1    3    3    0  502 -0.66730868737E+03  0.15737115928E+03 -0.46946055064E+03  0.83093909814E+03  0.10100000352E+00 0. -1.
</event>
<event>
 5   0  0.8191876E-04  0.1501419E+04  0.7818609E-02  0.8883510E-01
       -1   -1    0    0    0  501  0.00000000000E+00  0.00000000000E+00  0.62430127370E+03  0.62430127372E+03  0.50400001928E-02 0.  1.
        1   -1    0    0  501    0  0.00000000000E+00  0.00000000000E+00 -0.90271230535E+03  0.90271230536E+03  0.50400001928E-02 0. -1.
    10030    2    1    2    0    0  0.00000000000E+00  0.00000000000E+00 -0.27841103165E+03  0.15270135791E+04  0.15014185853E+04 0.  0.
        2    1    3    3  502    0 -0.61606536791E+03 -0.23360851616E+03 -0.50513758259E+03  0.83022494164E+03  0.25500000920E-02 0. -1.
       -2    1    3    3    0  502  0.61606536791E+03  0.23360851616E+03  0.22672655094E+03  0.69678863744E+03  0.25500000920E-02 0.  1.
</event>
<event>
 5   0  0.1526126E-03  0.1436421E+04  0.7818609E-02  0.8927869E-01
       -2   -1    0    0    0  501  0.00000000000E+00  0.00000000000E+00  0.34101209121E+03  0.34101209122E+03  0.25500000920E-02 0.  1.
        2   -1    0    0  501    0  0.00000000000E+00  0.00000000000E+00 -0.15126334967E+04  0.15126334967E+04  0.25500000920E-02 0. -1.
    10030    2    1    2    0    0  0.00000000000E+00  0.00000000000E+00 -0.11716214055E+04  0.18536455879E+04  0.14364209856E+04 0.  0.
        2    1    3    3  502    0  0.10244684751E+03  0.38971485905E+03  0.18139349605E+03  0.44190115223E+03  0.25500000920E-02 0.  1.
       -2    1    3    3    0  502 -0.10244684751E+03 -0.38971485905E+03 -0.13530149016E+04  0.14117444357E+04  0.25500000920E-02 0. -1.
</event>
<event>
 5   0  0.8191876E-04  0.1516274E+04  0.7818609E-02  0.8873702E-01
        1   -1    0    0  501    0  0.00000000000E+00  0.00000000000E+00  0.62037648912E+03  0.62037648914E+03  0.50400001928E-02 0.  1.
       -1   -1    0    0    0  501  0.00000000000E+00  0.00000000000E+00 -0.92648868704E+03  0.92648868705E+03  0.50400001928E-02 0. -1.
    10030    2    1    2    0    0  0.00000000000E+00  0.00000000000E+00 -0.30611219792E+03  0.15468651762E+04  0.15162741163E+04 0.  0.
        2    1    3    3  502    0  0.37057057728E+03 -0.65252486557E+03 -0.26321870059E+03  0.79523288242E+03  0.25500000920E-02 0. -1.
       -2    1    3    3    0  502 -0.37057057728E+03  0.65252486557E+03 -0.42893497325E+02  0.75163229378E+03  0.25500000920E-02 0.  1.
</event>
<event>
 5   0  0.8191876E-04  0.1488149E+04  0.7818609E-02  0.8892372E-01
       -1   -1    0    0    0  501  0.00000000000E+00  0.00000000000E+00  0.80096188670E+03  0.80096188672E+03  0.50400001928E-02 0. -1.
        1   -1    0    0  501    0  0.00000000000E+00  0.00000000000E+00 -0.69122719647E+03  0.69122719649E+03  0.50400001928E-02 0.  1.
    10030    2    1    2    0    0  0.00000000000E+00  0.00000000000E+00  0.10973469023E+03  0.14921890832E+04  0.14881487015E+04 0.  0.
        2    1    3    3  502    0 -0.13521987837E+03 -0.82512350959E+02  0.78385837464E+03  0.79970410470E+03  0.25500000920E-02 0. -1.
       -2    1    3    3    0  502  0.13521987837E+03  0.82512350959E+02 -0.67412368441E+03  0.69248497851E+03  0.25500000920E-02 0.  1.
</event>
<event>
 5   0  0.8365016E-04  0.1212543E+04  0.7818609E-02  0.9101948E-01
        1   -1    0    0  501    0  0.00000000000E+00  0.00000000000E+00  0.12777168246E+04  0.12777168247E+04  0.50400001928E-02 0.  1.
       -1   -1    0    0    0  501  0.00000000000E+00  0.00000000000E+00 -0.28767342496E+03  0.28767342501E+03  0.50400001928E-02 0. -1.
    10030    2    1    2    0    0  0.00000000000E+00  0.00000000000E+00  0.99004339968E+03  0.15653902497E+04  0.12125430716E+04 0.  0.
        3    1    3    3  502    0 -0.32178684627E+03 -0.15828662993E+03 -0.13606851620E+03  0.38355714430E+03  0.10100000352E+00 0. -1.
       -3    1    3    3    0  502  0.32178684627E+03  0.15828662993E+03  0.11261119159E+04  0.11818331054E+04  0.10100000352E+00 0.  1.
</event>
<event>
 5   0  0.1511546E-03  0.1492765E+04  0.7818609E-02  0.8889279E-01
        2   -1    0    0  501    0  0.00000000000E+00  0.00000000000E+00  0.17448370040E+04  0.17448370040E+04  0.25500000920E-02 0.  1.
       -2   -1    0    0    0  501  0.00000000000E+00  0.00000000000E+00 -0.31927714238E+03  0.31927714239E+03  0.25500000920E-02 0. -1.
    10030    2    1    2    0    0  0.00000000000E+00  0.00000000000E+00  0.14255598616E+04  0.20641141464E+04  0.14927646467E+04 0.  0.
        1    1    3    3  502    0  0.63302409498E+03  0.39391650637E+03  0.76061681759E+03  0.10650951423E+04  0.50400001928E-02 0.  1.
       -1    1    3    3    0  502 -0.63302409498E+03 -0.39391650637E+03  0.66494304404E+03  0.99901900415E+03  0.50400001928E-02 0. -1.
</event>
<event>
 5   0  0.1500956E-03  0.1491733E+04  0.7818609E-02  0.8889969E-01
       -2   -1    0    0    0  501  0.00000000000E+00  0.00000000000E+00  0.14639212451E+04  0.14639212451E+04  0.25500000920E-02 0. -1.
        2   -1    0    0  501    0  0.00000000000E+00  0.00000000000E+00 -0.38001814548E+03  0.38001814549E+03  0.25500000920E-02 0.  1.
    10030    2    1    2    0    0  0.00000000000E+00  0.00000000000E+00  0.10839030996E+04  0.18439393906E+04  0.14917327330E+04 0.  0.
        4    1    3    3  502    0  0.53482126722E+03 -0.48166261226E+03  0.78380650840E+03  0.10641366996E+04  0.12699999809E+01 0. -1.
       -4    1    3    3    0  502 -0.53482126722E+03  0.48166261226E+03  0.30009659123E+03  0.77980269100E+03  0.12699999809E+01 0.  1.
</event>
<event>
 5   0  0.7870317E-04  0.1634147E+04  0.7818609E-02  0.8799840E-01
       -1   -1    0    0    0  501  0.00000000000E+00  0.00000000000E+00  0.11891312289E+04  0.11891312290E+04  0.50400001928E-02 0.  1.
        1   -1    0    0  501    0  0.00000000000E+00  0.00000000000E+00 -0.56142622644E+03  0.56142622646E+03  0.50400001928E-02 0. -1.
    10030    2    1    2    0    0  0.00000000000E+00  0.00000000000E+00  0.62770500251E+03  0.17505574554E+04  0.16341474335E+04 0.  0.
        1    1    3    3  502    0  0.42785877125E+03 -0.13162741689E+03  0.10460801151E+04  0.11378367687E+04  0.50400001928E-02 0.  1.
       -1    1    3    3    0  502 -0.42785877125E+03  0.13162741689E+03 -0.41837511261E+03  0.61272068668E+03  0.50400001928E-02 0. -1.
</event>
<event>
 5   0  0.1511546E-03  0.1308479E+04  0.7818609E-02  0.9022868E-01
        2   -1    0    0  501    0  0.00000000000E+00  0.00000000000E+00  0.81039271869E+03  0.81039271869E+03  0.25500000920E-02 0.  1.
       -2   -1    0    0    0  501  0.00000000000E+00  0.00000000000E+00 -0.52817511165E+03  0.52817511166E+03  0.25500000920E-02 0. -1.
    10030    2    1    2    0    0  0.00000000000E+00  0.00000000000E+00  0.28221760704E+03  0.13385678303E+04  0.13084789103E+04 0.  0.
        1    1    3    3  502    0  0.77822412742E+02 -0.67104107756E+02  0.80208569975E+03  0.80864130427E+03  0.50400001928E-02 0.  1.
       -1    1    3    3    0  502 -0.77822412742E+02  0.67104107756E+02 -0.51986809271E+03  0.52992652608E+03  0.50400001928E-02 0. -1.
</event>
<event>
 5   0  0.1500956E-03  0.1491231E+04  0.7818609E-02  0.8890305E-01
       -2   -1    0    0    0  501  0.00000000000E+00  0.00000000000E+00  0.65987712991E+03  0.65987712991E+03  0.25500000920E-02 0.  1.
        2   -1    0    0  501    0  0.00000000000E+00  0.00000000000E+00 -0.84249380507E+03  0.84249380508E+03  0.25500000920E-02 0. -1.
    10030    2    1    2    0    0  0.00000000000E+00  0.00000000000E+00 -0.18261667517E+03  0.15023709350E+04  0.14912308930E+04 0.  0.
        4    1    3    3  502    0 -0.52302218442E+03  0.47245156748E+02 -0.62456048126E+03  0.81600350360E+03  0.12699999809E+01 0. -1.
       -4    1    3    3    0  502  0.52302218442E+03 -0.47245156748E+02  0.44194380609E+03  0.68636743139E+03  0.12699999809E+01 0.  1.
</event>
<event>
 5   0  0.1484056E-03  0.1573993E+04  0.7818609E-02  0.8836686E-01
        2   -1    0    0  501    0  0.00000000000E+00  0.00000000000E+00  0.85227810168E+03  0.85227810168E+03  0.25500000920E-02 0. -1.
       -2   -1    0    0    0  501  0.00000000000E+00  0.00000000000E+00 -0.72671516687E+03  0.72671516687E+03  0.25500000920E-02 0.  1.
    10030    2    1    2    0    0  0.00000000000E+00  0.00000000000E+00  0.12556293481E+03  0.15789932686E+04  0.15739929134E+04 0.  0.
        5    1    3    3  502    0 -0.24317748221E+03  0.36619977866E+03 -0.59205852190E+03  0.73742318183E+03  0.46999998093E+01 0.  1.
       -5    1    3    3    0  502  0.24317748221E+03 -0.36619977866E+03  0.71762145671E+03  0.84157008673E+03  0.46999998093E+01 0. -1.
</event>
<event>
 5   0  0.1511546E-03  0.1500686E+04  0.7818609E-02  0.8883997E-01
       -2   -1    0    0    0  501  0.00000000000E+00  0.00000000000E+00  0.45658499258E+03  0.45658499259E+03  0.25500000920E-02 0. -1.
        2   -1    0    0  501    0  0.00000000000E+00  0.00000000000E+00 -0.12330995766E+04  0.12330995766E+04  0.25500000920E-02 0.  1.
    10030    2    1    2    0    0  0.00000000000E+00  0.00000000000E+00 -0.77651458402E+03  0.16896845692E+04  0.15006861911E+04 0.  0.
        1    1    3    3  502    0  0.59613760592E+03  0.34245467052E+03 -0.49800919117E+02  0.68930064423E+03  0.50400001928E-02 0.  1.
       -1    1    3    3    0  502 -0.59613760592E+03 -0.34245467052E+03 -0.72671366490E+03  0.10003839250E+04  0.50400001928E-02 0. -1.
</event>
<event>
 5   0  0.1484056E-03  0.1464303E+04  0.7818609E-02  0.8908544E-01
        2   -1    0    0  501    0  0.00000000000E+00  0.00000000000E+00  0.95031915177E+03  0.95031915177E+03  0.25500000920E-02 0.  1.
       -2   -1    0    0    0  501  0.00000000000E+00  0.00000000000E+00 -0.56406912913E+03  0.56406912914E+03  0.25500000920E-02 0. -1.
    10030    2    1    2    0    0  0.00000000000E+00  0.00000000000E+00  0.38625002263E+03  0.15143882809E+04  0.14643028325E+04 0.  0.
        5    1    3    3  502    0  0.43721624312E+03 -0.26576396065E+03 -0.34846150373E+03  0.61906060738E+03  0.46999998093E+01 0. -1.
       -5    1    3    3    0  502 -0.43721624312E+03  0.26576396065E+03  0.73471152636E+03  0.89532767353E+03  0.46999998093E+01 0.  1.
</event>
<event>
 5   0  0.1511546E-03  0.1503521E+04  0.7818609E-02  0.8882115E-01
        2   -1    0    0  501    0  0.00000000000E+00  0.00000000000E+00  0.62732869267E+03  0.62732869267E+03  0.25500000920E-02 0. -1.
       -2   -1    0    0    0  501  0.00000000000E+00  0.00000000000E+00 -0.90087396628E+03  0.90087396629E+03  0.25500000920E-02 0.  1.
    10030    2    1    2    0    0  0.00000000000E+00  0.00000000000E+00 -0.27354527362E+03  0.15282026590E+04  0.15035213168E+04 0.  0.
        1    1    3    3  502    0  0.42176398852E+03 -0.47387733383E+03 -0.54675433268E+03  0.83748724758E+03  0.50400001928E-02 0.  1.
       -1    1    3    3    0  502 -0.42176398852E+03  0.47387733383E+03  0.27320905907E+03  0.69071541138E+03  0.50400001928E-02 0. -1.
</event>
<event>
 5   0  0.8306301E-04  0.1508159E+04  0.7818609E-02  0.8879045E-01
       -1   -1    0    0    0  501  0.00000000000E+00  0.00000000000E+00  0.58928604868E+03  0.58928604870E+03  0.50400001928E-02 0. -1.
        1   -1    0    0  501    0  0.00000000000E+00  0.00000000000E+00 -0.96495714929E+03  0.96495714930E+03  0.50400001928E-02 0.  1.
    10030    2    1    2    0    0  0.00000000000E+00  0.00000000000E+00 -0.37567110061E+03  0.15542431980E+04  0.15081588586E+04 0.  0.
        4    1    3    3  502    0  0.40450475107E+03  0.41056228786E+03  0.31328283803E+03  0.65599789280E+03  0.12699999809E+01 0. -1.
       -4    1    3    3    0  502 -0.40450475107E+03 -0.41056228786E+03 -0.68895393864E+03  0.89824530520E+03  0.12699999809E+01 0.  1.
</event>
<event>
 5   0  0.8365016E-04  0.1484723E+04  0.7818609E-02  0.8894676E-01
       -1   -1    0    0    0  501  0.00000000000E+00  0.00000000000E+00  0.48868137508E+03  0.48868137510E+03  0.50400001928E-02 0.  1.
        1   -1    0    0  501    0  0.00000000000E+00  0.00000000000E+00 -0.11277292356E+04  0.11277292356E+04  0.50400001928E-02 0. -1.
    10030    2    1    2    0    0  0.00000000000E+00  0.00000000000E+00 -0.63904786047E+03  0.16164106107E+04  0.14847225648E+04 0.  0.
        3    1    3    3  502    0  0.59692387455E+03 -0.19180489242E+02  0.16050834920E+03  0.61842456577E+03  0.10100000352E+00 0.  1.
       -3    1    3    3    0  502 -0.59692387455E+03  0.19180489242E+02 -0.79955620968E+03  0.99798604490E+03  0.10100000352E+00 0. -1.
</event>
<event>
 5   0  0.1511546E-03  0.1487940E+04  0.7818609E-02  0.8892512E-01
        2   -1    0    0  501    0  0.00000000000E+00  0.00000000000E+00  0.14314545871E+04  0.14314545871E+04  0.25500000920E-02 0.  1.
       -2   -1    0    0    0  501  0.00000000000E+00  0.00000000000E+00 -0.38666372223E+03  0.38666372224E+03  0.25500000920E-02 0. -1.
    10030    2    1    2    0    0  0.00000000000E+00  0.00000000000E+00  0.10447908649E+04  0.18181183093E+04  0.14879402661E+04 0.  0.
        1    1    3    3  502    0 -0.29752372161E+03  0.41229656880E+03 -0.14124821483E+03  0.52769298250E+03  0.50400001928E-02 0. -1.
       -1    1    3    3    0  502  0.29752372161E+03 -0.41229656880E+03  0.11860390797E+04  0.12904253268E+04  0.50400001928E-02 0.  1.
</event>
<event>
 5   0  0.8191876E-04  0.1504638E+04  0.7818609E-02  0.8881375E-01
        1   -1    0    0  501    0  0.00000000000E+00  0.00000000000E+00  0.13877849344E+04  0.13877849344E+04  0.50400001928E-02 0.  1.
       -1   -1    0    0    0  501  0.00000000000E+00  0.00000000000E+00 -0.40783234225E+03  0.40783234228E+03  0.50400001928E-02 0. -1.
    10030    2    1    2    0    0  0.00000000000E+00  0.00000000000E+00  0.97995259212E+03  0.17956172767E+04  0.15046376047E+04 0.  0.
        2    1    3    3  502    0 -0.22663080918E+03 -0.69848637359E+03  0.29483321127E+03  0.79130990151E+03  0.25500000920E-02 0. -1.
       -2    1    3    3    0  502  0.22663080918E+03  0.69848637359E+03  0.68511938085E+03  0.10043073752E+04  0.25500000920E-02 0.  1.
</event>
<event>
 5   0  0.1526126E-03  0.1520705E+04  0.7818609E-02  0.8870800E-01
        2   -1    0    0  501    0  0.00000000000E+00  0.00000000000E+00  0.12634429139E+04  0.12634429139E+04  0.25500000920E-02 0. -1.
       -2   -1    0    0    0  501  0.00000000000E+00  0.00000000000E+00 -0.45758760388E+03  0.45758760388E+03  0.25500000920E-02 0.  1.
    10030    2    1    2    0    0  0.00000000000E+00  0.00000000000E+00  0.80585531006E+03  0.17210305178E+04  0.15207048571E+04 0.  0.
        2    1    3    3  502    0  0.50318828327E+03 -0.87684278847E+02  0.10403740303E+04  0.11589931424E+04  0.25500000920E-02 0. -1.
       -2    1    3    3    0  502 -0.50318828327E+03  0.87684278847E+02 -0.23451872028E+03  0.56203737540E+03  0.25500000920E-02 0.  1.
</event>
<event>
 5   0  0.8306301E-04  0.1482355E+04  0.7818609E-02  0.8896272E-01
       -1   -1    0    0    0  501  0.00000000000E+00  0.00000000000E+00  0.59228415581E+03  0.59228415584E+03  0.50400001928E-02 0.  1.
        1   -1    0    0  501    0  0.00000000000E+00  0.00000000000E+00 -0.92750034656E+03  0.92750034658E+03  0.50400001928E-02 0. -1.
    10030    2    1    2    0    0  0.00000000000E+00  0.00000000000E+00 -0.33521619075E+03  0.15197845024E+04  0.14823545592E+04 0.  0.
        4    1    3    3  502    0 -0.13076625687E+03  0.70301750320E+03 -0.36748911601E+03  0.80397965586E+03  0.12699999809E+01 0. -1.
       -4    1    3    3    0  502  0.13076625687E+03 -0.70301750320E+03  0.32272925261E+02  0.71580484655E+03  0.12699999809E+01 0.  1.
</event>
<event>
 5   0  0.1484056E-03  0.1456596E+04  0.7818609E-02  0.8913841E-01
       -2   -1    0    0    0  501  0.00000000000E+00  0.00000000000E+00  0.55587256955E+03  0.55587256955E+03  0.25500000920E-02 0. -1.
        2   -1    0    0  501    0  0.00000000000E+00  0.00000000000E+00 -0.95420736106E+03  0.95420736106E+03  0.25500000920E-02 0.  1.
    10030    2    1    2    0    0  0.00000000000E+00  0.00000000000E+00 -0.39833479151E+03  0.15100799306E+04  0.14565956167E+04 0.  0.
        5    1    3    3  502    0  0.53849206842E+03 -0.29472751736E+03  0.20708560450E+03  0.64787695964E+03  0.46999998093E+01 0. -1.
       -5    1    3    3    0  502 -0.53849206842E+03  0.29472751736E+03 -0.60542039602E+03  0.86220297098E+03  0.46999998093E+01 0.  1.
</event>
<event>
 5   0  0.8306301E-04  0.1473521E+04  0.7818609E-02  0.8902254E-01
       -1   -1    0    0    0  501  0.00000000000E+00  0.00000000000E+00  0.12459961383E+04  0.12459961383E+04  0.50400001928E-02 0.  1.
        1   -1    0    0  501    0  0.00000000000E+00  0.00000000000E+00 -0.43564838678E+03  0.43564838681E+03  0.50400001928E-02 0. -1.
    10030    2    1    2    0    0  0.00000000000E+00  0.00000000000E+00  0.81034775149E+03  0.16816445251E+04  0.14735212351E+04 0.  0.
        4    1    3    3  502    0  0.55027204812E+03 -0.26808339111E+03  0.87314795261E+03  0.10663287446E+04  0.12699999809E+01 0.  1.
       -4    1    3    3    0  502 -0.55027204812E+03  0.26808339111E+03 -0.62800201130E+02  0.61531578047E+03  0.12699999809E+01 0. -1.
</event>
<event>
 5   0  0.1511546E-03  0.1478967E+04  0.7818609E-02  0.8898561E-01
       -2   -1    0    0    0  501  0.00000000000E+00  0.00000000000E+00  0.37479615999E+03  0.37479616000E+03  0.25500000920E-02 0.  1.
        2   -1    0    0  501    0  0.00000000000E+00  0.00000000000E+00 -0.14590215769E+04  0.14590215769E+04  0.25500000920E-02 0. -1.
    10030    2    1    2    0    0  0.00000000000E+00  0.00000000000E+00 -0.10842254169E+04  0.18338177369E+04  0.14789667804E+04 0.  0.
        1    1    3    3  502    0 -0.33251985520E+03  0.24521953627E+03 -0.13025594799E+04  0.13665150104E+04  0.50400001928E-02 0. -1.
       -1    1    3    3    0  502  0.33251985520E+03 -0.24521953627E+03  0.21833406299E+03  0.46730272646E+03  0.50400001928E-02 0.  1.
</event>
<event>
 5   0  0.8191876E-04  0.1482538E+04  0.7818609E-02  0.8896149E-01
       -1   -1    0    0    0  501  0.00000000000E+00  0.00000000000E+00  0.14686372999E+04  0.14686372999E+04  0.50400001928E-02 0.  1.
        1   -1    0    0  501    0  0.00000000000E+00  0.00000000000E+00 -0.37414238772E+03  0.37414238776E+03  0.50400001928E-02 0. -1.
    10030    2    1    2    0    0  0.00000000000E+00  0.00000000000E+00  0.10944949122E+04  0.18427796877E+04  0.14825376435E+04 0.  0.
        2    1    3    3  502    0 -0.27461519482E+03 -0.26216817422E+03 -0.24411255754E+03  0.45137190603E+03  0.25500000920E-02 0.  1.
       -2    1    3    3    0  502  0.27461519482E+03  0.26216817422E+03  0.13386074697E+04  0.13914077816E+04  0.25500000920E-02 0. -1.
</event>
<event>
 5   0  0.8191876E-04  0.1540554E+04  0.7818609E-02  0.8857924E-01
        1   -1    0    0  501    0  0.00000000000E+00  0.00000000000E+00  0.12813430681E+04  0.12813430681E+04  0.50400001928E-02 0.  1.
       -1   -1    0    0    0  501  0.00000000000E+00  0.00000000000E+00 -0.46305055827E+03  0.46305055830E+03  0.50400001928E-02 0. -1.
    10030    2    1    2    0    0  0.00000000000E+00  0.00000000000E+00  0.81829250983E+03  0.17443936264E+04  0.15405539563E+04 0.  0.
        2    1    3    3  502    0 -0.31599970681E+03  0.30172164696E+03 -0.30916946727E+03  0.53523595399E+03  0.25500000920E-02 0. -1.
       -2    1    3    3    0  502  0.31599970681E+03 -0.30172164696E+03  0.11274619771E+04  0.12091576724E+04  0.25500000920E-02 0.  1.
</event>
<event>
 5   0  0.8058234E-04  0.1464443E+04  0.7818609E-02  0.8908448E-01
       -1   -1    0    0    0  501  0.00000000000E+00  0.00000000000E+00  0.42080809100E+03  0.42080809103E+03  0.50400001928E-02 0. -1.
        1   -1    0    0  501    0  0.00000000000E+00  0.00000000000E+00 -0.12740926407E+04  0.12740926407E+04  0.50400001928E-02 0.  1.
    10030    2    1    2    0    0  0.00000000000E+00  0.00000000000E+00 -0.85328454974E+03  0.16949007318E+04  0.14644432279E+04 0.  0.
        5    1    3    3  502    0  0.66191739462E+03  0.24041451720E+03 -0.19461186331E+03  0.73063646550E+03  0.46999998093E+01 0.  1.
       -5    1    3    3    0  502 -0.66191739462E+03 -0.24041451720E+03 -0.65867268643E+03  0.96426426628E+03  0.46999998093E+01 0. -1.
</event>
<event>
 5   0  0.8058234E-04  0.1014661E+04  0.7818609E-02  0.9292610E-01
       -1   -1    0    0    0  501  0.00000000000E+00  0.00000000000E+00  0.18266371367E+03  0.18266371374E+03  0.50400001928E-02 0.  1.
        1   -1    0    0  501    0  0.00000000000E+00  0.00000000000E+00 -0.14090603663E+04  0.14090603663E+04  0.50400001928E-02 0. -1.
    10030    2    1    2    0    0  0.00000000000E+00  0.00000000000E+00 -0.12263966526E+04  0.15917240800E+04  0.10146609273E+04 0.  0.
        5    1    3    3  502    0  0.12284222112E+03 -0.27591860515E+03 -0.12526165744E+04  0.12885230539E+04  0.46999998093E+01 0. -1.
       -5    1    3    3    0  502 -0.12284222112E+03  0.27591860515E+03  0.26219921778E+02  0.30320102614E+03  0.46999998093E+01 0.  1.
</event>
<event>
 5   0  0.8306301E-04  0.1481295E+04  0.7818609E-02  0.8896987E-01
        1   -1    0    0  501    0  0.00000000000E+00  0.00000000000E+00  0.64883004012E+03  0.64883004014E+03  0.50400001928E-02 0.  1.
       -1   -1    0    0    0  501  0.00000000000E+00  0.00000000000E+00 -0.84545857959E+03  0.84545857961E+03  0.50400001928E-02 0. -1.
    10030    2    1    2    0    0  0.00000000000E+00  0.00000000000E+00 -0.19662853947E+03  0.14942886197E+04  0.14812952766E+04 0.  0.
        4    1    3    3  502    0  0.72221458695E+03  0.67549584423E+01  0.67191221420E+02  0.72536598501E+03  0.12699999809E+01 0.  1.
       -4    1    3    3    0  502 -0.72221458695E+03 -0.67549584423E+01 -0.26381976089E+03  0.76892263474E+03  0.12699999809E+01 0. -1.
</event>
<event>
 5   0  0.1500956E-03  0.1500170E+04  0.7818609E-02  0.8884340E-01
        2   -1    0    0  501    0  0.00000000000E+00  0.00000000000E+00  0.10618079767E+04  0.10618079767E+04  0.25500000920E-02 0. -1.
       -2   -1    0    0    0  501  0.00000000000E+00  0.00000000000E+00 -0.52987702273E+03  0.52987702273E+03  0.25500000920E-02 0.  1.
    10030    2    1    2    0    0  0.00000000000E+00  0.00000000000E+00  0.53193095393E+03  0.15916849994E+04  0.15001701895E+04 0.  0.
        4    1    3    3  502    0 -0.70509950089E+03  0.25111572542E+03  0.21396959019E+03  0.77846580666E+03  0.12699999809E+01 0. -1.
       -4    1    3    3    0  502  0.70509950089E+03 -0.25111572542E+03  0.31796136374E+03  0.81321919274E+03  0.12699999809E+01 0.  1.
</event>
<event>
 5   0  0.1511546E-03  0.1483879E+04  0.7818609E-02  0.8895244E-01
        2   -1    0    0  501    0  0.00000000000E+00  0.00000000000E+00  0.52179091343E+03  0.52179091344E+03  0.25500000920E-02 0.  1.
       -2   -1    0    0    0  501  0.00000000000E+00  0.00000000000E+00 -0.10549710156E+04  0.10549710156E+04  0.25500000920E-02 0. -1.
    10030    2    1    2    0    0  0.00000000000E+00  0.00000000000E+00 -0.53318010215E+03  0.15767619290E+04  0.14838790919E+04 0.  0.
        1    1    3    3  502    0 -0.14832242549E+03  0.26680605426E+03  0.45197008301E+03  0.54540074115E+03  0.50400001928E-02 0.  1.
       -1    1    3    3    0  502  0.14832242549E+03 -0.26680605426E+03 -0.98515018515E+03  0.10313611879E+04  0.50400001928E-02 0. -1.
</event>
<event>
 5   0  0.1484056E-03  0.1511449E+04  0.7818609E-02  0.8876875E-01
        2   -1    0    0  501    0  0.00000000000E+00  0.00000000000E+00  0.14753513722E+04  0.14753513722E+04  0.25500000920E-02 0. -1.
       -2   -1    0    0    0  501  0.00000000000E+00  0.00000000000E+00 -0.38710725064E+03  0.38710725064E+03  0.25500000920E-02 0.  1.
    10030    2    1    2    0    0  0.00000000000E+00  0.00000000000E+00  0.10882441216E+04  0.18624586228E+04  0.15114485945E+04 0.  0.
        5    1    3    3  502    0 -0.34154606350E+03 -0.37656697702E+03 -0.14487286630E+03  0.52864604327E+03  0.46999998093E+01 0.  1.
       -5    1    3    3    0  502  0.34154606350E+03  0.37656697702E+03  0.12331169879E+04  0.13338125796E+04  0.46999998093E+01 0. -1.
</event>
<event>
 5   0  0.1526126E-03  0.1499300E+04  0.7818609E-02  0.8884918E-01
        2   -1    0    0  501    0  0.00000000000E+00  0.00000000000E+00  0.12370095554E+04  0.12370095554E+04  0.25500000920E-02 0.  1.
       -2   -1    0    0    0  501  0.00000000000E+00  0.00000000000E+00 -0.45430154632E+03  0.45430154632E+03  0.25500000920E-02 0. -1.
    10030    2    1    2    0    0  0.00000000000E+00  0.00000000000E+00  0.78270800905E+03  0.16913111017E+04  0.14993003086E+04 0.  0.
        2    1    3    3  502    0  0.86415086902E+01 -0.32782029231E+03  0.11518037747E+04  0.11975778702E+04  0.25500000920E-02 0.  1.
       -2    1    3    3    0  502 -0.86415086902E+01  0.32782029231E+03 -0.36909576562E+03  0.49373323154E+03  0.25500000920E-02 0. -1.
</event>
<event>
 5   0  0.8191876E-04  0.1554918E+04  0.7818609E-02  0.8848733E-01
       -1   -1    0    0    0  501  0.00000000000E+00  0.00000000000E+00  0.88963915397E+03  0.88963915398E+03  0.50400001928E-02 0.  1.
        1   -1    0    0  501    0  0.00000000000E+00  0.00000000000E+00 -0.67942434029E+03  0.67942434031E+03  0.50400001928E-02 0. -1.
    10030    2    1    2    0    0  0.00000000000E+00  0.00000000000E+00  0.21021481368E+03  0.15690634943E+04  0.15549179982E+04 0.  0.
        2    1    3    3  502    0  0.76074163283E+03  0.77271942795E+02 -0.36683183907E+02  0.76553539504E+03  0.25500000920E-02 0. -1.
       -2    1    3    3    0  502 -0.76074163283E+03 -0.77271942795E+02  0.24689799758E+03  0.80352809925E+03  0.25500000920E-02 0.  1.
</event>
<event>
 5   0  0.7870317E-04  0.1567487E+04  0.7818609E-02  0.8840775E-01
        1   -1    0    0  501    0  0.00000000000E+00  0.00000000000E+00  0.17648076036E+04  0.17648076036E+04  0.50400001928E-02 0. -1.
       -1   -1    0    0    0  501  0.00000000000E+00  0.00000000000E+00 -0.34805699724E+03  0.34805699728E+03  0.50400001928E-02 0.  1.
    10030    2    1    2    0    0  0.00000000000E+00  0.00000000000E+00  0.14167506063E+04  0.21128646009E+04  0.15674866956E+04 0.  0.
        1    1    3    3  502    0 -0.50943837233E+03 -0.47370580820E+03  0.11949934651E+04  0.13827270264E+04  0.50400001928E-02 0. -1.
       -1    1    3    3    0  502  0.50943837233E+03  0.47370580820E+03  0.22175714126E+03  0.73013757447E+03  0.50400001928E-02 0.  1.
</event>
<event>
 5   0  0.1484056E-03  0.1419368E+04  0.7818609E-02  0.8939917E-01
        2   -1    0    0  501    0  0.00000000000E+00  0.00000000000E+00  0.66401820251E+03  0.66401820251E+03  0.25500000920E-02 0.  1.
       -2   -1    0    0    0  501  0.00000000000E+00  0.00000000000E+00 -0.75848985961E+03  0.75848985962E+03  0.25500000920E-02 0. -1.
    10030    2    1    2    0    0  0.00000000000E+00  0.00000000000E+00 -0.94471657102E+02  0.14225080621E+04  0.14193675679E+04 0.  0.
        5    1    3    3  502    0 -0.12213088250E+02 -0.51701580957E+03  0.43981730240E+03  0.67890784084E+03  0.46999998093E+01 0.  1.
       -5    1    3    3    0  502  0.12213088250E+02  0.51701580957E+03 -0.53428895950E+03  0.74360022129E+03  0.46999998093E+01 0. -1.
</event>
<event>
 5   0  0.1511546E-03  0.1483978E+04  0.7818609E-02  0.8895178E-01
        2   -1    0    0  501    0  0.00000000000E+00  0.00000000000E+00  0.74550316380E+03  0.74550316381E+03  0.25500000920E-02 0.  1.
       -2   -1    0    0    0  501  0.00000000000E+00  0.00000000000E+00 -0.73849167777E+03  0.73849167778E+03  0.25500000920E-02 0. -1.
    10030    2    1    2    0    0  0.00000000000E+00  0.00000000000E+00  0.70114860303E+01  0.14839948416E+04  0.14839782778E+04 0.  0.
        1    1    3    3  502    0  0.16174260483E+03 -0.53021171051E+03  0.49672798961E+03  0.74432776642E+03  0.50400001928E-02 0.  1.
       -1    1    3    3    0  502 -0.16174260483E+03  0.53021171051E+03 -0.48971650358E+03  0.73966707516E+03  0.50400001928E-02 0. -1.
</event>
<event>
 5   0  0.8058234E-04  0.1525423E+04  0.7818609E-02  0.8867720E-01
       -1   -1    0    0    0  501  0.00000000000E+00  0.00000000000E+00  0.70973520799E+03  0.70973520800E+03  0.50400001928E-02 0.  1.
        1   -1    0    0  501    0  0.00000000000E+00  0.00000000000E+00 -0.81964249833E+03  0.81964249834E+03  0.50400001928E-02 0. -1.
    10030    2    1    2    0    0  0.00000000000E+00  0.00000000000E+00 -0.10990729034E+03  0.15293777063E+04  0.15254234023E+04 0.  0.
        5    1    3    3  502    0 -0.28814891694E+03 -0.65879188741E+03 -0.30991682042E+03  0.78301154195E+03  0.46999998093E+01 0. -1.
       -5    1    3    3    0  502  0.28814891694E+03  0.65879188741E+03  0.20000953008E+03  0.74636616440E+03  0.46999998093E+01 0.  1.
</event>
<event>
 5   0  0.8365016E-04  0.1519469E+04  0.7818609E-02  0.8871609E-01
        1   -1    0    0  501    0  0.00000000000E+00  0.00000000000E+00  0.17093309436E+04  0.17093309436E+04  0.50400001928E-02 0. -1.
       -1   -1    0    0    0  501  0.00000000000E+00  0.00000000000E+00 -0.33767387802E+03  0.33767387806E+03  0.50400001928E-02 0.  1.
    10030    2    1    2    0    0  0.00000000000E+00  0.00000000000E+00  0.13716570656E+04  0.20470048217E+04  0.15194688659E+04 0.  0.
        3    1    3    3  502    0  0.68319308260E+02  0.30334605595E+03  0.16196810494E+04  0.16492583392E+04  0.10100000352E+00 0. -1.
       -3    1    3    3    0  502 -0.68319308260E+02 -0.30334605595E+03 -0.24802398382E+03  0.39774648244E+03  0.10100000352E+00 0.  1.
</event>
<event>
 5   0  0.1484056E-03  0.1542191E+04  0.7818609E-02  0.8856871E-01
       -2   -1    0    0    0  501  0.00000000000E+00  0.00000000000E+00  0.34336674753E+03  0.34336674754E+03  0.25500000920E-02 0. -1.
        2   -1    0    0  501    0  0.00000000000E+00  0.00000000000E+00 -0.17316425686E+04  0.17316425686E+04  0.25500000920E-02 0.  1.
    10030    2    1    2    0    0  0.00000000000E+00  0.00000000000E+00 -0.13882758210E+04  0.20750093161E+04  0.15421912679E+04 0.  0.
        5    1    3    3  502    0  0.11842363984E+02 -0.65480108741E+03 -0.12417749867E+04  0.14038988259E+04  0.46999998093E+01 0.  1.
       -5    1    3    3    0  502 -0.11842363984E+02  0.65480108741E+03 -0.14650083433E+03  0.67111049024E+03  0.46999998093E+01 0. -1.
</event>
<event>
 5   0  0.8365016E-04  0.1499324E+04  0.7818609E-02  0.8884903E-01
        1   -1    0    0  501    0  0.00000000000E+00  0.00000000000E+00  0.35752728608E+03  0.35752728612E+03  0.50400001928E-02 0.  1.
       -1   -1    0    0    0  501  0.00000000000E+00  0.00000000000E+00 -0.15718877168E+04  0.15718877168E+04  0.50400001928E-02 0. -1.
    10030    2    1    2    0    0  0.00000000000E+00  0.00000000000E+00 -0.12143604308E+04  0.19294150030E+04  0.14993235134E+04 0.  0.
        3    1    3    3  502    0 -0.56303644229E+02  0.42066704535E+03  0.18803274600E+03  0.46420597494E+03  0.10100000352E+00 0.  1.
       -3    1    3    3    0  502  0.56303644229E+02 -0.42066704535E+03 -0.14023931768E+04  0.14652090280E+04  0.10100000352E+00 0. -1.
</event>
<event>
 5   0  0.1484056E-03  0.1423336E+04  0.7818609E-02  0.8937098E-01
        2   -1    0    0  501    0  0.00000000000E+00  0.00000000000E+00  0.11870299908E+04  0.11870299908E+04  0.25500000920E-02 0.  1.
       -2   -1    0    0    0  501  0.00000000000E+00  0.00000000000E+00 -0.42667091003E+03  0.42667091004E+03  0.25500000920E-02 0. -1.
    10030    2    1    2    0    0  0.00000000000E+00  0.00000000000E+00  0.76035908078E+03  0.16137009009E+04  0.14233357530E+04 0.  0.
        5    1    3    3  502    0 -0.58766199223E+03 -0.39056076000E+03  0.27525596518E+03  0.75741155307E+03  0.46999998093E+01 0. -1.
       -5    1    3    3    0  502  0.58766199223E+03  0.39056076000E+03  0.48510311560E+03  0.85628934778E+03  0.46999998093E+01 0.  1.
</event>
<event>
 5   0  0.8191876E-04  0.1510261E+04  0.7818609E-02  0.8877658E-01
        1   -1    0    0  501    0  0.00000000000E+00  0.00000000000E+00  0.14813193676E+04  0.14813193676E+04  0.50400001928E-02 0.  1.
       -1   -1    0    0    0  501  0.00000000000E+00  0.00000000000E+00 -0.38494190072E+03  0.38494190076E+03  0.50400001928E-02 0. -1.
    10030    2    1    2    0    0  0.00000000000E+00  0.00000000000E+00  0.10963774669E+04  0.18662612683E+04  0.15102607629E+04 0.  0.
        2    1    3    3  502    0 -0.65714753598E+03  0.32035135444E+03  0.31452950697E+03  0.79586222746E+03  0.25500000920E-02 0. -1.
       -2    1    3    3    0  502  0.65714753598E+03 -0.32035135444E+03  0.78184795988E+03  0.10703990409E+04  0.25500000920E-02 0.  1.
</event>
<event>
 5   0  0.1511546E-03  0.1511566E+04  0.7818609E-02  0.8876798E-01
        2   -1    0    0  501    0  0.00000000000E+00  0.00000000000E+00  0.68408537352E+03  0.68408537353E+03  0.25500000920E-02 0.  1.
       -2   -1    0    0    0  501  0.00000000000E+00  0.00000000000E+00 -0.83499513033E+03  0.83499513033E+03  0.25500000920E-02 0. -1.
    10030    2    1    2    0    0  0.00000000000E+00  0.00000000000E+00 -0.15090975680E+03  0.15190805039E+04  0.15115660166E+04 0.  0.
        1    1    3    3  502    0 -0.60011826534E+03 -0.28605370385E+03  0.28583098781E+03  0.72364909141E+03  0.50400001928E-02 0.  1.
       -1    1    3    3    0  502  0.60011826534E+03  0.28605370385E+03 -0.43674074462E+03  0.79543141245E+03  0.50400001928E-02 0. -1.
</event>
<event>
 5   0  0.8191876E-04  0.1526255E+04  0.7818609E-02  0.8867179E-01
        1   -1    0    0  501    0  0.00000000000E+00  0.00000000000E+00  0.12595921683E+04  0.12595921683E+04  0.50400001928E-02 0.  1.
       -1   -1    0    0    0  501  0.00000000000E+00  0.00000000000E+00 -0.46234277592E+03  0.46234277595E+03  0.50400001928E-02 0. -1.
    10030    2    1    2    0    0  0.00000000000E+00  0.00000000000E+00  0.79724939234E+03  0.17219349442E+04  0.15262546834E+04 0.  0.
        2    1    3    3  502    0  0.36522136938E+03 -0.64082160098E+03  0.61948986082E+03  0.96322721130E+03  0.25500000920E-02 0.  1.
       -2    1    3    3    0  502 -0.36522136938E+03  0.64082160098E+03  0.17775953152E+03  0.75870773291E+03  0.25500000920E-02 0. -1.
</event>
<event>
 5   0  0.1500956E-03  0.1549851E+04  0.7818609E-02  0.8851963E-01
        2   -1    0    0  501    0  0.00000000000E+00  0.00000000000E+00  0.60386717685E+03  0.60386717686E+03  0.25500000920E-02 0.  1.
       -2   -1    0    0    0  501  0.00000000000E+00  0.00000000000E+00 -0.99443915672E+03  0.99443915672E+03  0.25500000920E-02 0. -1.
    10030    2    1    2    0    0  0.00000000000E+00  0.00000000000E+00 -0.39057197987E+03  0.15983063336E+04  0.15498505297E+04 0.  0.
        4    1    3    3  502    0  0.18626697485E+03  0.65913670498E+03  0.17846887035E+03  0.70782012712E+03  0.12699999809E+01 0. -1.
       -4    1    3    3    0  502 -0.18626697485E+03 -0.65913670498E+03 -0.56904085022E+03  0.89048620646E+03  0.12699999809E+01 0.  1.
</event>
<event>
 5   0  0.8306301E-04  0.1503773E+04  0.7818609E-02  0.8881948E-01
       -1   -1    0    0    0  501  0.00000000000E+00  0.00000000000E+00  0.12930484357E+04  0.12930484357E+04  0.50400001928E-02 0.  1.
        1   -1    0    0  501    0  0.00000000000E+00  0.00000000000E+00 -0.43720973339E+03  0.43720973341E+03  0.50400001928E-02 0. -1.
    10030    2    1    2    0    0  0.00000000000E+00  0.00000000000E+00  0.85583870232E+03  0.17302581691E+04  0.15037730705E+04 0.  0.
        4    1    3    3  502    0  0.30117332013E+03  0.59896940601E+03  0.81957029138E+03  0.10588516390E+04  0.12699999809E+01 0. -1.
       -4    1    3    3    0  502 -0.30117332013E+03 -0.59896940601E+03  0.36268410931E+02  0.67140653008E+03  0.12699999809E+01 0.  1.
</event>
<event>
 5   0  0.8191876E-04  0.1725769E+04  0.7818609E-02  0.8746802E-01
       -1   -1    0    0    0  501  0.00000000000E+00  0.00000000000E+00  0.91167104045E+03  0.91167104046E+03  0.50400001928E-02 0. -1.
        1   -1    0    0  501    0  0.00000000000E+00  0.00000000000E+00 -0.81670843124E+03  0.81670843125E+03  0.50400001928E-02 0.  1.
    10030    2    1    2    0    0  0.00000000000E+00  0.00000000000E+00  0.94962609209E+02  0.17283794717E+04  0.17257687276E+04 0.  0.
        2    1    3    3  502    0 -0.76452165320E+03 -0.34250363344E+03 -0.15963417743E+03  0.85281015926E+03  0.25500000920E-02 0.  1.
       -2    1    3    3    0  502  0.76452165320E+03  0.34250363344E+03  0.25459678664E+03  0.87556931245E+03  0.25500000920E-02 0. -1.
</event>
<event>
 5   0  0.8058234E-04  0.1537647E+04  0.7818609E-02  0.8859797E-01
       -1   -1    0    0    0  501  0.00000000000E+00  0.00000000000E+00  0.83399726589E+03  0.83399726591E+03  0.50400001928E-02 0. -1.
        1   -1    0    0  501    0  0.00000000000E+00  0.00000000000E+00 -0.70874311290E+03  0.70874311292E+03  0.50400001928E-02 0.  1.
    10030    2    1    2    0    0  0.00000000000E+00  0.00000000000E+00  0.12525415299E+03  0.15427403788E+04  0.15376473177E+04 0.  0.
        5    1    3    3  502    0 -0.76837276283E+03  0.10851917128E+02  0.39027653048E+02  0.76945416658E+03  0.46999998093E+01 0.  1.
       -5    1    3    3    0  502  0.76837276283E+03 -0.10851917128E+02  0.86226499944E+02  0.77328621225E+03  0.46999998093E+01 0. -1.
</event>
<event>
 5   0  0.8191876E-04  0.1541168E+04  0.7818609E-02  0.8857529E-01
       -1   -1    0    0    0  501  0.00000000000E+00  0.00000000000E+00  0.14840750621E+04  0.14840750621E+04  0.50400001928E-02 0. -1.
        1   -1    0    0  501    0  0.00000000000E+00  0.00000000000E+00 -0.40011425449E+03  0.40011425453E+03  0.50400001928E-02 0.  1.
    10030    2    1    2    0    0  0.00000000000E+00  0.00000000000E+00  0.10839608076E+04  0.18841893166E+04  0.15411678521E+04 0.  0.
        2    1    3    3  502    0 -0.48538982996E+03 -0.12160504817E+03 -0.17446008874E+03  0.52993150250E+03  0.25500000920E-02 0.  1.
       -2    1    3    3    0  502  0.48538982996E+03  0.12160504817E+03  0.12584208963E+04  0.13542578141E+04  0.25500000920E-02 0. -1.
</event>
<event>
 5   0  0.8365016E-04  0.1503809E+04  0.7818609E-02  0.8881924E-01
        1   -1    0    0  501    0  0.00000000000E+00  0.00000000000E+00  0.11983329074E+04  0.11983329074E+04  0.50400001928E-02 0.  1.
       -1   -1    0    0    0  501  0.00000000000E+00  0.00000000000E+00 -0.47178924421E+03  0.47178924423E+03  0.50400001928E-02 0. -1.
    10030    2    1    2    0    0  0.00000000000E+00  0.00000000000E+00  0.72654366316E+03  0.16701221516E+04  0.15038092654E+04 0.  0.
        3    1    3    3  502    0 -0.13765410200E+03 -0.73877517434E+03  0.39099571351E+03  0.84712163719E+03  0.10100000352E+00 0.  1.
       -3    1    3    3    0  502  0.13765410200E+03  0.73877517434E+03  0.33554794965E+03  0.82300051442E+03  0.10100000352E+00 0. -1.
</event>
<event>
 5   0  0.8058234E-04  0.1479483E+04  0.7818609E-02  0.8898212E-01
        1   -1    0    0  501    0  0.00000000000E+00  0.00000000000E+00  0.19879710937E+04  0.19879710937E+04  0.50400001928E-02 0. -1.
       -1   -1    0    0    0  501  0.00000000000E+00  0.00000000000E+00 -0.27526445837E+03  0.27526445842E+03  0.50400001928E-02 0.  1.
    10030    2    1    2    0    0  0.00000000000E+00  0.00000000000E+00  0.17127066354E+04  0.22632355522E+04  0.14794834050E+04 0.  0.
        5    1    3    3  502    0 -0.29356682956E+03  0.52475844055E+03  0.15154645371E+04  0.16304011033E+04  0.46999998093E+01 0. -1.
       -5    1    3    3    0  502  0.29356682956E+03 -0.52475844055E+03  0.19724209823E+03  0.63283444886E+03  0.46999998093E+01 0.  1.
</event>
<event>
 5   0  0.8058234E-04  0.1501265E+04  0.7818609E-02  0.8883612E-01
        1   -1    0    0  501    0  0.00000000000E+00  0.00000000000E+00  0.17307890782E+04  0.17307890782E+04  0.50400001928E-02 0. -1.
       -1   -1    0    0    0  501  0.00000000000E+00  0.00000000000E+00 -0.32554448439E+03  0.32554448443E+03  0.50400001928E-02 0.  1.
    10030    2    1    2    0    0  0.00000000000E+00  0.00000000000E+00  0.14052445938E+04  0.20563335626E+04  0.15012645844E+04 0.  0.
        5    1    3    3  502    0  0.57781994557E+01  0.66849586251E+03  0.23508994569E+03  0.70866739613E+03  0.46999998093E+01 0. -1.
       -5    1    3    3    0  502 -0.57781994557E+01 -0.66849586251E+03  0.11701546481E+04  0.13476661665E+04  0.46999998093E+01 0.  1.
</event>
<event>
 5   0  0.8058234E-04  0.1517395E+04  0.7818609E-02  0.8872967E-01
        1   -1    0    0  501    0  0.00000000000E+00  0.00000000000E+00  0.85771073646E+03  0.85771073647E+03  0.50400001928E-02 0. -1.
       -1   -1    0    0    0  501  0.00000000000E+00  0.00000000000E+00 -0.67111419091E+03  0.67111419093E+03  0.50400001928E-02 0.  1.
    10030    2    1    2    0    0  0.00000000000E+00  0.00000000000E+00  0.18659654554E+03  0.15288249274E+04  0.15173949347E+04 0.  0.
        5    1    3    3  502    0  0.27251713887E+03 -0.57045846948E+03 -0.32927886291E+03  0.71283596706E+03  0.46999998093E+01 0.  1.
       -5    1    3    3    0  502 -0.27251713887E+03  0.57045846948E+03  0.51587540845E+03  0.81598896035E+03  0.46999998093E+01 0. -1.
</event>
<event>
 5   0  0.1500956E-03  0.1478643E+04  0.7818609E-02  0.8898781E-01
       -2   -1    0    0    0  501  0.00000000000E+00  0.00000000000E+00  0.95106839622E+03  0.95106839622E+03  0.25500000920E-02 0.  1.
        2   -1    0    0  501    0  0.00000000000E+00  0.00000000000E+00 -0.57471793503E+03  0.57471793504E+03  0.25500000920E-02 0. -1.
    10030    2    1    2    0    0  0.00000000000E+00  0.00000000000E+00  0.37635046119E+03  0.15257863313E+04  0.14786427084E+04 0.  0.
        4    1    3    3  502    0  0.55401326809E+03 -0.32764183366E+03 -0.18717295806E+03  0.67030978026E+03  0.12699999809E+01 0. -1.
       -4    1    3    3    0  502 -0.55401326809E+03  0.32764183366E+03  0.56352341925E+03  0.85547655101E+03  0.12699999809E+01 0.  1.
</event>
<event>
 5   0  0.8306301E-04  0.1494019E+04  0.7818609E-02  0.8888440E-01
        1   -1    0    0  501    0  0.00000000000E+00  0.00000000000E+00  0.94524686410E+03  0.94524686412E+03  0.50400001928E-02 0. -1.
       -1   -1    0    0    0  501  0.00000000000E+00  0.00000000000E+00 -0.59034642927E+03  0.59034642929E+03  0.50400001928E-02 0.  1.
    10030    2    1    2    0    0  0.00000000000E+00  0.00000000000E+00  0.35490043483E+03  0.15355932934E+04  0.14940188901E+04 0.  0.
        4    1    3    3  502    0  0.52989295499E+03  0.52615090426E+03  0.19801139525E+03  0.77254866730E+03  0.12699999809E+01 0. -1.
       -4    1    3    3    0  502 -0.52989295499E+03 -0.52615090426E+03  0.15688903958E+03  0.76304462611E+03  0.12699999809E+01 0.  1.
</event>
<event>
 5   0  0.1552067E-03  0.1301539E+04  0.7818609E-02  0.9028345E-01
       -2   -1    0    0    0  501  0.00000000000E+00  0.00000000000E+00  0.26942225995E+03  0.26942225996E+03  0.25500000920E-02 0. -1.
        2   -1    0    0  501    0  0.00000000000E+00  0.00000000000E+00 -0.15718863619E+04  0.15718863619E+04  0.25500000920E-02 0.  1.
    10030    2    1    2    0    0  0.00000000000E+00  0.00000000000E+00 -0.13024641019E+04  0.18413086219E+04  0.13015393594E+04 0.  0.
        3    1    3    3  502    0  0.26420138008E+03 -0.28129790783E+02  0.18919443718E+03  0.32617203992E+03  0.10100000352E+00 0. -1.
       -3    1    3    3    0  502 -0.26420138008E+03  0.28129790783E+02 -0.14916585391E+04  0.15151365819E+04  0.10100000352E+00 0.  1.
</event>
<event>
 5   0  0.1511546E-03  0.1518483E+04  0.7818609E-02  0.8872254E-01
        2   -1    0    0  501    0  0.00000000000E+00  0.00000000000E+00  0.43983161314E+03  0.43983161315E+03  0.25500000920E-02 0. -1.
       -2   -1    0    0    0  501  0.00000000000E+00  0.00000000000E+00 -0.13106093163E+04  0.13106093163E+04  0.25500000920E-02 0.  1.
    10030    2    1    2    0    0  0.00000000000E+00  0.00000000000E+00 -0.87077770314E+03  0.17504409294E+04  0.15184826766E+04 0.  0.
        1    1    3    3  502    0 -0.65489693417E+03 -0.33614708345E+03 -0.64969791057E+03  0.98183106038E+03  0.50400001928E-02 0.  1.
       -1    1    3    3    0  502  0.65489693417E+03  0.33614708345E+03 -0.22107979257E+03  0.76860986905E+03  0.50400001928E-02 0. -1.
</event>
<event>
 5   0  0.8306301E-04  0.1467020E+04  0.7818609E-02  0.8906685E-01
       -1   -1    0    0    0  501  0.00000000000E+00  0.00000000000E+00  0.44239206612E+03  0.44239206615E+03  0.50400001928E-02 0.  1.
        1   -1    0    0  501    0  0.00000000000E+00  0.00000000000E+00 -0.12161992784E+04  0.12161992784E+04  0.50400001928E-02 0. -1.
    10030    2    1    2    0    0  0.00000000000E+00  0.00000000000E+00 -0.77380721228E+03  0.16585913446E+04  0.14670199884E+04 0.  0.
        4    1    3    3  502    0 -0.55772259477E+03  0.46560269132E+03 -0.50105880552E+03  0.88255419005E+03  0.12699999809E+01 0. -1.
       -4    1    3    3    0  502  0.55772259477E+03 -0.46560269132E+03 -0.27274840675E+03  0.77603715450E+03  0.12699999809E+01 0.  1.
</event>
<event>
 5   0  0.1511546E-03  0.1496164E+04  0.7818609E-02  0.8887008E-01
        2   -1    0    0  501    0  0.00000000000E+00  0.00000000000E+00  0.63444639995E+03  0.63444639995E+03  0.25500000920E-02 0. -1.
       -2   -1    0    0    0  501  0.00000000000E+00  0.00000000000E+00 -0.88207036399E+03  0.88207036399E+03  0.25500000920E-02 0.  1.
    10030    2    1    2    0    0  0.00000000000E+00  0.00000000000E+00 -0.24762396404E+03  0.15165167639E+04  0.14961635832E+04 0.  0.
        1    1    3    3  502    0  0.13515328814E+02  0.48485022320E+03  0.45346525810E+03  0.66399784892E+03  0.50400001928E-02 0. -1.
       -1    1    3    3    0  502 -0.13515328814E+02 -0.48485022320E+03 -0.70108922214E+03  0.85251891502E+03  0.50400001928E-02 0.  1.
</event>
<event>
 5   0  0.1552067E-03  0.1496612E+04  0.7818609E-02  0.8886709E-01
        2   -1    0    0  501    0  0.00000000000E+00  0.00000000000E+00  0.68203608678E+03  0.68203608678E+03  0.25500000920E-02 0. -1.
       -2   -1    0    0    0  501  0.00000000000E+00  0.00000000000E+00 -0.82101467342E+03  0.82101467343E+03  0.25500000920E-02 0.  1.
    10030    2    1    2    0    0  0.00000000000E+00  0.00000000000E+00 -0.13897858665E+03  0.15030507602E+04  0.14966116865E+04 0.  0.
        3    1    3    3  502    0  0.57463064636E+03 -0.44517263592E+03  0.10899016720E+03  0.73502239576E+03  0.10100000352E+00 0. -1.
       -3    1    3    3    0  502 -0.57463064636E+03  0.44517263592E+03 -0.24796875385E+03  0.76802836445E+03  0.10100000352E+00 0.  1.
</event>
<event>
 5   0  0.8191876E-04  0.1395091E+04  0.7818609E-02  0.8957380E-01
        1   -1    0    0  501    0  0.00000000000E+00  0.00000000000E+00  0.51504565550E+03  0.51504565552E+03  0.50400001928E-02 0.  1.
       -1   -1    0    0    0  501  0.00000000000E+00  0.00000000000E+00 -0.94471196109E+03  0.94471196110E+03  0.50400001928E-02 0. -1.
    10030    2    1    2    0    0  0.00000000000E+00  0.00000000000E+00 -0.42966630559E+03  0.14597576166E+04  0.13950910956E+04 0.  0.
        2    1    3    3  502    0  0.49749581603E+03 -0.22959196814E+03 -0.66653199655E+03  0.86283223238E+03  0.25500000920E-02 0. -1.
       -2    1    3    3    0  502 -0.49749581603E+03  0.22959196814E+03  0.23686569096E+03  0.59692538425E+03  0.25500000920E-02 0.  1.
</event>
<event>
 5   0  0.1552067E-03  0.1490142E+04  0.7818609E-02  0.8891035E-01
       -2   -1    0    0    0  501  0.00000000000E+00  0.00000000000E+00  0.75782900147E+03  0.75782900147E+03  0.25500000920E-02 0.  1.
        2   -1    0    0  501    0  0.00000000000E+00  0.00000000000E+00 -0.73252792042E+03  0.73252792042E+03  0.25500000920E-02 0. -1.
    10030    2    1    2    0    0  0.00000000000E+00  0.00000000000E+00  0.25301081050E+02  0.14903569219E+04  0.14901421442E+04 0.  0.
        3    1    3    3  502    0  0.61411637595E+03  0.42184288516E+03  0.19019293116E+02  0.74528658024E+03  0.10100000352E+00 0.  1.
       -3    1    3    3    0  502 -0.61411637595E+03 -0.42184288516E+03  0.62817879343E+01  0.74507034166E+03  0.10100000352E+00 0. -1.
</event>
<event>
 5   0  0.8306301E-04  0.1489036E+04  0.7818609E-02  0.8891777E-01
        1   -1    0    0  501    0  0.00000000000E+00  0.00000000000E+00  0.80168523341E+03  0.80168523343E+03  0.50400001928E-02 0.  1.
       -1   -1    0    0    0  501  0.00000000000E+00  0.00000000000E+00 -0.69142698479E+03  0.69142698480E+03  0.50400001928E-02 0. -1.
    10030    2    1    2    0    0  0.00000000000E+00  0.00000000000E+00  0.11025824863E+03  0.14931122182E+04  0.14890356661E+04 0.  0.
        4    1    3    3  502    0  0.26091247439E+03  0.61638875391E+03  0.38205049318E+03  0.77069748116E+03  0.12699999809E+01 0. -1.
       -4    1    3    3    0  502 -0.26091247439E+03 -0.61638875391E+03 -0.27179224455E+03  0.72241473707E+03  0.12699999809E+01 0.  1.
</event>
<event>
 5   0  0.8191876E-04  0.1353236E+04  0.7818609E-02  0.8988382E-01
        1   -1    0    0  501    0  0.00000000000E+00  0.00000000000E+00  0.66279460088E+03  0.66279460090E+03  0.50400001928E-02 0. -1.
       -1   -1    0    0    0  501  0.00000000000E+00  0.00000000000E+00 -0.69072940595E+03  0.69072940597E+03  0.50400001928E-02 0.  1.
    10030    2    1    2    0    0  0.00000000000E+00  0.00000000000E+00 -0.27934805070E+02  0.13535240069E+04  0.13532357089E+04 0.  0.
        2    1    3    3  502    0  0.17537858638E+02  0.49465704707E+03 -0.47538829401E+03  0.68628507254E+03  0.25500000920E-02 0.  1.
       -2    1    3    3    0  502 -0.17537858638E+02 -0.49465704707E+03  0.44745348894E+03  0.66723893432E+03  0.25500000920E-02 0. -1.
</event>
<event>
 5   0  0.7870317E-04  0.1513006E+04  0.7818609E-02  0.8875850E-01
       -1   -1    0    0    0  501  0.00000000000E+00  0.00000000000E+00  0.33419296869E+03  0.33419296873E+03  0.50400001928E-02 0.  1.
        1   -1    0    0  501    0  0.00000000000E+00  0.00000000000E+00 -0.17124742783E+04  0.17124742783E+04  0.50400001928E-02 0. -1.
    10030    2    1    2    0    0  0.00000000000E+00  0.00000000000E+00 -0.13782813096E+04  0.20466672470E+04  0.15130060977E+04 0.  0.
        1    1    3    3  502    0 -0.12716192110E+03  0.97677535951E+02 -0.16892229450E+04  0.16968161990E+04  0.50400001928E-02 0. -1.
       -1    1    3    3    0  502  0.12716192110E+03 -0.97677535951E+02  0.31094163537E+03  0.34985104807E+03  0.50400001928E-02 0.  1.
</event>
<event>
 5   0  0.1511546E-03  0.1489650E+04  0.7818609E-02  0.8891365E-01
       -2   -1    0    0    0  501  0.00000000000E+00  0.00000000000E+00  0.30898307061E+03  0.30898307062E+03  0.25500000920E-02 0.  1.
        2   -1    0    0  501    0  0.00000000000E+00  0.00000000000E+00 -0.17954532146E+04  0.17954532146E+04  0.25500000920E-02 0. -1.
    10030    2    1    2    0    0  0.00000000000E+00  0.00000000000E+00 -0.14864701440E+04  0.21044362852E+04  0.14896504924E+04 0.  0.
        1    1    3    3  502    0  0.37149118946E+03 -0.30946494713E+03  0.57147110495E+02  0.48686758940E+03  0.50400001928E-02 0.  1.
       -1    1    3    3    0  502 -0.37149118946E+03  0.30946494713E+03 -0.15436172545E+04  0.16175686958E+04  0.50400001928E-02 0. -1.
</event>
<event>
 5   0  0.7870317E-04  0.1494212E+04  0.7818609E-02  0.8888311E-01
       -1   -1    0    0    0  501  0.00000000000E+00  0.00000000000E+00  0.24937713613E+03  0.24937713619E+03  0.50400001928E-02 0.  1.
        1   -1    0    0  501    0  0.00000000000E+00  0.00000000000E+00 -0.22382454624E+04  0.22382454624E+04  0.50400001928E-02 0. -1.
    10030    2    1    2    0    0  0.00000000000E+00  0.00000000000E+00 -0.19888683263E+04  0.24876225986E+04  0.14942118236E+04 0.  0.
        1    1    3    3  502    0  0.30163319430E+03  0.65741859334E+03 -0.13058323457E+04  0.14927759061E+04  0.50400001928E-02 0. -1.
       -1    1    3    3    0  502 -0.30163319430E+03 -0.65741859334E+03 -0.68303598062E+03  0.99484669253E+03  0.50400001928E-02 0.  1.
</event>
<event>
 5   0  0.8306301E-04  0.1485717E+04  0.7818609E-02  0.8894007E-01
        1   -1    0    0  501    0  0.00000000000E+00  0.00000000000E+00  0.70669935800E+03  0.70669935802E+03  0.50400001928E-02 0. -1.
       -1   -1    0    0    0  501  0.00000000000E+00  0.00000000000E+00 -0.78086725369E+03  0.78086725371E+03  0.50400001928E-02 0.  1.
    10030    2    1    2    0    0  0.00000000000E+00  0.00000000000E+00 -0.74167895694E+02  0.14875666117E+04  0.14857165098E+04 0.  0.
        4    1    3    3  502    0  0.28122693833E+03 -0.68729998599E+03 -0.56262758624E+02  0.74473953332E+03  0.12699999809E+01 0. -1.
       -4    1    3    3    0  502 -0.28122693833E+03  0.68729998599E+03 -0.17905137071E+02  0.74282707841E+03  0.12699999809E+01 0.  1.
</event>
<event>
 5   0  0.1526126E-03  0.1515188E+04  0.7818609E-02  0.8874415E-01
       -2   -1    0    0    0  501  0.00000000000E+00  0.00000000000E+00  0.27476960847E+03  0.27476960848E+03  0.25500000920E-02 0. -1.
        2   -1    0    0  501    0  0.00000000000E+00  0.00000000000E+00 -0.20888367281E+04  0.20888367281E+04  0.25500000920E-02 0.  1.
    10030    2    1    2    0    0  0.00000000000E+00  0.00000000000E+00 -0.18140671196E+04  0.23636063365E+04  0.15151882391E+04 0.  0.
        2    1    3    3  502    0  0.42806276862E+03 -0.41835940640E+03 -0.18256413773E+03  0.62577311479E+03  0.25500000920E-02 0. -1.
       -2    1    3    3    0  502 -0.42806276862E+03  0.41835940640E+03 -0.16315029819E+04  0.17378332218E+04  0.25500000920E-02 0.  1.
</event>
<event>
 5   0  0.1526126E-03  0.1622745E+04  0.7818609E-02  0.8806695E-01
       -2   -1    0    0    0  501  0.00000000000E+00  0.00000000000E+00  0.38805448765E+03  0.38805448765E+03  0.25500000920E-02 0.  1.
        2   -1    0    0  501    0  0.00000000000E+00  0.00000000000E+00 -0.16964774326E+04  0.16964774326E+04  0.25500000920E-02 0. -1.
    10030    2    1    2    0    0  0.00000000000E+00  0.00000000000E+00 -0.13084229450E+04  0.20845319203E+04  0.16227454279E+04 0.  0.
        2    1    3    3  502    0 -0.11971927477E+03 -0.42888951263E+03 -0.15254942809E+04  0.15891544040E+04  0.25500000920E-02 0. -1.
       -2    1    3    3    0  502  0.11971927477E+03  0.42888951263E+03  0.21707133587E+03  0.49537751630E+03  0.25500000920E-02 0.  1.
</event>
<event>
 5   0  0.5603875E-04  0.1501942E+04  0.7818609E-02  0.8883162E-01
       -4   -1    0    0    0  501  0.00000000000E+00  0.00000000000E+00  0.42886408861E+03  0.42886596904E+03  0.12699999809E+01 0.  1.
        4   -1    0    0  501    0  0.00000000000E+00  0.00000000000E+00 -0.13149980444E+04  0.13149986577E+04  0.12699999809E+01 0. -1.
    10030    2    1    2    0    0  0.00000000000E+00  0.00000000000E+00 -0.88613395578E+03  0.17438646267E+04  0.15019422255E+04 0.  0.
        4    1    3    3  502    0 -0.66736641455E+02  0.37174012523E+03 -0.11967022174E+04  0.12548873695E+04  0.12699999809E+01 0. -1.
       -4    1    3    3    0  502  0.66736641455E+02 -0.37174012523E+03  0.31056826166E+03  0.48897725721E+03  0.12699999809E+01 0.  1.
</event>
<event>
 5   0  0.1511546E-03  0.1519095E+04  0.7818609E-02  0.8871853E-01
       -2   -1    0    0    0  501  0.00000000000E+00  0.00000000000E+00  0.84699390879E+03  0.84699390880E+03  0.25500000920E-02 0.  1.
        2   -1    0    0  501    0  0.00000000000E+00  0.00000000000E+00 -0.68112953163E+03  0.68112953163E+03  0.25500000920E-02 0. -1.
    10030    2    1    2    0    0  0.00000000000E+00  0.00000000000E+00  0.16586437716E+03  0.15281234404E+04  0.15190952102E+04 0.  0.
        1    1    3    3  502    0  0.15345783276E+03 -0.44931132515E+03 -0.51345094530E+03  0.69932956937E+03  0.50400001928E-02 0. -1.
       -1    1    3    3    0  502 -0.15345783276E+03  0.44931132515E+03  0.67931532247E+03  0.82879387106E+03  0.50400001928E-02 0.  1.
</event>
<event>
 5   0  0.8365016E-04  0.1487811E+04  0.7818609E-02  0.8892599E-01
       -1   -1    0    0    0  501  0.00000000000E+00  0.00000000000E+00  0.65776198553E+03  0.65776198555E+03  0.50400001928E-02 0.  1.
        1   -1    0    0  501    0  0.00000000000E+00  0.00000000000E+00 -0.84133092123E+03  0.84133092125E+03  0.50400001928E-02 0. -1.
    10030    2    1    2    0    0  0.00000000000E+00  0.00000000000E+00 -0.18356893570E+03  0.14990929068E+04  0.14878111402E+04 0.  0.
        3    1    3    3  502    0 -0.26477088756E+03 -0.22647597146E+03  0.57046690456E+03  0.66845155991E+03  0.10100000352E+00 0.  1.
       -3    1    3    3    0  502  0.26477088756E+03  0.22647597146E+03 -0.75403584026E+03  0.83064134688E+03  0.10100000352E+00 0. -1.
</event>
<event>
 5   0  0.1500956E-03  0.1437939E+04  0.7818609E-02  0.8926805E-01
        2   -1    0    0  501    0  0.00000000000E+00  0.00000000000E+00  0.55197663637E+03  0.55197663637E+03  0.25500000920E-02 0.  1.
       -2   -1    0    0    0  501  0.00000000000E+00  0.00000000000E+00 -0.93648413472E+03  0.93648413473E+03  0.25500000920E-02 0. -1.
    10030    2    1    2    0    0  0.00000000000E+00  0.00000000000E+00 -0.38450749836E+03  0.14884607711E+04  0.14379393071E+04 0.  0.
        4    1    3    3  502    0 -0.37028724810E+03 -0.36397889031E+03 -0.70704199973E+03  0.87721336115E+03  0.12699999809E+01 0. -1.
       -4    1    3    3    0  502  0.37028724810E+03  0.36397889031E+03  0.32253450137E+03  0.61124740995E+03  0.12699999809E+01 0.  1.
</event>
<event>
 5   0  0.1484056E-03  0.1343189E+04  0.7818609E-02  0.8996000E-01
       -2   -1    0    0    0  501  0.00000000000E+00  0.00000000000E+00  0.15743958170E+04  0.15743958170E+04  0.25500000920E-02 0. -1.
        2   -1    0    0  501    0  0.00000000000E+00  0.00000000000E+00 -0.28648392922E+03  0.28648392924E+03  0.25500000920E-02 0.  1.
    10030    2    1    2    0    0  0.00000000000E+00  0.00000000000E+00  0.12879118878E+04  0.18608797463E+04  0.13431888919E+04 0.  0.
        5    1    3    3  502    0  0.11864420555E+03  0.54716761818E+03  0.11577731106E+04  0.12860519101E+04  0.46999998093E+01 0. -1.
       -5    1    3    3    0  502 -0.11864420555E+03 -0.54716761818E+03  0.13013877722E+03  0.57482783616E+03  0.46999998093E+01 0.  1.
</event>
<event>
 5   0  0.1552067E-03  0.1537554E+04  0.7818609E-02  0.8859857E-01
        2   -1    0    0  501    0  0.00000000000E+00  0.00000000000E+00  0.59984725488E+03  0.59984725488E+03  0.25500000920E-02 0. -1.
       -2   -1    0    0    0  501  0.00000000000E+00  0.00000000000E+00 -0.98528111606E+03  0.98528111606E+03  0.25500000920E-02 0.  1.
    10030    2    1    2    0    0  0.00000000000E+00  0.00000000000E+00 -0.38543386118E+03  0.15851283709E+04  0.15375541262E+04 0.  0.
        3    1    3    3  502    0 -0.63042684511E+03  0.85843732907E+02  0.25215673953E+03  0.68439037472E+03  0.10100000352E+00 0. -1.
       -3    1    3    3    0  502  0.63042684511E+03 -0.85843732907E+02 -0.63759060071E+03  0.90073799622E+03  0.10100000352E+00 0.  1.
</event>
<event>
 5   0  0.7870317E-04  0.1505015E+04  0.7818609E-02  0.8881125E-01
        1   -1    0    0  501    0  0.00000000000E+00  0.00000000000E+00  0.11408781164E+04  0.11408781164E+04  0.50400001928E-02 0. -1.
       -1   -1    0    0    0  501  0.00000000000E+00  0.00000000000E+00 -0.49634374163E+03  0.49634374166E+03  0.50400001928E-02 0.  1.
    10030    2    1    2    0    0  0.00000000000E+00  0.00000000000E+00  0.64453437480E+03  0.16372218581E+04  0.15050152333E+04 0.  0.
        1    1    3    3  502    0  0.55344145934E+03  0.45686986794E+03  0.76019593706E+02  0.72166924820E+03  0.50400001928E-02 0.  1.
       -1    1    3    3    0  502 -0.55344145934E+03 -0.45686986794E+03  0.56851478109E+03  0.91555260990E+03  0.50400001928E-02 0. -1.
</event>
<event>
 5   0  0.8191876E-04  0.1518082E+04  0.7818609E-02  0.8872517E-01
       -1   -1    0    0    0  501  0.00000000000E+00  0.00000000000E+00  0.23496481662E+03  0.23496481668E+03  0.50400001928E-02 0.  1.
        1   -1    0    0  501    0  0.00000000000E+00  0.00000000000E+00 -0.24520393326E+04  0.24520393327E+04  0.50400001928E-02 0. -1.
    10030    2    1    2    0    0  0.00000000000E+00  0.00000000000E+00 -0.22170745160E+04  0.26870041493E+04  0.15180816476E+04 0.  0.
        2    1    3    3  502    0 -0.46465845821E+03  0.29009988727E+03 -0.17852483661E+03  0.57613934484E+03  0.25500000920E-02 0.  1.
       -2    1    3    3    0  502  0.46465845821E+03 -0.29009988727E+03 -0.20385496794E+04  0.21108648045E+04  0.25500000920E-02 0. -1.
</event>
<event>
 5   0  0.8191876E-04  0.1558000E+04  0.7818609E-02  0.8846774E-01
       -1   -1    0    0    0  501  0.00000000000E+00  0.00000000000E+00  0.46387468306E+03  0.46387468308E+03  0.50400001928E-02 0. -1.
        1   -1    0    0  501    0  0.00000000000E+00  0.00000000000E+00 -0.13081996353E+04  0.13081996353E+04  0.50400001928E-02 0.  1.
    10030    2    1    2    0    0  0.00000000000E+00  0.00000000000E+00 -0.84432495223E+03  0.17720743184E+04  0.15579996036E+04 0.  0.
        2    1    3    3  502    0  0.20126136426E+03  0.69470524977E+03 -0.75126184306E+03  0.10428402935E+04  0.25500000920E-02 0.  1.
       -2    1    3    3    0  502 -0.20126136426E+03 -0.69470524977E+03 -0.93063109164E+02  0.72923402492E+03  0.25500000920E-02 0. -1.
</event>
<event>
 5   0  0.1526126E-03  0.1501810E+04  0.7818609E-02  0.8883250E-01
        2   -1    0    0  501    0  0.00000000000E+00  0.00000000000E+00  0.10293233548E+04  0.10293233548E+04  0.25500000920E-02 0. -1.
       -2   -1    0    0    0  501  0.00000000000E+00  0.00000000000E+00 -0.54779513665E+03  0.54779513666E+03  0.25500000920E-02 0.  1.
    10030    2    1    2    0    0  0.00000000000E+00  0.00000000000E+00  0.48152821814E+03  0.15771184915E+04  0.15018100117E+04 0.  0.
        2    1    3    3  502    0  0.74328296340E+02 -0.30414742674E+02 -0.54327215678E+03  0.54917609976E+03  0.25500000920E-02 0.  1.
       -2    1    3    3    0  502 -0.74328296340E+02  0.30414742674E+02  0.10248003749E+04  0.10279423917E+04  0.25500000920E-02 0. -1.
</event>
<event>
 5   0  0.1500956E-03  0.1451624E+04  0.7818609E-02  0.8917276E-01
        2   -1    0    0  501    0  0.00000000000E+00  0.00000000000E+00  0.83774143920E+03  0.83774143920E+03  0.25500000920E-02 0. -1.
       -2   -1    0    0    0  501  0.00000000000E+00  0.00000000000E+00 -0.62883699200E+03  0.62883699200E+03  0.25500000920E-02 0.  1.
    10030    2    1    2    0    0  0.00000000000E+00  0.00000000000E+00  0.20890444720E+03  0.14665784312E+04  0.14516236519E+04 0.  0.
        4    1    3    3  502    0  0.22711617791E+03  0.20238651539E+03 -0.56132010212E+03  0.63845432869E+03  0.12699999809E+01 0.  1.
       -4    1    3    3    0  502 -0.22711617791E+03 -0.20238651539E+03  0.77022454932E+03  0.82812410251E+03  0.12699999809E+01 0. -1.
</event>
<event>
 5   0  0.1484056E-03  0.1516225E+04  0.7818609E-02  0.8873734E-01
       -2   -1    0    0    0  501  0.00000000000E+00  0.00000000000E+00  0.71850182489E+03  0.71850182490E+03  0.25500000920E-02 0.  1.
        2   -1    0    0  501    0  0.00000000000E+00  0.00000000000E+00 -0.79990733026E+03  0.79990733026E+03  0.25500000920E-02 0. -1.
    10030    2    1    2    0    0  0.00000000000E+00  0.00000000000E+00 -0.81405505362E+02  0.15184091552E+04  0.15162254140E+04 0.  0.
        5    1    3    3  502    0  0.14212843279E+03 -0.71555030650E+03  0.16574957456E+03  0.74813618012E+03  0.46999998093E+01 0.  1.
       -5    1    3    3    0  502 -0.14212843279E+03  0.71555030650E+03 -0.24715507992E+03  0.77027297504E+03  0.46999998093E+01 0. -1.
</event>
<event>
 5   0  0.7870317E-04  0.1489131E+04  0.7818609E-02  0.8891713E-01
       -1   -1    0    0    0  501  0.00000000000E+00  0.00000000000E+00  0.34381950976E+03  0.34381950980E+03  0.50400001928E-02 0. -1.
        1   -1    0    0  501    0  0.00000000000E+00  0.00000000000E+00 -0.16124084849E+04  0.16124084850E+04  0.50400001928E-02 0.  1.
    10030    2    1    2    0    0  0.00000000000E+00  0.00000000000E+00 -0.12685889752E+04  0.19562279947E+04  0.14891306120E+04 0.  0.
        1    1    3    3  502    0 -0.22497312625E+03 -0.51923533777E+03 -0.12699800363E+04  0.13903479910E+04  0.50400001928E-02 0.  1.
       -1    1    3    3    0  502  0.22497312625E+03  0.51923533777E+03  0.13910611208E+01  0.56588000372E+03  0.50400001928E-02 0. -1.
</event>
<event>
 5   0  0.8306301E-04  0.1497322E+04  0.7818609E-02  0.8886236E-01
       -1   -1    0    0    0  501  0.00000000000E+00  0.00000000000E+00  0.46750799655E+03  0.46750799657E+03  0.50400001928E-02 0. -1.
        1   -1    0    0  501    0  0.00000000000E+00  0.00000000000E+00 -0.11988950263E+04  0.11988950263E+04  0.50400001928E-02 0.  1.
    10030    2    1    2    0    0  0.00000000000E+00  0.00000000000E+00 -0.73138702974E+03  0.16664030229E+04  0.14973216246E+04 0.  0.
        4    1    3    3  502    0 -0.20073395175E+03  0.66476956488E+03 -0.54316346736E+02  0.69653755980E+03  0.12699999809E+01 0. -1.
       -4    1    3    3    0  502  0.20073395175E+03 -0.66476956488E+03 -0.67707068301E+03  0.96986546308E+03  0.12699999809E+01 0.  1.
</event>
<event>
 5   0  0.1526126E-03  0.1489367E+04  0.7818609E-02  0.8891555E-01
        2   -1    0    0  501    0  0.00000000000E+00  0.00000000000E+00  0.13749016884E+04  0.13749016884E+04  0.25500000920E-02 0.  1.
       -2   -1    0    0    0  501  0.00000000000E+00  0.00000000000E+00 -0.40334053082E+03  0.40334053083E+03  0.25500000920E-02 0. -1.
    10030    2    1    2    0    0  0.00000000000E+00  0.00000000000E+00  0.97156115754E+03  0.17782422192E+04  0.14893670828E+04 0.  0.
        2    1    3    3  502    0  0.13137172002E+03 -0.20199601967E+03 -0.35550913800E+03  0.42947371048E+03  0.25500000920E-02 0. -1.
       -2    1    3    3    0  502 -0.13137172002E+03  0.20199601967E+03  0.13270702955E+04  0.13487685087E+04  0.25500000920E-02 0.  1.
</event>
<event>
 5   0  0.1511546E-03  0.1595726E+04  0.7818609E-02  0.8823178E-01
        2   -1    0    0  501    0  0.00000000000E+00  0.00000000000E+00  0.61045973526E+03  0.61045973527E+03  0.25500000920E-02 0. -1.
       -2   -1    0    0    0  501  0.00000000000E+00  0.00000000000E+00 -0.10427965628E+04  0.10427965629E+04  0.25500000920E-02 0.  1.
    10030    2    1    2    0    0  0.00000000000E+00  0.00000000000E+00 -0.43233682759E+03  0.16532562981E+04  0.15957259335E+04 0.  0.
        1    1    3    3  502    0 -0.23344758887E+03  0.14911222575E+03 -0.99137761519E+03  0.10293501875E+04  0.50400001928E-02 0.  1.
       -1    1    3    3    0  502  0.23344758887E+03 -0.14911222575E+03  0.55904078760E+03  0.62390611060E+03  0.50400001928E-02 0. -1.
</event>
<event>
 5   0  0.1511546E-03  0.1528816E+04  0.7818609E-02  0.8865514E-01
       -2   -1    0    0    0  501  0.00000000000E+00  0.00000000000E+00  0.91584145694E+03  0.91584145695E+03  0.25500000920E-02 0.  1.
        2   -1    0    0  501    0  0.00000000000E+00  0.00000000000E+00 -0.63801376730E+03  0.63801376731E+03  0.25500000920E-02 0. -1.
    10030    2    1    2    0    0  0.00000000000E+00  0.00000000000E+00  0.27782768964E+03  0.15538552243E+04  0.15288158270E+04 0.  0.
        1    1    3    3  502    0  0.55732963698E+03  0.18165852991E+02 -0.39250053174E+03  0.68191127716E+03  0.50400001928E-02 0. -1.
       -1    1    3    3    0  502 -0.55732963698E+03 -0.18165852991E+02  0.67032822138E+03  0.87194394710E+03  0.50400001928E-02 0.  1.
</event>
<event>
 5   0  0.8191876E-04  0.1495837E+04  0.7818609E-02  0.8887226E-01
       -1   -1    0    0    0  501  0.00000000000E+00  0.00000000000E+00  0.51495751538E+03  0.51495751541E+03  0.50400001928E-02 0.  1.
        1   -1    0    0  501    0  0.00000000000E+00  0.00000000000E+00 -0.10862684985E+04  0.10862684985E+04  0.50400001928E-02 0. -1.
    10030    2    1    2    0    0  0.00000000000E+00  0.00000000000E+00 -0.57131098310E+03  0.16012260139E+04  0.14958370594E+04 0.  0.
        2    1    3    3  502    0  0.27780524320E+03 -0.56744816655E+03 -0.71411692700E+03  0.95348631889E+03  0.25500000920E-02 0. -1.
       -2    1    3    3    0  502 -0.27780524320E+03  0.56744816655E+03  0.14280594391E+03  0.64773969501E+03  0.25500000920E-02 0.  1.
</event>
<event>
 5   0  0.1484056E-03  0.1491415E+04  0.7818609E-02  0.8890182E-01
        2   -1    0    0  501    0  0.00000000000E+00  0.00000000000E+00  0.24313277235E+04  0.24313277235E+04  0.25500000920E-02 0.  1.
       -2   -1    0    0    0  501  0.00000000000E+00  0.00000000000E+00 -0.22871428399E+03  0.22871428400E+03  0.25500000920E-02 0. -1.
    10030    2    1    2    0    0  0.00000000000E+00  0.00000000000E+00  0.22026134395E+04  0.26600420075E+04  0.14914146029E+04 0.  0.
        5    1    3    3  502    0  0.24105429804E+03  0.17131858830E+03 -0.11962470568E+03  0.31904450082E+03  0.46999998093E+01 0. -1.
       -5    1    3    3    0  502 -0.24105429804E+03 -0.17131858830E+03  0.23222381452E+04  0.23409975067E+04  0.46999998093E+01 0.  1.
</event>
<event>
 5   0  0.8306301E-04  0.1375491E+04  0.7818609E-02  0.8971753E-01
       -1   -1    0    0    0  501  0.00000000000E+00  0.00000000000E+00  0.65673307087E+03  0.65673307089E+03  0.50400001928E-02 0.  1.
        1   -1    0    0  501    0  0.00000000000E+00  0.00000000000E+00 -0.72022259322E+03  0.72022259324E+03  0.50400001928E-02 0. -1.
    10030    2    1    2    0    0  0.00000000000E+00  0.00000000000E+00 -0.63489522346E+02  0.13769556641E+04  0.13754911783E+04 0.  0.
        4    1    3    3  502    0 -0.46750077065E+03 -0.40532501860E+03  0.26881987842E+03  0.67461921199E+03  0.12699999809E+01 0.  1.
       -4    1    3    3    0  502  0.46750077065E+03  0.40532501860E+03 -0.33230940077E+03  0.70233645213E+03  0.12699999809E+01 0. -1.
</event>
<event>
 5   0  0.7870317E-04  0.1488005E+04  0.7818609E-02  0.8892469E-01
       -1   -1    0    0    0  501  0.00000000000E+00  0.00000000000E+00  0.37470323034E+03  0.37470323037E+03  0.50400001928E-02 0. -1.
        1   -1    0    0  501    0  0.00000000000E+00  0.00000000000E+00 -0.14772741256E+04  0.14772741256E+04  0.50400001928E-02 0.  1.
    10030    2    1    2    0    0  0.00000000000E+00  0.00000000000E+00 -0.11025708952E+04  0.18519773560E+04  0.14880045524E+04 0.  0.
        1    1    3    3  502    0  0.31274602034E+03 -0.43836612112E+02  0.28714554951E+03  0.42683051488E+03  0.50400001928E-02 0. -1.
       -1    1    3    3    0  502 -0.31274602034E+03  0.43836612112E+02 -0.13897164447E+04  0.14251468411E+04  0.50400001928E-02 0.  1.
</event>
<event>
 5   0  0.7870317E-04  0.1511573E+04  0.7818609E-02  0.8876793E-01
        1   -1    0    0  501    0  0.00000000000E+00  0.00000000000E+00  0.21850064686E+04  0.21850064687E+04  0.50400001928E-02 0.  1.
       -1   -1    0    0    0  501  0.00000000000E+00  0.00000000000E+00 -0.26142414476E+03  0.26142414481E+03  0.50400001928E-02 0. -1.
    10030    2    1    2    0    0  0.00000000000E+00  0.00000000000E+00  0.19235823239E+04  0.24464306135E+04  0.15115732829E+04 0.  0.
        1    1    3    3  502    0 -0.61225011851E+03  0.12341924116E+03  0.27298027165E+03  0.68161627433E+03  0.50400001928E-02 0. -1.
       -1    1    3    3    0  502  0.61225011851E+03 -0.12341924116E+03  0.16506020522E+04  0.17648143391E+04  0.50400001928E-02 0.  1.
</event>
<event>
 5   0  0.8191876E-04  0.1536859E+04  0.7818609E-02  0.8860306E-01
        1   -1    0    0  501    0  0.00000000000E+00  0.00000000000E+00  0.72302512075E+03  0.72302512076E+03  0.50400001928E-02 0. -1.
       -1   -1    0    0    0  501  0.00000000000E+00  0.00000000000E+00 -0.81668498939E+03  0.81668498941E+03  0.50400001928E-02 0.  1.
    10030    2    1    2    0    0  0.00000000000E+00  0.00000000000E+00 -0.93659868648E+02  0.15397101102E+04  0.15368588264E+04 0.  0.
        2    1    3    3  502    0  0.39892918088E+03 -0.25101814664E+03  0.56119730815E+03  0.73286903331E+03  0.25500000920E-02 0. -1.
       -2    1    3    3    0  502 -0.39892918088E+03  0.25101814664E+03 -0.65485717680E+03  0.80684107686E+03  0.25500000920E-02 0.  1.
</event>
<event>
 5   0  0.8365016E-04  0.1503270E+04  0.7818609E-02  0.8882281E-01
        1   -1    0    0  501    0  0.00000000000E+00  0.00000000000E+00  0.90297620268E+03  0.90297620270E+03  0.50400001928E-02 0.  1.
       -1   -1    0    0    0  501  0.00000000000E+00  0.00000000000E+00 -0.62565914171E+03  0.62565914173E+03  0.50400001928E-02 0. -1.
    10030    2    1    2    0    0  0.00000000000E+00  0.00000000000E+00  0.27731706098E+03  0.15286353444E+04  0.15032701899E+04 0.  0.
        3    1    3    3  502    0 -0.13301547169E+03 -0.57094807367E+03  0.61700041593E+03  0.85109596521E+03  0.10100000352E+00 0.  1.
       -3    1    3    3    0  502  0.13301547169E+03  0.57094807367E+03 -0.33968335495E+03  0.67753937921E+03  0.10100000352E+00 0. -1.
</event>
<event>
 5   0  0.1552067E-03  0.1509399E+04  0.7818609E-02  0.8878227E-01
       -2   -1    0    0    0  501  0.00000000000E+00  0.00000000000E+00  0.45418363077E+03  0.45418363078E+03  0.25500000920E-02 0. -1.
        2   -1    0    0  501    0  0.00000000000E+00  0.00000000000E+00 -0.12540549648E+04  0.12540549648E+04  0.25500000920E-02 0.  1.
    10030    2    1    2    0    0  0.00000000000E+00  0.00000000000E+00 -0.79987133398E+03  0.17082385955E+04  0.15093988699E+04 0.  0.
        3    1    3    3  502    0 -0.20076331234E+03  0.33580957843E+03  0.33044719927E+03  0.51212238991E+03  0.10100000352E+00 0. -1.
       -3    1    3    3    0  502  0.20076331234E+03 -0.33580957843E+03 -0.11303185333E+04  0.11961162056E+04  0.10100000352E+00 0.  1.
</event>
<event>
 5   0  0.8365016E-04  0.1428517E+04  0.7818609E-02  0.8933431E-01
        1   -1    0    0  501    0  0.00000000000E+00  0.00000000000E+00  0.55682683778E+03  0.55682683780E+03  0.50400001928E-02 0.  1.
       -1   -1    0    0    0  501  0.00000000000E+00  0.00000000000E+00 -0.91620101650E+03  0.91620101651E+03  0.50400001928E-02 0. -1.
    10030    2    1    2    0    0  0.00000000000E+00  0.00000000000E+00 -0.35937417872E+03  0.14730278543E+04  0.14285171540E+04 0.  0.
        3    1    3    3  502    0 -0.18329572216E+03 -0.45726334843E+03 -0.71298478354E+03  0.86662241105E+03  0.10100000352E+00 0. -1.
       -3    1    3    3    0  502  0.18329572216E+03  0.45726334843E+03  0.35361060482E+03  0.60640544326E+03  0.10100000352E+00 0.  1.
</event>
<event>
 5   0  0.1500956E-03  0.1503509E+04  0.7818609E-02  0.8882123E-01
       -2   -1    0    0    0  501  0.00000000000E+00  0.00000000000E+00  0.77653626893E+03  0.77653626893E+03  0.25500000920E-02 0.  1.
        2   -1    0    0  501    0  0.00000000000E+00  0.00000000000E+00 -0.72776361678E+03  0.72776361679E+03  0.25500000920E-02 0. -1.
    10030    2    1    2    0    0  0.00000000000E+00  0.00000000000E+00  0.48772652147E+02  0.15042998857E+04  0.15035090204E+04 0.  0.
        4    1    3    3  502    0  0.52371746449E+03  0.53730945490E+03 -0.22025548951E+02  0.75064516960E+03  0.12699999809E+01 0. -1.
       -4    1    3    3    0  502 -0.52371746449E+03 -0.53730945490E+03  0.70798201098E+02  0.75365471611E+03  0.12699999809E+01 0.  1.
</event>
<event>
 5   0  0.1552067E-03  0.1488700E+04  0.7818609E-02  0.8892002E-01
       -2   -1    0    0    0  501  0.00000000000E+00  0.00000000000E+00  0.78033875307E+03  0.78033875308E+03  0.25500000920E-02 0.  1.
        2   -1    0    0  501    0  0.00000000000E+00  0.00000000000E+00 -0.71002111137E+03  0.71002111138E+03  0.25500000920E-02 0. -1.
    10030    2    1    2    0    0  0.00000000000E+00  0.00000000000E+00  0.70317641704E+02  0.14903598645E+04  0.14887000889E+04 0.  0.
        3    1    3    3  502    0 -0.58333028127E+03  0.18263497391E+03  0.46039966371E+03  0.76524349804E+03  0.10100000352E+00 0.  1.
       -3    1    3    3    0  502  0.58333028127E+03 -0.18263497391E+03 -0.39008202201E+03  0.72511636641E+03  0.10100000352E+00 0. -1.
</event>
<event>
 5   0  0.1526126E-03  0.1509410E+04  0.7818609E-02  0.8878219E-01
        2   -1    0    0  501    0  0.00000000000E+00  0.00000000000E+00  0.98998040408E+03  0.98998040409E+03  0.25500000920E-02 0. -1.
       -2   -1    0    0    0  501  0.00000000000E+00  0.00000000000E+00 -0.57534459238E+03  0.57534459239E+03  0.25500000920E-02 0.  1.
    10030    2    1    2    0    0  0.00000000000E+00  0.00000000000E+00  0.41463581170E+03  0.15653249965E+04  0.15094103114E+04 0.  0.
        2    1    3    3  502    0 -0.35125361227E+03  0.64031431383E+03  0.10011309901E+02  0.73039834814E+03  0.25500000920E-02 0. -1.
       -2    1    3    3    0  502  0.35125361227E+03 -0.64031431383E+03  0.40462450180E+03  0.83492664833E+03  0.25500000920E-02 0.  1.
</event>
<event>
 5   0  0.8058234E-04  0.1515374E+04  0.7818609E-02  0.8874293E-01
        1   -1    0    0  501    0  0.00000000000E+00  0.00000000000E+00  0.14845780466E+04  0.14845780466E+04  0.50400001928E-02 0.  1.
       -1   -1    0    0    0  501  0.00000000000E+00  0.00000000000E+00 -0.38670212080E+03  0.38670212084E+03  0.50400001928E-02 0. -1.
    10030    2    1    2    0    0  0.00000000000E+00  0.00000000000E+00  0.10978759258E+04  0.18712801674E+04  0.15153738537E+04 0.  0.
        5    1    3    3  502    0  0.81009360998E+02  0.13755296579E+03 -0.36568187099E+03  0.39903465480E+03  0.46999998093E+01 0. -1.
       -5    1    3    3    0  502 -0.81009360998E+02 -0.13755296579E+03  0.14635577968E+04  0.14722455126E+04  0.46999998093E+01 0.  1.
</event>
<event>
 5   0  0.7870317E-04  0.1498229E+04  0.7818609E-02  0.8885632E-01
        1   -1    0    0  501    0  0.00000000000E+00  0.00000000000E+00  0.59193625680E+03  0.59193625682E+03  0.50400001928E-02 0.  1.
       -1   -1    0    0    0  501  0.00000000000E+00  0.00000000000E+00 -0.94802819742E+03  0.94802819743E+03  0.50400001928E-02 0. -1.
    10030    2    1    2    0    0  0.00000000000E+00  0.00000000000E+00 -0.35609194062E+03  0.15399644543E+04  0.14982286375E+04 0.  0.
        1    1    3    3  502    0 -0.12659136803E+03  0.88824586051E+02  0.57535066541E+03  0.59577140731E+03  0.50400001928E-02 0.  1.
       -1    1    3    3    0  502  0.12659136803E+03 -0.88824586051E+02 -0.93144260603E+03  0.94419304695E+03  0.50400001928E-02 0. -1.
</event>
<event>
 5   0  0.1511546E-03  0.1465002E+04  0.7818609E-02  0.8908066E-01
       -2   -1    0    0    0  501  0.00000000000E+00  0.00000000000E+00  0.33771997882E+03  0.33771997883E+03  0.25500000920E-02 0. -1.
        2   -1    0    0  501    0  0.00000000000E+00  0.00000000000E+00 -0.15887653331E+04  0.15887653331E+04  0.25500000920E-02 0.  1.
    10030    2    1    2    0    0  0.00000000000E+00  0.00000000000E+00 -0.12510453542E+04  0.19264853119E+04  0.14650021087E+04 0.  0.
        1    1    3    3  502    0  0.50886698579E+03 -0.40233231443E+03 -0.17814854497E+03  0.67272119378E+03  0.50400001928E-02 0. -1.
       -1    1    3    3    0  502 -0.50886698579E+03  0.40233231443E+03 -0.10728968093E+04  0.12537641181E+04  0.50400001928E-02 0.  1.
</event>
<event>
 5   0  0.1500956E-03  0.1542002E+04  0.7818609E-02  0.8856993E-01
        2   -1    0    0  501    0  0.00000000000E+00  0.00000000000E+00  0.12795429257E+04  0.12795429257E+04  0.25500000920E-02 0. -1.
       -2   -1    0    0    0  501  0.00000000000E+00  0.00000000000E+00 -0.46457424240E+03  0.46457424240E+03  0.25500000920E-02 0.  1.
    10030    2    1    2    0    0  0.00000000000E+00  0.00000000000E+00  0.81496868326E+03  0.17441171681E+04  0.15420021859E+04 0.  0.
        4    1    3    3  502    0 -0.41294263802E+03  0.52283442788E+03  0.84636928190E+03  0.10771351055E+04  0.12699999809E+01 0. -1.
       -4    1    3    3    0  502  0.41294263802E+03 -0.52283442788E+03 -0.31400598640E+02  0.66698206255E+03  0.12699999809E+01 0.  1.
</event>
<event>
 5   0  0.5603875E-04  0.1556469E+04  0.7818609E-02  0.8847746E-01
        4   -1    0    0  501    0  0.00000000000E+00  0.00000000000E+00  0.89693497307E+03  0.89693587219E+03  0.12699999809E+01 0. -1.
       -4   -1    0    0    0  501  0.00000000000E+00  0.00000000000E+00 -0.67524094132E+03  0.67524213564E+03  0.12699999809E+01 0.  1.
    10030    2    1    2    0    0  0.00000000000E+00  0.00000000000E+00  0.22169403175E+03  0.15721780078E+04  0.15564689025E+04 0.  0.
        2    1    3    3  502    0  0.37738248971E+03 -0.65822125729E+03  0.28573049725E+03  0.81074945831E+03  0.25500000920E-02 0.  1.
       -2    1    3    3    0  502 -0.37738248971E+03  0.65822125729E+03 -0.64036465499E+02  0.76142854951E+03  0.25500000920E-02 0. -1.
</event>
<event>
 5   0  0.1552067E-03  0.1474730E+04  0.7818609E-02  0.8901433E-01
        2   -1    0    0  501    0  0.00000000000E+00  0.00000000000E+00  0.13059656321E+04  0.13059656321E+04  0.25500000920E-02 0. -1.
       -2   -1    0    0    0  501  0.00000000000E+00  0.00000000000E+00 -0.41632567798E+03  0.41632567798E+03  0.25500000920E-02 0.  1.
    10030    2    1    2    0    0  0.00000000000E+00  0.00000000000E+00  0.88963995413E+03  0.17222913101E+04  0.14747298427E+04 0.  0.
        3    1    3    3  502    0 -0.53864837611E+03 -0.23062816031E+03  0.96759707644E+03  0.11311832451E+04  0.10100000352E+00 0. -1.
       -3    1    3    3    0  502  0.53864837611E+03  0.23062816031E+03 -0.77957122306E+02  0.59110806502E+03  0.10100000352E+00 0.  1.
</event>
<event>
 5   0  0.1500956E-03  0.1536566E+04  0.7818609E-02  0.8860495E-01
       -2   -1    0    0    0  501  0.00000000000E+00  0.00000000000E+00  0.40912642482E+03  0.40912642483E+03  0.25500000920E-02 0. -1.
        2   -1    0    0  501    0  0.00000000000E+00  0.00000000000E+00 -0.14427290102E+04  0.14427290102E+04  0.25500000920E-02 0.  1.
    10030    2    1    2    0    0  0.00000000000E+00  0.00000000000E+00 -0.10336025854E+04  0.18518554350E+04  0.15365657317E+04 0.  0.
        4    1    3    3  502    0 -0.33485889670E+03  0.55025419448E+03 -0.12134362983E+02  0.64425073916E+03  0.12699999809E+01 0. -1.
       -4    1    3    3    0  502  0.33485889670E+03 -0.55025419448E+03 -0.10214682224E+04  0.12076046959E+04  0.12699999809E+01 0.  1.
</event>
<event>
 5   0  0.8058234E-04  0.1544921E+04  0.7818609E-02  0.8855118E-01
        1   -1    0    0  501    0  0.00000000000E+00  0.00000000000E+00  0.15215504695E+04  0.15215504695E+04  0.50400001928E-02 0.  1.
       -1   -1    0    0    0  501  0.00000000000E+00  0.00000000000E+00 -0.39216263433E+03  0.39216263436E+03  0.50400001928E-02 0. -1.
    10030    2    1    2    0    0  0.00000000000E+00  0.00000000000E+00  0.11293878352E+04  0.19137131039E+04  0.15449210212E+04 0.  0.
        5    1    3    3  502    0 -0.17316872772E+03  0.19573037238E+03 -0.33571923026E+03  0.42547300560E+03  0.46999998093E+01 0. -1.
       -5    1    3    3    0  502  0.17316872772E+03 -0.19573037238E+03  0.14651070654E+04  0.14882400983E+04  0.46999998093E+01 0.  1.
</event>
<event>
 5   0  0.8191876E-04  0.1521462E+04  0.7818609E-02  0.8870305E-01
        1   -1    0    0  501    0  0.00000000000E+00  0.00000000000E+00  0.16339913094E+04  0.16339913094E+04  0.50400001928E-02 0. -1.
       -1   -1    0    0    0  501  0.00000000000E+00  0.00000000000E+00 -0.35417045625E+03  0.35417045629E+03  0.50400001928E-02 0.  1.
    10030    2    1    2    0    0  0.00000000000E+00  0.00000000000E+00  0.12798208532E+04  0.19881617657E+04  0.15214617282E+04 0.  0.
        2    1    3    3  502    0 -0.61707163087E+03 -0.43709816552E+03  0.53152746048E+03  0.92431252570E+03  0.25500000920E-02 0.  1.
       -2    1    3    3    0  502  0.61707163087E+03  0.43709816552E+03  0.74829339267E+03  0.10638492400E+04  0.25500000920E-02 0. -1.
</event>
<event>
 5   0  0.1500956E-03  0.1437699E+04  0.7818609E-02  0.8926973E-01
        2   -1    0    0  501    0  0.00000000000E+00  0.00000000000E+00  0.15967460473E+04  0.15967460473E+04  0.25500000920E-02 0. -1.
       -2   -1    0    0    0  501  0.00000000000E+00  0.00000000000E+00 -0.32362366122E+03  0.32362366123E+03  0.25500000920E-02 0.  1.
    10030    2    1    2    0    0  0.00000000000E+00  0.00000000000E+00  0.12731223860E+04  0.19203697085E+04  0.14376992757E+04 0.  0.
        4    1    3    3  502    0  0.41978670099E+03 -0.39818622577E+03  0.66768673594E+02  0.58243696088E+03  0.12699999809E+01 0.  1.
       -4    1    3    3    0  502 -0.41978670099E+03  0.39818622577E+03  0.12063537125E+04  0.13379327476E+04  0.12699999809E+01 0. -1.
</event>
<event>
 5   0  0.1552067E-03  0.1492791E+04  0.7818609E-02  0.8889261E-01
       -2   -1    0    0    0  501  0.00000000000E+00  0.00000000000E+00  0.56851288859E+03  0.56851288860E+03  0.25500000920E-02 0.  1.
        2   -1    0    0  501    0  0.00000000000E+00  0.00000000000E+00 -0.97993555494E+03  0.97993555494E+03  0.25500000920E-02 0. -1.
    10030    2    1    2    0    0  0.00000000000E+00  0.00000000000E+00 -0.41142266634E+03  0.15484484435E+04  0.14927906658E+04 0.  0.
        3    1    3    3  502    0 -0.27111876056E+03 -0.10829087069E+03 -0.91825374532E+03  0.96354670151E+03  0.10100000352E+00 0. -1.
       -3    1    3    3    0  502  0.27111876056E+03  0.10829087069E+03  0.50683107898E+03  0.58490174202E+03  0.10100000352E+00 0.  1.
</event>
<event>
 5   0  0.5603875E-04  0.1468029E+04  0.7818609E-02  0.8905996E-01
       -3   -1    0    0    0  501  0.00000000000E+00  0.00000000000E+00  0.36984340978E+03  0.36984342357E+03  0.10100000352E+00 0. -1.
        3   -1    0    0  501    0  0.00000000000E+00  0.00000000000E+00 -0.14567720843E+04  0.14567720878E+04  0.10100000352E+00 0.  1.
    10030    2    1    2    0    0  0.00000000000E+00  0.00000000000E+00 -0.10869286745E+04  0.18266155114E+04  0.14680293876E+04 0.  0.
        1    1    3    3  502    0  0.29611193980E+03  0.32070883351E+03  0.19079998405E+03  0.47638332330E+03  0.50400001928E-02 0. -1.
       -1    1    3    3    0  502 -0.29611193980E+03 -0.32070883351E+03 -0.12777286586E+04  0.13502321881E+04  0.50400001928E-02 0.  1.
</event>
<event>
 5   0  0.1526126E-03  0.1485531E+04  0.7818609E-02  0.8894132E-01
        2   -1    0    0  501    0  0.00000000000E+00  0.00000000000E+00  0.97321292061E+03  0.97321292061E+03  0.25500000920E-02 0. -1.
       -2   -1    0    0    0  501  0.00000000000E+00  0.00000000000E+00 -0.56688564464E+03  0.56688564465E+03  0.25500000920E-02 0.  1.
    10030    2    1    2    0    0  0.00000000000E+00  0.00000000000E+00  0.40632727596E+03  0.15400985653E+04  0.14855307925E+04 0.  0.
        2    1    3    3  502    0  0.24933432344E+03 -0.41176659285E+03 -0.38328370473E+03  0.61532571062E+03  0.25500000920E-02 0.  1.
       -2    1    3    3    0  502 -0.24933432344E+03  0.41176659285E+03  0.78961098070E+03  0.92477285464E+03  0.25500000920E-02 0. -1.
</event>
<event>
 5   0  0.1500956E-03  0.1509380E+04  0.7818609E-02  0.8878240E-01
       -2   -1    0    0    0  501  0.00000000000E+00  0.00000000000E+00  0.10628810104E+04  0.10628810104E+04  0.25500000920E-02 0. -1.
        2   -1    0    0  501    0  0.00000000000E+00  0.00000000000E+00 -0.53586113797E+03  0.53586113798E+03  0.25500000920E-02 0.  1.
    10030    2    1    2    0    0  0.00000000000E+00  0.00000000000E+00  0.52701987240E+03  0.15987421484E+04  0.15093795119E+04 0.  0.
        4    1    3    3  502    0 -0.41518261519E+03  0.38261107056E+03  0.79394550653E+03  0.97422734283E+03  0.12699999809E+01 0. -1.
       -4    1    3    3    0  502  0.41518261519E+03 -0.38261107056E+03 -0.26692563412E+03  0.62451480553E+03  0.12699999809E+01 0.  1.
</event>
<event>
 5   0  0.7870317E-04  0.1449165E+04  0.7818609E-02  0.8918980E-01
        1   -1    0    0  501    0  0.00000000000E+00  0.00000000000E+00  0.60091834929E+03  0.60091834931E+03  0.50400001928E-02 0. -1.
       -1   -1    0    0    0  501  0.00000000000E+00  0.00000000000E+00 -0.87369561149E+03  0.87369561151E+03  0.50400001928E-02 0.  1.
    10030    2    1    2    0    0  0.00000000000E+00  0.00000000000E+00 -0.27277726220E+03  0.14746139608E+04  0.14491648970E+04 0.  0.
        1    1    3    3  502    0 -0.45045023864E+03 -0.52902709586E+03  0.72755815470E+02  0.69861899084E+03  0.50400001928E-02 0.  1.
       -1    1    3    3    0  502  0.45045023864E+03  0.52902709586E+03 -0.34553307767E+03  0.77599496998E+03  0.50400001928E-02 0. -1.
</event>
<event>
 5   0  0.1526126E-03  0.1519517E+04  0.7818609E-02  0.8871577E-01
       -2   -1    0    0    0  501  0.00000000000E+00  0.00000000000E+00  0.26653725448E+03  0.26653725449E+03  0.25500000920E-02 0.  1.
        2   -1    0    0  501    0  0.00000000000E+00  0.00000000000E+00 -0.21656735459E+04  0.21656735459E+04  0.25500000920E-02 0. -1.
    10030    2    1    2    0    0  0.00000000000E+00  0.00000000000E+00 -0.18991362915E+04  0.24322108004E+04  0.15195166087E+04 0.  0.
        2    1    3    3  502    0 -0.42694473825E+03 -0.47347518854E+03 -0.16110291453E+04  0.17325921248E+04  0.25500000920E-02 0. -1.
       -2    1    3    3    0  502  0.42694473825E+03  0.47347518854E+03 -0.28810714612E+03  0.69961867566E+03  0.25500000920E-02 0.  1.
</event>
<event>
 5   0  0.8058234E-04  0.1523696E+04  0.7818609E-02  0.8868846E-01
        1   -1    0    0  501    0  0.00000000000E+00  0.00000000000E+00  0.95093951536E+03  0.95093951537E+03  0.50400001928E-02 0.  1.
       -1   -1    0    0    0  501  0.00000000000E+00  0.00000000000E+00 -0.61035694593E+03  0.61035694595E+03  0.50400001928E-02 0. -1.
    10030    2    1    2    0    0  0.00000000000E+00  0.00000000000E+00  0.34058256942E+03  0.15612964613E+04  0.15236962143E+04 0.  0.
        5    1    3    3  502    0  0.28990388995E+03 -0.62798590705E+03 -0.15693203227E+03  0.70926745140E+03  0.46999998093E+01 0. -1.
       -5    1    3    3    0  502 -0.28990388995E+03  0.62798590705E+03  0.49751460169E+03  0.85202900992E+03  0.46999998093E+01 0.  1.
</event>
<event>
 5   0  0.8365016E-04  0.1512872E+04  0.7818609E-02  0.8875938E-01
        1   -1    0    0  501    0  0.00000000000E+00  0.00000000000E+00  0.17478464727E+04  0.17478464727E+04  0.50400001928E-02 0. -1.
       -1   -1    0    0    0  501  0.00000000000E+00  0.00000000000E+00 -0.32737183229E+03  0.32737183233E+03  0.50400001928E-02 0.  1.
    10030    2    1    2    0    0  0.00000000000E+00  0.00000000000E+00  0.14204746404E+04  0.20752183050E+04  0.15128723705E+04 0.  0.
        3    1    3    3  502    0  0.50523184269E+03  0.43060092381E+03  0.21277948187E+03  0.69710220811E+03  0.10100000352E+00 0.  1.
       -3    1    3    3    0  502 -0.50523184269E+03 -0.43060092381E+03  0.12076951585E+04  0.13781160969E+04  0.10100000352E+00 0. -1.
</event>
<event>
 5   0  0.1484056E-03  0.1454951E+04  0.7818609E-02  0.8914975E-01
       -2   -1    0    0    0  501  0.00000000000E+00  0.00000000000E+00  0.10241459113E+04  0.10241459113E+04  0.25500000920E-02 0.  1.
        2   -1    0    0  501    0  0.00000000000E+00  0.00000000000E+00 -0.51674333709E+03  0.51674333709E+03  0.25500000920E-02 0. -1.
    10030    2    1    2    0    0  0.00000000000E+00  0.00000000000E+00  0.50740257420E+03  0.15408892484E+04  0.14549509626E+04 0.  0.
        5    1    3    3  502    0 -0.47177984507E+03 -0.51271579933E+03  0.47520762200E+03  0.84338489855E+03  0.46999998093E+01 0.  1.
       -5    1    3    3    0  502  0.47177984507E+03  0.51271579933E+03  0.32194952208E+02  0.69750434984E+03  0.46999998093E+01 0. -1.
</event>
<event>
 5   0  0.8058234E-04  0.1498680E+04  0.7818609E-02  0.8885331E-01
        1   -1    0    0  501    0  0.00000000000E+00  0.00000000000E+00  0.86240196129E+03  0.86240196130E+03  0.50400001928E-02 0. -1.
       -1   -1    0    0    0  501  0.00000000000E+00  0.00000000000E+00 -0.65110072010E+03  0.65110072012E+03  0.50400001928E-02 0.  1.
    10030    2    1    2    0    0  0.00000000000E+00  0.00000000000E+00  0.21130124119E+03  0.15135026814E+04  0.14986801367E+04 0.  0.
        5    1    3    3  502    0 -0.14491197383E+03 -0.40601520554E+03  0.72460767666E+03  0.84316439818E+03  0.46999998093E+01 0. -1.
       -5    1    3    3    0  502  0.14491197383E+03  0.40601520554E+03 -0.51330643547E+03  0.67033828324E+03  0.46999998093E+01 0.  1.
</event>
<event>
 5   0  0.1552067E-03  0.1546604E+04  0.7818609E-02  0.8854040E-01
        2   -1    0    0  501    0  0.00000000000E+00  0.00000000000E+00  0.23608165192E+04  0.23608165192E+04  0.25500000920E-02 0.  1.
       -2   -1    0    0    0  501  0.00000000000E+00  0.00000000000E+00 -0.25330059857E+03  0.25330059858E+03  0.25500000920E-02 0. -1.
    10030    2    1    2    0    0  0.00000000000E+00  0.00000000000E+00  0.21075159206E+04  0.26141171177E+04  0.15466043287E+04 0.  0.
        3    1    3    3  502    0  0.49059384295E+03 -0.58560008957E+03  0.85102584905E+03  0.11436147907E+04  0.10100000352E+00 0.  1.
       -3    1    3    3    0  502 -0.49059384295E+03  0.58560008957E+03  0.12564900715E+04  0.14705023270E+04  0.10100000352E+00 0. -1.
</event>
<event>
 5   0  0.7870317E-04  0.1467830E+04  0.7818609E-02  0.8906132E-01
        1   -1    0    0  501    0  0.00000000000E+00  0.00000000000E+00  0.10086596242E+04  0.10086596242E+04  0.50400001928E-02 0.  1.
       -1   -1    0    0    0  501  0.00000000000E+00  0.00000000000E+00 -0.53400713678E+03  0.53400713680E+03  0.50400001928E-02 0. -1.
    10030    2    1    2    0    0  0.00000000000E+00  0.00000000000E+00  0.47465248741E+03  0.15426667610E+04  0.14678302871E+04 0.  0.
        1    1    3    3  502    0  0.45303329216E+03  0.27794102213E+03  0.76923345789E+03  0.93499223973E+03  0.50400001928E-02 0.  1.
       -1    1    3    3    0  502 -0.45303329216E+03 -0.27794102213E+03 -0.29458097049E+03  0.60767452126E+03  0.50400001928E-02 0. -1.
</event>
<event>
 5   0  0.8058234E-04  0.1475413E+04  0.7818609E-02  0.8900970E-01
       -1   -1    0    0    0  501  0.00000000000E+00  0.00000000000E+00  0.18492418763E+03  0.18492418770E+03  0.50400001928E-02 0. -1.
        1   -1    0    0  501    0  0.00000000000E+00  0.00000000000E+00 -0.29428861534E+04  0.29428861534E+04  0.50400001928E-02 0.  1.
    10030    2    1    2    0    0  0.00000000000E+00  0.00000000000E+00 -0.27579619658E+04  0.31278103411E+04  0.14754129338E+04 0.  0.
        5    1    3    3  502    0  0.52377554017E+02 -0.66132766277E+03 -0.69501652960E+03  0.96081619060E+03  0.46999998093E+01 0. -1.
       -5    1    3    3    0  502 -0.52377554017E+02  0.66132766277E+03 -0.20629454362E+04  0.21669941505E+04  0.46999998093E+01 0.  1.
</event>
<event>
 5   0  0.1552067E-03  0.1531532E+04  0.7818609E-02  0.8863751E-01
        2   -1    0    0  501    0  0.00000000000E+00  0.00000000000E+00  0.68812854561E+03  0.68812854562E+03  0.25500000920E-02 0.  1.
       -2   -1    0    0    0  501  0.00000000000E+00  0.00000000000E+00 -0.85216321619E+03  0.85216321619E+03  0.25500000920E-02 0. -1.
    10030    2    1    2    0    0  0.00000000000E+00  0.00000000000E+00 -0.16403467058E+03  0.15402917618E+04  0.15315323498E+04 0.  0.
        3    1    3    3  502    0 -0.29188730044E+03  0.54834469445E+03  0.36833581138E+03  0.72218514263E+03  0.10100000352E+00 0.  1.
       -3    1    3    3    0  502  0.29188730044E+03 -0.54834469445E+03 -0.53237048196E+03  0.81810661918E+03  0.10100000352E+00 0. -1.
</event>
<event>
 5   0  0.1484056E-03  0.1475944E+04  0.7818609E-02  0.8900609E-01
       -2   -1    0    0    0  501  0.00000000000E+00  0.00000000000E+00  0.75448419732E+03  0.75448419733E+03  0.25500000920E-02 0.  1.
        2   -1    0    0  501    0  0.00000000000E+00  0.00000000000E+00 -0.72182125544E+03  0.72182125544E+03  0.25500000920E-02 0. -1.
    10030    2    1    2    0    0  0.00000000000E+00  0.00000000000E+00  0.32662941888E+02  0.14763054528E+04  0.14759440782E+04 0.  0.
        5    1    3    3  502    0 -0.85359800686E+02  0.17917890972E+03  0.72727217004E+03  0.75388213705E+03  0.46999998093E+01 0.  1.
       -5    1    3    3    0  502  0.85359800686E+02 -0.17917890972E+03 -0.69460922815E+03  0.72242331572E+03  0.46999998093E+01 0. -1.
</event>
<event>
 5   0  0.1484056E-03  0.1498387E+04  0.7818609E-02  0.8885526E-01
       -2   -1    0    0    0  501  0.00000000000E+00  0.00000000000E+00  0.12452288592E+04  0.12452288592E+04  0.25500000920E-02 0.  1.
        2   -1    0    0  501    0  0.00000000000E+00  0.00000000000E+00 -0.45075337406E+03  0.45075337407E+03  0.25500000920E-02 0. -1.
    10030    2    1    2    0    0  0.00000000000E+00  0.00000000000E+00  0.79447548512E+03  0.16959822332E+04  0.14983872794E+04 0.  0.
        5    1    3    3  502    0 -0.72145365399E+03  0.12824921960E+03  0.57377266508E+03  0.93068813164E+03  0.46999998093E+01 0.  1.
       -5    1    3    3    0  502  0.72145365399E+03 -0.12824921960E+03  0.22070282004E+03  0.76529410161E+03  0.46999998093E+01 0. -1.
</event>
<event>
 5   0  0.8306301E-04  0.1435119E+04  0.7818609E-02  0.8928783E-01
        1   -1    0    0  501    0  0.00000000000E+00  0.00000000000E+00  0.46248922231E+03  0.46248922234E+03  0.50400001928E-02 0. -1.
       -1   -1    0    0    0  501  0.00000000000E+00  0.00000000000E+00 -0.11133045278E+04  0.11133045278E+04  0.50400001928E-02 0.  1.
    10030    2    1    2    0    0  0.00000000000E+00  0.00000000000E+00 -0.65081530548E+03  0.15757937501E+04  0.14351185948E+04 0.  0.
        4    1    3    3  502    0 -0.42306133758E+03 -0.42765334284E+03  0.10411665459E+03  0.61049993257E+03  0.12699999809E+01 0. -1.
       -4    1    3    3    0  502  0.42306133758E+03  0.42765334284E+03 -0.75493196007E+03  0.96529381757E+03  0.12699999809E+01 0.  1.
</event>
<event>
 5   0  0.5603875E-04  0.1493653E+04  0.7818609E-02  0.8888684E-01
        3   -1    0    0  501    0  0.00000000000E+00  0.00000000000E+00  0.37841435157E+03  0.37841436504E+03  0.10100000352E+00 0. -1.
       -3   -1    0    0    0  501  0.00000000000E+00  0.00000000000E+00 -0.14739135530E+04  0.14739135565E+04  0.10100000352E+00 0.  1.
    10030    2    1    2    0    0  0.00000000000E+00  0.00000000000E+00 -0.10954992015E+04  0.18523279215E+04  0.14936533160E+04 0.  0.
        2    1    3    3  502    0 -0.23718788541E+03 -0.58196390225E+03 -0.10481395502E+04  0.12221033480E+04  0.25500000920E-02 0. -1.
       -2    1    3    3    0  502  0.23718788541E+03  0.58196390225E+03 -0.47359651264E+02  0.63022457353E+03  0.25500000920E-02 0.  1.
</event>
<event>
 5   0  0.8306301E-04  0.1585817E+04  0.7818609E-02  0.8829309E-01
       -1   -1    0    0    0  501  0.00000000000E+00  0.00000000000E+00  0.50284341492E+03  0.50284341495E+03  0.50400001928E-02 0. -1.
        1   -1    0    0  501    0  0.00000000000E+00  0.00000000000E+00 -0.12502975111E+04  0.12502975111E+04  0.50400001928E-02 0.  1.
    10030    2    1    2    0    0  0.00000000000E+00  0.00000000000E+00 -0.74745409615E+03  0.17531409260E+04  0.15858169758E+04 0.  0.
        4    1    3    3  502    0 -0.24942708158E+02  0.77047087230E+03 -0.16852185872E+03  0.78908094232E+03  0.12699999809E+01 0. -1.
       -4    1    3    3    0  502  0.24942708158E+02 -0.77047087230E+03 -0.57893223743E+03  0.96405998371E+03  0.12699999809E+01 0.  1.
</event>
<event>
 5   0  0.8365016E-04  0.1401929E+04  0.7818609E-02  0.8952423E-01
        1   -1    0    0  501    0  0.00000000000E+00  0.00000000000E+00  0.87773775484E+03  0.87773775485E+03  0.50400001928E-02 0.  1.
       -1   -1    0    0    0  501  0.00000000000E+00  0.00000000000E+00 -0.55979307765E+03  0.55979307768E+03  0.50400001928E-02 0. -1.
    10030    2    1    2    0    0  0.00000000000E+00  0.00000000000E+00  0.31794467719E+03  0.14375308325E+04  0.14019294122E+04 0.  0.
        3    1    3    3  502    0  0.18859990014E+03  0.12465400470E+02 -0.53316992035E+03  0.56568143218E+03  0.10100000352E+00 0. -1.
       -3    1    3    3    0  502 -0.18859990014E+03 -0.12465400470E+02  0.85111459754E+03  0.87184940035E+03  0.10100000352E+00 0.  1.
</event>
<event>
 5   0  0.7870317E-04  0.1576456E+04  0.7818609E-02  0.8835144E-01
        1   -1    0    0  501    0  0.00000000000E+00  0.00000000000E+00  0.23565366344E+04  0.23565366344E+04  0.50400001928E-02 0. -1.
       -1   -1    0    0    0  501  0.00000000000E+00  0.00000000000E+00 -0.26365119845E+03  0.26365119850E+03  0.50400001928E-02 0.  1.
    10030    2    1    2    0    0  0.00000000000E+00  0.00000000000E+00  0.20928854359E+04  0.26201878329E+04  0.15764564160E+04 0.  0.
        1    1    3    3  502    0 -0.63791631843E+03 -0.45757396869E+03  0.11638814382E+04  0.14038985606E+04  0.50400001928E-02 0. -1.
       -1    1    3    3    0  502  0.63791631843E+03  0.45757396869E+03  0.92900399768E+03  0.12162892723E+04  0.50400001928E-02 0.  1.
</event>
<event>
 5   0  0.1484056E-03  0.1488179E+04  0.7818609E-02  0.8892352E-01
        2   -1    0    0  501    0  0.00000000000E+00  0.00000000000E+00  0.51936277470E+03  0.51936277471E+03  0.25500000920E-02 0. -1.
       -2   -1    0    0    0  501  0.00000000000E+00  0.00000000000E+00 -0.10660541311E+04  0.10660541311E+04  0.25500000920E-02 0.  1.
    10030    2    1    2    0    0  0.00000000000E+00  0.00000000000E+00 -0.54669135640E+03  0.15854169058E+04  0.14881785263E+04 0.  0.
        5    1    3    3  502    0 -0.47165584586E+02 -0.33959837773E+03 -0.97686989328E+03  0.10353011779E+04  0.46999998093E+01 0.  1.
       -5    1    3    3    0  502  0.47165584586E+02  0.33959837773E+03  0.43017853688E+03  0.55011572793E+03  0.46999998093E+01 0. -1.
</event>
<event>
 5   0  0.1484056E-03  0.1580970E+04  0.7818609E-02  0.8832325E-01
        2   -1    0    0  501    0  0.00000000000E+00  0.00000000000E+00  0.13229814426E+04  0.13229814426E+04  0.25500000920E-02 0. -1.
       -2   -1    0    0    0  501  0.00000000000E+00  0.00000000000E+00 -0.47231688510E+03  0.47231688511E+03  0.25500000920E-02 0.  1.
    10030    2    1    2    0    0  0.00000000000E+00  0.00000000000E+00  0.85066455748E+03  0.17952983277E+04  0.15809699226E+04 0.  0.
        5    1    3    3  502    0  0.19978857024E+03 -0.11020040375E+03  0.12847588052E+04  0.13048704454E+04  0.46999998093E+01 0. -1.
       -5    1    3    3    0  502 -0.19978857024E+03  0.11020040375E+03 -0.43409424774E+03  0.49042788226E+03  0.46999998093E+01 0.  1.
</event>
<event>
 5   0  0.1484056E-03  0.1494323E+04  0.7818609E-02  0.8888237E-01
       -2   -1    0    0    0  501  0.00000000000E+00  0.00000000000E+00  0.24743064459E+03  0.24743064461E+03  0.25500000920E-02 0. -1.
        2   -1    0    0  501    0  0.00000000000E+00  0.00000000000E+00 -0.22561887740E+04  0.22561887740E+04  0.25500000920E-02 0.  1.
    10030    2    1    2    0    0  0.00000000000E+00  0.00000000000E+00 -0.20087581294E+04  0.25036194186E+04  0.14943229138E+04 0.  0.
        5    1    3    3  502    0  0.79351613563E+02 -0.69217871479E+03 -0.55226346337E+03  0.88905853281E+03  0.46999998093E+01 0. -1.
       -5    1    3    3    0  502 -0.79351613563E+02  0.69217871479E+03 -0.14564946660E+04  0.16145608858E+04  0.46999998093E+01 0.  1.
</event>
<event>
 5   0  0.7870317E-04  0.1476877E+04  0.7818609E-02  0.8899977E-01
        1   -1    0    0  501    0  0.00000000000E+00  0.00000000000E+00  0.85232363407E+03  0.85232363409E+03  0.50400001928E-02 0. -1.
       -1   -1    0    0    0  501  0.00000000000E+00  0.00000000000E+00 -0.63977005269E+03  0.63977005271E+03  0.50400001928E-02 0.  1.
    10030    2    1    2    0    0  0.00000000000E+00  0.00000000000E+00  0.21255358138E+03  0.14920936868E+04  0.14768766181E+04 0.  0.
        1    1    3    3  502    0  0.19544709715E+03 -0.45161992094E+03 -0.44996941970E+03  0.66680776800E+03  0.50400001928E-02 0.  1.
       -1    1    3    3    0  502 -0.19544709715E+03  0.45161992094E+03  0.66252300108E+03  0.82528591880E+03  0.50400001928E-02 0. -1.
</event>
<event>
 5   0  0.1511546E-03  0.1568168E+04  0.7818609E-02  0.8840346E-01
        2   -1    0    0  501    0  0.00000000000E+00  0.00000000000E+00  0.13909765885E+04  0.13909765885E+04  0.25500000920E-02 0. -1.
       -2   -1    0    0    0  501  0.00000000000E+00  0.00000000000E+00 -0.44198302192E+03  0.44198302193E+03  0.25500000920E-02 0.  1.
    10030    2    1    2    0    0  0.00000000000E+00  0.00000000000E+00  0.94899356662E+03  0.18329596105E+04  0.15681684043E+04 0.  0.
        1    1    3    3  502    0 -0.58473976868E+02  0.41217475080E+03 -0.30213669686E+03  0.51438683380E+03  0.50400001928E-02 0.  1.
       -1    1    3    3    0  502  0.58473976868E+02 -0.41217475080E+03  0.12511302635E+04  0.13185727767E+04  0.50400001928E-02 0. -1.
</event>
<event>
 5   0  0.1511546E-03  0.1502378E+04  0.7818609E-02  0.8882873E-01
        2   -1    0    0  501    0  0.00000000000E+00  0.00000000000E+00  0.84659342237E+03  0.84659342237E+03  0.25500000920E-02 0. -1.
       -2   -1    0    0    0  501  0.00000000000E+00  0.00000000000E+00 -0.66653552506E+03  0.66653552506E+03  0.25500000920E-02 0.  1.
    10030    2    1    2    0    0  0.00000000000E+00  0.00000000000E+00  0.18005789731E+03  0.15131289474E+04  0.15023775708E+04 0.  0.
        1    1    3    3  502    0 -0.34187072245E+03 -0.66871406096E+03  0.74737906091E+02  0.75474488460E+03  0.50400001928E-02 0. -1.
       -1    1    3    3    0  502  0.34187072245E+03  0.66871406096E+03  0.10531999122E+03  0.75838406284E+03  0.50400001928E-02 0.  1.
</event>
<event>
 5   0  0.8365016E-04  0.1237294E+04  0.7818609E-02  0.9080826E-01
        1   -1    0    0  501    0  0.00000000000E+00  0.00000000000E+00  0.15119637711E+04  0.15119637711E+04  0.50400001928E-02 0. -1.
       -1   -1    0    0    0  501  0.00000000000E+00  0.00000000000E+00 -0.25313029773E+03  0.25313029778E+03  0.50400001928E-02 0.  1.
    10030    2    1    2    0    0  0.00000000000E+00  0.00000000000E+00  0.12588334733E+04  0.17650940689E+04  0.12372935619E+04 0.  0.
        3    1    3    3  502    0  0.10604472560E+03 -0.58935819073E+03  0.40779050075E+03  0.72448717277E+03  0.10100000352E+00 0.  1.
       -3    1    3    3    0  502 -0.10604472560E+03  0.58935819073E+03  0.85104297259E+03  0.10406068961E+04  0.10100000352E+00 0. -1.
</event>
<event>
 5   0  0.1500956E-03  0.1415497E+04  0.7818609E-02  0.8942677E-01
       -2   -1    0    0    0  501  0.00000000000E+00  0.00000000000E+00  0.25564127005E+03  0.25564127006E+03  0.25500000920E-02 0. -1.
        2   -1    0    0  501    0  0.00000000000E+00  0.00000000000E+00 -0.19594168048E+04  0.19594168048E+04  0.25500000920E-02 0.  1.
    10030    2    1    2    0    0  0.00000000000E+00  0.00000000000E+00 -0.17037755348E+04  0.22150580749E+04  0.14154968040E+04 0.  0.
        4    1    3    3  502    0  0.13281128336E+03 -0.68330002315E+03 -0.10520949822E+04  0.12615241666E+04  0.12699999809E+01 0. -1.
       -4    1    3    3    0  502 -0.13281128336E+03  0.68330002315E+03 -0.65168055263E+03  0.95353390826E+03  0.12699999809E+01 0.  1.
</event>
<event>
 5   0  0.8191876E-04  0.1493968E+04  0.7818609E-02  0.8888474E-01
       -1   -1    0    0    0  501  0.00000000000E+00  0.00000000000E+00  0.75577644498E+03  0.75577644499E+03  0.50400001928E-02 0.  1.
        1   -1    0    0  501    0  0.00000000000E+00  0.00000000000E+00 -0.73829380108E+03  0.73829380109E+03  0.50400001928E-02 0. -1.
    10030    2    1    2    0    0  0.00000000000E+00  0.00000000000E+00  0.17482643900E+02  0.14940702461E+04  0.14939679573E+04 0.  0.
        2    1    3    3  502    0  0.34868365825E+03 -0.23446399647E+03  0.62638493970E+03  0.75426238927E+03  0.25500000920E-02 0.  1.
       -2    1    3    3    0  502 -0.34868365825E+03  0.23446399647E+03 -0.60890229580E+03  0.73980785682E+03  0.25500000920E-02 0. -1.
</event>
<event>
 5   0  0.1526126E-03  0.1519864E+04  0.7818609E-02  0.8871350E-01
        2   -1    0    0  501    0  0.00000000000E+00  0.00000000000E+00  0.10667912970E+04  0.10667912970E+04  0.25500000920E-02 0.  1.
       -2   -1    0    0    0  501  0.00000000000E+00  0.00000000000E+00 -0.54133953653E+03  0.54133953654E+03  0.25500000920E-02 0. -1.
    10030    2    1    2    0    0  0.00000000000E+00  0.00000000000E+00  0.52545176050E+03  0.16081308336E+04  0.15198635548E+04 0.  0.
        2    1    3    3  502    0  0.44258208773E+03  0.19989317159E+03 -0.35573740584E+03  0.60198445690E+03  0.25500000920E-02 0. -1.
       -2    1    3    3    0  502 -0.44258208773E+03 -0.19989317159E+03  0.88118916633E+03  0.10061463767E+04  0.25500000920E-02 0.  1.
</event>
<event>
 5   0  0.7870317E-04  0.1524918E+04  0.7818609E-02  0.8868050E-01
        1   -1    0    0  501    0  0.00000000000E+00  0.00000000000E+00  0.10458766784E+04  0.10458766784E+04  0.50400001928E-02 0.  1.
       -1   -1    0    0    0  501  0.00000000000E+00  0.00000000000E+00 -0.55584331044E+03  0.55584331046E+03  0.50400001928E-02 0. -1.
    10030    2    1    2    0    0  0.00000000000E+00  0.00000000000E+00  0.49003336794E+03  0.16017199889E+04  0.15249177752E+04 0.  0.
        1    1    3    3  502    0  0.49866725787E+02 -0.75423240161E+03  0.14003089799E+03  0.76874043630E+03  0.50400001928E-02 0. -1.
       -1    1    3    3    0  502 -0.49866725787E+02  0.75423240161E+03  0.35000246995E+03  0.83297955256E+03  0.50400001928E-02 0.  1.
</event>
<event>
 5   0  0.1526126E-03  0.1522593E+04  0.7818609E-02  0.8869566E-01
        2   -1    0    0  501    0  0.00000000000E+00  0.00000000000E+00  0.19961425756E+04  0.19961425756E+04  0.25500000920E-02 0. -1.
       -2   -1    0    0    0  501  0.00000000000E+00  0.00000000000E+00 -0.29034626914E+03  0.29034626915E+03  0.25500000920E-02 0.  1.
    10030    2    1    2    0    0  0.00000000000E+00  0.00000000000E+00  0.17057963065E+04  0.22864888448E+04  0.15225932477E+04 0.  0.
        2    1    3    3  502    0 -0.50743760359E+03 -0.31235756937E+03  0.14134830360E+03  0.61240469921E+03  0.25500000920E-02 0.  1.
       -2    1    3    3    0  502  0.50743760359E+03  0.31235756937E+03  0.15644480029E+04  0.16740841456E+04  0.25500000920E-02 0. -1.
</event>
<event>
 5   0  0.1484056E-03  0.1481696E+04  0.7818609E-02  0.8896717E-01
        2   -1    0    0  501    0  0.00000000000E+00  0.00000000000E+00  0.13704511714E+04  0.13704511714E+04  0.25500000920E-02 0. -1.
       -2   -1    0    0    0  501  0.00000000000E+00  0.00000000000E+00 -0.40049286540E+03  0.40049286540E+03  0.25500000920E-02 0.  1.
    10030    2    1    2    0    0  0.00000000000E+00  0.00000000000E+00  0.96995830602E+03  0.17709440368E+04  0.14816962125E+04 0.  0.
        5    1    3    3  502    0  0.11719210362E+03 -0.19413496054E+03  0.13279325355E+04  0.13471634202E+04  0.46999998093E+01 0. -1.
       -5    1    3    3    0  502 -0.11719210362E+03  0.19413496054E+03 -0.35797422944E+03  0.42378061659E+03  0.46999998093E+01 0.  1.
</event>
<event>
 5   0  0.1484056E-03  0.1415457E+04  0.7818609E-02  0.8942705E-01
        2   -1    0    0  501    0  0.00000000000E+00  0.00000000000E+00  0.13750191435E+04  0.13750191435E+04  0.25500000920E-02 0.  1.
       -2   -1    0    0    0  501  0.00000000000E+00  0.00000000000E+00 -0.36427104719E+03  0.36427104720E+03  0.25500000920E-02 0. -1.
    10030    2    1    2    0    0  0.00000000000E+00  0.00000000000E+00  0.10107480963E+04  0.17392901907E+04  0.14154570475E+04 0.  0.
        5    1    3    3  502    0 -0.14344538804E+02 -0.56204045821E+03 -0.22806093541E+02  0.56270547390E+03  0.46999998093E+01 0. -1.
       -5    1    3    3    0  502  0.14344538804E+02  0.56204045821E+03  0.10335541899E+04  0.11765847168E+04  0.46999998093E+01 0.  1.
</event>
<event>
 5   0  0.5603875E-04  0.1442100E+04  0.7818609E-02  0.8923896E-01
       -4   -1    0    0    0  501  0.00000000000E+00  0.00000000000E+00  0.48613283303E+03  0.48613449193E+03  0.12699999809E+01 0. -1.
        4   -1    0    0  501    0  0.00000000000E+00  0.00000000000E+00 -0.10694839258E+04  0.10694846799E+04  0.12699999809E+01 0.  1.
    10030    2    1    2    0    0  0.00000000000E+00  0.00000000000E+00 -0.58335109279E+03  0.15556191718E+04  0.14421000347E+04 0.  0.
        4    1    3    3  502    0  0.43864076038E+02 -0.44046358429E+02 -0.10665880821E+04  0.10683987498E+04  0.12699999809E+01 0.  1.
       -4    1    3    3    0  502 -0.43864076038E+02  0.44046358429E+02  0.48323698931E+03  0.48722042198E+03  0.12699999809E+01 0. -1.
</event>
<event>
 5   0  0.7870317E-04  0.1118513E+04  0.7818609E-02  0.9187333E-01
       -1   -1    0    0    0  501  0.00000000000E+00  0.00000000000E+00  0.42662825708E+03  0.42662825711E+03  0.50400001928E-02 0.  1.
        1   -1    0    0  501    0  0.00000000000E+00  0.00000000000E+00 -0.73311609953E+03  0.73311609955E+03  0.50400001928E-02 0. -1.
    10030    2    1    2    0    0  0.00000000000E+00  0.00000000000E+00 -0.30648784245E+03  0.11597443567E+04  0.11185133773E+04 0.  0.
        1    1    3    3  502    0  0.10088470174E+03 -0.17378233339E+03  0.38790485690E+03  0.43686176358E+03  0.50400001928E-02 0.  1.
       -1    1    3    3    0  502 -0.10088470174E+03  0.17378233339E+03 -0.69439269935E+03  0.72288259308E+03  0.50400001928E-02 0. -1.
</event>
<event>
 5   0  0.8365016E-04  0.1514355E+04  0.7818609E-02  0.8874963E-01
        1   -1    0    0  501    0  0.00000000000E+00  0.00000000000E+00  0.11599394223E+04  0.11599394223E+04  0.50400001928E-02 0. -1.
       -1   -1    0    0    0  501  0.00000000000E+00  0.00000000000E+00 -0.49426541119E+03  0.49426541121E+03  0.50400001928E-02 0.  1.
    10030    2    1    2    0    0  0.00000000000E+00  0.00000000000E+00  0.66567401114E+03  0.16542048335E+04  0.15143552233E+04 0.  0.
        3    1    3    3  502    0 -0.37058537493E+03 -0.12523176625E+03  0.10410142198E+04  0.11120823402E+04  0.10100000352E+00 0. -1.
       -3    1    3    3    0  502  0.37058537493E+03  0.12523176625E+03 -0.37534020863E+03  0.54212249336E+03  0.10100000352E+00 0.  1.
</event>
<event>
 5   0  0.8365016E-04  0.1534026E+04  0.7818609E-02  0.8862136E-01
        1   -1    0    0  501    0  0.00000000000E+00  0.00000000000E+00  0.81461970947E+03  0.81461970949E+03  0.50400001928E-02 0.  1.
       -1   -1    0    0    0  501  0.00000000000E+00  0.00000000000E+00 -0.72218832122E+03  0.72218832124E+03  0.50400001928E-02 0. -1.
    10030    2    1    2    0    0  0.00000000000E+00  0.00000000000E+00  0.92431388247E+02  0.15368080307E+04  0.15340258674E+04 0.  0.
        3    1    3    3  502    0  0.61510649735E+03 -0.83405706923E+01  0.50517675539E+03  0.79600824907E+03  0.10100000352E+00 0.  1.
       -3    1    3    3    0  502 -0.61510649735E+03  0.83405706923E+01 -0.41274536714E+03  0.74079978166E+03  0.10100000352E+00 0. -1.
</event>
<event>
 5   0  0.1511546E-03  0.1509538E+04  0.7818609E-02  0.8878135E-01
       -2   -1    0    0    0  501  0.00000000000E+00  0.00000000000E+00  0.55330491615E+03  0.55330491615E+03  0.25500000920E-02 0.  1.
        2   -1    0    0  501    0  0.00000000000E+00  0.00000000000E+00 -0.10295887718E+04  0.10295887718E+04  0.25500000920E-02 0. -1.
    10030    2    1    2    0    0  0.00000000000E+00  0.00000000000E+00 -0.47628385569E+03  0.15828936880E+04  0.15095383785E+04 0.  0.
        1    1    3    3  502    0 -0.33676255172E+03 -0.27154617591E+03  0.41040356389E+03  0.59630313363E+03  0.50400001928E-02 0.  1.
       -1    1    3    3    0  502  0.33676255172E+03  0.27154617591E+03 -0.88668741959E+03  0.98659055437E+03  0.50400001928E-02 0. -1.
</event>
<event>
 5   0  0.8058234E-04  0.1497189E+04  0.7818609E-02  0.8886325E-01
        1   -1    0    0  501    0  0.00000000000E+00  0.00000000000E+00  0.16193564911E+04  0.16193564911E+04  0.50400001928E-02 0. -1.
       -1   -1    0    0    0  501  0.00000000000E+00  0.00000000000E+00 -0.34605928892E+03  0.34605928895E+03  0.50400001928E-02 0.  1.
    10030    2    1    2    0    0  0.00000000000E+00  0.00000000000E+00  0.12732972022E+04  0.19654157801E+04  0.14971885063E+04 0.  0.
        5    1    3    3  502    0  0.22104867962E+02  0.68254694141E+03  0.23414448664E+03  0.72194506926E+03  0.46999998093E+01 0.  1.
       -5    1    3    3    0  502 -0.22104867962E+02 -0.68254694141E+03  0.10391527156E+04  0.12434707108E+04  0.46999998093E+01 0. -1.
</event>
<event>
 5   0  0.1511546E-03  0.1501246E+04  0.7818609E-02  0.8883625E-01
       -2   -1    0    0    0  501  0.00000000000E+00  0.00000000000E+00  0.14062365302E+04  0.14062365302E+04  0.25500000920E-02 0. -1.
        2   -1    0    0  501    0  0.00000000000E+00  0.00000000000E+00 -0.40066878650E+03  0.40066878651E+03  0.25500000920E-02 0.  1.
    10030    2    1    2    0    0  0.00000000000E+00  0.00000000000E+00  0.10055677437E+04  0.18069053167E+04  0.15012462611E+04 0.  0.
        1    1    3    3  502    0 -0.43566839809E+02  0.27737530528E+03  0.13406509795E+04  0.13697372662E+04  0.50400001928E-02 0. -1.
       -1    1    3    3    0  502  0.43566839809E+02 -0.27737530528E+03 -0.33508323577E+03  0.43716805056E+03  0.50400001928E-02 0.  1.
</event>
<event>
 5   0  0.1552067E-03  0.1564447E+04  0.7818609E-02  0.8842692E-01
       -2   -1    0    0    0  501  0.00000000000E+00  0.00000000000E+00  0.28832789515E+03  0.28832789516E+03  0.25500000920E-02 0. -1.
        2   -1    0    0  501    0  0.00000000000E+00  0.00000000000E+00 -0.21221439383E+04  0.21221439383E+04  0.25500000920E-02 0.  1.
    10030    2    1    2    0    0  0.00000000000E+00  0.00000000000E+00 -0.18338160432E+04  0.24104718335E+04  0.15644466050E+04 0.  0.
        3    1    3    3  502    0  0.53002556066E+03 -0.45437845863E+03 -0.37327944172E+03  0.79165928936E+03  0.10100000352E+00 0. -1.
       -3    1    3    3    0  502 -0.53002556066E+03  0.45437845863E+03 -0.14605366014E+04  0.16188125441E+04  0.10100000352E+00 0.  1.
</event>
<event>
 5   0  0.1526126E-03  0.1504466E+04  0.7818609E-02  0.8881489E-01
       -2   -1    0    0    0  501  0.00000000000E+00  0.00000000000E+00  0.34393013827E+03  0.34393013828E+03  0.25500000920E-02 0. -1.
        2   -1    0    0  501    0  0.00000000000E+00  0.00000000000E+00 -0.16452596763E+04  0.16452596763E+04  0.25500000920E-02 0.  1.
    10030    2    1    2    0    0  0.00000000000E+00  0.00000000000E+00 -0.13013295380E+04  0.19891898146E+04  0.15044658693E+04 0.  0.
        2    1    3    3  502    0  0.24918584706E+03  0.34515163969E+03  0.16933949792E+03  0.45814747224E+03  0.25500000920E-02 0. -1.
       -2    1    3    3    0  502 -0.24918584706E+03 -0.34515163969E+03 -0.14706690360E+04  0.15310423424E+04  0.25500000920E-02 0.  1.
</event>
<event>
 5   0  0.8191876E-04  0.1499358E+04  0.7818609E-02  0.8884880E-01
       -1   -1    0    0    0  501  0.00000000000E+00  0.00000000000E+00  0.51709177078E+03  0.51709177080E+03  0.50400001928E-02 0.  1.
        1   -1    0    0  501    0  0.00000000000E+00  0.00000000000E+00 -0.10868836320E+04  0.10868836320E+04  0.50400001928E-02 0. -1.
    10030    2    1    2    0    0  0.00000000000E+00  0.00000000000E+00 -0.56979186119E+03  0.16039754028E+04  0.14993579718E+04 0.  0.
        2    1    3    3  502    0 -0.57154471018E+03  0.15548672803E+03 -0.77650268585E+03  0.97662474855E+03  0.25500000920E-02 0. -1.
       -2    1    3    3    0  502  0.57154471018E+03 -0.15548672803E+03  0.20671082466E+03  0.62735065423E+03  0.25500000920E-02 0.  1.
</event>
<event>
 5   0  0.1484056E-03  0.1500381E+04  0.7818609E-02  0.8884200E-01
       -2   -1    0    0    0  501  0.00000000000E+00  0.00000000000E+00  0.46591423353E+03  0.46591423354E+03  0.25500000920E-02 0.  1.
        2   -1    0    0  501    0  0.00000000000E+00  0.00000000000E+00 -0.12079168204E+04  0.12079168204E+04  0.25500000920E-02 0. -1.
    10030    2    1    2    0    0  0.00000000000E+00  0.00000000000E+00 -0.74200258688E+03  0.16738310539E+04  0.15003808044E+04 0.  0.
        5    1    3    3  502    0 -0.30938661219E+03 -0.30638190220E+03 -0.10525008537E+04  0.11390215463E+04  0.46999998093E+01 0. -1.
       -5    1    3    3    0  502  0.30938661219E+03  0.30638190220E+03  0.31049826683E+03  0.53480950768E+03  0.46999998093E+01 0.  1.
</event>
<event>
 5   0  0.5603875E-04  0.1503882E+04  0.7818609E-02  0.8881876E-01
       -3   -1    0    0    0  501  0.00000000000E+00  0.00000000000E+00  0.29970319219E+03  0.29970320921E+03  0.10100000352E+00 0. -1.
        3   -1    0    0  501    0  0.00000000000E+00  0.00000000000E+00 -0.18865833108E+04  0.18865833135E+04  0.10100000352E+00 0.  1.
    10030    2    1    2    0    0  0.00000000000E+00  0.00000000000E+00 -0.15868801186E+04  0.21862865227E+04  0.15038817269E+04 0.  0.
        3    1    3    3  502    0  0.32808412798E+03 -0.33277163571E+03  0.62971403051E+02  0.47153108526E+03  0.10100000352E+00 0. -1.
       -3    1    3    3    0  502 -0.32808412798E+03  0.33277163571E+03 -0.16498515217E+04  0.17147554375E+04  0.10100000352E+00 0.  1.
</event>
<event>
 5   0  0.1484056E-03  0.1563019E+04  0.7818609E-02  0.8843594E-01
        2   -1    0    0  501    0  0.00000000000E+00  0.00000000000E+00  0.11071688926E+04  0.11071688926E+04  0.25500000920E-02 0. -1.
       -2   -1    0    0    0  501  0.00000000000E+00  0.00000000000E+00 -0.55163882712E+03  0.55163882712E+03  0.25500000920E-02 0.  1.
    10030    2    1    2    0    0  0.00000000000E+00  0.00000000000E+00  0.55553006552E+03  0.16588077198E+04  0.15630193209E+04 0.  0.
        5    1    3    3  502    0  0.19608249281E+03 -0.47186276428E+03 -0.34976940830E+03  0.61924433084E+03  0.46999998093E+01 0.  1.
       -5    1    3    3    0  502 -0.19608249281E+03  0.47186276428E+03  0.90529947382E+03  0.10395633889E+04  0.46999998093E+01 0. -1.
</event>
<event>
 5   0  0.1511546E-03  0.1074465E+04  0.7818609E-02  0.9230444E-01
        2   -1    0    0  501    0  0.00000000000E+00  0.00000000000E+00  0.58701672432E+03  0.58701672432E+03  0.25500000920E-02 0.  1.
       -2   -1    0    0    0  501  0.00000000000E+00  0.00000000000E+00 -0.49167052627E+03  0.49167052628E+03  0.25500000920E-02 0. -1.
    10030    2    1    2    0    0  0.00000000000E+00  0.00000000000E+00  0.95346198047E+02  0.10786872506E+04  0.10744651168E+04 0.  0.
        1    1    3    3  502    0 -0.50305181435E+03  0.17581096415E+03  0.11611870432E+03  0.54539359783E+03  0.50400001928E-02 0.  1.
       -1    1    3    3    0  502  0.50305181435E+03 -0.17581096415E+03 -0.20772506278E+02  0.53329365277E+03  0.50400001928E-02 0. -1.
</event>
<event>
 5   0  0.1500956E-03  0.1509199E+04  0.7818609E-02  0.8878359E-01
       -2   -1    0    0    0  501  0.00000000000E+00  0.00000000000E+00  0.15691123838E+04  0.15691123838E+04  0.25500000920E-02 0. -1.
        2   -1    0    0  501    0  0.00000000000E+00  0.00000000000E+00 -0.36289331417E+03  0.36289331418E+03  0.25500000920E-02 0.  1.
    10030    2    1    2    0    0  0.00000000000E+00  0.00000000000E+00  0.12062190697E+04  0.19320056980E+04  0.15091989840E+04 0.  0.
        4    1    3    3  502    0 -0.55695281078E+03  0.36899084923E+02  0.12531712141E+04  0.13718592059E+04  0.12699999809E+01 0. -1.
       -4    1    3    3    0  502  0.55695281078E+03 -0.36899084923E+02 -0.46952144464E+02  0.56014649215E+03  0.12699999809E+01 0.  1.
</event>
<event>
 5   0  0.8191876E-04  0.1496283E+04  0.7818609E-02  0.8886928E-01
       -1   -1    0    0    0  501  0.00000000000E+00  0.00000000000E+00  0.97123784125E+03  0.97123784127E+03  0.50400001928E-02 0.  1.
        1   -1    0    0  501    0  0.00000000000E+00  0.00000000000E+00 -0.57629107178E+03  0.57629107181E+03  0.50400001928E-02 0. -1.
    10030    2    1    2    0    0  0.00000000000E+00  0.00000000000E+00  0.39494676947E+03  0.15475289131E+04  0.14962829900E+04 0.  0.
        2    1    3    3  502    0 -0.69825975681E+03 -0.29281652965E+02 -0.78676072250E+02  0.70328801180E+03  0.25500000920E-02 0.  1.
       -2    1    3    3    0  502  0.69825975681E+03  0.29281652965E+02  0.47362284172E+03  0.84424090128E+03  0.25500000920E-02 0. -1.
</event>
<event>
 5   0  0.8191876E-04  0.1507730E+04  0.7818609E-02  0.8879329E-01
       -1   -1    0    0    0  501  0.00000000000E+00  0.00000000000E+00  0.44298029659E+03  0.44298029661E+03  0.50400001928E-02 0. -1.
        1   -1    0    0  501    0  0.00000000000E+00  0.00000000000E+00 -0.12829295946E+04  0.12829295946E+04  0.50400001928E-02 0.  1.
    10030    2    1    2    0    0  0.00000000000E+00  0.00000000000E+00 -0.83994929805E+03  0.17259098913E+04  0.15077301249E+04 0.  0.
        2    1    3    3  502    0  0.18229607280E+03  0.54437173233E+03 -0.97929057191E+03  0.11351574628E+04  0.25500000920E-02 0. -1.
       -2    1    3    3    0  502 -0.18229607280E+03 -0.54437173233E+03  0.13934127386E+03  0.59075242846E+03  0.25500000920E-02 0.  1.
</event>
<event>
 5   0  0.1484056E-03  0.1350917E+04  0.7818609E-02  0.8990134E-01
        2   -1    0    0  501    0  0.00000000000E+00  0.00000000000E+00  0.33916793199E+03  0.33916793200E+03  0.25500000920E-02 0.  1.
       -2   -1    0    0    0  501  0.00000000000E+00  0.00000000000E+00 -0.13451870290E+04  0.13451870290E+04  0.25500000920E-02 0. -1.
    10030    2    1    2    0    0  0.00000000000E+00  0.00000000000E+00 -0.10060190970E+04  0.16843549610E+04  0.13509171740E+04 0.  0.
        5    1    3    3  502    0  0.16554339861E+03  0.65483306888E+03 -0.50719112270E+03  0.84467502026E+03  0.46999998093E+01 0. -1.
       -5    1    3    3    0  502 -0.16554339861E+03 -0.65483306888E+03 -0.49882797433E+03  0.83967994074E+03  0.46999998093E+01 0.  1.
</event>
<event>
 5   0  0.1552067E-03  0.1494894E+04  0.7818609E-02  0.8887855E-01
        2   -1    0    0  501    0  0.00000000000E+00  0.00000000000E+00  0.12997930549E+04  0.12997930549E+04  0.25500000920E-02 0. -1.
       -2   -1    0    0    0  501  0.00000000000E+00  0.00000000000E+00 -0.42982018721E+03  0.42982018722E+03  0.25500000920E-02 0.  1.
    10030    2    1    2    0    0  0.00000000000E+00  0.00000000000E+00  0.86997286771E+03  0.17296132421E+04  0.14948943698E+04 0.  0.
        3    1    3    3  502    0  0.64484691121E+03  0.32608063993E+03  0.21387521163E+03  0.75359056456E+03  0.10100000352E+00 0.  1.
       -3    1    3    3    0  502 -0.64484691121E+03 -0.32608063993E+03  0.65609765608E+03  0.97602267758E+03  0.10100000352E+00 0. -1.
</event>
<event>
 5   0  0.8191876E-04  0.1487951E+04  0.7818609E-02  0.8892505E-01
       -1   -1    0    0    0  501  0.00000000000E+00  0.00000000000E+00  0.25225388534E+03  0.25225388539E+03  0.50400001928E-02 0.  1.
        1   -1    0    0  501    0  0.00000000000E+00  0.00000000000E+00 -0.21942146709E+04  0.21942146709E+04  0.50400001928E-02 0. -1.
    10030    2    1    2    0    0  0.00000000000E+00  0.00000000000E+00 -0.19419607856E+04  0.24464685563E+04  0.14879505047E+04 0.  0.
        2    1    3    3  502    0  0.11406228532E+03 -0.89011636991E+02 -0.21708604378E+04  0.21756765194E+04  0.25500000920E-02 0. -1.
       -2    1    3    3    0  502 -0.11406228532E+03  0.89011636991E+02  0.22889965226E+03  0.27079203693E+03  0.25500000920E-02 0.  1.
</event>
<event>
 5   0  0.1500956E-03  0.1511531E+04  0.7818609E-02  0.8876821E-01
       -2   -1    0    0    0  501  0.00000000000E+00  0.00000000000E+00  0.25134471625E+03  0.25134471626E+03  0.25500000920E-02 0.  1.
        2   -1    0    0  501    0  0.00000000000E+00  0.00000000000E+00 -0.22725016964E+04  0.22725016964E+04  0.25500000920E-02 0. -1.
    10030    2    1    2    0    0  0.00000000000E+00  0.00000000000E+00 -0.20211569802E+04  0.25238464127E+04  0.15115307395E+04 0.  0.
        4    1    3    3  502    0  0.30424004956E+03 -0.50562055781E+03 -0.17990114976E+04  0.18933193438E+04  0.12699999809E+01 0. -1.
       -4    1    3    3    0  502 -0.30424004956E+03  0.50562055781E+03 -0.22214548255E+03  0.63052706886E+03  0.12699999809E+01 0.  1.
</event>
<event>
 5   0  0.8306301E-04  0.1370913E+04  0.7818609E-02  0.8975147E-01
       -1   -1    0    0    0  501  0.00000000000E+00  0.00000000000E+00  0.62680059896E+03  0.62680059898E+03  0.50400001928E-02 0. -1.
        1   -1    0    0  501    0  0.00000000000E+00  0.00000000000E+00 -0.74960102554E+03  0.74960102556E+03  0.50400001928E-02 0.  1.
    10030    2    1    2    0    0  0.00000000000E+00  0.00000000000E+00 -0.12280042659E+03  0.13764016245E+04  0.13709126476E+04 0.  0.
        4    1    3    3  502    0  0.45907055422E+03 -0.47954644932E+03 -0.23278278869E+03  0.70349130088E+03  0.12699999809E+01 0.  1.
       -4    1    3    3    0  502 -0.45907055422E+03  0.47954644932E+03  0.10998236210E+03  0.67291032366E+03  0.12699999809E+01 0. -1.
</event>
<event>
 5   0  0.8365016E-04  0.1564155E+04  0.7818609E-02  0.8842877E-01
       -1   -1    0    0    0  501  0.00000000000E+00  0.00000000000E+00  0.42275727739E+03  0.42275727742E+03  0.50400001928E-02 0. -1.
        1   -1    0    0  501    0  0.00000000000E+00  0.00000000000E+00 -0.14467992497E+04  0.14467992498E+04  0.50400001928E-02 0.  1.
    10030    2    1    2    0    0  0.00000000000E+00  0.00000000000E+00 -0.10240419724E+04  0.18695565272E+04  0.15641546110E+04 0.  0.
        3    1    3    3  502    0 -0.32080201436E+03 -0.34596863985E+03 -0.12575322179E+04  0.13431290040E+04  0.10100000352E+00 0.  1.
       -3    1    3    3    0  502  0.32080201436E+03  0.34596863985E+03  0.23349024554E+03  0.52642752316E+03  0.10100000352E+00 0. -1.
</event>
<event>
 5   0  0.1511546E-03  0.1513637E+04  0.7818609E-02  0.8875435E-01
       -2   -1    0    0    0  501  0.00000000000E+00  0.00000000000E+00  0.38105990267E+03  0.38105990268E+03  0.25500000920E-02 0. -1.
        2   -1    0    0  501    0  0.00000000000E+00  0.00000000000E+00 -0.15031076264E+04  0.15031076264E+04  0.25500000920E-02 0.  1.
    10030    2    1    2    0    0  0.00000000000E+00  0.00000000000E+00 -0.11220477237E+04  0.18841675291E+04  0.15136367409E+04 0.  0.
        1    1    3    3  502    0 -0.42775718617E+03  0.28891570641E+03 -0.12499766550E+04  0.13523646453E+04  0.50400001928E-02 0.  1.
       -1    1    3    3    0  502  0.42775718617E+03 -0.28891570641E+03  0.12792893128E+03  0.53180288380E+03  0.50400001928E-02 0. -1.
</event>
<event>
 5   0  0.8191876E-04  0.1471839E+04  0.7818609E-02  0.8903399E-01
        1   -1    0    0  501    0  0.00000000000E+00  0.00000000000E+00  0.85629808986E+03  0.85629808988E+03  0.50400001928E-02 0. -1.
       -1   -1    0    0    0  501  0.00000000000E+00  0.00000000000E+00 -0.63246340999E+03  0.63246341001E+03  0.50400001928E-02 0.  1.
    10030    2    1    2    0    0  0.00000000000E+00  0.00000000000E+00  0.22383467987E+03  0.14887614999E+04  0.14718385916E+04 0.  0.
        2    1    3    3  502    0  0.30083582357E+02 -0.13223235803E+03  0.84355041223E+03  0.85438148178E+03  0.25500000920E-02 0. -1.
       -2    1    3    3    0  502 -0.30083582357E+02  0.13223235803E+03 -0.61971573236E+03  0.63438001811E+03  0.25500000920E-02 0.  1.
</event>
<event>
 5   0  0.1511546E-03  0.1483768E+04  0.7818609E-02  0.8895319E-01
        2   -1    0    0  501    0  0.00000000000E+00  0.00000000000E+00  0.66761554454E+03  0.66761554454E+03  0.25500000920E-02 0. -1.
       -2   -1    0    0    0  501  0.00000000000E+00  0.00000000000E+00 -0.82441456887E+03  0.82441456888E+03  0.25500000920E-02 0.  1.
    10030    2    1    2    0    0  0.00000000000E+00  0.00000000000E+00 -0.15679902433E+03  0.14920301134E+04  0.14837681508E+04 0.  0.
        1    1    3    3  502    0 -0.18303157780E+03 -0.71530085282E+03 -0.56356001101E+01  0.73836822015E+03  0.50400001928E-02 0. -1.
       -1    1    3    3    0  502  0.18303157780E+03  0.71530085282E+03 -0.15116342422E+03  0.75366189327E+03  0.50400001928E-02 0.  1.
</event>
<event>
 5   0  0.1552067E-03  0.1504177E+04  0.7818609E-02  0.8881680E-01
       -2   -1    0    0    0  501  0.00000000000E+00  0.00000000000E+00  0.32742710416E+03  0.32742710417E+03  0.25500000920E-02 0. -1.
        2   -1    0    0  501    0  0.00000000000E+00  0.00000000000E+00 -0.17275199220E+04  0.17275199220E+04  0.25500000920E-02 0.  1.
    10030    2    1    2    0    0  0.00000000000E+00  0.00000000000E+00 -0.14000928178E+04  0.20549470262E+04  0.15041766458E+04 0.  0.
        3    1    3    3  502    0 -0.27425689440E+03  0.13250531089E+03  0.23939381201E+03  0.38740664549E+03  0.10100000352E+00 0. -1.
       -3    1    3    3    0  502  0.27425689440E+03 -0.13250531089E+03 -0.16394866298E+04  0.16675403807E+04  0.10100000352E+00 0.  1.
</event>
<event>
 5   0  0.7870317E-04  0.1661802E+04  0.7818609E-02  0.8783455E-01
       -1   -1    0    0    0  501  0.00000000000E+00  0.00000000000E+00  0.86952268323E+03  0.86952268324E+03  0.50400001928E-02 0.  1.
        1   -1    0    0  501    0  0.00000000000E+00  0.00000000000E+00 -0.79399504554E+03  0.79399504556E+03  0.50400001928E-02 0. -1.
    10030    2    1    2    0    0  0.00000000000E+00  0.00000000000E+00  0.75527637689E+02  0.16635177288E+04  0.16618022776E+04 0.  0.
        1    1    3    3  502    0  0.52055302578E+03 -0.15296233296E+03  0.66771763793E+03  0.86036025709E+03  0.50400001928E-02 0.  1.
       -1    1    3    3    0  502 -0.52055302578E+03  0.15296233296E+03 -0.59219000024E+03  0.80315747171E+03  0.50400001928E-02 0. -1.
</event>
<event>
 5   0  0.7870317E-04  0.1392399E+04  0.7818609E-02  0.8959339E-01
       -1   -1    0    0    0  501  0.00000000000E+00  0.00000000000E+00  0.28286118395E+03  0.28286118399E+03  0.50400001928E-02 0.  1.
        1   -1    0    0  501    0  0.00000000000E+00  0.00000000000E+00 -0.17135383252E+04  0.17135383252E+04  0.50400001928E-02 0. -1.
    10030    2    1    2    0    0  0.00000000000E+00  0.00000000000E+00 -0.14306771412E+04  0.19963995092E+04  0.13923986203E+04 0.  0.
        1    1    3    3  502    0 -0.25563090624E+03 -0.54932050358E+03 -0.22366692252E+03  0.64585375135E+03  0.50400001928E-02 0.  1.
       -1    1    3    3    0  502  0.25563090624E+03  0.54932050358E+03 -0.12070102187E+04  0.13505457578E+04  0.50400001928E-02 0. -1.
</event>
<event>
 5   0  0.1511546E-03  0.1459719E+04  0.7818609E-02  0.8911690E-01
        2   -1    0    0  501    0  0.00000000000E+00  0.00000000000E+00  0.33178287721E+03  0.33178287722E+03  0.25500000920E-02 0. -1.
       -2   -1    0    0    0  501  0.00000000000E+00  0.00000000000E+00 -0.16055531781E+04  0.16055531781E+04  0.25500000920E-02 0.  1.
    10030    2    1    2    0    0  0.00000000000E+00  0.00000000000E+00 -0.12737703009E+04  0.19373360554E+04  0.14597192236E+04 0.  0.
        1    1    3    3  502    0  0.56708378004E+03  0.16743831286E+03 -0.12047574567E+04  0.13420358161E+04  0.50400001928E-02 0.  1.
       -1    1    3    3    0  502 -0.56708378004E+03 -0.16743831286E+03 -0.69012844270E+02  0.59530023929E+03  0.50400001928E-02 0. -1.
</event>
<event>
 5   0  0.8191876E-04  0.1516291E+04  0.7818609E-02  0.8873691E-01
       -1   -1    0    0    0  501  0.00000000000E+00  0.00000000000E+00  0.61683381393E+03  0.61683381395E+03  0.50400001928E-02 0.  1.
        1   -1    0    0  501    0  0.00000000000E+00  0.00000000000E+00 -0.93183065939E+03  0.93183065940E+03  0.50400001928E-02 0. -1.
    10030    2    1    2    0    0  0.00000000000E+00  0.00000000000E+00 -0.31499684546E+03  0.15486644733E+04  0.15162910797E+04 0.  0.
        2    1    3    3  502    0  0.12450996437E+02  0.29014030111E+03  0.55777377558E+03  0.62884656822E+03  0.25500000920E-02 0.  1.
       -2    1    3    3    0  502 -0.12450996437E+02 -0.29014030111E+03 -0.87277062104E+03  0.91981790513E+03  0.25500000920E-02 0. -1.
</event>
<event>
 5   0  0.7870317E-04  0.1421199E+04  0.7818609E-02  0.8938615E-01
       -1   -1    0    0    0  501  0.00000000000E+00  0.00000000000E+00  0.70052435091E+03  0.70052435093E+03  0.50400001928E-02 0. -1.
        1   -1    0    0  501    0  0.00000000000E+00  0.00000000000E+00 -0.72081977333E+03  0.72081977334E+03  0.50400001928E-02 0.  1.
    10030    2    1    2    0    0  0.00000000000E+00  0.00000000000E+00 -0.20295422418E+02  0.14213441243E+04  0.14211992174E+04 0.  0.
        1    1    3    3  502    0  0.32740016478E+03 -0.62808214715E+03 -0.67370259186E+02  0.71148914490E+03  0.50400001928E-02 0. -1.
       -1    1    3    3    0  502 -0.32740016478E+03  0.62808214715E+03  0.47074836767E+02  0.70985497937E+03  0.50400001928E-02 0.  1.
</event>
<event>
 5   0  0.1552067E-03  0.1503887E+04  0.7818609E-02  0.8881872E-01
        2   -1    0    0  501    0  0.00000000000E+00  0.00000000000E+00  0.67969612780E+03  0.67969612780E+03  0.25500000920E-02 0.  1.
       -2   -1    0    0    0  501  0.00000000000E+00  0.00000000000E+00 -0.83187029127E+03  0.83187029127E+03  0.25500000920E-02 0. -1.
    10030    2    1    2    0    0  0.00000000000E+00  0.00000000000E+00 -0.15217416347E+03  0.15115664191E+04  0.15038869849E+04 0.  0.
        3    1    3    3  502    0  0.14909267372E+03  0.54128519157E+03  0.42666781964E+03  0.70516928640E+03  0.10100000352E+00 0.  1.
       -3    1    3    3    0  502 -0.14909267372E+03 -0.54128519157E+03 -0.57884198311E+03  0.80639713267E+03  0.10100000352E+00 0. -1.
</event>
<event>
 5   0  0.8306301E-04  0.1489021E+04  0.7818609E-02  0.8891787E-01
       -1   -1    0    0    0  501  0.00000000000E+00  0.00000000000E+00  0.28472309418E+03  0.28472309423E+03  0.50400001928E-02 0.  1.
        1   -1    0    0  501    0  0.00000000000E+00  0.00000000000E+00 -0.19467898306E+04  0.19467898306E+04  0.50400001928E-02 0. -1.
    10030    2    1    2    0    0  0.00000000000E+00  0.00000000000E+00 -0.16620667364E+04  0.22315129248E+04  0.14890211877E+04 0.  0.
        4    1    3    3  502    0  0.63285552495E+03  0.19078002670E+03 -0.31756174992E+03  0.73331453822E+03  0.12699999809E+01 0.  1.
       -4    1    3    3    0  502 -0.63285552495E+03 -0.19078002670E+03 -0.13445049865E+04  0.14981983866E+04  0.12699999809E+01 0. -1.
</event>
<event>
 5   0  0.7870317E-04  0.1544661E+04  0.7818609E-02  0.8855285E-01
       -1   -1    0    0    0  501  0.00000000000E+00  0.00000000000E+00  0.87419133956E+03  0.87419133958E+03  0.50400001928E-02 0. -1.
        1   -1    0    0  501    0  0.00000000000E+00  0.00000000000E+00 -0.68233871217E+03  0.68233871219E+03  0.50400001928E-02 0.  1.
    10030    2    1    2    0    0  0.00000000000E+00  0.00000000000E+00  0.19185262739E+03  0.15565300518E+04  0.15446612481E+04 0.  0.
        1    1    3    3  502    0 -0.45558241288E+03 -0.44033631143E+03  0.54095668972E+03  0.83311796420E+03  0.50400001928E-02 0. -1.
       -1    1    3    3    0  502  0.45558241288E+03  0.44033631143E+03 -0.34910406233E+03  0.72341208757E+03  0.50400001928E-02 0.  1.
</event>
<event>
 5   0  0.7870317E-04  0.1596718E+04  0.7818609E-02  0.8822567E-01
       -1   -1    0    0    0  501  0.00000000000E+00  0.00000000000E+00  0.57150189226E+03  0.57150189229E+03  0.50400001928E-02 0. -1.
        1   -1    0    0  501    0  0.00000000000E+00  0.00000000000E+00 -0.11152670076E+04  0.11152670076E+04  0.50400001928E-02 0.  1.
    10030    2    1    2    0    0  0.00000000000E+00  0.00000000000E+00 -0.54376511533E+03  0.16867688999E+04  0.15967181407E+04 0.  0.
        1    1    3    3  502    0 -0.11853176228E+03 -0.10246607100E+03 -0.10988657288E+04  0.11099797135E+04  0.50400001928E-02 0.  1.
       -1    1    3    3    0  502  0.11853176228E+03  0.10246607100E+03  0.55510061351E+03  0.57678918637E+03  0.50400001928E-02 0. -1.
</event>
<event>
 5   0  0.1526126E-03  0.1505178E+04  0.7818609E-02  0.8881017E-01
       -2   -1    0    0    0  501  0.00000000000E+00  0.00000000000E+00  0.47589450916E+03  0.47589450917E+03  0.25500000920E-02 0.  1.
        2   -1    0    0  501    0  0.00000000000E+00  0.00000000000E+00 -0.11901594750E+04  0.11901594750E+04  0.25500000920E-02 0. -1.
    10030    2    1    2    0    0  0.00000000000E+00  0.00000000000E+00 -0.71426496584E+03  0.16660539842E+04  0.15051782076E+04 0.  0.
        2    1    3    3  502    0 -0.17337796799E+02 -0.28168596367E+03 -0.11293700159E+04  0.11640980260E+04  0.25500000920E-02 0. -1.
       -2    1    3    3    0  502  0.17337796799E+02  0.28168596367E+03  0.41510505008E+03  0.50195595816E+03  0.25500000920E-02 0.  1.
</event>
<event>
 5   0  0.1500956E-03  0.1526368E+04  0.7818609E-02  0.8867106E-01
       -2   -1    0    0    0  501  0.00000000000E+00  0.00000000000E+00  0.48698311839E+03  0.48698311840E+03  0.25500000920E-02 0.  1.
        2   -1    0    0  501    0  0.00000000000E+00  0.00000000000E+00 -0.11960362633E+04  0.11960362633E+04  0.25500000920E-02 0. -1.
    10030    2    1    2    0    0  0.00000000000E+00  0.00000000000E+00 -0.70905314492E+03  0.16830193817E+04  0.15263675432E+04 0.  0.
        4    1    3    3  502    0  0.33974473489E+03 -0.29173924589E+02  0.39831271259E+03  0.52433980649E+03  0.12699999809E+01 0.  1.
       -4    1    3    3    0  502 -0.33974473489E+03  0.29173924589E+02 -0.11073658575E+04  0.11586795752E+04  0.12699999809E+01 0. -1.
</event>
<event>
 5   0  0.1552067E-03  0.1509610E+04  0.7818609E-02  0.8878087E-01
       -2   -1    0    0    0  501  0.00000000000E+00  0.00000000000E+00  0.28025520821E+03  0.28025520822E+03  0.25500000920E-02 0.  1.
        2   -1    0    0  501    0  0.00000000000E+00  0.00000000000E+00 -0.20328989999E+04  0.20328989999E+04  0.25500000920E-02 0. -1.
    10030    2    1    2    0    0  0.00000000000E+00  0.00000000000E+00 -0.17526437917E+04  0.23131542081E+04  0.15096099264E+04 0.  0.
        3    1    3    3  502    0 -0.19329404515E+03  0.29142579690E+03  0.14863766716E+03  0.37997993274E+03  0.10100000352E+00 0.  1.
       -3    1    3    3    0  502  0.19329404515E+03 -0.29142579690E+03 -0.19012814588E+04  0.19331742753E+04  0.10100000352E+00 0. -1.
</event>
<event>
 5   0  0.8365016E-04  0.1485425E+04  0.7818609E-02  0.8894203E-01
       -1   -1    0    0    0  501  0.00000000000E+00  0.00000000000E+00  0.26298412033E+03  0.26298412038E+03  0.50400001928E-02 0.  1.
        1   -1    0    0  501    0  0.00000000000E+00  0.00000000000E+00 -0.20975487421E+04  0.20975487421E+04  0.50400001928E-02 0. -1.
    10030    2    1    2    0    0  0.00000000000E+00  0.00000000000E+00 -0.18345646218E+04  0.23605328625E+04  0.14854252063E+04 0.  0.
        3    1    3    3  502    0  0.16726303904E+03  0.69867096155E+03 -0.12167139471E+04  0.14129794323E+04  0.10100000352E+00 0. -1.
       -3    1    3    3    0  502 -0.16726303904E+03 -0.69867096155E+03 -0.61785067467E+03  0.94755343023E+03  0.10100000352E+00 0.  1.
</event>
<event>
 5   0  0.1484056E-03  0.1491286E+04  0.7818609E-02  0.8890268E-01
       -2   -1    0    0    0  501  0.00000000000E+00  0.00000000000E+00  0.39422643755E+03  0.39422643756E+03  0.25500000920E-02 0.  1.
        2   -1    0    0  501    0  0.00000000000E+00  0.00000000000E+00 -0.14103151177E+04  0.14103151177E+04  0.25500000920E-02 0. -1.
    10030    2    1    2    0    0  0.00000000000E+00  0.00000000000E+00 -0.10160886801E+04  0.18045415552E+04  0.14912860285E+04 0.  0.
        5    1    3    3  502    0  0.36433557768E+03 -0.44197214818E+02  0.27734494445E+03  0.46003925395E+03  0.46999998093E+01 0.  1.
       -5    1    3    3    0  502 -0.36433557768E+03  0.44197214818E+02 -0.12934336246E+04  0.13445023013E+04  0.46999998093E+01 0. -1.
</event>
<event>
 5   0  0.1526126E-03  0.1492048E+04  0.7818609E-02  0.8889758E-01
        2   -1    0    0  501    0  0.00000000000E+00  0.00000000000E+00  0.13135537886E+04  0.13135537886E+04  0.25500000920E-02 0. -1.
       -2   -1    0    0    0  501  0.00000000000E+00  0.00000000000E+00 -0.42369939453E+03  0.42369939454E+03  0.25500000920E-02 0.  1.
    10030    2    1    2    0    0  0.00000000000E+00  0.00000000000E+00  0.88985439407E+03  0.17372531831E+04  0.14920481828E+04 0.  0.
        2    1    3    3  502    0  0.74155526612E+03 -0.49223140000E+02  0.52060771583E+03  0.90739160455E+03  0.25500000920E-02 0.  1.
       -2    1    3    3    0  502 -0.74155526612E+03  0.49223140000E+02  0.36924667824E+03  0.82986157859E+03  0.25500000920E-02 0. -1.
</event>
<event>
 5   0  0.8365016E-04  0.1493734E+04  0.7818609E-02  0.8888631E-01
       -1   -1    0    0    0  501  0.00000000000E+00  0.00000000000E+00  0.10896018152E+04  0.10896018152E+04  0.50400001928E-02 0. -1.
        1   -1    0    0  501    0  0.00000000000E+00  0.00000000000E+00 -0.51193946480E+03  0.51193946482E+03  0.50400001928E-02 0.  1.
    10030    2    1    2    0    0  0.00000000000E+00  0.00000000000E+00  0.57766235037E+03  0.16015412800E+04  0.14937338051E+04 0.  0.
        3    1    3    3  502    0  0.14143159652E+03 -0.30420694604E+03 -0.42661077346E+03  0.54271679976E+03  0.10100000352E+00 0.  1.
       -3    1    3    3    0  502 -0.14143159652E+03  0.30420694604E+03  0.10042731238E+04  0.10588244802E+04  0.10100000352E+00 0. -1.
</event>
<event>
 5   0  0.1484056E-03  0.1537499E+04  0.7818609E-02  0.8859892E-01
        2   -1    0    0  501    0  0.00000000000E+00  0.00000000000E+00  0.14301660426E+04  0.14301660426E+04  0.25500000920E-02 0.  1.
       -2   -1    0    0    0  501  0.00000000000E+00  0.00000000000E+00 -0.41322178098E+03  0.41322178099E+03  0.25500000920E-02 0. -1.
    10030    2    1    2    0    0  0.00000000000E+00  0.00000000000E+00  0.10169442616E+04  0.18433878236E+04  0.15374989551E+04 0.  0.
        5    1    3    3  502    0 -0.64410526934E+03  0.39800861180E+03  0.66785260141E+03  0.10096195522E+04  0.46999998093E+01 0.  1.
       -5    1    3    3    0  502  0.64410526934E+03 -0.39800861180E+03  0.34909166018E+03  0.83376827133E+03  0.46999998093E+01 0. -1.
</event>
<event>
 5   0  0.5603875E-04  0.1487469E+04  0.7818609E-02  0.8892829E-01
        3   -1    0    0  501    0  0.00000000000E+00  0.00000000000E+00  0.14138940747E+04  0.14138940783E+04  0.10100000352E+00 0.  1.
       -3   -1    0    0    0  501  0.00000000000E+00  0.00000000000E+00 -0.39121832467E+03  0.39121833771E+03  0.10100000352E+00 0. -1.
    10030    2    1    2    0    0  0.00000000000E+00  0.00000000000E+00  0.10226757500E+04  0.18051124160E+04  0.14874693761E+04 0.  0.
        4    1    3    3  502    0 -0.54935454757E+03  0.28462264670E+03  0.10481130881E+02  0.61879878552E+03  0.12699999809E+01 0. -1.
       -4    1    3    3    0  502  0.54935454757E+03 -0.28462264670E+03  0.10121946191E+04  0.11863136305E+04  0.12699999809E+01 0.  1.
</event>
<event>
 5   0  0.1484056E-03  0.1394169E+04  0.7818609E-02  0.8958050E-01
        2   -1    0    0  501    0  0.00000000000E+00  0.00000000000E+00  0.81512920613E+03  0.81512920614E+03  0.25500000920E-02 0.  1.
       -2   -1    0    0    0  501  0.00000000000E+00  0.00000000000E+00 -0.59613445695E+03  0.59613445695E+03  0.25500000920E-02 0. -1.
    10030    2    1    2    0    0  0.00000000000E+00  0.00000000000E+00  0.21899474919E+03  0.14112636631E+04  0.13941687224E+04 0.  0.
        5    1    3    3  502    0 -0.21572879566E+03 -0.45759801468E+02  0.77887082361E+03  0.80950276255E+03  0.46999998093E+01 0.  1.
       -5    1    3    3    0  502  0.21572879566E+03  0.45759801468E+02 -0.55987607442E+03  0.60176090054E+03  0.46999998093E+01 0. -1.
</event>
<event>
 5   0  0.1511546E-03  0.1545072E+04  0.7818609E-02  0.8855022E-01
        2   -1    0    0  501    0  0.00000000000E+00  0.00000000000E+00  0.62118344215E+03  0.62118344216E+03  0.25500000920E-02 0. -1.
       -2   -1    0    0    0  501  0.00000000000E+00  0.00000000000E+00 -0.96076541589E+03  0.96076541589E+03  0.25500000920E-02 0.  1.
    10030    2    1    2    0    0  0.00000000000E+00  0.00000000000E+00 -0.33958197374E+03  0.15819488581E+04  0.15450716076E+04 0.  0.
        1    1    3    3  502    0  0.43917674387E+02  0.73854852491E+03  0.57841489335E+02  0.74211072198E+03  0.50400001928E-02 0. -1.
       -1    1    3    3    0  502 -0.43917674387E+02 -0.73854852491E+03 -0.39742346308E+03  0.83983813607E+03  0.50400001928E-02 0.  1.
</event>
<event>
 5   0  0.1500956E-03  0.1504921E+04  0.7818609E-02  0.8881187E-01
        2   -1    0    0  501    0  0.00000000000E+00  0.00000000000E+00  0.99145939267E+03  0.99145939267E+03  0.25500000920E-02 0. -1.
       -2   -1    0    0    0  501  0.00000000000E+00  0.00000000000E+00 -0.57107427702E+03  0.57107427703E+03  0.25500000920E-02 0.  1.
    10030    2    1    2    0    0  0.00000000000E+00  0.00000000000E+00  0.42038511564E+03  0.15625336697E+04  0.15049212018E+04 0.  0.
        4    1    3    3  502    0  0.16375969025E+03 -0.51815654134E+03 -0.33020532355E+03  0.63587782323E+03  0.12699999809E+01 0.  1.
       -4    1    3    3    0  502 -0.16375969025E+03  0.51815654134E+03  0.75059043919E+03  0.92665584646E+03  0.12699999809E+01 0. -1.
</event>
<event>
 5   0  0.8365016E-04  0.1487434E+04  0.7818609E-02  0.8892852E-01
       -1   -1    0    0    0  501  0.00000000000E+00  0.00000000000E+00  0.49049383369E+03  0.49049383372E+03  0.50400001928E-02 0. -1.
        1   -1    0    0  501    0  0.00000000000E+00  0.00000000000E+00 -0.11276699002E+04  0.11276699002E+04  0.50400001928E-02 0.  1.
    10030    2    1    2    0    0  0.00000000000E+00  0.00000000000E+00 -0.63717606651E+03  0.16181637339E+04  0.14874342103E+04 0.  0.
        3    1    3    3  502    0  0.32772436248E+03  0.48391406042E+03 -0.81894502084E+03  0.10061048817E+04  0.10100000352E+00 0.  1.
       -3    1    3    3    0  502 -0.32772436248E+03 -0.48391406042E+03  0.18176895432E+03  0.61205885223E+03  0.10100000352E+00 0. -1.
</event>
<event>
 5   0  0.8306301E-04  0.1500020E+04  0.7818609E-02  0.8884440E-01
        1   -1    0    0  501    0  0.00000000000E+00  0.00000000000E+00  0.15378287199E+04  0.15378287200E+04  0.50400001928E-02 0. -1.
       -1   -1    0    0    0  501  0.00000000000E+00  0.00000000000E+00 -0.36578525922E+03  0.36578525925E+03  0.50400001928E-02 0.  1.
    10030    2    1    2    0    0  0.00000000000E+00  0.00000000000E+00  0.11720434607E+04  0.19036139792E+04  0.15000201025E+04 0.  0.
        4    1    3    3  502    0  0.47261104951E+03 -0.32967246832E+02  0.13238956859E+04  0.14061114620E+04  0.12699999809E+01 0. -1.
       -4    1    3    3    0  502 -0.47261104951E+03  0.32967246832E+02 -0.15185222514E+03  0.49750251725E+03  0.12699999809E+01 0.  1.
</event>
<event>
 5   0  0.1511546E-03  0.1454934E+04  0.7818609E-02  0.8914987E-01
       -2   -1    0    0    0  501  0.00000000000E+00  0.00000000000E+00  0.74371506565E+03  0.74371506565E+03  0.25500000920E-02 0.  1.
        2   -1    0    0  501    0  0.00000000000E+00  0.00000000000E+00 -0.71157378242E+03  0.71157378242E+03  0.25500000920E-02 0. -1.
    10030    2    1    2    0    0  0.00000000000E+00  0.00000000000E+00  0.32141283229E+02  0.14552888481E+04  0.14549338711E+04 0.  0.
        1    1    3    3  502    0  0.51191569542E+03  0.29302053365E+03 -0.40981420581E+03  0.71823839752E+03  0.50400001928E-02 0. -1.
       -1    1    3    3    0  502 -0.51191569542E+03 -0.29302053365E+03  0.44195548904E+03  0.73705045056E+03  0.50400001928E-02 0.  1.
</event>
<event>
 5   0  0.7870317E-04  0.1473092E+04  0.7818609E-02  0.8902546E-01
       -1   -1    0    0    0  501  0.00000000000E+00  0.00000000000E+00  0.20148285232E+04  0.20148285232E+04  0.50400001928E-02 0.  1.
        1   -1    0    0  501    0  0.00000000000E+00  0.00000000000E+00 -0.26925371017E+03  0.26925371022E+03  0.50400001928E-02 0. -1.
    10030    2    1    2    0    0  0.00000000000E+00  0.00000000000E+00  0.17455748130E+04  0.22840822334E+04  0.14730920613E+04 0.  0.
        1    1    3    3  502    0 -0.34394734460E+03 -0.50023770547E+03  0.15194975734E+04  0.16362794423E+04  0.50400001928E-02 0.  1.
       -1    1    3    3    0  502  0.34394734460E+03  0.50023770547E+03  0.22607723963E+03  0.64780279108E+03  0.50400001928E-02 0. -1.
</event>
<event>
 5   0  0.1500956E-03  0.1537016E+04  0.7818609E-02  0.8860204E-01
        2   -1    0    0  501    0  0.00000000000E+00  0.00000000000E+00  0.11019276605E+04  0.11019276605E+04  0.25500000920E-02 0.  1.
       -2   -1    0    0    0  501  0.00000000000E+00  0.00000000000E+00 -0.53597399095E+03  0.53597399095E+03  0.25500000920E-02 0. -1.
    10030    2    1    2    0    0  0.00000000000E+00  0.00000000000E+00  0.56595366960E+03  0.16379016515E+04  0.15370160259E+04 0.  0.
        4    1    3    3  502    0 -0.22353489715E+03  0.44793056166E+03  0.90433872585E+03  0.10336536085E+04  0.12699999809E+01 0.  1.
       -4    1    3    3    0  502  0.22353489715E+03 -0.44793056166E+03 -0.33838505626E+03  0.60424804304E+03  0.12699999809E+01 0. -1.
</event>
<event>
 5   0  0.1484056E-03  0.1372667E+04  0.7818609E-02  0.8973845E-01
       -2   -1    0    0    0  501  0.00000000000E+00  0.00000000000E+00  0.39408961930E+03  0.39408961931E+03  0.25500000920E-02 0. -1.
        2   -1    0    0  501    0  0.00000000000E+00  0.00000000000E+00 -0.11952960702E+04  0.11952960702E+04  0.25500000920E-02 0.  1.
    10030    2    1    2    0    0  0.00000000000E+00  0.00000000000E+00 -0.80120645086E+03  0.15893856895E+04  0.13726671457E+04 0.  0.
        5    1    3    3  502    0 -0.52257925775E+03  0.28086394278E+03 -0.80012774567E+03  0.99609243264E+03  0.46999998093E+01 0.  1.
       -5    1    3    3    0  502  0.52257925775E+03 -0.28086394278E+03 -0.10787051933E+01  0.59329325682E+03  0.46999998093E+01 0. -1.
</event>
<event>
 5   0  0.1484056E-03  0.1533939E+04  0.7818609E-02  0.8862193E-01
       -2   -1    0    0    0  501  0.00000000000E+00  0.00000000000E+00  0.37304505706E+03  0.37304505707E+03  0.25500000920E-02 0.  1.
        2   -1    0    0  501    0  0.00000000000E+00  0.00000000000E+00 -0.15768654031E+04  0.15768654031E+04  0.25500000920E-02 0. -1.
    10030    2    1    2    0    0  0.00000000000E+00  0.00000000000E+00 -0.12038203461E+04  0.19499104602E+04  0.15339385181E+04 0.  0.
        5    1    3    3  502    0 -0.57716444503E+03 -0.49416191946E+03 -0.46916502503E+03  0.89300207724E+03  0.46999998093E+01 0. -1.
       -5    1    3    3    0  502  0.57716444503E+03  0.49416191946E+03 -0.73465532105E+03  0.10569083830E+04  0.46999998093E+01 0.  1.
</event>
<event>
 5   0  0.8306301E-04  0.1373268E+04  0.7818609E-02  0.8973399E-01
       -1   -1    0    0    0  501  0.00000000000E+00  0.00000000000E+00  0.41067138760E+03  0.41067138763E+03  0.50400001928E-02 0.  1.
        1   -1    0    0  501    0  0.00000000000E+00  0.00000000000E+00 -0.11480371843E+04  0.11480371843E+04  0.50400001928E-02 0. -1.
    10030    2    1    2    0    0  0.00000000000E+00  0.00000000000E+00 -0.73736579673E+03  0.15587085720E+04  0.13732676702E+04 0.  0.
        4    1    3    3  502    0  0.23587111746E+03 -0.60292255802E+03 -0.10907548122E+03  0.65654388164E+03  0.12699999809E+01 0.  1.
       -4    1    3    3    0  502 -0.23587111746E+03  0.60292255802E+03 -0.62829031550E+03  0.90216469033E+03  0.12699999809E+01 0. -1.
</event>
<event>
 5   0  0.8306301E-04  0.1498042E+04  0.7818609E-02  0.8885756E-01
       -1   -1    0    0    0  501  0.00000000000E+00  0.00000000000E+00  0.13445859033E+04  0.13445859033E+04  0.50400001928E-02 0.  1.
        1   -1    0    0  501    0  0.00000000000E+00  0.00000000000E+00 -0.41725307857E+03  0.41725307860E+03  0.50400001928E-02 0. -1.
    10030    2    1    2    0    0  0.00000000000E+00  0.00000000000E+00  0.92733282477E+03  0.17618389819E+04  0.14980421991E+04 0.  0.
        4    1    3    3  502    0  0.41758492714E+03  0.48890987979E+03  0.11793644439E+02  0.64307911246E+03  0.12699999809E+01 0. -1.
       -4    1    3    3    0  502 -0.41758492714E+03 -0.48890987979E+03  0.91553918033E+03  0.11187598695E+04  0.12699999809E+01 0.  1.
</event>
<event>
 5   0  0.7870317E-04  0.1505034E+04  0.7818609E-02  0.8881112E-01
        1   -1    0    0  501    0  0.00000000000E+00  0.00000000000E+00  0.12826838191E+04  0.12826838191E+04  0.50400001928E-02 0.  1.
       -1   -1    0    0    0  501  0.00000000000E+00  0.00000000000E+00 -0.44148202138E+03  0.44148202141E+03  0.50400001928E-02 0. -1.
    10030    2    1    2    0    0  0.00000000000E+00  0.00000000000E+00  0.84120179770E+03  0.17241658405E+04  0.15050340133E+04 0.  0.
        1    1    3    3  502    0  0.53717593375E+03 -0.44308911366E+03  0.93761816025E+02  0.70262167958E+03  0.50400001928E-02 0. -1.
       -1    1    3    3    0  502 -0.53717593375E+03  0.44308911366E+03  0.74743998167E+03  0.10215441609E+04  0.50400001928E-02 0.  1.
</event>
<event>
 5   0  0.1484056E-03  0.1450947E+04  0.7818609E-02  0.8917744E-01
       -2   -1    0    0    0  501  0.00000000000E+00  0.00000000000E+00  0.31795583350E+03  0.31795583352E+03  0.25500000920E-02 0.  1.
        2   -1    0    0  501    0  0.00000000000E+00  0.00000000000E+00 -0.16552981374E+04  0.16552981374E+04  0.25500000920E-02 0. -1.
    10030    2    1    2    0    0  0.00000000000E+00  0.00000000000E+00 -0.13373423039E+04  0.19732539709E+04  0.14509468619E+04 0.  0.
        5    1    3    3  502    0  0.44605116043E+03  0.53705671415E+03 -0.93689379176E+03  0.11684107236E+04  0.46999998093E+01 0. -1.
       -5    1    3    3    0  502 -0.44605116043E+03 -0.53705671415E+03 -0.40044851214E+03  0.80484324735E+03  0.46999998093E+01 0.  1.
</event>
<event>
 5   0  0.1511546E-03  0.1541842E+04  0.7818609E-02  0.8857095E-01
        2   -1    0    0  501    0  0.00000000000E+00  0.00000000000E+00  0.26565501417E+04  0.26565501417E+04  0.25500000920E-02 0.  1.
       -2   -1    0    0    0  501  0.00000000000E+00  0.00000000000E+00 -0.22371852532E+03  0.22371852533E+03  0.25500000920E-02 0. -1.
    10030    2    1    2    0    0  0.00000000000E+00  0.00000000000E+00  0.24328316164E+04  0.28802686671E+04  0.15418423787E+04 0.  0.
        1    1    3    3  502    0 -0.47376929574E+03 -0.57484855433E+03  0.15872700573E+04  0.17533780085E+04  0.50400001928E-02 0. -1.
       -1    1    3    3    0  502  0.47376929574E+03  0.57484855433E+03  0.84556155916E+03  0.11268906586E+04  0.50400001928E-02 0.  1.
</event>
<event>
 5   0  0.1511546E-03  0.1497245E+04  0.7818609E-02  0.8886287E-01
       -2   -1    0    0    0  501  0.00000000000E+00  0.00000000000E+00  0.78849535925E+03  0.78849535925E+03  0.25500000920E-02 0.  1.
        2   -1    0    0  501    0  0.00000000000E+00  0.00000000000E+00 -0.71076577429E+03  0.71076577429E+03  0.25500000920E-02 0. -1.
    10030    2    1    2    0    0  0.00000000000E+00  0.00000000000E+00  0.77729584962E+02  0.14992611335E+04  0.14972448224E+04 0.  0.
        1    1    3    3  502    0 -0.31927635930E+03  0.56691615321E+03  0.40963927383E+03  0.76885346658E+03  0.50400001928E-02 0.  1.
       -1    1    3    3    0  502  0.31927635930E+03 -0.56691615321E+03 -0.33190968887E+03  0.73040766697E+03  0.50400001928E-02 0. -1.
</event>
<event>
 5   0  0.1511546E-03  0.1544522E+04  0.7818609E-02  0.8855374E-01
       -2   -1    0    0    0  501  0.00000000000E+00  0.00000000000E+00  0.36810608285E+03  0.36810608286E+03  0.25500000920E-02 0.  1.
        2   -1    0    0  501    0  0.00000000000E+00  0.00000000000E+00 -0.16201506038E+04  0.16201506038E+04  0.25500000920E-02 0. -1.
    10030    2    1    2    0    0  0.00000000000E+00  0.00000000000E+00 -0.12520445210E+04  0.19882566867E+04  0.15445223112E+04 0.  0.
        1    1    3    3  502    0  0.38562775228E+03 -0.66822706978E+03 -0.66969768241E+03  0.10216316195E+04  0.50400001928E-02 0. -1.
       -1    1    3    3    0  502 -0.38562775228E+03  0.66822706978E+03 -0.58234683856E+03  0.96662506718E+03  0.50400001928E-02 0.  1.
</event>
<event>
 5   0  0.8191876E-04  0.1363149E+04  0.7818609E-02  0.8980934E-01
       -1   -1    0    0    0  501  0.00000000000E+00  0.00000000000E+00  0.38635848844E+03  0.38635848848E+03  0.50400001928E-02 0.  1.
        1   -1    0    0  501    0  0.00000000000E+00  0.00000000000E+00 -0.12023645964E+04  0.12023645964E+04  0.50400001928E-02 0. -1.
    10030    2    1    2    0    0  0.00000000000E+00  0.00000000000E+00 -0.81600610796E+03  0.15887230849E+04  0.13631489545E+04 0.  0.
        2    1    3    3  502    0 -0.10744294482E+03  0.46546282972E+03 -0.97460401498E+03  0.10853813239E+04  0.25500000920E-02 0. -1.
       -2    1    3    3    0  502  0.10744294482E+03 -0.46546282972E+03  0.15859790702E+03  0.50334176099E+03  0.25500000920E-02 0.  1.
</event>
<event>
 5   0  0.8058234E-04  0.1439411E+04  0.7818609E-02  0.8925775E-01
        1   -1    0    0  501    0  0.00000000000E+00  0.00000000000E+00  0.65268247919E+03  0.65268247921E+03  0.50400001928E-02 0. -1.
       -1   -1    0    0    0  501  0.00000000000E+00  0.00000000000E+00 -0.79361108986E+03  0.79361108988E+03  0.50400001928E-02 0.  1.
    10030    2    1    2    0    0  0.00000000000E+00  0.00000000000E+00 -0.14092861067E+03  0.14462935691E+04  0.14394110652E+04 0.  0.
        5    1    3    3  502    0  0.63141258161E+02 -0.47506525231E+03  0.46902021626E+03  0.67057875428E+03  0.46999998093E+01 0. -1.
       -5    1    3    3    0  502 -0.63141258161E+02  0.47506525231E+03 -0.60994882693E+03  0.77571481481E+03  0.46999998093E+01 0.  1.
</event>
<event>
 5   0  0.1484056E-03  0.1434116E+04  0.7818609E-02  0.8929487E-01
       -2   -1    0    0    0  501  0.00000000000E+00  0.00000000000E+00  0.43076793994E+03  0.43076793995E+03  0.25500000920E-02 0. -1.
        2   -1    0    0  501    0  0.00000000000E+00  0.00000000000E+00 -0.11936172181E+04  0.11936172181E+04  0.25500000920E-02 0.  1.
    10030    2    1    2    0    0  0.00000000000E+00  0.00000000000E+00 -0.76284927820E+03  0.16243851581E+04  0.14341157975E+04 0.  0.
        5    1    3    3  502    0  0.39956385727E+03  0.41016145849E+03  0.10742113960E+03  0.58261916318E+03  0.46999998093E+01 0.  1.
       -5    1    3    3    0  502 -0.39956385727E+03 -0.41016145849E+03 -0.87027041780E+03  0.10417659949E+04  0.46999998093E+01 0. -1.
</event>
<event>
 5   0  0.8306301E-04  0.1500642E+04  0.7818609E-02  0.8884026E-01
       -1   -1    0    0    0  501  0.00000000000E+00  0.00000000000E+00  0.27459403517E+03  0.27459403521E+03  0.50400001928E-02 0.  1.
        1   -1    0    0  501    0  0.00000000000E+00  0.00000000000E+00 -0.20502311707E+04  0.20502311707E+04  0.50400001928E-02 0. -1.
    10030    2    1    2    0    0  0.00000000000E+00  0.00000000000E+00 -0.17756371356E+04  0.23248252059E+04  0.15006415298E+04 0.  0.
        4    1    3    3  502    0  0.42102828756E+03  0.29236859595E+03 -0.17366946740E+04  0.18107606740E+04  0.12699999809E+01 0. -1.
       -4    1    3    3    0  502 -0.42102828756E+03 -0.29236859595E+03 -0.38942461574E+02  0.51406453198E+03  0.12699999809E+01 0.  1.
</event>
<event>
 5   0  0.1526126E-03  0.1472224E+04  0.7818609E-02  0.8903137E-01
        2   -1    0    0  501    0  0.00000000000E+00  0.00000000000E+00  0.26626174521E+03  0.26626174522E+03  0.25500000920E-02 0. -1.
       -2   -1    0    0    0  501  0.00000000000E+00  0.00000000000E+00 -0.20350682984E+04  0.20350682984E+04  0.25500000920E-02 0.  1.
    10030    2    1    2    0    0  0.00000000000E+00  0.00000000000E+00 -0.17688065532E+04  0.23013300436E+04  0.14722239460E+04 0.  0.
        2    1    3    3  502    0 -0.15323861786E+03  0.39547875751E+03  0.56065772107E+02  0.42781876123E+03  0.25500000920E-02 0. -1.
       -2    1    3    3    0  502  0.15323861786E+03 -0.39547875751E+03 -0.18248723253E+04  0.18735112824E+04  0.25500000920E-02 0.  1.
</event>
<event>
 5   0  0.7870317E-04  0.1482046E+04  0.7818609E-02  0.8896481E-01
       -1   -1    0    0    0  501  0.00000000000E+00  0.00000000000E+00  0.49288188480E+03  0.49288188482E+03  0.50400001928E-02 0.  1.
        1   -1    0    0  501    0  0.00000000000E+00  0.00000000000E+00 -0.11140907293E+04  0.11140907293E+04  0.50400001928E-02 0. -1.
    10030    2    1    2    0    0  0.00000000000E+00  0.00000000000E+00 -0.62120884452E+03  0.16069726142E+04  0.14820460702E+04 0.  0.
        1    1    3    3  502    0  0.72481194873E+03  0.72604525556E+02 -0.45804981364E+03  0.86048440425E+03  0.50400001928E-02 0. -1.
       -1    1    3    3    0  502 -0.72481194873E+03 -0.72604525556E+02 -0.16315903088E+03  0.74648820991E+03  0.50400001928E-02 0.  1.
</event>
<event>
 5   0  0.1552067E-03  0.1466485E+04  0.7818609E-02  0.8907051E-01
        2   -1    0    0  501    0  0.00000000000E+00  0.00000000000E+00  0.91659166351E+03  0.91659166351E+03  0.25500000920E-02 0. -1.
       -2   -1    0    0    0  501  0.00000000000E+00  0.00000000000E+00 -0.58656965763E+03  0.58656965764E+03  0.25500000920E-02 0.  1.
    10030    2    1    2    0    0  0.00000000000E+00  0.00000000000E+00  0.33002200588E+03  0.15031613212E+04  0.14664854016E+04 0.  0.
        3    1    3    3  502    0 -0.12291139167E+03 -0.59501297242E+03 -0.25573906318E+03  0.65920416123E+03  0.10100000352E+00 0.  1.
       -3    1    3    3    0  502  0.12291139167E+03  0.59501297242E+03  0.58576106905E+03  0.84395715992E+03  0.10100000352E+00 0. -1.
</event>
<event>
 5   0  0.1484056E-03  0.1534506E+04  0.7818609E-02  0.8861826E-01
       -2   -1    0    0    0  501  0.00000000000E+00  0.00000000000E+00  0.76040809264E+03  0.76040809264E+03  0.25500000920E-02 0.  1.
        2   -1    0    0  501    0  0.00000000000E+00  0.00000000000E+00 -0.77415934029E+03  0.77415934030E+03  0.25500000920E-02 0. -1.
    10030    2    1    2    0    0  0.00000000000E+00  0.00000000000E+00 -0.13751247654E+02  0.15345674329E+04  0.15345058193E+04 0.  0.
        5    1    3    3  502    0  0.62929284747E+03 -0.22554338918E+03 -0.38342178899E+03  0.77065794393E+03  0.46999998093E+01 0. -1.
       -5    1    3    3    0  502 -0.62929284747E+03  0.22554338918E+03  0.36967054133E+03  0.76390948901E+03  0.46999998093E+01 0.  1.
</event>
<event>
 5   0  0.7870317E-04  0.1407995E+04  0.7818609E-02  0.8948052E-01
       -1   -1    0    0    0  501  0.00000000000E+00  0.00000000000E+00  0.54041419667E+03  0.54041419670E+03  0.50400001928E-02 0. -1.
        1   -1    0    0  501    0  0.00000000000E+00  0.00000000000E+00 -0.91709738685E+03  0.91709738686E+03  0.50400001928E-02 0.  1.
    10030    2    1    2    0    0  0.00000000000E+00  0.00000000000E+00 -0.37668319018E+03  0.14575115836E+04  0.14079949540E+04 0.  0.
        1    1    3    3  502    0  0.33362288794E+03 -0.48182133244E+03 -0.59213205795E+03  0.83311247850E+03  0.50400001928E-02 0.  1.
       -1    1    3    3    0  502 -0.33362288794E+03  0.48182133244E+03  0.21544886778E+03  0.62439910506E+03  0.50400001928E-02 0. -1.
</event>
<event>
 5   0  0.8306301E-04  0.1485171E+04  0.7818609E-02  0.8894375E-01
        1   -1    0    0  501    0  0.00000000000E+00  0.00000000000E+00  0.93094925987E+03  0.93094925988E+03  0.50400001928E-02 0. -1.
       -1   -1    0    0    0  501  0.00000000000E+00  0.00000000000E+00 -0.59233402397E+03  0.59233402399E+03  0.50400001928E-02 0.  1.
    10030    2    1    2    0    0  0.00000000000E+00  0.00000000000E+00  0.33861523590E+03  0.15232832839E+04  0.14851705912E+04 0.  0.
        4    1    3    3  502    0 -0.71575716648E+03  0.67142784764E+02  0.36013270028E+03  0.80406072508E+03  0.12699999809E+01 0. -1.
       -4    1    3    3    0  502  0.71575716648E+03 -0.67142784764E+02 -0.21517464378E+02  0.71922255880E+03  0.12699999809E+01 0.  1.
</event>
<event>
 5   0  0.5603875E-04  0.1503058E+04  0.7818609E-02  0.8882422E-01
        3   -1    0    0  501    0  0.00000000000E+00  0.00000000000E+00  0.14219398542E+04  0.14219398578E+04  0.10100000352E+00 0.  1.
       -3   -1    0    0    0  501  0.00000000000E+00  0.00000000000E+00 -0.39720116978E+03  0.39720118262E+03  0.10100000352E+00 0. -1.
    10030    2    1    2    0    0  0.00000000000E+00  0.00000000000E+00  0.10247386845E+04  0.18191410405E+04  0.15030584665E+04 0.  0.
        2    1    3    3  502    0 -0.77178038226E+02 -0.65995473381E+01  0.14170956390E+04  0.14192110674E+04  0.25500000920E-02 0.  1.
       -2    1    3    3    0  502  0.77178038226E+02  0.65995473381E+01 -0.39235695454E+03  0.39992997311E+03  0.25500000920E-02 0. -1.
</event>
<event>
 5   0  0.8058234E-04  0.1560595E+04  0.7818609E-02  0.8845128E-01
       -1   -1    0    0    0  501  0.00000000000E+00  0.00000000000E+00  0.61410104585E+03  0.61410104587E+03  0.50400001928E-02 0. -1.
        1   -1    0    0  501    0  0.00000000000E+00  0.00000000000E+00 -0.99147291159E+03  0.99147291161E+03  0.50400001928E-02 0.  1.
    10030    2    1    2    0    0  0.00000000000E+00  0.00000000000E+00 -0.37737186574E+03  0.16055739575E+04  0.15605954658E+04 0.  0.
        5    1    3    3  502    0  0.38873692683E+03 -0.56998937428E+03 -0.56366016789E+03  0.89092040044E+03  0.46999998093E+01 0.  1.
       -5    1    3    3    0  502 -0.38873692683E+03  0.56998937428E+03  0.18628830215E+03  0.71465355704E+03  0.46999998093E+01 0. -1.
</event>
<event>
 5   0  0.1484056E-03  0.1504534E+04  0.7818609E-02  0.8881443E-01
       -2   -1    0    0    0  501  0.00000000000E+00  0.00000000000E+00  0.47394122631E+03  0.47394122632E+03  0.25500000920E-02 0.  1.
        2   -1    0    0  501    0  0.00000000000E+00  0.00000000000E+00 -0.11940422132E+04  0.11940422132E+04  0.25500000920E-02 0. -1.
    10030    2    1    2    0    0  0.00000000000E+00  0.00000000000E+00 -0.72010098686E+03  0.16679834395E+04  0.15045342546E+04 0.  0.
        5    1    3    3  502    0  0.63794890885E+03  0.21988417877E+02  0.81211611841E+02  0.64349026155E+03  0.46999998093E+01 0.  1.
       -5    1    3    3    0  502 -0.63794890885E+03 -0.21988417877E+02 -0.80131259870E+03  0.10244931779E+04  0.46999998093E+01 0. -1.
</event>
<event>
 5   0  0.1484056E-03  0.1496391E+04  0.7818609E-02  0.8886857E-01
       -2   -1    0    0    0  501  0.00000000000E+00  0.00000000000E+00  0.24411329849E+03  0.24411329850E+03  0.25500000920E-02 0. -1.
        2   -1    0    0  501    0  0.00000000000E+00  0.00000000000E+00 -0.22931823996E+04  0.22931823996E+04  0.25500000920E-02 0.  1.
    10030    2    1    2    0    0  0.00000000000E+00  0.00000000000E+00 -0.20490691011E+04  0.25372956981E+04  0.14963907506E+04 0.  0.
        5    1    3    3  502    0 -0.27526761509E+03 -0.54287899423E+03 -0.17622407649E+04  0.18644045875E+04  0.46999998093E+01 0.  1.
       -5    1    3    3    0  502  0.27526761509E+03  0.54287899423E+03 -0.28682833617E+03  0.67289111060E+03  0.46999998093E+01 0. -1.
</event>
<event>
 5   0  0.1484056E-03  0.1537766E+04  0.7818609E-02  0.8859720E-01
       -2   -1    0    0    0  501  0.00000000000E+00  0.00000000000E+00  0.45760762487E+03  0.45760762488E+03  0.25500000920E-02 0. -1.
        2   -1    0    0  501    0  0.00000000000E+00  0.00000000000E+00 -0.12918959569E+04  0.12918959569E+04  0.25500000920E-02 0.  1.
    10030    2    1    2    0    0  0.00000000000E+00  0.00000000000E+00 -0.83428833198E+03  0.17495035817E+04  0.15377664848E+04 0.  0.
        5    1    3    3  502    0  0.14315555934E+03 -0.35137070082E+03  0.34366810917E+03  0.51194212839E+03  0.46999998093E+01 0. -1.
       -5    1    3    3    0  502 -0.14315555934E+03  0.35137070082E+03 -0.11779564412E+04  0.12375614533E+04  0.46999998093E+01 0.  1.
</event>
<event>
 5   0  0.1484056E-03  0.1536013E+04  0.7818609E-02  0.8860852E-01
        2   -1    0    0  501    0  0.00000000000E+00  0.00000000000E+00  0.15124589856E+04  0.15124589856E+04  0.25500000920E-02 0.  1.
       -2   -1    0    0    0  501  0.00000000000E+00  0.00000000000E+00 -0.38998337149E+03  0.38998337150E+03  0.25500000920E-02 0. -1.
    10030    2    1    2    0    0  0.00000000000E+00  0.00000000000E+00  0.11224756141E+04  0.19024423571E+04  0.15360128313E+04 0.  0.
        5    1    3    3  502    0  0.76085331245E+03 -0.73637131309E+02  0.65302140858E+03  0.10053751739E+04  0.46999998093E+01 0. -1.
       -5    1    3    3    0  502 -0.76085331245E+03  0.73637131309E+02  0.46945420557E+03  0.89706718327E+03  0.46999998093E+01 0.  1.
</event>
<event>
 5   0  0.8191876E-04  0.1516880E+04  0.7818609E-02  0.8873305E-01
       -1   -1    0    0    0  501  0.00000000000E+00  0.00000000000E+00  0.64626887172E+03  0.64626887174E+03  0.50400001928E-02 0. -1.
        1   -1    0    0  501    0  0.00000000000E+00  0.00000000000E+00 -0.89007992468E+03  0.89007992470E+03  0.50400001928E-02 0.  1.
    10030    2    1    2    0    0  0.00000000000E+00  0.00000000000E+00 -0.24381105297E+03  0.15363487964E+04  0.15168796243E+04 0.  0.
        2    1    3    3  502    0  0.63954170600E+02 -0.34351372697E+03  0.55989053973E+03  0.65997669129E+03  0.25500000920E-02 0. -1.
       -2    1    3    3    0  502 -0.63954170600E+02  0.34351372697E+03 -0.80370159270E+03  0.87637210514E+03  0.25500000920E-02 0.  1.
</event>
<event>
 5   0  0.1552067E-03  0.1482977E+04  0.7818609E-02  0.8895853E-01
        2   -1    0    0  501    0  0.00000000000E+00  0.00000000000E+00  0.13830343024E+04  0.13830343024E+04  0.25500000920E-02 0. -1.
       -2   -1    0    0    0  501  0.00000000000E+00  0.00000000000E+00 -0.39753535357E+03  0.39753535358E+03  0.25500000920E-02 0.  1.
    10030    2    1    2    0    0  0.00000000000E+00  0.00000000000E+00  0.98549894880E+03  0.17805696560E+04  0.14829767772E+04 0.  0.
        3    1    3    3  502    0 -0.39542237284E+03 -0.41444427129E+03  0.10580637390E+04  0.12031715559E+04  0.10100000352E+00 0. -1.
       -3    1    3    3    0  502  0.39542237284E+03  0.41444427129E+03 -0.72564790217E+02  0.57739810004E+03  0.10100000352E+00 0.  1.
</event>
<event>
 5   0  0.1500956E-03  0.1504892E+04  0.7818609E-02  0.8881206E-01
        2   -1    0    0  501    0  0.00000000000E+00  0.00000000000E+00  0.87981852585E+03  0.87981852585E+03  0.25500000920E-02 0.  1.
       -2   -1    0    0    0  501  0.00000000000E+00  0.00000000000E+00 -0.64351319795E+03  0.64351319796E+03  0.25500000920E-02 0. -1.
    10030    2    1    2    0    0  0.00000000000E+00  0.00000000000E+00  0.23630532790E+03  0.15233317238E+04  0.15048918010E+04 0.  0.
        4    1    3    3  502    0  0.22805925256E+02 -0.19502914979E+03  0.85342545288E+03  0.87572432650E+03  0.12699999809E+01 0.  1.
       -4    1    3    3    0  502 -0.22805925256E+02  0.19502914979E+03 -0.61712012498E+03  0.64760739731E+03  0.12699999809E+01 0. -1.
</event>
<event>
 5   0  0.1552067E-03  0.1503089E+04  0.7818609E-02  0.8882402E-01
        2   -1    0    0  501    0  0.00000000000E+00  0.00000000000E+00  0.86923112666E+03  0.86923112667E+03  0.25500000920E-02 0. -1.
       -2   -1    0    0    0  501  0.00000000000E+00  0.00000000000E+00 -0.64979136234E+03  0.64979136235E+03  0.25500000920E-02 0.  1.
    10030    2    1    2    0    0  0.00000000000E+00  0.00000000000E+00  0.21943976432E+03  0.15190224890E+04  0.15030886574E+04 0.  0.
        3    1    3    3  502    0 -0.74009063779E+02  0.32213935007E+02 -0.64539824086E+03  0.65042599781E+03  0.10100000352E+00 0.  1.
       -3    1    3    3    0  502  0.74009063779E+02 -0.32213935007E+02  0.86483800517E+03  0.86859649120E+03  0.10100000352E+00 0. -1.
</event>
<event>
 5   0  0.8191876E-04  0.1510117E+04  0.7818609E-02  0.8877753E-01
       -1   -1    0    0    0  501  0.00000000000E+00  0.00000000000E+00  0.80377869581E+03  0.80377869583E+03  0.50400001928E-02 0.  1.
        1   -1    0    0  501    0  0.00000000000E+00  0.00000000000E+00 -0.70929160417E+03  0.70929160418E+03  0.50400001928E-02 0. -1.
    10030    2    1    2    0    0  0.00000000000E+00  0.00000000000E+00  0.94487091645E+02  0.15130703000E+04  0.15101171883E+04 0.  0.
        2    1    3    3  502    0  0.28073255187E+03  0.23065284399E+03  0.71043063684E+03  0.79794936549E+03  0.25500000920E-02 0.  1.
       -2    1    3    3    0  502 -0.28073255187E+03 -0.23065284399E+03 -0.61594354519E+03  0.71512093452E+03  0.25500000920E-02 0. -1.
</event>
<event>
 5   0  0.1526126E-03  0.1500526E+04  0.7818609E-02  0.8884103E-01
       -2   -1    0    0    0  501  0.00000000000E+00  0.00000000000E+00  0.10312205800E+04  0.10312205800E+04  0.25500000920E-02 0. -1.
        2   -1    0    0  501    0  0.00000000000E+00  0.00000000000E+00 -0.54585292980E+03  0.54585292981E+03  0.25500000920E-02 0.  1.
    10030    2    1    2    0    0  0.00000000000E+00  0.00000000000E+00  0.48536765019E+03  0.15770735098E+04  0.15005262742E+04 0.  0.
        2    1    3    3  502    0 -0.31765423175E+03 -0.67283075800E+03  0.34398177247E+03  0.81971269336E+03  0.25500000920E-02 0. -1.
       -2    1    3    3    0  502  0.31765423175E+03  0.67283075800E+03  0.14138587772E+03  0.75736081644E+03  0.25500000920E-02 0.  1.
</event>
<event>
 5   0  0.8306301E-04  0.1489875E+04  0.7818609E-02  0.8891214E-01
       -1   -1    0    0    0  501  0.00000000000E+00  0.00000000000E+00  0.64346116263E+03  0.64346116265E+03  0.50400001928E-02 0.  1.
        1   -1    0    0  501    0  0.00000000000E+00  0.00000000000E+00 -0.86241654863E+03  0.86241654865E+03  0.50400001928E-02 0. -1.
    10030    2    1    2    0    0  0.00000000000E+00  0.00000000000E+00 -0.21895538601E+03  0.15058777113E+04  0.14898745653E+04 0.  0.
        4    1    3    3  502    0  0.70863967829E+03  0.21534150459E+03 -0.28695592426E+02  0.74119309709E+03  0.12699999809E+01 0.  1.
       -4    1    3    3    0  502 -0.70863967829E+03 -0.21534150459E+03 -0.19025979358E+03  0.76468461420E+03  0.12699999809E+01 0. -1.
</event>
<event>
 5   0  0.8306301E-04  0.1506272E+04  0.7818609E-02  0.8880293E-01
       -1   -1    0    0    0  501  0.00000000000E+00  0.00000000000E+00  0.28059485704E+03  0.28059485709E+03  0.50400001928E-02 0.  1.
        1   -1    0    0  501    0  0.00000000000E+00  0.00000000000E+00 -0.20214694702E+04  0.20214694702E+04  0.50400001928E-02 0. -1.
    10030    2    1    2    0    0  0.00000000000E+00  0.00000000000E+00 -0.17408746131E+04  0.23020643273E+04  0.15062721362E+04 0.  0.
        4    1    3    3  502    0 -0.21292825121E+03 -0.45147124718E+03 -0.17323436400E+04  0.18028257895E+04  0.12699999809E+01 0. -1.
       -4    1    3    3    0  502  0.21292825121E+03  0.45147124718E+03 -0.85309730883E+01  0.49923853777E+03  0.12699999809E+01 0.  1.
</event>
<event>
 5   0  0.1500956E-03  0.1381531E+04  0.7818609E-02  0.8967297E-01
       -2   -1    0    0    0  501  0.00000000000E+00  0.00000000000E+00  0.31673451069E+03  0.31673451070E+03  0.25500000920E-02 0.  1.
        2   -1    0    0  501    0  0.00000000000E+00  0.00000000000E+00 -0.15064886534E+04  0.15064886534E+04  0.25500000920E-02 0. -1.
    10030    2    1    2    0    0  0.00000000000E+00  0.00000000000E+00 -0.11897541427E+04  0.18232231641E+04  0.13815309573E+04 0.  0.
        4    1    3    3  502    0 -0.27134605680E+03 -0.49614048859E+03 -0.11184075003E+04  0.12532441967E+04  0.12699999809E+01 0. -1.
       -4    1    3    3    0  502  0.27134605680E+03  0.49614048859E+03 -0.71346642383E+02  0.56997896736E+03  0.12699999809E+01 0.  1.
</event>
<event>
 5   0  0.8365016E-04  0.1499324E+04  0.7818609E-02  0.8884903E-01
       -1   -1    0    0    0  501  0.00000000000E+00  0.00000000000E+00  0.29344471350E+03  0.29344471354E+03  0.50400001928E-02 0.  1.
        1   -1    0    0  501    0  0.00000000000E+00  0.00000000000E+00 -0.19151575765E+04  0.19151575765E+04  0.50400001928E-02 0. -1.
    10030    2    1    2    0    0  0.00000000000E+00  0.00000000000E+00 -0.16217128630E+04  0.22086022901E+04  0.14993236694E+04 0.  0.
        3    1    3    3  502    0  0.58628312465E+03 -0.41969141581E+03 -0.11131906341E+04  0.13262964166E+04  0.10100000352E+00 0. -1.
       -3    1    3    3    0  502 -0.58628312465E+03  0.41969141581E+03 -0.50852222892E+03  0.88230587341E+03  0.10100000352E+00 0.  1.
</event>
<event>
 5   0  0.8191876E-04  0.1496629E+04  0.7818609E-02  0.8886698E-01
       -1   -1    0    0    0  501  0.00000000000E+00  0.00000000000E+00  0.12013627123E+04  0.12013627123E+04  0.50400001928E-02 0.  1.
        1   -1    0    0  501    0  0.00000000000E+00  0.00000000000E+00 -0.46611613500E+03  0.46611613503E+03  0.50400001928E-02 0. -1.
    10030    2    1    2    0    0  0.00000000000E+00  0.00000000000E+00  0.73524657732E+03  0.16674788474E+04  0.14966289376E+04 0.  0.
        2    1    3    3  502    0  0.51347285276E+03 -0.48862803988E+03  0.10031206293E+03  0.71587306267E+03  0.25500000920E-02 0.  1.
       -2    1    3    3    0  502 -0.51347285276E+03  0.48862803988E+03  0.63493451439E+03  0.95160578469E+03  0.25500000920E-02 0. -1.
</event>
<event>
 5   0  0.1552067E-03  0.1531553E+04  0.7818609E-02  0.8863738E-01
       -2   -1    0    0    0  501  0.00000000000E+00  0.00000000000E+00  0.69217930621E+03  0.69217930622E+03  0.25500000920E-02 0.  1.
        2   -1    0    0  501    0  0.00000000000E+00  0.00000000000E+00 -0.84719850221E+03  0.84719850222E+03  0.25500000920E-02 0. -1.
    10030    2    1    2    0    0  0.00000000000E+00  0.00000000000E+00 -0.15501919600E+03  0.15393778084E+04  0.15315525084E+04 0.  0.
        3    1    3    3  502    0 -0.75460174123E+03  0.10920029764E+03 -0.59787906400E+01  0.76248557298E+03  0.10100000352E+00 0.  1.
       -3    1    3    3    0  502  0.75460174123E+03 -0.10920029764E+03 -0.14904040536E+03  0.77689223545E+03  0.10100000352E+00 0. -1.
</event>
<event>
 5   0  0.1552067E-03  0.1485281E+04  0.7818609E-02  0.8894300E-01
        2   -1    0    0  501    0  0.00000000000E+00  0.00000000000E+00  0.55955144456E+03  0.55955144457E+03  0.25500000920E-02 0.  1.
       -2   -1    0    0    0  501  0.00000000000E+00  0.00000000000E+00 -0.98563804358E+03  0.98563804358E+03  0.25500000920E-02 0. -1.
    10030    2    1    2    0    0  0.00000000000E+00  0.00000000000E+00 -0.42608659902E+03  0.15451894881E+04  0.14852813755E+04 0.  0.
        3    1    3    3  502    0 -0.15606459396E+03 -0.61118209892E+03  0.19470342420E+03  0.66015842730E+03  0.10100000352E+00 0.  1.
       -3    1    3    3    0  502  0.15606459396E+03  0.61118209892E+03 -0.62079002322E+03  0.88503106085E+03  0.10100000352E+00 0. -1.
</event>
<event>
 5   0  0.1500956E-03  0.1544334E+04  0.7818609E-02  0.8855495E-01
       -2   -1    0    0    0  501  0.00000000000E+00  0.00000000000E+00  0.63985818760E+03  0.63985818761E+03  0.25500000920E-02 0.  1.
        2   -1    0    0  501    0  0.00000000000E+00  0.00000000000E+00 -0.93183432714E+03  0.93183432715E+03  0.25500000920E-02 0. -1.
    10030    2    1    2    0    0  0.00000000000E+00  0.00000000000E+00 -0.29197613954E+03  0.15716925148E+04  0.15443339324E+04 0.  0.
        4    1    3    3  502    0  0.25996230338E+03 -0.24785548975E+03  0.54966155333E+03  0.65661417826E+03  0.12699999809E+01 0.  1.
       -4    1    3    3    0  502 -0.25996230338E+03  0.24785548975E+03 -0.84163769287E+03  0.91507833650E+03  0.12699999809E+01 0. -1.
</event>
<event>
 5   0  0.7870317E-04  0.1527239E+04  0.7818609E-02  0.8866539E-01
       -1   -1    0    0    0  501  0.00000000000E+00  0.00000000000E+00  0.42089980773E+03  0.42089980776E+03  0.50400001928E-02 0. -1.
        1   -1    0    0  501    0  0.00000000000E+00  0.00000000000E+00 -0.13853996175E+04  0.13853996176E+04  0.50400001928E-02 0.  1.
    10030    2    1    2    0    0  0.00000000000E+00  0.00000000000E+00 -0.96449980982E+03  0.18062994253E+04  0.15272385965E+04 0.  0.
        1    1    3    3  502    0 -0.38825746499E+02 -0.75862539741E+03 -0.57458183419E+03  0.95245168717E+03  0.50400001928E-02 0. -1.
       -1    1    3    3    0  502  0.38825746499E+02  0.75862539741E+03 -0.38991797563E+03  0.85384773815E+03  0.50400001928E-02 0.  1.
</event>
<event>
 5   0  0.1500956E-03  0.1401944E+04  0.7818609E-02  0.8952413E-01
       -2   -1    0    0    0  501  0.00000000000E+00  0.00000000000E+00  0.48174488365E+03  0.48174488365E+03  0.25500000920E-02 0.  1.
        2   -1    0    0  501    0  0.00000000000E+00  0.00000000000E+00 -0.10199620624E+04  0.10199620624E+04  0.25500000920E-02 0. -1.
    10030    2    1    2    0    0  0.00000000000E+00  0.00000000000E+00 -0.53821717872E+03  0.15017069460E+04  0.14019436580E+04 0.  0.
        4    1    3    3  502    0  0.42053637684E+03 -0.46446972324E+03  0.67544324913E+02  0.63019585589E+03  0.12699999809E+01 0.  1.
       -4    1    3    3    0  502 -0.42053637684E+03  0.46446972324E+03 -0.60576150363E+03  0.87151109013E+03  0.12699999809E+01 0. -1.
</event>
<event>
 5   0  0.8365016E-04  0.1500772E+04  0.7818609E-02  0.8883940E-01
        1   -1    0    0  501    0  0.00000000000E+00  0.00000000000E+00  0.12689834373E+04  0.12689834373E+04  0.50400001928E-02 0.  1.
       -1   -1    0    0    0  501  0.00000000000E+00  0.00000000000E+00 -0.44372450622E+03  0.44372450625E+03  0.50400001928E-02 0. -1.
    10030    2    1    2    0    0  0.00000000000E+00  0.00000000000E+00  0.82525893108E+03  0.17127079435E+04  0.15007718669E+04 0.  0.
        3    1    3    3  502    0  0.39075232469E+03 -0.32227670698E+03 -0.21920700171E+03  0.55190703466E+03  0.10100000352E+00 0. -1.
       -3    1    3    3    0  502 -0.39075232469E+03  0.32227670698E+03  0.10444659328E+04  0.11608009089E+04  0.10100000352E+00 0.  1.
</event>
<event>
 5   0  0.1552067E-03  0.1511655E+04  0.7818609E-02  0.8876740E-01
        2   -1    0    0  501    0  0.00000000000E+00  0.00000000000E+00  0.40308249188E+03  0.40308249188E+03  0.25500000920E-02 0. -1.
       -2   -1    0    0    0  501  0.00000000000E+00  0.00000000000E+00 -0.14172653120E+04  0.14172653120E+04  0.25500000920E-02 0.  1.
    10030    2    1    2    0    0  0.00000000000E+00  0.00000000000E+00 -0.10141828201E+04  0.18203478039E+04  0.15116545023E+04 0.  0.
        3    1    3    3  502    0 -0.12092916304E+02  0.75565133923E+03 -0.52026296214E+03  0.91751225882E+03  0.10100000352E+00 0. -1.
       -3    1    3    3    0  502  0.12092916304E+02 -0.75565133923E+03 -0.49391985796E+03  0.90283554504E+03  0.10100000352E+00 0.  1.
</event>
<event>
 5   0  0.1484056E-03  0.1488910E+04  0.7818609E-02  0.8891862E-01
       -2   -1    0    0    0  501  0.00000000000E+00  0.00000000000E+00  0.68782918192E+03  0.68782918192E+03  0.25500000920E-02 0.  1.
        2   -1    0    0  501    0  0.00000000000E+00  0.00000000000E+00 -0.80574223810E+03  0.80574223810E+03  0.25500000920E-02 0. -1.
    10030    2    1    2    0    0  0.00000000000E+00  0.00000000000E+00 -0.11791305618E+03  0.14935714200E+04  0.14889097011E+04 0.  0.
        5    1    3    3  502    0 -0.72011903257E+02  0.37359337146E+03 -0.70082961988E+03  0.79745969648E+03  0.46999998093E+01 0. -1.
       -5    1    3    3    0  502  0.72011903257E+02 -0.37359337146E+03  0.58291656371E+03  0.69611172354E+03  0.46999998093E+01 0.  1.
</event>
<event>
 5   0  0.7870317E-04  0.1534806E+04  0.7818609E-02  0.8861632E-01
        1   -1    0    0  501    0  0.00000000000E+00  0.00000000000E+00  0.92888436273E+03  0.92888436275E+03  0.50400001928E-02 0. -1.
       -1   -1    0    0    0  501  0.00000000000E+00  0.00000000000E+00 -0.63399415872E+03  0.63399415874E+03  0.50400001928E-02 0.  1.
    10030    2    1    2    0    0  0.00000000000E+00  0.00000000000E+00  0.29489020402E+03  0.15628785215E+04  0.15348058641E+04 0.  0.
        1    1    3    3  502    0 -0.17685822947E+03  0.63991466203E+02  0.90505167711E+03  0.92438751579E+03  0.50400001928E-02 0. -1.
       -1    1    3    3    0  502  0.17685822947E+03 -0.63991466203E+02 -0.61016147309E+03  0.63849100569E+03  0.50400001928E-02 0.  1.
</event>
<event>
 5   0  0.7870317E-04  0.1500732E+04  0.7818609E-02  0.8883966E-01
       -1   -1    0    0    0  501  0.00000000000E+00  0.00000000000E+00  0.43932279158E+03  0.43932279160E+03  0.50400001928E-02 0.  1.
        1   -1    0    0  501    0  0.00000000000E+00  0.00000000000E+00 -0.12816302698E+04  0.12816302699E+04  0.50400001928E-02 0. -1.
    10030    2    1    2    0    0  0.00000000000E+00  0.00000000000E+00 -0.84230747827E+03  0.17209530615E+04  0.15007323385E+04 0.  0.
        1    1    3    3  502    0 -0.50740323092E+03  0.51614578081E+03 -0.19415415762E+03  0.74937329999E+03  0.50400001928E-02 0.  1.
       -1    1    3    3    0  502  0.50740323092E+03 -0.51614578081E+03 -0.64815332065E+03  0.97157976146E+03  0.50400001928E-02 0. -1.
</event>
<event>
 5   0  0.1511546E-03  0.1509689E+04  0.7818609E-02  0.8878035E-01
        2   -1    0    0  501    0  0.00000000000E+00  0.00000000000E+00  0.35063354489E+03  0.35063354490E+03  0.25500000920E-02 0.  1.
       -2   -1    0    0    0  501  0.00000000000E+00  0.00000000000E+00 -0.16250302999E+04  0.16250302999E+04  0.25500000920E-02 0. -1.
    10030    2    1    2    0    0  0.00000000000E+00  0.00000000000E+00 -0.12743967550E+04  0.19756638448E+04  0.15096888880E+04 0.  0.
        1    1    3    3  502    0 -0.61831373830E+03 -0.89645106825E+02 -0.11915529792E+04  0.13454168969E+04  0.50400001928E-02 0. -1.
       -1    1    3    3    0  502  0.61831373830E+03  0.89645106825E+02 -0.82843775818E+02  0.63024694793E+03  0.50400001928E-02 0.  1.
</event>
<event>
 5   0  0.8306301E-04  0.1482523E+04  0.7818609E-02  0.8896159E-01
       -1   -1    0    0    0  501  0.00000000000E+00  0.00000000000E+00  0.15307114031E+04  0.15307114031E+04  0.50400001928E-02 0.  1.
        1   -1    0    0  501    0  0.00000000000E+00  0.00000000000E+00 -0.35896301986E+03  0.35896301990E+03  0.50400001928E-02 0. -1.
    10030    2    1    2    0    0  0.00000000000E+00  0.00000000000E+00  0.11717483833E+04  0.18896744230E+04  0.14825232381E+04 0.  0.
        4    1    3    3  502    0  0.22822565316E+03 -0.42249928101E+03  0.13056469866E+04  0.13911535708E+04  0.12699999809E+01 0.  1.
       -4    1    3    3    0  502 -0.22822565316E+03  0.42249928101E+03 -0.13389860331E+03  0.49852085220E+03  0.12699999809E+01 0. -1.
</event>
<event>
 5   0  0.1484056E-03  0.1482416E+04  0.7818609E-02  0.8896231E-01
       -2   -1    0    0    0  501  0.00000000000E+00  0.00000000000E+00  0.10211510596E+04  0.10211510596E+04  0.25500000920E-02 0.  1.
        2   -1    0    0  501    0  0.00000000000E+00  0.00000000000E+00 -0.53801017637E+03  0.53801017637E+03  0.25500000920E-02 0. -1.
    10030    2    1    2    0    0  0.00000000000E+00  0.00000000000E+00  0.48314088321E+03  0.15591612359E+04  0.14824164889E+04 0.  0.
        5    1    3    3  502    0  0.14038688847E+03 -0.49783977609E+03  0.79991536934E+03  0.95259624670E+03  0.46999998093E+01 0.  1.
       -5    1    3    3    0  502 -0.14038688847E+03  0.49783977609E+03 -0.31677448614E+03  0.60656498925E+03  0.46999998093E+01 0. -1.
</event>
<event>
 5   0  0.8191876E-04  0.1481523E+04  0.7818609E-02  0.8896834E-01
        1   -1    0    0  501    0  0.00000000000E+00  0.00000000000E+00  0.12425608274E+04  0.12425608274E+04  0.50400001928E-02 0.  1.
       -1   -1    0    0    0  501  0.00000000000E+00  0.00000000000E+00 -0.44161021204E+03  0.44161021206E+03  0.50400001928E-02 0. -1.
    10030    2    1    2    0    0  0.00000000000E+00  0.00000000000E+00  0.80095061535E+03  0.16841710395E+04  0.14815229333E+04 0.  0.
        2    1    3    3  502    0 -0.50265848645E+03  0.13099573587E+03  0.10008242078E+04  0.11275967948E+04  0.25500000920E-02 0.  1.
       -2    1    3    3    0  502  0.50265848645E+03 -0.13099573587E+03 -0.19987359245E+03  0.55657424462E+03  0.25500000920E-02 0. -1.
</event>
<event>
 5   0  0.8058234E-04  0.1499157E+04  0.7818609E-02  0.8885014E-01
        1   -1    0    0  501    0  0.00000000000E+00  0.00000000000E+00  0.18862511776E+04  0.18862511776E+04  0.50400001928E-02 0. -1.
       -1   -1    0    0    0  501  0.00000000000E+00  0.00000000000E+00 -0.29787538947E+03  0.29787538951E+03  0.50400001928E-02 0.  1.
    10030    2    1    2    0    0  0.00000000000E+00  0.00000000000E+00  0.15883757881E+04  0.21841265671E+04  0.14991568353E+04 0.  0.
        5    1    3    3  502    0 -0.41185449969E+03  0.22747974216E+03  0.16442938540E+04  0.17102910660E+04  0.46999998093E+01 0. -1.
       -5    1    3    3    0  502  0.41185449969E+03 -0.22747974216E+03 -0.55918065932E+02  0.47383550110E+03  0.46999998093E+01 0.  1.
</event>
<event>
 5   0  0.7870317E-04  0.1505703E+04  0.7818609E-02  0.8880670E-01
       -1   -1    0    0    0  501  0.00000000000E+00  0.00000000000E+00  0.36067432948E+03  0.36067432951E+03  0.50400001928E-02 0. -1.
        1   -1    0    0  501    0  0.00000000000E+00  0.00000000000E+00 -0.15714596830E+04  0.15714596830E+04  0.50400001928E-02 0.  1.
    10030    2    1    2    0    0  0.00000000000E+00  0.00000000000E+00 -0.12107853535E+04  0.19321340125E+04  0.15057027163E+04 0.  0.
        1    1    3    3  502    0 -0.54653896696E+03 -0.18919887708E+03 -0.12238471893E+04  0.13536258716E+04  0.50400001928E-02 0.  1.
       -1    1    3    3    0  502  0.54653896696E+03  0.18919887708E+03  0.13061835806E+02  0.57850814089E+03  0.50400001928E-02 0. -1.
</event>
<event>
 5   0  0.1484056E-03  0.1497841E+04  0.7818609E-02  0.8885890E-01
        2   -1    0    0  501    0  0.00000000000E+00  0.00000000000E+00  0.90179131729E+03  0.90179131729E+03  0.25500000920E-02 0.  1.
       -2   -1    0    0    0  501  0.00000000000E+00  0.00000000000E+00 -0.62196461076E+03  0.62196461077E+03  0.25500000920E-02 0. -1.
    10030    2    1    2    0    0  0.00000000000E+00  0.00000000000E+00  0.27982670652E+03  0.15237559281E+04  0.14978414945E+04 0.  0.
        5    1    3    3  502    0  0.67592410604E+03  0.15054807954E+03 -0.15019068511E+03  0.70860246491E+03  0.46999998093E+01 0.  1.
       -5    1    3    3    0  502 -0.67592410604E+03 -0.15054807954E+03  0.43001739163E+03  0.81515346315E+03  0.46999998093E+01 0. -1.
</event>
<event>
 5   0  0.8191876E-04  0.1508810E+04  0.7818609E-02  0.8878616E-01
       -1   -1    0    0    0  501  0.00000000000E+00  0.00000000000E+00  0.32909289827E+03  0.32909289831E+03  0.50400001928E-02 0.  1.
        1   -1    0    0  501    0  0.00000000000E+00  0.00000000000E+00 -0.17293803736E+04  0.17293803736E+04  0.50400001928E-02 0. -1.
    10030    2    1    2    0    0  0.00000000000E+00  0.00000000000E+00 -0.14002874753E+04  0.20584732719E+04  0.15088098613E+04 0.  0.
        2    1    3    3  502    0  0.73557396232E+03 -0.16733670505E+03 -0.68991852032E+03  0.10222808771E+04  0.25500000920E-02 0. -1.
       -2    1    3    3    0  502 -0.73557396232E+03  0.16733670505E+03 -0.71036895498E+03  0.10361923948E+04  0.25500000920E-02 0.  1.
</event>
<event>
 5   0  0.8365016E-04  0.1531652E+04  0.7818609E-02  0.8863673E-01
       -1   -1    0    0    0  501  0.00000000000E+00  0.00000000000E+00  0.13651489416E+04  0.13651489417E+04  0.50400001928E-02 0. -1.
        1   -1    0    0  501    0  0.00000000000E+00  0.00000000000E+00 -0.42961567591E+03  0.42961567594E+03  0.50400001928E-02 0.  1.
    10030    2    1    2    0    0  0.00000000000E+00  0.00000000000E+00  0.93553326574E+03  0.17947646176E+04  0.15316518995E+04 0.  0.
        3    1    3    3  502    0 -0.64430297779E+03 -0.32534956355E+03  0.16784791106E+03  0.74104763487E+03  0.10100000352E+00 0.  1.
       -3    1    3    3    0  502  0.64430297779E+03  0.32534956355E+03  0.76768535468E+03  0.10537169827E+04  0.10100000352E+00 0. -1.
</event>
<event>
 5   0  0.1552067E-03  0.1492337E+04  0.7818609E-02  0.8889565E-01
       -2   -1    0    0    0  501  0.00000000000E+00  0.00000000000E+00  0.30339538931E+03  0.30339538932E+03  0.25500000920E-02 0. -1.
        2   -1    0    0  501    0  0.00000000000E+00  0.00000000000E+00 -0.18351214502E+04  0.18351214502E+04  0.25500000920E-02 0.  1.
    10030    2    1    2    0    0  0.00000000000E+00  0.00000000000E+00 -0.15317260609E+04  0.21385168395E+04  0.14923369416E+04 0.  0.
        3    1    3    3  502    0  0.42524123013E+03 -0.26814955900E+03  0.24280901349E+02  0.50331288694E+03  0.10100000352E+00 0. -1.
       -3    1    3    3    0  502 -0.42524123013E+03  0.26814955900E+03 -0.15560069622E+04  0.16352039526E+04  0.10100000352E+00 0.  1.
</event>
<event>
 5   0  0.1484056E-03  0.1508166E+04  0.7818609E-02  0.8879041E-01
        2   -1    0    0  501    0  0.00000000000E+00  0.00000000000E+00  0.14465738018E+04  0.14465738018E+04  0.25500000920E-02 0. -1.
       -2   -1    0    0    0  501  0.00000000000E+00  0.00000000000E+00 -0.39309530684E+03  0.39309530685E+03  0.25500000920E-02 0.  1.
    10030    2    1    2    0    0  0.00000000000E+00  0.00000000000E+00  0.10534784950E+04  0.18396691087E+04  0.15081662674E+04 0.  0.
        5    1    3    3  502    0 -0.14196066280E+03  0.90853327406E+02 -0.36980691726E+03  0.40643130162E+03  0.46999998093E+01 0.  1.
       -5    1    3    3    0  502  0.14196066280E+03 -0.90853327406E+02  0.14232854122E+04  0.14332378070E+04  0.46999998093E+01 0. -1.
</event>
<event>
 5   0  0.1511546E-03  0.1489371E+04  0.7818609E-02  0.8891552E-01
       -2   -1    0    0    0  501  0.00000000000E+00  0.00000000000E+00  0.69052916326E+03  0.69052916326E+03  0.25500000920E-02 0. -1.
        2   -1    0    0  501    0  0.00000000000E+00  0.00000000000E+00 -0.80308895360E+03  0.80308895360E+03  0.25500000920E-02 0.  1.
    10030    2    1    2    0    0  0.00000000000E+00  0.00000000000E+00 -0.11255979034E+03  0.14936181169E+04  0.14893707976E+04 0.  0.
        1    1    3    3  502    0 -0.27335625999E+02 -0.22515437962E+03 -0.76760838605E+03  0.80041512071E+03  0.50400001928E-02 0.  1.
       -1    1    3    3    0  502  0.27335625999E+02  0.22515437962E+03  0.65504859571E+03  0.69320299615E+03  0.50400001928E-02 0. -1.
</event>
<event>
 5   0  0.8306301E-04  0.1506402E+04  0.7818609E-02  0.8880207E-01
        1   -1    0    0  501    0  0.00000000000E+00  0.00000000000E+00  0.99975702847E+03  0.99975702848E+03  0.50400001928E-02 0. -1.
       -1   -1    0    0    0  501  0.00000000000E+00  0.00000000000E+00 -0.56744944175E+03  0.56744944177E+03  0.50400001928E-02 0.  1.
    10030    2    1    2    0    0  0.00000000000E+00  0.00000000000E+00  0.43230758672E+03  0.15672064702E+04  0.15064017628E+04 0.  0.
        4    1    3    3  502    0 -0.21603303818E+03  0.12426142770E+03  0.95561696097E+03  0.98758116881E+03  0.12699999809E+01 0. -1.
       -4    1    3    3    0  502  0.21603303818E+03 -0.12426142770E+03 -0.52330937424E+03  0.57962530144E+03  0.12699999809E+01 0.  1.
</event>
<event>
 5   0  0.8058234E-04  0.1526371E+04  0.7818609E-02  0.8867104E-01
       -1   -1    0    0    0  501  0.00000000000E+00  0.00000000000E+00  0.30845156508E+03  0.30845156512E+03  0.50400001928E-02 0. -1.
        1   -1    0    0  501    0  0.00000000000E+00  0.00000000000E+00 -0.18883090480E+04  0.18883090480E+04  0.50400001928E-02 0.  1.
    10030    2    1    2    0    0  0.00000000000E+00  0.00000000000E+00 -0.15798574829E+04  0.21967606131E+04  0.15263707037E+04 0.  0.
        5    1    3    3  502    0 -0.33701595239E+03 -0.64077240476E+03 -0.11373135325E+04  0.13482111067E+04  0.46999998093E+01 0.  1.
       -5    1    3    3    0  502  0.33701595239E+03  0.64077240476E+03 -0.44254395037E+03  0.84854950644E+03  0.46999998093E+01 0. -1.
</event>
<event>
 5   0  0.7870317E-04  0.9793093E+03  0.7818609E-02  0.9331534E-01
        1   -1    0    0  501    0  0.00000000000E+00  0.00000000000E+00  0.18405158474E+04  0.18405158474E+04  0.50400001928E-02 0.  1.
       -1   -1    0    0    0  501  0.00000000000E+00  0.00000000000E+00 -0.13026874892E+03  0.13026874901E+03  0.50400001928E-02 0. -1.
    10030    2    1    2    0    0  0.00000000000E+00  0.00000000000E+00  0.17102470985E+04  0.19707845964E+04  0.97930934215E+03 0.  0.
        1    1    3    3  502    0 -0.17606170112E+03  0.35260246316E+03  0.27035804826E+03  0.47793272949E+03  0.50400001928E-02 0. -1.
       -1    1    3    3    0  502  0.17606170112E+03 -0.35260246316E+03  0.14398890502E+04  0.14928518669E+04  0.50400001928E-02 0.  1.
</event>
<event>
 5   0  0.1526126E-03  0.1610591E+04  0.7818609E-02  0.8814068E-01
       -2   -1    0    0    0  501  0.00000000000E+00  0.00000000000E+00  0.80347101329E+03  0.80347101330E+03  0.25500000920E-02 0. -1.
        2   -1    0    0  501    0  0.00000000000E+00  0.00000000000E+00 -0.80712437914E+03  0.80712437914E+03  0.25500000920E-02 0.  1.
    10030    2    1    2    0    0  0.00000000000E+00  0.00000000000E+00 -0.36533658474E+01  0.16105953924E+04  0.16105912489E+04 0.  0.
        2    1    3    3  502    0  0.26489828643E+03  0.68789610137E+03 -0.32606337925E+03  0.80603317285E+03  0.25500000920E-02 0.  1.
       -2    1    3    3    0  502 -0.26489828643E+03 -0.68789610137E+03  0.32241001340E+03  0.80456221959E+03  0.25500000920E-02 0. -1.
</event>
<event>
 5   0  0.7870317E-04  0.1496339E+04  0.7818609E-02  0.8886891E-01
        1   -1    0    0  501    0  0.00000000000E+00  0.00000000000E+00  0.12170748261E+04  0.12170748261E+04  0.50400001928E-02 0. -1.
       -1   -1    0    0    0  501  0.00000000000E+00  0.00000000000E+00 -0.45992057853E+03  0.45992057855E+03  0.50400001928E-02 0.  1.
    10030    2    1    2    0    0  0.00000000000E+00  0.00000000000E+00  0.75715424756E+03  0.16769954047E+04  0.14963392104E+04 0.  0.
        1    1    3    3  502    0  0.18827769287E+03  0.16182240356E+03  0.11695653460E+04  0.11956245558E+04  0.50400001928E-02 0. -1.
       -1    1    3    3    0  502 -0.18827769287E+03 -0.16182240356E+03 -0.41241109845E+03  0.48137084880E+03  0.50400001928E-02 0.  1.
</event>
<event>
 5   0  0.5603875E-04  0.1481235E+04  0.7818609E-02  0.8897028E-01
       -4   -1    0    0    0  501  0.00000000000E+00  0.00000000000E+00  0.56331112338E+03  0.56331255501E+03  0.12699999809E+01 0. -1.
        4   -1    0    0  501    0  0.00000000000E+00  0.00000000000E+00 -0.97372899474E+03  0.97372982294E+03  0.12699999809E+01 0.  1.
    10030    2    1    2    0    0  0.00000000000E+00  0.00000000000E+00 -0.41041787135E+03  0.15370423780E+04  0.14812347695E+04 0.  0.
        5    1    3    3  502    0 -0.46708141828E+02  0.71954315597E+03 -0.38059778958E+03  0.81535315738E+03  0.46999998093E+01 0. -1.
       -5    1    3    3    0  502  0.46708141828E+02 -0.71954315597E+03 -0.29820081772E+02  0.72168922057E+03  0.46999998093E+01 0.  1.
</event>
<event>
 5   0  0.8306301E-04  0.1442443E+04  0.7818609E-02  0.8923656E-01
       -1   -1    0    0    0  501  0.00000000000E+00  0.00000000000E+00  0.44937348669E+03  0.44937348672E+03  0.50400001928E-02 0. -1.
        1   -1    0    0  501    0  0.00000000000E+00  0.00000000000E+00 -0.11575243226E+04  0.11575243226E+04  0.50400001928E-02 0.  1.
    10030    2    1    2    0    0  0.00000000000E+00  0.00000000000E+00 -0.70815083592E+03  0.16068978093E+04  0.14424434004E+04 0.  0.
        4    1    3    3  502    0  0.42191259027E+03  0.15282737960E+03 -0.98306528956E+03  0.10806412070E+04  0.12699999809E+01 0.  1.
       -4    1    3    3    0  502 -0.42191259027E+03 -0.15282737960E+03  0.27491445365E+03  0.52625660235E+03  0.12699999809E+01 0. -1.
</event>
<event>
 5   0  0.1552067E-03  0.1521973E+04  0.7818609E-02  0.8869971E-01
        2   -1    0    0  501    0  0.00000000000E+00  0.00000000000E+00  0.18054544409E+04  0.18054544409E+04  0.25500000920E-02 0.  1.
       -2   -1    0    0    0  501  0.00000000000E+00  0.00000000000E+00 -0.32075037771E+03  0.32075037772E+03  0.25500000920E-02 0. -1.
    10030    2    1    2    0    0  0.00000000000E+00  0.00000000000E+00  0.14847040632E+04  0.21262048186E+04  0.15219726592E+04 0.  0.
        3    1    3    3  502    0 -0.15906033879E+03 -0.74329738382E+03  0.79289568832E+03  0.10983964562E+04  0.10100000352E+00 0.  1.
       -3    1    3    3    0  502  0.15906033879E+03  0.74329738382E+03  0.69180837485E+03  0.10278083624E+04  0.10100000352E+00 0. -1.
</event>
<event>
 5   0  0.1552067E-03  0.1500288E+04  0.7818609E-02  0.8884261E-01
        2   -1    0    0  501    0  0.00000000000E+00  0.00000000000E+00  0.91669055577E+03  0.91669055578E+03  0.25500000920E-02 0.  1.
       -2   -1    0    0    0  501  0.00000000000E+00  0.00000000000E+00 -0.61385632032E+03  0.61385632032E+03  0.25500000920E-02 0. -1.
    10030    2    1    2    0    0  0.00000000000E+00  0.00000000000E+00  0.30283423546E+03  0.15305468761E+04  0.15002883609E+04 0.  0.
        3    1    3    3  502    0 -0.24651730220E+03  0.46227846577E+03  0.69912895157E+03  0.87364378400E+03  0.10100000352E+00 0.  1.
       -3    1    3    3    0  502  0.24651730220E+03 -0.46227846577E+03 -0.39629471611E+03  0.65690309210E+03  0.10100000352E+00 0. -1.
</event>
<event>
 5   0  0.8191876E-04  0.1530285E+04  0.7818609E-02  0.8864560E-01
       -1   -1    0    0    0  501  0.00000000000E+00  0.00000000000E+00  0.48025796723E+03  0.48025796725E+03  0.50400001928E-02 0.  1.
        1   -1    0    0  501    0  0.00000000000E+00  0.00000000000E+00 -0.12190174330E+04  0.12190174330E+04  0.50400001928E-02 0. -1.
    10030    2    1    2    0    0  0.00000000000E+00  0.00000000000E+00 -0.73875946580E+03  0.16992754003E+04  0.15302847244E+04 0.  0.
        2    1    3    3  502    0 -0.25153616861E+03  0.11974159132E+03 -0.11607004946E+04  0.11936641617E+04  0.25500000920E-02 0. -1.
       -2    1    3    3    0  502  0.25153616861E+03 -0.11974159132E+03  0.42194102878E+03  0.50561123859E+03  0.25500000920E-02 0.  1.
</event>
<event>
 5   0  0.5603875E-04  0.1504496E+04  0.7818609E-02  0.8881469E-01
        3   -1    0    0  501    0  0.00000000000E+00  0.00000000000E+00  0.50068269846E+03  0.50068270865E+03  0.10100000352E+00 0.  1.
       -3   -1    0    0    0  501  0.00000000000E+00  0.00000000000E+00 -0.11302108650E+04  0.11302108695E+04  0.10100000352E+00 0. -1.
    10030    2    1    2    0    0  0.00000000000E+00  0.00000000000E+00 -0.62952816657E+03  0.16308935782E+04  0.15044959790E+04 0.  0.
        5    1    3    3  502    0 -0.41550491029E+03  0.15454546212E+03  0.34401487493E+03  0.56115680029E+03  0.46999998093E+01 0.  1.
       -5    1    3    3    0  502  0.41550491029E+03 -0.15454546212E+03 -0.97354304150E+03  0.10697367779E+04  0.46999998093E+01 0. -1.
</event>
<event>
 5   0  0.8058234E-04  0.1482102E+04  0.7818609E-02  0.8896443E-01
        1   -1    0    0  501    0  0.00000000000E+00  0.00000000000E+00  0.46797326280E+03  0.46797326283E+03  0.50400001928E-02 0. -1.
       -1   -1    0    0    0  501  0.00000000000E+00  0.00000000000E+00 -0.11734789763E+04  0.11734789763E+04  0.50400001928E-02 0.  1.
    10030    2    1    2    0    0  0.00000000000E+00  0.00000000000E+00 -0.70550571350E+03  0.16414522391E+04  0.14821022710E+04 0.  0.
        5    1    3    3  502    0  0.66312162358E+02  0.70862505913E+03 -0.58130920213E+03  0.91896096532E+03  0.46999998093E+01 0.  1.
       -5    1    3    3    0  502 -0.66312162358E+02 -0.70862505913E+03 -0.12419651137E+03  0.72249127382E+03  0.46999998093E+01 0. -1.
</event>
<event>
 5   0  0.1484056E-03  0.1512834E+04  0.7818609E-02  0.8875963E-01
       -2   -1    0    0    0  501  0.00000000000E+00  0.00000000000E+00  0.65977626468E+03  0.65977626468E+03  0.25500000920E-02 0. -1.
        2   -1    0    0  501    0  0.00000000000E+00  0.00000000000E+00 -0.86721364525E+03  0.86721364525E+03  0.25500000920E-02 0.  1.
    10030    2    1    2    0    0  0.00000000000E+00  0.00000000000E+00 -0.20743738057E+03  0.15269899099E+04  0.15128343988E+04 0.  0.
        5    1    3    3  502    0 -0.19150280002E+03  0.22052689434E+03 -0.80798621180E+03  0.85916776127E+03  0.46999998093E+01 0.  1.
       -5    1    3    3    0  502  0.19150280002E+03 -0.22052689434E+03  0.60054883124E+03  0.66782214866E+03  0.46999998093E+01 0. -1.
</event>
<event>
 5   0  0.1511546E-03  0.1496056E+04  0.7818609E-02  0.8887080E-01
       -2   -1    0    0    0  501  0.00000000000E+00  0.00000000000E+00  0.13574250571E+04  0.13574250571E+04  0.25500000920E-02 0. -1.
        2   -1    0    0  501    0  0.00000000000E+00  0.00000000000E+00 -0.41221146062E+03  0.41221146063E+03  0.25500000920E-02 0.  1.
    10030    2    1    2    0    0  0.00000000000E+00  0.00000000000E+00  0.94521359648E+03  0.17696365177E+04  0.14960563699E+04 0.  0.
        1    1    3    3  502    0  0.12639851738E+03 -0.35322302218E+03 -0.29288588846E+03  0.47594666957E+03  0.50400001928E-02 0.  1.
       -1    1    3    3    0  502 -0.12639851738E+03  0.35322302218E+03  0.12380994849E+04  0.12936898482E+04  0.50400001928E-02 0. -1.
</event>
<event>
 5   0  0.5603875E-04  0.1477494E+04  0.7818609E-02  0.8899559E-01
       -3   -1    0    0    0  501  0.00000000000E+00  0.00000000000E+00  0.47130638894E+03  0.47130639976E+03  0.10100000352E+00 0. -1.
        3   -1    0    0  501    0  0.00000000000E+00  0.00000000000E+00 -0.11579455142E+04  0.11579455186E+04  0.10100000352E+00 0.  1.
    10030    2    1    2    0    0  0.00000000000E+00  0.00000000000E+00 -0.68663912528E+03  0.16292519184E+04  0.14774940017E+04 0.  0.
        2    1    3    3  502    0  0.30225572368E+03 -0.16145146714E+03  0.37836550925E+03  0.51047581464E+03  0.25500000920E-02 0. -1.
       -2    1    3    3    0  502 -0.30225572368E+03  0.16145146714E+03 -0.10650046345E+04  0.11187761037E+04  0.25500000920E-02 0.  1.
</event>
<event>
 5   0  0.8306301E-04  0.1506305E+04  0.7818609E-02  0.8880271E-01
       -1   -1    0    0    0  501  0.00000000000E+00  0.00000000000E+00  0.56559284908E+03  0.56559284910E+03  0.50400001928E-02 0.  1.
        1   -1    0    0  501    0  0.00000000000E+00  0.00000000000E+00 -0.10029101087E+04  0.10029101087E+04  0.50400001928E-02 0. -1.
    10030    2    1    2    0    0  0.00000000000E+00  0.00000000000E+00 -0.43731725960E+03  0.15685029578E+04  0.15063051295E+04 0.  0.
        4    1    3    3  502    0 -0.19038888582E+03 -0.62683834283E+03 -0.60556950851E+03  0.89212682866E+03  0.12699999809E+01 0. -1.
       -4    1    3    3    0  502  0.19038888582E+03  0.62683834283E+03  0.16825224892E+03  0.67637612912E+03  0.12699999809E+01 0.  1.
</event>
<event>
 5   0  0.1500956E-03  0.1461586E+04  0.7818609E-02  0.8910407E-01
       -2   -1    0    0    0  501  0.00000000000E+00  0.00000000000E+00  0.28389269468E+03  0.28389269469E+03  0.25500000920E-02 0. -1.
        2   -1    0    0  501    0  0.00000000000E+00  0.00000000000E+00 -0.18811987115E+04  0.18811987115E+04  0.25500000920E-02 0.  1.
    10030    2    1    2    0    0  0.00000000000E+00  0.00000000000E+00 -0.15973060168E+04  0.21650914062E+04  0.14615862225E+04 0.  0.
        4    1    3    3  502    0 -0.89890452902E+02  0.22892674393E+03  0.22074440004E+03  0.33048063583E+03  0.12699999809E+01 0. -1.
       -4    1    3    3    0  502  0.89890452902E+02 -0.22892674393E+03 -0.18180504168E+04  0.18346107703E+04  0.12699999809E+01 0.  1.
</event>
<event>
 5   0  0.1552067E-03  0.1571914E+04  0.7818609E-02  0.8837990E-01
       -2   -1    0    0    0  501  0.00000000000E+00  0.00000000000E+00  0.49476312156E+03  0.49476312157E+03  0.25500000920E-02 0. -1.
        2   -1    0    0  501    0  0.00000000000E+00  0.00000000000E+00 -0.12485340737E+04  0.12485340737E+04  0.25500000920E-02 0.  1.
    10030    2    1    2    0    0  0.00000000000E+00  0.00000000000E+00 -0.75377095216E+03  0.17432971953E+04  0.15719142670E+04 0.  0.
        3    1    3    3  502    0  0.36941302414E+02 -0.77985497994E+03 -0.27651900350E+03  0.82825190556E+03  0.10100000352E+00 0. -1.
       -3    1    3    3    0  502 -0.36941302414E+02  0.77985497994E+03 -0.47725194867E+03  0.91504528974E+03  0.10100000352E+00 0.  1.
</event>
<event>
 5   0  0.1484056E-03  0.1495385E+04  0.7818609E-02  0.8887528E-01
        2   -1    0    0  501    0  0.00000000000E+00  0.00000000000E+00  0.14462273246E+04  0.14462273246E+04  0.25500000920E-02 0. -1.
       -2   -1    0    0    0  501  0.00000000000E+00  0.00000000000E+00 -0.38655330046E+03  0.38655330046E+03  0.25500000920E-02 0.  1.
    10030    2    1    2    0    0  0.00000000000E+00  0.00000000000E+00  0.10596740242E+04  0.18327806251E+04  0.14953848275E+04 0.  0.
        5    1    3    3  502    0 -0.45291179774E+03 -0.16951791410E+03 -0.16904472608E+03  0.51231204275E+03  0.46999998093E+01 0.  1.
       -5    1    3    3    0  502  0.45291179774E+03  0.16951791410E+03  0.12287187502E+04  0.13204685823E+04  0.46999998093E+01 0. -1.
</event>
<event>
 5   0  0.1484056E-03  0.1336467E+04  0.7818609E-02  0.9001136E-01
       -2   -1    0    0    0  501  0.00000000000E+00  0.00000000000E+00  0.89048944653E+03  0.89048944653E+03  0.25500000920E-02 0. -1.
        2   -1    0    0  501    0  0.00000000000E+00  0.00000000000E+00 -0.50144989080E+03  0.50144989080E+03  0.25500000920E-02 0.  1.
    10030    2    1    2    0    0  0.00000000000E+00  0.00000000000E+00  0.38903955573E+03  0.13919393373E+04  0.13364667384E+04 0.  0.
        5    1    3    3  502    0 -0.34013094104E+03  0.48252222417E+03 -0.13151845173E+03  0.60484373768E+03  0.46999998093E+01 0. -1.
       -5    1    3    3    0  502  0.34013094104E+03 -0.48252222417E+03  0.52055800746E+03  0.78709559965E+03  0.46999998093E+01 0.  1.
</event>
<event>
 5   0  0.1484056E-03  0.1412855E+04  0.7818609E-02  0.8944566E-01
        2   -1    0    0  501    0  0.00000000000E+00  0.00000000000E+00  0.80750811901E+03  0.80750811901E+03  0.25500000920E-02 0.  1.
       -2   -1    0    0    0  501  0.00000000000E+00  0.00000000000E+00 -0.61799960451E+03  0.61799960452E+03  0.25500000920E-02 0. -1.
    10030    2    1    2    0    0  0.00000000000E+00  0.00000000000E+00  0.18950851450E+03  0.14255077235E+04  0.14128548378E+04 0.  0.
        5    1    3    3  502    0  0.67086300309E+03 -0.18914162651E+03 -0.21103912554E+02  0.69735155332E+03  0.46999998093E+01 0.  1.
       -5    1    3    3    0  502 -0.67086300309E+03  0.18914162651E+03  0.21061242705E+03  0.72815617021E+03  0.46999998093E+01 0. -1.
</event>
<event>
 5   0  0.8058234E-04  0.1525003E+04  0.7818609E-02  0.8867994E-01
        1   -1    0    0  501    0  0.00000000000E+00  0.00000000000E+00  0.10866360271E+04  0.10866360272E+04  0.50400001928E-02 0.  1.
       -1   -1    0    0    0  501  0.00000000000E+00  0.00000000000E+00 -0.53505356782E+03  0.53505356785E+03  0.50400001928E-02 0. -1.
    10030    2    1    2    0    0  0.00000000000E+00  0.00000000000E+00  0.55158245932E+03  0.16216895950E+04  0.15250029289E+04 0.  0.
        5    1    3    3  502    0  0.38348487695E+03 -0.49170383059E+03 -0.19083838029E+03  0.65213088046E+03  0.46999998093E+01 0. -1.
       -5    1    3    3    0  502 -0.38348487695E+03  0.49170383059E+03  0.74242083961E+03  0.96955871454E+03  0.46999998093E+01 0.  1.
</event>
<event>
 5   0  0.1511546E-03  0.1485655E+04  0.7818609E-02  0.8894049E-01
       -2   -1    0    0    0  501  0.00000000000E+00  0.00000000000E+00  0.94534361155E+03  0.94534361155E+03  0.25500000920E-02 0.  1.
        2   -1    0    0  501    0  0.00000000000E+00  0.00000000000E+00 -0.58369548057E+03  0.58369548057E+03  0.25500000920E-02 0. -1.
    10030    2    1    2    0    0  0.00000000000E+00  0.00000000000E+00  0.36164813098E+03  0.15290390921E+04  0.14856551331E+04 0.  0.
        1    1    3    3  502    0  0.16588631397E+03  0.31699476611E+03 -0.48917676407E+03  0.60605103534E+03  0.50400001928E-02 0. -1.
       -1    1    3    3    0  502 -0.16588631397E+03 -0.31699476611E+03  0.85082489505E+03  0.92298805679E+03  0.50400001928E-02 0.  1.
</event>
<event>
 5   0  0.8191876E-04  0.1476146E+04  0.7818609E-02  0.8900473E-01
        1   -1    0    0  501    0  0.00000000000E+00  0.00000000000E+00  0.84603712305E+03  0.84603712307E+03  0.50400001928E-02 0. -1.
       -1   -1    0    0    0  501  0.00000000000E+00  0.00000000000E+00 -0.64388602660E+03  0.64388602662E+03  0.50400001928E-02 0.  1.
    10030    2    1    2    0    0  0.00000000000E+00  0.00000000000E+00  0.20215109646E+03  0.14899231497E+04  0.14761456318E+04 0.  0.
        2    1    3    3  502    0  0.36332831679E+03  0.27589034162E+03  0.68668776203E+03  0.82441678107E+03  0.25500000920E-02 0. -1.
       -2    1    3    3    0  502 -0.36332831679E+03 -0.27589034162E+03 -0.48453666557E+03  0.66550636862E+03  0.25500000920E-02 0.  1.
</event>
<event>
 5   0  0.8191876E-04  0.1455252E+04  0.7818609E-02  0.8914768E-01
       -1   -1    0    0    0  501  0.00000000000E+00  0.00000000000E+00  0.44806087248E+03  0.44806087251E+03  0.50400001928E-02 0.  1.
        1   -1    0    0  501    0  0.00000000000E+00  0.00000000000E+00 -0.11816238154E+04  0.11816238154E+04  0.50400001928E-02 0. -1.
    10030    2    1    2    0    0  0.00000000000E+00  0.00000000000E+00 -0.73356294291E+03  0.16296846879E+04  0.14552517276E+04 0.  0.
        2    1    3    3  502    0  0.25803076746E+03 -0.12301074997E+03  0.38254750838E+03  0.47755012066E+03  0.25500000920E-02 0.  1.
       -2    1    3    3    0  502 -0.25803076746E+03  0.12301074997E+03 -0.11161104513E+04  0.11521345673E+04  0.25500000920E-02 0. -1.
</event>
<event>
 5   0  0.8365016E-04  0.1496957E+04  0.7818609E-02  0.8886479E-01
        1   -1    0    0  501    0  0.00000000000E+00  0.00000000000E+00  0.17761624433E+04  0.17761624433E+04  0.50400001928E-02 0. -1.
       -1   -1    0    0    0  501  0.00000000000E+00  0.00000000000E+00 -0.31541046323E+03  0.31541046327E+03  0.50400001928E-02 0.  1.
    10030    2    1    2    0    0  0.00000000000E+00  0.00000000000E+00  0.14607519801E+04  0.20915729066E+04  0.14969572059E+04 0.  0.
        3    1    3    3  502    0 -0.21812704937E+03 -0.28428138446E+03  0.16485340684E+04  0.16870269412E+04  0.10100000352E+00 0. -1.
       -3    1    3    3    0  502  0.21812704937E+03  0.28428138446E+03 -0.18778208837E+03  0.40454596542E+03  0.10100000352E+00 0.  1.
</event>
<event>
 5   0  0.1511546E-03  0.1611260E+04  0.7818609E-02  0.8813660E-01
       -2   -1    0    0    0  501  0.00000000000E+00  0.00000000000E+00  0.11251131133E+04  0.11251131133E+04  0.25500000920E-02 0.  1.
        2   -1    0    0  501    0  0.00000000000E+00  0.00000000000E+00 -0.57686601978E+03  0.57686601978E+03  0.25500000920E-02 0. -1.
    10030    2    1    2    0    0  0.00000000000E+00  0.00000000000E+00  0.54824709356E+03  0.17019791331E+04  0.16112597848E+04 0.  0.
        1    1    3    3  502    0 -0.13374979714E+03 -0.79169587167E+03  0.34393682517E+03  0.87347804848E+03  0.50400001928E-02 0.  1.
       -1    1    3    3    0  502  0.13374979714E+03  0.79169587167E+03  0.20431026839E+03  0.82850108464E+03  0.50400001928E-02 0. -1.
</event>
<event>
 5   0  0.8306301E-04  0.1350780E+04  0.7818609E-02  0.8990238E-01
       -1   -1    0    0    0  501  0.00000000000E+00  0.00000000000E+00  0.93081950112E+03  0.93081950113E+03  0.50400001928E-02 0.  1.
        1   -1    0    0  501    0  0.00000000000E+00  0.00000000000E+00 -0.49005367500E+03  0.49005367502E+03  0.50400001928E-02 0. -1.
    10030    2    1    2    0    0  0.00000000000E+00  0.00000000000E+00  0.44076582612E+03  0.14208731762E+04  0.13507798004E+04 0.  0.
        4    1    3    3  502    0  0.20829203618E+03  0.21710184368E+03  0.85643449233E+03  0.90774469727E+03  0.12699999809E+01 0.  1.
       -4    1    3    3    0  502 -0.20829203618E+03 -0.21710184368E+03 -0.41566866622E+03  0.51312847888E+03  0.12699999809E+01 0. -1.
</event>
<event>
 5   0  0.8306301E-04  0.1508378E+04  0.7818609E-02  0.8878901E-01
       -1   -1    0    0    0  501  0.00000000000E+00  0.00000000000E+00  0.78732268509E+03  0.78732268511E+03  0.50400001928E-02 0.  1.
        1   -1    0    0  501    0  0.00000000000E+00  0.00000000000E+00 -0.72244961171E+03  0.72244961173E+03  0.50400001928E-02 0. -1.
    10030    2    1    2    0    0  0.00000000000E+00  0.00000000000E+00  0.64873073381E+02  0.15097722968E+04  0.15083778945E+04 0.  0.
        4    1    3    3  502    0  0.65305689063E+03  0.67232436279E+02  0.40398833344E+03  0.77085127576E+03  0.12699999809E+01 0.  1.
       -4    1    3    3    0  502 -0.65305689063E+03 -0.67232436279E+02 -0.33911526006E+03  0.73892102108E+03  0.12699999809E+01 0. -1.
</event>
<event>
 5   0  0.8058234E-04  0.1510453E+04  0.7818609E-02  0.8877531E-01
        1   -1    0    0  501    0  0.00000000000E+00  0.00000000000E+00  0.10488212386E+04  0.10488212387E+04  0.50400001928E-02 0. -1.
       -1   -1    0    0    0  501  0.00000000000E+00  0.00000000000E+00 -0.54381723940E+03  0.54381723942E+03  0.50400001928E-02 0.  1.
    10030    2    1    2    0    0  0.00000000000E+00  0.00000000000E+00  0.50500399925E+03  0.15926384781E+04  0.15104530058E+04 0.  0.
        5    1    3    3  502    0 -0.54533636990E+03  0.21917736286E+03  0.75255809033E+03  0.95488022393E+03  0.46999998093E+01 0. -1.
       -5    1    3    3    0  502  0.54533636990E+03 -0.21917736286E+03 -0.24755409109E+03  0.63775825415E+03  0.46999998093E+01 0.  1.
</event>
<event>
 5   0  0.1526126E-03  0.1514596E+04  0.7818609E-02  0.8874805E-01
        2   -1    0    0  501    0  0.00000000000E+00  0.00000000000E+00  0.13852226203E+04  0.13852226203E+04  0.25500000920E-02 0.  1.
       -2   -1    0    0    0  501  0.00000000000E+00  0.00000000000E+00 -0.41401284255E+03  0.41401284256E+03  0.25500000920E-02 0. -1.
    10030    2    1    2    0    0  0.00000000000E+00  0.00000000000E+00  0.97120977776E+03  0.17992354629E+04  0.15145955957E+04 0.  0.
        2    1    3    3  502    0  0.30887155116E+02 -0.20542234201E+03  0.13507154556E+04  0.13665959889E+04  0.25500000920E-02 0.  1.
       -2    1    3    3    0  502 -0.30887155116E+02  0.20542234201E+03 -0.37950567781E+03  0.43263947398E+03  0.25500000920E-02 0. -1.
</event>
<event>
 5   0  0.1500956E-03  0.1478430E+04  0.7818609E-02  0.8898925E-01
       -2   -1    0    0    0  501  0.00000000000E+00  0.00000000000E+00  0.33540692502E+03  0.33540692503E+03  0.25500000920E-02 0.  1.
        2   -1    0    0  501    0  0.00000000000E+00  0.00000000000E+00 -0.16291811896E+04  0.16291811896E+04  0.25500000920E-02 0. -1.
    10030    2    1    2    0    0  0.00000000000E+00  0.00000000000E+00 -0.12937742646E+04  0.19645881146E+04  0.14784297793E+04 0.  0.
        4    1    3    3  502    0  0.37133303058E+03  0.15824989213E+03 -0.14698055349E+04  0.15242247772E+04  0.12699999809E+01 0. -1.
       -4    1    3    3    0  502 -0.37133303058E+03 -0.15824989213E+03  0.17603127032E+03  0.44036333747E+03  0.12699999809E+01 0.  1.
</event>
<event>
 5   0  0.1484056E-03  0.1492905E+04  0.7818609E-02  0.8889185E-01
       -2   -1    0    0    0  501  0.00000000000E+00  0.00000000000E+00  0.31184699036E+03  0.31184699037E+03  0.25500000920E-02 0. -1.
        2   -1    0    0  501    0  0.00000000000E+00  0.00000000000E+00 -0.17867450778E+04  0.17867450778E+04  0.25500000920E-02 0.  1.
    10030    2    1    2    0    0  0.00000000000E+00  0.00000000000E+00 -0.14748980874E+04  0.20985920682E+04  0.14929046521E+04 0.  0.
        5    1    3    3  502    0 -0.64655925312E+02  0.29196800623E+03 -0.16988393393E+04  0.17249646072E+04  0.46999998093E+01 0.  1.
       -5    1    3    3    0  502  0.64655925312E+02 -0.29196800623E+03  0.22394125184E+03  0.37362746100E+03  0.46999998093E+01 0. -1.
</event>
<event>
 5   0  0.1552067E-03  0.1467925E+04  0.7818609E-02  0.8906067E-01
       -2   -1    0    0    0  501  0.00000000000E+00  0.00000000000E+00  0.33291435121E+03  0.33291435122E+03  0.25500000920E-02 0. -1.
        2   -1    0    0  501    0  0.00000000000E+00  0.00000000000E+00 -0.16181376801E+04  0.16181376801E+04  0.25500000920E-02 0.  1.
    10030    2    1    2    0    0  0.00000000000E+00  0.00000000000E+00 -0.12852233289E+04  0.19510520313E+04  0.14679254149E+04 0.  0.
        3    1    3    3  502    0  0.42003181211E+03  0.48497071717E+03 -0.11164169716E+04  0.12876374429E+04  0.10100000352E+00 0.  1.
       -3    1    3    3    0  502 -0.42003181211E+03 -0.48497071717E+03 -0.16880635734E+03  0.66341458846E+03  0.10100000352E+00 0. -1.
</event>
<event>
 5   0  0.1484056E-03  0.1505487E+04  0.7818609E-02  0.8880812E-01
       -2   -1    0    0    0  501  0.00000000000E+00  0.00000000000E+00  0.36864794378E+03  0.36864794379E+03  0.25500000920E-02 0.  1.
        2   -1    0    0  501    0  0.00000000000E+00  0.00000000000E+00 -0.15370292210E+04  0.15370292210E+04  0.25500000920E-02 0. -1.
    10030    2    1    2    0    0  0.00000000000E+00  0.00000000000E+00 -0.11683812772E+04  0.19056771647E+04  0.15054868473E+04 0.  0.
        5    1    3    3  502    0 -0.26434975695E+03 -0.42179737801E+03  0.13052966261E+03  0.51463958740E+03  0.46999998093E+01 0.  1.
       -5    1    3    3    0  502  0.26434975695E+03  0.42179737801E+03 -0.12989109398E+04  0.13910375773E+04  0.46999998093E+01 0. -1.
</event>
<event>
 5   0  0.1526126E-03  0.1528157E+04  0.7818609E-02  0.8865942E-01
        2   -1    0    0  501    0  0.00000000000E+00  0.00000000000E+00  0.25627511457E+04  0.25627511457E+04  0.25500000920E-02 0.  1.
       -2   -1    0    0    0  501  0.00000000000E+00  0.00000000000E+00 -0.22780821152E+03  0.22780821153E+03  0.25500000920E-02 0. -1.
    10030    2    1    2    0    0  0.00000000000E+00  0.00000000000E+00  0.23349429341E+04  0.27905593572E+04  0.15281567395E+04 0.  0.
        2    1    3    3  502    0  0.43048517214E+03  0.30233093596E+03  0.15552107037E+03  0.54855107475E+03  0.25500000920E-02 0. -1.
       -2    1    3    3    0  502 -0.43048517214E+03 -0.30233093596E+03  0.21794218638E+04  0.22420082825E+04  0.25500000920E-02 0.  1.
</event>
<event>
 5   0  0.7870317E-04  0.1519562E+04  0.7818609E-02  0.8871548E-01
       -1   -1    0    0    0  501  0.00000000000E+00  0.00000000000E+00  0.12620775272E+04  0.12620775273E+04  0.50400001928E-02 0.  1.
        1   -1    0    0  501    0  0.00000000000E+00  0.00000000000E+00 -0.45739424947E+03  0.45739424950E+03  0.50400001928E-02 0. -1.
    10030    2    1    2    0    0  0.00000000000E+00  0.00000000000E+00  0.80468327777E+03  0.17194717768E+04  0.15195617834E+04 0.  0.
        1    1    3    3  502    0  0.79147788282E+02  0.39451063582E+03  0.11316162763E+04  0.12010239011E+04  0.50400001928E-02 0.  1.
       -1    1    3    3    0  502 -0.79147788282E+02 -0.39451063582E+03 -0.32693299857E+03  0.51844787563E+03  0.50400001928E-02 0. -1.
</event>
<event>
 5   0  0.8306301E-04  0.1466384E+04  0.7818609E-02  0.8907120E-01
       -1   -1    0    0    0  501  0.00000000000E+00  0.00000000000E+00  0.90792056600E+03  0.90792056601E+03  0.50400001928E-02 0.  1.
        1   -1    0    0  501    0  0.00000000000E+00  0.00000000000E+00 -0.59208997949E+03  0.59208997952E+03  0.50400001928E-02 0. -1.
    10030    2    1    2    0    0  0.00000000000E+00  0.00000000000E+00  0.31583058650E+03  0.15000105455E+04  0.14663842189E+04 0.  0.
        4    1    3    3  502    0  0.58954095694E+01  0.69691954218E+03  0.39081468726E+03  0.79904276282E+03  0.12699999809E+01 0.  1.
       -4    1    3    3    0  502 -0.58954095694E+01 -0.69691954218E+03 -0.74984100759E+02  0.70096778271E+03  0.12699999809E+01 0. -1.
</event>
<event>
 5   0  0.1500956E-03  0.1449843E+04  0.7818609E-02  0.8918509E-01
        2   -1    0    0  501    0  0.00000000000E+00  0.00000000000E+00  0.22264592981E+04  0.22264592981E+04  0.25500000920E-02 0. -1.
       -2   -1    0    0    0  501  0.00000000000E+00  0.00000000000E+00 -0.23603010933E+03  0.23603010934E+03  0.25500000920E-02 0.  1.
    10030    2    1    2    0    0  0.00000000000E+00  0.00000000000E+00  0.19904291888E+04  0.24624894075E+04  0.14498433454E+04 0.  0.
        4    1    3    3  502    0 -0.26862914277E+03  0.18207313046E+03 -0.10576701240E+03  0.34132171773E+03  0.12699999809E+01 0.  1.
       -4    1    3    3    0  502  0.26862914277E+03 -0.18207313046E+03  0.20961962012E+04  0.21211676897E+04  0.12699999809E+01 0. -1.
</event>
<event>
 5   0  0.1500956E-03  0.1549217E+04  0.7818609E-02  0.8852368E-01
        2   -1    0    0  501    0  0.00000000000E+00  0.00000000000E+00  0.90615866015E+03  0.90615866016E+03  0.25500000920E-02 0.  1.
       -2   -1    0    0    0  501  0.00000000000E+00  0.00000000000E+00 -0.66215635088E+03  0.66215635089E+03  0.25500000920E-02 0. -1.
    10030    2    1    2    0    0  0.00000000000E+00  0.00000000000E+00  0.24400230927E+03  0.15683150110E+04  0.15492174950E+04 0.  0.
        4    1    3    3  502    0  0.37413971907E+03  0.19497004928E+03 -0.53564016941E+03  0.68184004978E+03  0.12699999809E+01 0. -1.
       -4    1    3    3    0  502 -0.37413971907E+03 -0.19497004928E+03  0.77964247868E+03  0.88647496127E+03  0.12699999809E+01 0.  1.
</event>
<event>
 5   0  0.8191876E-04  0.9438599E+03  0.7818609E-02  0.9372356E-01
        1   -1    0    0  501    0  0.00000000000E+00  0.00000000000E+00  0.10099797859E+04  0.10099797860E+04  0.50400001928E-02 0.  1.
       -1   -1    0    0    0  501  0.00000000000E+00  0.00000000000E+00 -0.22051716384E+03  0.22051716390E+03  0.50400001928E-02 0. -1.
    10030    2    1    2    0    0  0.00000000000E+00  0.00000000000E+00  0.78946262210E+03  0.12304969498E+04  0.94385990056E+03 0.  0.
        2    1    3    3  502    0  0.16538627987E+03  0.34132059447E+03  0.28617123466E+02  0.38035681871E+03  0.25500000920E-02 0. -1.
       -2    1    3    3    0  502 -0.16538627987E+03 -0.34132059447E+03  0.76084549863E+03  0.85014013114E+03  0.25500000920E-02 0.  1.
</event>
<event>
 5   0  0.8191876E-04  0.1471093E+04  0.7818609E-02  0.8903907E-01
        1   -1    0    0  501    0  0.00000000000E+00  0.00000000000E+00  0.91482666283E+03  0.91482666285E+03  0.50400001928E-02 0. -1.
       -1   -1    0    0    0  501  0.00000000000E+00  0.00000000000E+00 -0.59139996300E+03  0.59139996302E+03  0.50400001928E-02 0.  1.
    10030    2    1    2    0    0  0.00000000000E+00  0.00000000000E+00  0.32342669983E+03  0.15062266259E+04  0.14710927293E+04 0.  0.
        2    1    3    3  502    0 -0.18512487824E+03  0.33327601735E+03 -0.48234423225E+03  0.61481711320E+03  0.25500000920E-02 0.  1.
       -2    1    3    3    0  502  0.18512487824E+03 -0.33327601735E+03  0.80577093208E+03  0.89140951267E+03  0.25500000920E-02 0. -1.
</event>
<event>
 5   0  0.1526126E-03  0.1475700E+04  0.7818609E-02  0.8900775E-01
       -2   -1    0    0    0  501  0.00000000000E+00  0.00000000000E+00  0.34517308156E+03  0.34517308157E+03  0.25500000920E-02 0. -1.
        2   -1    0    0  501    0  0.00000000000E+00  0.00000000000E+00 -0.15772454173E+04  0.15772454173E+04  0.25500000920E-02 0.  1.
    10030    2    1    2    0    0  0.00000000000E+00  0.00000000000E+00 -0.12320723357E+04  0.19224184989E+04  0.14757000523E+04 0.  0.
        2    1    3    3  502    0  0.58406990657E+03 -0.31494169703E+03 -0.19572745427E+03  0.69183463678E+03  0.25500000920E-02 0. -1.
       -2    1    3    3    0  502 -0.58406990657E+03  0.31494169703E+03 -0.10363448815E+04  0.12305838621E+04  0.25500000920E-02 0.  1.
</event>
<event>
 5   0  0.1552067E-03  0.1492391E+04  0.7818609E-02  0.8889529E-01
        2   -1    0    0  501    0  0.00000000000E+00  0.00000000000E+00  0.12755145876E+04  0.12755145876E+04  0.25500000920E-02 0.  1.
       -2   -1    0    0    0  501  0.00000000000E+00  0.00000000000E+00 -0.43653554078E+03  0.43653554079E+03  0.25500000920E-02 0. -1.
    10030    2    1    2    0    0  0.00000000000E+00  0.00000000000E+00  0.83897904677E+03  0.17120501283E+04  0.14923906329E+04 0.  0.
        3    1    3    3  502    0  0.59523999589E+03 -0.10173351443E+03 -0.83374835868E+02  0.60959965069E+03  0.10100000352E+00 0. -1.
       -3    1    3    3    0  502 -0.59523999589E+03  0.10173351443E+03  0.92235388264E+03  0.11024504777E+04  0.10100000352E+00 0.  1.
</event>
<event>
 5   0  0.1526126E-03  0.1484540E+04  0.7818609E-02  0.8894799E-01
        2   -1    0    0  501    0  0.00000000000E+00  0.00000000000E+00  0.52721157207E+03  0.52721157208E+03  0.25500000920E-02 0.  1.
       -2   -1    0    0    0  501  0.00000000000E+00  0.00000000000E+00 -0.10450549419E+04  0.10450549419E+04  0.25500000920E-02 0. -1.
    10030    2    1    2    0    0  0.00000000000E+00  0.00000000000E+00 -0.51784336981E+03  0.15722665140E+04  0.14845404121E+04 0.  0.
        2    1    3    3  502    0 -0.66855811142E+03  0.27056953186E+03 -0.73090108385E+02  0.72492757146E+03  0.25500000920E-02 0.  1.
       -2    1    3    3    0  502  0.66855811142E+03 -0.27056953186E+03 -0.44475326142E+03  0.84733894250E+03  0.25500000920E-02 0. -1.
</event>
<event>
 5   0  0.1511546E-03  0.1376708E+04  0.7818609E-02  0.8970853E-01
       -2   -1    0    0    0  501  0.00000000000E+00  0.00000000000E+00  0.63950974532E+03  0.63950974532E+03  0.25500000920E-02 0. -1.
        2   -1    0    0  501    0  0.00000000000E+00  0.00000000000E+00 -0.74092899020E+03  0.74092899021E+03  0.25500000920E-02 0.  1.
    10030    2    1    2    0    0  0.00000000000E+00  0.00000000000E+00 -0.10141924489E+03  0.13804387355E+04  0.13767081170E+04 0.  0.
        1    1    3    3  502    0  0.54359465745E+03  0.32137673649E+02  0.37150542589E+03  0.65919971417E+03  0.50400001928E-02 0. -1.
       -1    1    3    3    0  502 -0.54359465745E+03 -0.32137673649E+02 -0.47292467078E+03  0.72123902136E+03  0.50400001928E-02 0.  1.
</event>
<event>
 5   0  0.8058234E-04  0.1538230E+04  0.7818609E-02  0.8859421E-01
       -1   -1    0    0    0  501  0.00000000000E+00  0.00000000000E+00  0.17341429012E+04  0.17341429012E+04  0.50400001928E-02 0.  1.
        1   -1    0    0  501    0  0.00000000000E+00  0.00000000000E+00 -0.34111273078E+03  0.34111273081E+03  0.50400001928E-02 0. -1.
    10030    2    1    2    0    0  0.00000000000E+00  0.00000000000E+00  0.13930301704E+04  0.20752556320E+04  0.15382304387E+04 0.  0.
        5    1    3    3  502    0 -0.24718593747E+03 -0.72749990899E+03  0.65058307995E+03  0.10067956293E+04  0.46999998093E+01 0. -1.
       -5    1    3    3    0  502  0.24718593747E+03  0.72749990899E+03  0.74244709049E+03  0.10684600027E+04  0.46999998093E+01 0.  1.
</event>
<event>
 5   0  0.1484056E-03  0.1543575E+04  0.7818609E-02  0.8855982E-01
        2   -1    0    0  501    0  0.00000000000E+00  0.00000000000E+00  0.58819844056E+03  0.58819844057E+03  0.25500000920E-02 0. -1.
       -2   -1    0    0    0  501  0.00000000000E+00  0.00000000000E+00 -0.10126787115E+04  0.10126787115E+04  0.25500000920E-02 0.  1.
    10030    2    1    2    0    0  0.00000000000E+00  0.00000000000E+00 -0.42448027094E+03  0.16008771521E+04  0.15435751215E+04 0.  0.
        5    1    3    3  502    0  0.54918877377E+03  0.35260859251E+03  0.21499008946E+03  0.68715642856E+03  0.46999998093E+01 0. -1.
       -5    1    3    3    0  502 -0.54918877377E+03 -0.35260859251E+03 -0.63947036040E+03  0.91372072351E+03  0.46999998093E+01 0.  1.
</event>
<event>
 5   0  0.1500956E-03  0.1482699E+04  0.7818609E-02  0.8896040E-01
       -2   -1    0    0    0  501  0.00000000000E+00  0.00000000000E+00  0.66924824982E+03  0.66924824983E+03  0.25500000920E-02 0. -1.
        2   -1    0    0  501    0  0.00000000000E+00  0.00000000000E+00 -0.82121833965E+03  0.82121833965E+03  0.25500000920E-02 0.  1.
    10030    2    1    2    0    0  0.00000000000E+00  0.00000000000E+00 -0.15197008983E+03  0.14904665895E+04  0.14826988049E+04 0.  0.
        4    1    3    3  502    0 -0.50421537137E+03  0.42192530871E+03  0.26836353993E+03  0.71012302407E+03  0.12699999809E+01 0. -1.
       -4    1    3    3    0  502  0.50421537137E+03 -0.42192530871E+03 -0.42033362976E+03  0.78034356540E+03  0.12699999809E+01 0.  1.
</event>
<event>
 5   0  0.1526126E-03  0.1570627E+04  0.7818609E-02  0.8838799E-01
       -2   -1    0    0    0  501  0.00000000000E+00  0.00000000000E+00  0.38584277045E+03  0.38584277045E+03  0.25500000920E-02 0. -1.
        2   -1    0    0  501    0  0.00000000000E+00  0.00000000000E+00 -0.15983650065E+04  0.15983650065E+04  0.25500000920E-02 0.  1.
    10030    2    1    2    0    0  0.00000000000E+00  0.00000000000E+00 -0.12125222360E+04  0.19842077769E+04  0.15706273680E+04 0.  0.
        2    1    3    3  502    0 -0.39653019786E+03 -0.28208999032E+03 -0.13849292814E+04  0.14679373539E+04  0.25500000920E-02 0.  1.
       -2    1    3    3    0  502  0.39653019786E+03  0.28208999032E+03  0.17240704534E+03  0.51627042307E+03  0.25500000920E-02 0. -1.
</event>
<event>
 5   0  0.8058234E-04  0.1487037E+04  0.7818609E-02  0.8893119E-01
        1   -1    0    0  501    0  0.00000000000E+00  0.00000000000E+00  0.83569017872E+03  0.83569017873E+03  0.50400001928E-02 0. -1.
       -1   -1    0    0    0  501  0.00000000000E+00  0.00000000000E+00 -0.66151290748E+03  0.66151290750E+03  0.50400001928E-02 0.  1.
    10030    2    1    2    0    0  0.00000000000E+00  0.00000000000E+00  0.17417727124E+03  0.14972030862E+04  0.14870371077E+04 0.  0.
        5    1    3    3  502    0 -0.33748354576E+03  0.51238058285E+03 -0.33574518695E+03  0.69941112795E+03  0.46999998093E+01 0.  1.
       -5    1    3    3    0  502  0.33748354576E+03 -0.51238058285E+03  0.50992245819E+03  0.79779195828E+03  0.46999998093E+01 0. -1.
</event>
<event>
 5   0  0.8058234E-04  0.1509434E+04  0.7818609E-02  0.8878203E-01
        1   -1    0    0  501    0  0.00000000000E+00  0.00000000000E+00  0.12880290942E+04  0.12880290942E+04  0.50400001928E-02 0. -1.
       -1   -1    0    0    0  501  0.00000000000E+00  0.00000000000E+00 -0.44222450413E+03  0.44222450416E+03  0.50400001928E-02 0.  1.
    10030    2    1    2    0    0  0.00000000000E+00  0.00000000000E+00  0.84580459005E+03  0.17302535984E+04  0.15094343676E+04 0.  0.
        5    1    3    3  502    0 -0.68410235811E+03 -0.24217434095E+03  0.18539141625E+03  0.74902370791E+03  0.46999998093E+01 0.  1.
       -5    1    3    3    0  502  0.68410235811E+03  0.24217434095E+03  0.66041317380E+03  0.98122989045E+03  0.46999998093E+01 0. -1.
</event>
<event>
 5   0  0.1511546E-03  0.1511498E+04  0.7818609E-02  0.8876843E-01
        2   -1    0    0  501    0  0.00000000000E+00  0.00000000000E+00  0.49114895590E+03  0.49114895591E+03  0.25500000920E-02 0.  1.
       -2   -1    0    0    0  501  0.00000000000E+00  0.00000000000E+00 -0.11628981786E+04  0.11628981786E+04  0.25500000920E-02 0. -1.
    10030    2    1    2    0    0  0.00000000000E+00  0.00000000000E+00 -0.67174922265E+03  0.16540471345E+04  0.15114975703E+04 0.  0.
        1    1    3    3  502    0 -0.13999420028E+03 -0.39782428175E+03  0.35040155683E+03  0.54830993636E+03  0.50400001928E-02 0.  1.
       -1    1    3    3    0  502  0.13999420028E+03  0.39782428175E+03 -0.10221507795E+04  0.11057371981E+04  0.50400001928E-02 0. -1.
</event>
<event>
 5   0  0.1484056E-03  0.1499152E+04  0.7818609E-02  0.8885017E-01
       -2   -1    0    0    0  501  0.00000000000E+00  0.00000000000E+00  0.49539346243E+03  0.49539346244E+03  0.25500000920E-02 0.  1.
        2   -1    0    0  501    0  0.00000000000E+00  0.00000000000E+00 -0.11341774429E+04  0.11341774429E+04  0.25500000920E-02 0. -1.
    10030    2    1    2    0    0  0.00000000000E+00  0.00000000000E+00 -0.63878398042E+03  0.16295709053E+04  0.14991518808E+04 0.  0.
        5    1    3    3  502    0 -0.17690717583E+03  0.40752791623E+03 -0.97562284189E+03  0.10720247996E+04  0.46999998093E+01 0. -1.
       -5    1    3    3    0  502  0.17690717583E+03 -0.40752791623E+03  0.33683886147E+03  0.55754610568E+03  0.46999998093E+01 0.  1.
</event>
<event>
 5   0  0.1484056E-03  0.1501754E+04  0.7818609E-02  0.8883287E-01
       -2   -1    0    0    0  501  0.00000000000E+00  0.00000000000E+00  0.45762906994E+03  0.45762906995E+03  0.25500000920E-02 0. -1.
        2   -1    0    0  501    0  0.00000000000E+00  0.00000000000E+00 -0.12320376060E+04  0.12320376060E+04  0.25500000920E-02 0.  1.
    10030    2    1    2    0    0  0.00000000000E+00  0.00000000000E+00 -0.77440853602E+03  0.16896666759E+04  0.15017539396E+04 0.  0.
        5    1    3    3  502    0 -0.62636378053E+03 -0.32425756086E+03 -0.97454464253E+02  0.71203512128E+03  0.46999998093E+01 0. -1.
       -5    1    3    3    0  502  0.62636378053E+03  0.32425756086E+03 -0.67695407177E+03  0.97763155464E+03  0.46999998093E+01 0.  1.
</event>
<event>
 5   0  0.8306301E-04  0.1486883E+04  0.7818609E-02  0.8893223E-01
        1   -1    0    0  501    0  0.00000000000E+00  0.00000000000E+00  0.68797972929E+03  0.68797972931E+03  0.50400001928E-02 0. -1.
       -1   -1    0    0    0  501  0.00000000000E+00  0.00000000000E+00 -0.80337387882E+03  0.80337387883E+03  0.50400001928E-02 0.  1.
    10030    2    1    2    0    0  0.00000000000E+00  0.00000000000E+00 -0.11539414952E+03  0.14913536081E+04  0.14868825693E+04 0.  0.
        4    1    3    3  502    0  0.70014400016E+03 -0.23568968457E+03  0.25932793954E+02  0.73920590574E+03  0.12699999809E+01 0. -1.
       -4    1    3    3    0  502 -0.70014400016E+03  0.23568968457E+03 -0.14132694348E+03  0.75214770241E+03  0.12699999809E+01 0.  1.
</event>
<event>
 5   0  0.8306301E-04  0.1609535E+04  0.7818609E-02  0.8814712E-01
       -1   -1    0    0    0  501  0.00000000000E+00  0.00000000000E+00  0.43459824551E+03  0.43459824554E+03  0.50400001928E-02 0.  1.
        1   -1    0    0  501    0  0.00000000000E+00  0.00000000000E+00 -0.14902286133E+04  0.14902286133E+04  0.50400001928E-02 0. -1.
    10030    2    1    2    0    0  0.00000000000E+00  0.00000000000E+00 -0.10556303678E+04  0.19248268588E+04  0.16095350146E+04 0.  0.
        4    1    3    3  502    0  0.15951920995E+03  0.65960135219E-01 -0.14711311879E+04  0.14797550364E+04  0.12699999809E+01 0. -1.
       -4    1    3    3    0  502 -0.15951920995E+03 -0.65960135219E-01  0.41550082015E+03  0.44507182245E+03  0.12699999809E+01 0.  1.
</event>
<event>
 5   0  0.8191876E-04  0.1499778E+04  0.7818609E-02  0.8884601E-01
       -1   -1    0    0    0  501  0.00000000000E+00  0.00000000000E+00  0.14360184260E+04  0.14360184260E+04  0.50400001928E-02 0. -1.
        1   -1    0    0  501    0  0.00000000000E+00  0.00000000000E+00 -0.39159216148E+03  0.39159216151E+03  0.50400001928E-02 0.  1.
    10030    2    1    2    0    0  0.00000000000E+00  0.00000000000E+00  0.10444262645E+04  0.18276105875E+04  0.14997780628E+04 0.  0.
        2    1    3    3  502    0 -0.58762715134E+03  0.46088864922E+03  0.43947882711E+03  0.86652504607E+03  0.25500000920E-02 0.  1.
       -2    1    3    3    0  502  0.58762715134E+03 -0.46088864922E+03  0.60494743744E+03  0.96108554148E+03  0.25500000920E-02 0. -1.
</event>
<event>
 5   0  0.1511546E-03  0.1480536E+04  0.7818609E-02  0.8897500E-01
        2   -1    0    0  501    0  0.00000000000E+00  0.00000000000E+00  0.14317177255E+04  0.14317177255E+04  0.25500000920E-02 0. -1.
       -2   -1    0    0    0  501  0.00000000000E+00  0.00000000000E+00 -0.38275491514E+03  0.38275491515E+03  0.25500000920E-02 0.  1.
    10030    2    1    2    0    0  0.00000000000E+00  0.00000000000E+00  0.10489628104E+04  0.18144726407E+04  0.14805363846E+04 0.  0.
        1    1    3    3  502    0  0.44324512041E+02  0.66564663989E+03  0.13125928155E+03  0.67991110491E+03  0.50400001928E-02 0.  1.
       -1    1    3    3    0  502 -0.44324512041E+02 -0.66564663989E+03  0.91770352883E+03  0.11345615358E+04  0.50400001928E-02 0. -1.
</event>
<event>
 5   0  0.1484056E-03  0.1450560E+04  0.7818609E-02  0.8918012E-01
        2   -1    0    0  501    0  0.00000000000E+00  0.00000000000E+00  0.10020399174E+04  0.10020399174E+04  0.25500000920E-02 0.  1.
       -2   -1    0    0    0  501  0.00000000000E+00  0.00000000000E+00 -0.52496019181E+03  0.52496019182E+03  0.25500000920E-02 0. -1.
    10030    2    1    2    0    0  0.00000000000E+00  0.00000000000E+00  0.47707972557E+03  0.15270001092E+04  0.14505599846E+04 0.  0.
        5    1    3    3  502    0 -0.24558313013E+03 -0.38418596538E+03  0.83226380120E+03  0.94899686753E+03  0.46999998093E+01 0.  1.
       -5    1    3    3    0  502  0.24558313013E+03  0.38418596538E+03 -0.35518407563E+03  0.57800324167E+03  0.46999998093E+01 0. -1.
</event>
<event>
 5   0  0.1552067E-03  0.1520741E+04  0.7818609E-02  0.8870776E-01
       -2   -1    0    0    0  501  0.00000000000E+00  0.00000000000E+00  0.76493121459E+03  0.76493121459E+03  0.25500000920E-02 0.  1.
        2   -1    0    0  501    0  0.00000000000E+00  0.00000000000E+00 -0.75583695220E+03  0.75583695220E+03  0.25500000920E-02 0. -1.
    10030    2    1    2    0    0  0.00000000000E+00  0.00000000000E+00  0.90942623905E+01  0.15207681668E+04  0.15207409745E+04 0.  0.
        3    1    3    3  502    0  0.50848796908E+03  0.55839166441E+03  0.92877653187E+02  0.76091230391E+03  0.10100000352E+00 0.  1.
       -3    1    3    3    0  502 -0.50848796908E+03 -0.55839166441E+03 -0.83783390796E+02  0.75985586288E+03  0.10100000352E+00 0. -1.
</event>
<event>
 5   0  0.8306301E-04  0.1479808E+04  0.7818609E-02  0.8897993E-01
       -1   -1    0    0    0  501  0.00000000000E+00  0.00000000000E+00  0.26126920534E+03  0.26126920539E+03  0.50400001928E-02 0.  1.
        1   -1    0    0  501    0  0.00000000000E+00  0.00000000000E+00 -0.20953784106E+04  0.20953784106E+04  0.50400001928E-02 0. -1.
    10030    2    1    2    0    0  0.00000000000E+00  0.00000000000E+00 -0.18341092052E+04  0.23566476160E+04  0.14798078960E+04 0.  0.
        4    1    3    3  502    0 -0.69407845685E+02  0.61161347192E+03 -0.15709022338E+04  0.16871940995E+04  0.12699999809E+01 0. -1.
       -4    1    3    3    0  502  0.69407845685E+02 -0.61161347192E+03 -0.26320697141E+03  0.66945351651E+03  0.12699999809E+01 0.  1.
</event>
<event>
 5   0  0.1511546E-03  0.1521406E+04  0.7818609E-02  0.8870342E-01
        2   -1    0    0  501    0  0.00000000000E+00  0.00000000000E+00  0.27166150017E+04  0.27166150017E+04  0.25500000920E-02 0.  1.
       -2   -1    0    0    0  501  0.00000000000E+00  0.00000000000E+00 -0.21301100346E+03  0.21301100347E+03  0.25500000920E-02 0. -1.
    10030    2    1    2    0    0  0.00000000000E+00  0.00000000000E+00  0.25036039983E+04  0.29296260052E+04  0.15214057809E+04 0.  0.
        1    1    3    3  502    0  0.21868125321E+03  0.71495972988E+03  0.15219361330E+04  0.16956646186E+04  0.50400001928E-02 0.  1.
       -1    1    3    3    0  502 -0.21868125321E+03 -0.71495972988E+03  0.98166786523E+03  0.12339613866E+04  0.50400001928E-02 0. -1.
</event>
<event>
 5   0  0.8306301E-04  0.1514577E+04  0.7818609E-02  0.8874817E-01
        1   -1    0    0  501    0  0.00000000000E+00  0.00000000000E+00  0.12560840103E+04  0.12560840104E+04  0.50400001928E-02 0. -1.
       -1   -1    0    0    0  501  0.00000000000E+00  0.00000000000E+00 -0.45656638218E+03  0.45656638220E+03  0.50400001928E-02 0.  1.
    10030    2    1    2    0    0  0.00000000000E+00  0.00000000000E+00  0.79951762817E+03  0.17126503926E+04  0.15145768153E+04 0.  0.
        4    1    3    3  502    0  0.62800867250E+03  0.25923272245E+03  0.77799966895E+03  0.10328996054E+04  0.12699999809E+01 0. -1.
       -4    1    3    3    0  502 -0.62800867250E+03 -0.25923272245E+03  0.21517959217E+02  0.67975078712E+03  0.12699999809E+01 0.  1.
</event>
<event>
 5   0  0.1552067E-03  0.1507190E+04  0.7818609E-02  0.8879686E-01
        2   -1    0    0  501    0  0.00000000000E+00  0.00000000000E+00  0.21230507290E+04  0.21230507290E+04  0.25500000920E-02 0.  1.
       -2   -1    0    0    0  501  0.00000000000E+00  0.00000000000E+00 -0.26749505088E+03  0.26749505089E+03  0.25500000920E-02 0. -1.
    10030    2    1    2    0    0  0.00000000000E+00  0.00000000000E+00  0.18555556781E+04  0.23905457799E+04  0.15071901841E+04 0.  0.
        3    1    3    3  502    0 -0.30553687938E+02 -0.56284711486E+02  0.21187266795E+04  0.21196943764E+04  0.10100000352E+00 0.  1.
       -3    1    3    3    0  502  0.30553687938E+02  0.56284711486E+02 -0.26317100140E+03  0.27085140349E+03  0.10100000352E+00 0. -1.
</event>
<event>
 5   0  0.1500956E-03  0.1536388E+04  0.7818609E-02  0.8860609E-01
       -2   -1    0    0    0  501  0.00000000000E+00  0.00000000000E+00  0.69013422203E+03  0.69013422203E+03  0.25500000920E-02 0.  1.
        2   -1    0    0  501    0  0.00000000000E+00  0.00000000000E+00 -0.85508307420E+03  0.85508307420E+03  0.25500000920E-02 0. -1.
    10030    2    1    2    0    0  0.00000000000E+00  0.00000000000E+00 -0.16494885217E+03  0.15452172962E+04  0.15363880918E+04 0.  0.
        4    1    3    3  502    0 -0.27422509554E+03  0.60135714135E+03  0.31129907062E+03  0.73057411585E+03  0.12699999809E+01 0.  1.
       -4    1    3    3    0  502  0.27422509554E+03 -0.60135714135E+03 -0.47624792280E+03  0.81464318038E+03  0.12699999809E+01 0. -1.
</event>
<event>
 5   0  0.7870317E-04  0.1454753E+04  0.7818609E-02  0.8915112E-01
       -1   -1    0    0    0  501  0.00000000000E+00  0.00000000000E+00  0.15558642913E+04  0.15558642914E+04  0.50400001928E-02 0. -1.
        1   -1    0    0  501    0  0.00000000000E+00  0.00000000000E+00 -0.34005303001E+03  0.34005303004E+03  0.50400001928E-02 0.  1.
    10030    2    1    2    0    0  0.00000000000E+00  0.00000000000E+00  0.12158112613E+04  0.18959173214E+04  0.14547527166E+04 0.  0.
        1    1    3    3  502    0  0.28343399771E+03 -0.39546826083E+03  0.13125647640E+04  0.13998415039E+04  0.50400001928E-02 0. -1.
       -1    1    3    3    0  502 -0.28343399771E+03  0.39546826083E+03 -0.96753502654E+02  0.49607581748E+03  0.50400001928E-02 0.  1.
</event>
<event>
 5   0  0.1511546E-03  0.1523116E+04  0.7818609E-02  0.8869225E-01
       -2   -1    0    0    0  501  0.00000000000E+00  0.00000000000E+00  0.46860907420E+03  0.46860907421E+03  0.25500000920E-02 0.  1.
        2   -1    0    0  501    0  0.00000000000E+00  0.00000000000E+00 -0.12376432338E+04  0.12376432338E+04  0.25500000920E-02 0. -1.
    10030    2    1    2    0    0  0.00000000000E+00  0.00000000000E+00 -0.76903415962E+03  0.17062523080E+04  0.15231163449E+04 0.  0.
        1    1    3    3  502    0 -0.31884044018E+03 -0.20896147944E+03  0.35403032841E+03  0.52025147731E+03  0.50400001928E-02 0.  1.
       -1    1    3    3    0  502  0.31884044018E+03  0.20896147944E+03 -0.11230644880E+04  0.11860008307E+04  0.50400001928E-02 0. -1.
</event>
<event>
 5   0  0.8058234E-04  0.1460608E+04  0.7818609E-02  0.8911079E-01
        1   -1    0    0  501    0  0.00000000000E+00  0.00000000000E+00  0.98162261135E+03  0.98162261136E+03  0.50400001928E-02 0.  1.
       -1   -1    0    0    0  501  0.00000000000E+00  0.00000000000E+00 -0.54332891384E+03  0.54332891386E+03  0.50400001928E-02 0. -1.
    10030    2    1    2    0    0  0.00000000000E+00  0.00000000000E+00  0.43829369751E+03  0.15249515252E+04  0.14606080203E+04 0.  0.
        5    1    3    3  502    0  0.51349275667E+03 -0.25487571378E+03 -0.25320520527E+03  0.62671477293E+03  0.46999998093E+01 0. -1.
       -5    1    3    3    0  502 -0.51349275667E+03  0.25487571378E+03  0.69149890278E+03  0.89823675230E+03  0.46999998093E+01 0.  1.
</event>
<event>
 5   0  0.8058234E-04  0.1503361E+04  0.7818609E-02  0.8882221E-01
        1   -1    0    0  501    0  0.00000000000E+00  0.00000000000E+00  0.49732430326E+03  0.49732430328E+03  0.50400001928E-02 0.  1.
       -1   -1    0    0    0  501  0.00000000000E+00  0.00000000000E+00 -0.11361267984E+04  0.11361267984E+04  0.50400001928E-02 0. -1.
    10030    2    1    2    0    0  0.00000000000E+00  0.00000000000E+00 -0.63880249511E+03  0.16334511017E+04  0.15033608595E+04 0.  0.
        5    1    3    3  502    0 -0.54429071869E+03 -0.31658109653E+03  0.12664057745E+03  0.64228957877E+03  0.46999998093E+01 0.  1.
       -5    1    3    3    0  502  0.54429071869E+03  0.31658109653E+03 -0.76544307257E+03  0.99116152290E+03  0.46999998093E+01 0. -1.
</event>
<event>
 5   0  0.7870317E-04  0.1640754E+04  0.7818609E-02  0.8795895E-01
        1   -1    0    0  501    0  0.00000000000E+00  0.00000000000E+00  0.15376951710E+04  0.15376951710E+04  0.50400001928E-02 0.  1.
       -1   -1    0    0    0  501  0.00000000000E+00  0.00000000000E+00 -0.43768002767E+03  0.43768002770E+03  0.50400001928E-02 0. -1.
    10030    2    1    2    0    0  0.00000000000E+00  0.00000000000E+00  0.11000151433E+04  0.19753751987E+04  0.16407540523E+04 0.  0.
        1    1    3    3  502    0  0.27028491743E+03  0.13719108965E+03 -0.36779161095E+03  0.47659836422E+03  0.50400001928E-02 0. -1.
       -1    1    3    3    0  502 -0.27028491743E+03 -0.13719108965E+03  0.14678067543E+04  0.14987768345E+04  0.50400001928E-02 0.  1.
</event>
<event>
 5   0  0.8365016E-04  0.1471438E+04  0.7818609E-02  0.8903671E-01
       -1   -1    0    0    0  501  0.00000000000E+00  0.00000000000E+00  0.37205896986E+03  0.37205896990E+03  0.50400001928E-02 0. -1.
        1   -1    0    0  501    0  0.00000000000E+00  0.00000000000E+00 -0.14548303711E+04  0.14548303712E+04  0.50400001928E-02 0.  1.
    10030    2    1    2    0    0  0.00000000000E+00  0.00000000000E+00 -0.10827714013E+04  0.18268893411E+04  0.14714383293E+04 0.  0.
        3    1    3    3  502    0 -0.12663496910E+03 -0.31385587902E+03 -0.13524443044E+04  0.13941476016E+04  0.10100000352E+00 0.  1.
       -3    1    3    3    0  502  0.12663496910E+03  0.31385587902E+03  0.26967290315E+03  0.43274173948E+03  0.10100000352E+00 0. -1.
</event>
<event>
 5   0  0.8365016E-04  0.1520614E+04  0.7818609E-02  0.8870860E-01
       -1   -1    0    0    0  501  0.00000000000E+00  0.00000000000E+00  0.49523685585E+03  0.49523685588E+03  0.50400001928E-02 0. -1.
        1   -1    0    0  501    0  0.00000000000E+00  0.00000000000E+00 -0.11672523440E+04  0.11672523441E+04  0.50400001928E-02 0.  1.
    10030    2    1    2    0    0  0.00000000000E+00  0.00000000000E+00 -0.67201548820E+03  0.16624891999E+04  0.15206135352E+04 0.  0.
        3    1    3    3  502    0 -0.43238590462E+03  0.50279357081E+02 -0.10175309406E+04  0.11067315888E+04  0.10100000352E+00 0.  1.
       -3    1    3    3    0  502  0.43238590462E+03 -0.50279357081E+02  0.34551545245E+03  0.55575761114E+03  0.10100000352E+00 0. -1.
</event>
<event>
 5   0  0.8306301E-04  0.1593974E+04  0.7818609E-02  0.8824258E-01
       -1   -1    0    0    0  501  0.00000000000E+00  0.00000000000E+00  0.53400704173E+03  0.53400704175E+03  0.50400001928E-02 0. -1.
        1   -1    0    0  501    0  0.00000000000E+00  0.00000000000E+00 -0.11894756752E+04  0.11894756752E+04  0.50400001928E-02 0.  1.
    10030    2    1    2    0    0  0.00000000000E+00  0.00000000000E+00 -0.65546863342E+03  0.17234827169E+04  0.15939741360E+04 0.  0.
        4    1    3    3  502    0 -0.87580942808E+02 -0.29053865254E+03  0.46909814934E+03  0.55869295393E+03  0.12699999809E+01 0. -1.
       -4    1    3    3    0  502  0.87580942808E+02  0.29053865254E+03 -0.11245667828E+04  0.11647897630E+04  0.12699999809E+01 0.  1.
</event>
<event>
 5   0  0.8365016E-04  0.1470074E+04  0.7818609E-02  0.8904601E-01
        1   -1    0    0  501    0  0.00000000000E+00  0.00000000000E+00  0.12420914999E+04  0.12420914999E+04  0.50400001928E-02 0.  1.
       -1   -1    0    0    0  501  0.00000000000E+00  0.00000000000E+00 -0.43497549696E+03  0.43497549699E+03  0.50400001928E-02 0. -1.
    10030    2    1    2    0    0  0.00000000000E+00  0.00000000000E+00  0.80711600290E+03  0.16770669969E+04  0.14700739675E+04 0.  0.
        3    1    3    3  502    0 -0.41880206909E+03  0.21055106145E+03  0.10494512804E+04  0.11493802342E+04  0.10100000352E+00 0.  1.
       -3    1    3    3    0  502  0.41880206909E+03 -0.21055106145E+03 -0.24233527754E+03  0.52768676266E+03  0.10100000352E+00 0. -1.
</event>
<event>
 5   0  0.7870317E-04  0.1492410E+04  0.7818609E-02  0.8889516E-01
        1   -1    0    0  501    0  0.00000000000E+00  0.00000000000E+00  0.13693790090E+04  0.13693790090E+04  0.50400001928E-02 0.  1.
       -1   -1    0    0    0  501  0.00000000000E+00  0.00000000000E+00 -0.40662368512E+03  0.40662368515E+03  0.50400001928E-02 0. -1.
    10030    2    1    2    0    0  0.00000000000E+00  0.00000000000E+00  0.96275532386E+03  0.17760026941E+04  0.14924100495E+04 0.  0.
        1    1    3    3  502    0  0.23448950817E+03  0.43160976942E+03  0.11498589941E+04  0.12503791540E+04  0.50400001928E-02 0.  1.
       -1    1    3    3    0  502 -0.23448950817E+03 -0.43160976942E+03 -0.18710367022E+03  0.52562354012E+03  0.50400001928E-02 0. -1.
</event>
<event>
 5   0  0.8058234E-04  0.1517328E+04  0.7818609E-02  0.8873011E-01
       -1   -1    0    0    0  501  0.00000000000E+00  0.00000000000E+00  0.20732260352E+03  0.20732260358E+03  0.50400001928E-02 0.  1.
        1   -1    0    0  501    0  0.00000000000E+00  0.00000000000E+00 -0.27762087499E+04  0.27762087499E+04  0.50400001928E-02 0. -1.
    10030    2    1    2    0    0  0.00000000000E+00  0.00000000000E+00 -0.25688861464E+04  0.29835313535E+04  0.15173276852E+04 0.  0.
        5    1    3    3  502    0  0.84340590373E+02  0.14744973013E+03 -0.27383056881E+04  0.27435733797E+04  0.46999998093E+01 0. -1.
       -5    1    3    3    0  502 -0.84340590373E+02 -0.14744973013E+03  0.16941954170E+03  0.23995797384E+03  0.46999998093E+01 0.  1.
</event>
<event>
 5   0  0.1552067E-03  0.1034186E+04  0.7818609E-02  0.9271825E-01
       -2   -1    0    0    0  501  0.00000000000E+00  0.00000000000E+00  0.15069478415E+03  0.15069478417E+03  0.25500000920E-02 0. -1.
        2   -1    0    0  501    0  0.00000000000E+00  0.00000000000E+00 -0.17743502766E+04  0.17743502766E+04  0.25500000920E-02 0.  1.
    10030    2    1    2    0    0  0.00000000000E+00  0.00000000000E+00 -0.16236554925E+04  0.19250450608E+04  0.10341863120E+04 0.  0.
        3    1    3    3  502    0  0.19232113716E+03 -0.37242716983E+03 -0.13754875763E+04  0.14379344558E+04  0.10100000352E+00 0.  1.
       -3    1    3    3    0  502 -0.19232113716E+03  0.37242716983E+03 -0.24816791622E+03  0.48711060497E+03  0.10100000352E+00 0. -1.
</event>
<event>
 5   0  0.1526126E-03  0.1486729E+04  0.7818609E-02  0.8893326E-01
        2   -1    0    0  501    0  0.00000000000E+00  0.00000000000E+00  0.21404366716E+04  0.21404366716E+04  0.25500000920E-02 0. -1.
       -2   -1    0    0    0  501  0.00000000000E+00  0.00000000000E+00 -0.25816747861E+03  0.25816747862E+03  0.25500000920E-02 0.  1.
    10030    2    1    2    0    0  0.00000000000E+00  0.00000000000E+00  0.18822691930E+04  0.23986041502E+04  0.14867294826E+04 0.  0.
        2    1    3    3  502    0  0.70522119604E+03 -0.15992609266E+03  0.12190693347E+04  0.14174072574E+04  0.25500000920E-02 0. -1.
       -2    1    3    3    0  502 -0.70522119604E+03  0.15992609266E+03  0.66319985827E+03  0.98119689282E+03  0.25500000920E-02 0.  1.
</event>
<event>
 5   0  0.8058234E-04  0.1440408E+04  0.7818609E-02  0.8925078E-01
       -1   -1    0    0    0  501  0.00000000000E+00  0.00000000000E+00  0.96033670356E+03  0.96033670357E+03  0.50400001928E-02 0. -1.
        1   -1    0    0  501    0  0.00000000000E+00  0.00000000000E+00 -0.54011658211E+03  0.54011658213E+03  0.50400001928E-02 0.  1.
    10030    2    1    2    0    0  0.00000000000E+00  0.00000000000E+00  0.42022012145E+03  0.15004532857E+04  0.14404079672E+04 0.  0.
        5    1    3    3  502    0  0.10156299546E+03  0.29050874090E+01  0.95281722259E+03  0.95823078182E+03  0.46999998093E+01 0. -1.
       -5    1    3    3    0  502 -0.10156299546E+03 -0.29050874090E+01 -0.53259710113E+03  0.54222250388E+03  0.46999998093E+01 0.  1.
</event>
<event>
 5   0  0.1552067E-03  0.1357004E+04  0.7818609E-02  0.8985543E-01
       -2   -1    0    0    0  501  0.00000000000E+00  0.00000000000E+00  0.76099805046E+03  0.76099805046E+03  0.25500000920E-02 0.  1.
        2   -1    0    0  501    0  0.00000000000E+00  0.00000000000E+00 -0.60494914191E+03  0.60494914191E+03  0.25500000920E-02 0. -1.
    10030    2    1    2    0    0  0.00000000000E+00  0.00000000000E+00  0.15604890855E+03  0.13659471924E+04  0.13570042264E+04 0.  0.
        3    1    3    3  502    0 -0.14660846698E+03 -0.27951410042E+03 -0.52655255127E+03  0.61390534642E+03  0.10100000352E+00 0. -1.
       -3    1    3    3    0  502  0.14660846698E+03  0.27951410042E+03  0.68260145982E+03  0.75204184596E+03  0.10100000352E+00 0.  1.
</event>
<event>
 5   0  0.1511546E-03  0.1495617E+04  0.7818609E-02  0.8887373E-01
       -2   -1    0    0    0  501  0.00000000000E+00  0.00000000000E+00  0.44617097970E+03  0.44617097971E+03  0.25500000920E-02 0.  1.
        2   -1    0    0  501    0  0.00000000000E+00  0.00000000000E+00 -0.12533708094E+04  0.12533708094E+04  0.25500000920E-02 0. -1.
    10030    2    1    2    0    0  0.00000000000E+00  0.00000000000E+00 -0.80719982968E+03  0.16995417891E+04  0.14956171729E+04 0.  0.
        1    1    3    3  502    0  0.71221425351E+03  0.14233977208E+03 -0.60594624785E+03  0.94587557793E+03  0.50400001928E-02 0. -1.
       -1    1    3    3    0  502 -0.71221425351E+03 -0.14233977208E+03 -0.20125358183E+03  0.75366621116E+03  0.50400001928E-02 0.  1.
</event>
<event>
 5   0  0.1500956E-03  0.1465157E+04  0.7818609E-02  0.8907959E-01
       -2   -1    0    0    0  501  0.00000000000E+00  0.00000000000E+00  0.35179562839E+03  0.35179562840E+03  0.25500000920E-02 0.  1.
        2   -1    0    0  501    0  0.00000000000E+00  0.00000000000E+00 -0.15255202454E+04  0.15255202454E+04  0.25500000920E-02 0. -1.
    10030    2    1    2    0    0  0.00000000000E+00  0.00000000000E+00 -0.11737246170E+04  0.18773158738E+04  0.14651571293E+04 0.  0.
        4    1    3    3  502    0 -0.72713514381E+03 -0.88969101023E+02 -0.59372922401E+03  0.94295123026E+03  0.12699999809E+01 0. -1.
       -4    1    3    3    0  502  0.72713514381E+03  0.88969101023E+02 -0.57999539299E+03  0.93436464354E+03  0.12699999809E+01 0.  1.
</event>
<event>
 5   0  0.1526126E-03  0.1505531E+04  0.7818609E-02  0.8880783E-01
        2   -1    0    0  501    0  0.00000000000E+00  0.00000000000E+00  0.14999816713E+04  0.14999816713E+04  0.25500000920E-02 0.  1.
       -2   -1    0    0    0  501  0.00000000000E+00  0.00000000000E+00 -0.37777544076E+03  0.37777544077E+03  0.25500000920E-02 0. -1.
    10030    2    1    2    0    0  0.00000000000E+00  0.00000000000E+00  0.11222062305E+04  0.18777571120E+04  0.15055314503E+04 0.  0.
        2    1    3    3  502    0  0.34421243426E+03  0.14894602700E+03 -0.25294267711E+03  0.45237939472E+03  0.25500000920E-02 0. -1.
       -2    1    3    3    0  502 -0.34421243426E+03 -0.14894602700E+03  0.13751489076E+04  0.14253777173E+04  0.25500000920E-02 0.  1.
</event>
<event>
 5   0  0.8058234E-04  0.1551373E+04  0.7818609E-02  0.8850991E-01
        1   -1    0    0  501    0  0.00000000000E+00  0.00000000000E+00  0.69183352047E+03  0.69183352049E+03  0.50400001928E-02 0. -1.
       -1   -1    0    0    0  501  0.00000000000E+00  0.00000000000E+00 -0.86970269766E+03  0.86970269767E+03  0.50400001928E-02 0.  1.
    10030    2    1    2    0    0  0.00000000000E+00  0.00000000000E+00 -0.17786917718E+03  0.15615362182E+04  0.15513729134E+04 0.  0.
        5    1    3    3  502    0  0.16401012117E+03 -0.68324165642E+03 -0.41964280442E+03  0.81843793547E+03  0.46999998093E+01 0.  1.
       -5    1    3    3    0  502 -0.16401012117E+03  0.68324165642E+03  0.24177362724E+03  0.74309828269E+03  0.46999998093E+01 0. -1.
</event>
<event>
 5   0  0.1526126E-03  0.1433214E+04  0.7818609E-02  0.8930121E-01
       -2   -1    0    0    0  501  0.00000000000E+00  0.00000000000E+00  0.94612346434E+03  0.94612346434E+03  0.25500000920E-02 0. -1.
        2   -1    0    0  501    0  0.00000000000E+00  0.00000000000E+00 -0.54276824471E+03  0.54276824471E+03  0.25500000920E-02 0.  1.
    10030    2    1    2    0    0  0.00000000000E+00  0.00000000000E+00  0.40335521963E+03  0.14888917091E+04  0.14332142506E+04 0.  0.
        2    1    3    3  502    0 -0.51143285287E+03 -0.18936513678E+02 -0.31940962497E+03  0.60327826339E+03  0.25500000920E-02 0.  1.
       -2    1    3    3    0  502  0.51143285287E+03  0.18936513678E+02  0.72276484460E+03  0.88561344566E+03  0.25500000920E-02 0. -1.
</event>
<event>
 5   0  0.8058234E-04  0.1501828E+04  0.7818609E-02  0.8883238E-01
       -1   -1    0    0    0  501  0.00000000000E+00  0.00000000000E+00  0.51841066652E+03  0.51841066654E+03  0.50400001928E-02 0.  1.
        1   -1    0    0  501    0  0.00000000000E+00  0.00000000000E+00 -0.10876935907E+04  0.10876935907E+04  0.50400001928E-02 0. -1.
    10030    2    1    2    0    0  0.00000000000E+00  0.00000000000E+00 -0.56928292421E+03  0.16061042573E+04  0.15018281651E+04 0.  0.
        5    1    3    3  502    0 -0.38372445072E+03  0.39479507044E+03 -0.83072515469E+03  0.99661124535E+03  0.46999998093E+01 0. -1.
       -5    1    3    3    0  502  0.38372445072E+03 -0.39479507044E+03  0.26144223047E+03  0.60949301194E+03  0.46999998093E+01 0.  1.
</event>
<event>
 5   0  0.8306301E-04  0.1497996E+04  0.7818609E-02  0.8885787E-01
       -1   -1    0    0    0  501  0.00000000000E+00  0.00000000000E+00  0.74423488031E+03  0.74423488032E+03  0.50400001928E-02 0. -1.
        1   -1    0    0  501    0  0.00000000000E+00  0.00000000000E+00 -0.75379110901E+03  0.75379110903E+03  0.50400001928E-02 0.  1.
    10030    2    1    2    0    0  0.00000000000E+00  0.00000000000E+00 -0.95562287014E+01  0.14980259893E+04  0.14979955084E+04 0.  0.
        4    1    3    3  502    0 -0.18337300429E+03 -0.48346162577E+03  0.53711409855E+03  0.74555614816E+03  0.12699999809E+01 0.  1.
       -4    1    3    3    0  502  0.18337300429E+03  0.48346162577E+03 -0.54667032725E+03  0.75246984119E+03  0.12699999809E+01 0. -1.
</event>
<event>
 5   0  0.8191876E-04  0.1479098E+04  0.7818609E-02  0.8898473E-01
        1   -1    0    0  501    0  0.00000000000E+00  0.00000000000E+00  0.96474513400E+03  0.96474513401E+03  0.50400001928E-02 0. -1.
       -1   -1    0    0    0  501  0.00000000000E+00  0.00000000000E+00 -0.56691915645E+03  0.56691915647E+03  0.50400001928E-02 0.  1.
    10030    2    1    2    0    0  0.00000000000E+00  0.00000000000E+00  0.39782597755E+03  0.15316642905E+04  0.14790976947E+04 0.  0.
        2    1    3    3  502    0 -0.16009332915E+03 -0.41774444709E+03  0.80873260144E+03  0.92422330514E+03  0.25500000920E-02 0. -1.
       -2    1    3    3    0  502  0.16009332915E+03  0.41774444709E+03 -0.41090662389E+03  0.60744098535E+03  0.25500000920E-02 0.  1.
</event>
<event>
 5   0  0.8306301E-04  0.1496920E+04  0.7818609E-02  0.8886504E-01
        1   -1    0    0  501    0  0.00000000000E+00  0.00000000000E+00  0.20571482204E+04  0.20571482204E+04  0.50400001928E-02 0. -1.
       -1   -1    0    0    0  501  0.00000000000E+00  0.00000000000E+00 -0.27231493340E+03  0.27231493345E+03  0.50400001928E-02 0.  1.
    10030    2    1    2    0    0  0.00000000000E+00  0.00000000000E+00  0.17848332870E+04  0.23294631538E+04  0.14969197449E+04 0.  0.
        4    1    3    3  502    0  0.27311194247E+03 -0.69011827504E+03  0.10427881967E+04  0.12799461718E+04  0.12699999809E+01 0. -1.
       -4    1    3    3    0  502 -0.27311194247E+03  0.69011827504E+03  0.74204509034E+03  0.10495169821E+04  0.12699999809E+01 0.  1.
</event>
<event>
 5   0  0.1511546E-03  0.1503531E+04  0.7818609E-02  0.8882108E-01
       -2   -1    0    0    0  501  0.00000000000E+00  0.00000000000E+00  0.63012428293E+03  0.63012428294E+03  0.25500000920E-02 0.  1.
        2   -1    0    0  501    0  0.00000000000E+00  0.00000000000E+00 -0.89688834870E+03  0.89688834871E+03  0.25500000920E-02 0. -1.
    10030    2    1    2    0    0  0.00000000000E+00  0.00000000000E+00 -0.26676406577E+03  0.15270126316E+04  0.15035306816E+04 0.  0.
        1    1    3    3  502    0 -0.30401661766E+03 -0.54095454927E+03  0.29761967535E+03  0.68821174022E+03  0.50400001928E-02 0.  1.
       -1    1    3    3    0  502  0.30401661766E+03  0.54095454927E+03 -0.56438374112E+03  0.83880089143E+03  0.50400001928E-02 0. -1.
</event>
<event>
 5   0  0.1500956E-03  0.1517973E+04  0.7818609E-02  0.8872589E-01
       -2   -1    0    0    0  501  0.00000000000E+00  0.00000000000E+00  0.58559828989E+03  0.58559828990E+03  0.25500000920E-02 0.  1.
        2   -1    0    0  501    0  0.00000000000E+00  0.00000000000E+00 -0.98371223502E+03  0.98371223502E+03  0.25500000920E-02 0. -1.
    10030    2    1    2    0    0  0.00000000000E+00  0.00000000000E+00 -0.39811394512E+03  0.15693105249E+04  0.15179725987E+04 0.  0.
        4    1    3    3  502    0 -0.71547698491E+03 -0.18242785115E+03 -0.17412249254E+02  0.73857432675E+03  0.12699999809E+01 0.  1.
       -4    1    3    3    0  502  0.71547698491E+03  0.18242785115E+03 -0.38070169587E+03  0.83073619817E+03  0.12699999809E+01 0. -1.
</event>
<event>
 5   0  0.8365016E-04  0.1544641E+04  0.7818609E-02  0.8855298E-01
       -1   -1    0    0    0  501  0.00000000000E+00  0.00000000000E+00  0.43137054861E+03  0.43137054864E+03  0.50400001928E-02 0. -1.
        1   -1    0    0  501    0  0.00000000000E+00  0.00000000000E+00 -0.13827538312E+04  0.13827538312E+04  0.50400001928E-02 0.  1.
    10030    2    1    2    0    0  0.00000000000E+00  0.00000000000E+00 -0.95138328259E+03  0.18141243798E+04  0.15446414196E+04 0.  0.
        3    1    3    3  502    0 -0.55644596842E+03 -0.34450672003E+03  0.59274207565E+01  0.65448616520E+03  0.10100000352E+00 0.  1.
       -3    1    3    3    0  502  0.55644596842E+03  0.34450672003E+03 -0.95731070334E+03  0.11596382146E+04  0.10100000352E+00 0. -1.
</event>
<event>
 5   0  0.1552067E-03  0.1551936E+04  0.7818609E-02  0.8850632E-01
       -2   -1    0    0    0  501  0.00000000000E+00  0.00000000000E+00  0.54571301272E+03  0.54571301273E+03  0.25500000920E-02 0.  1.
        2   -1    0    0  501    0  0.00000000000E+00  0.00000000000E+00 -0.11033759119E+04  0.11033759119E+04  0.25500000920E-02 0. -1.
    10030    2    1    2    0    0  0.00000000000E+00  0.00000000000E+00 -0.55766289920E+03  0.16490889247E+04  0.15519363300E+04 0.  0.
        3    1    3    3  502    0  0.24801632971E+03  0.18652288970E+03  0.47690394001E+03  0.56898178036E+03  0.10100000352E+00 0.  1.
       -3    1    3    3    0  502 -0.24801632971E+03 -0.18652288970E+03 -0.10345668392E+04  0.10801071443E+04  0.10100000352E+00 0. -1.
</event>
<event>
 5   0  0.8365016E-04  0.1258142E+04  0.7818609E-02  0.9063434E-01
       -1   -1    0    0    0  501  0.00000000000E+00  0.00000000000E+00  0.39991459320E+03  0.39991459323E+03  0.50400001928E-02 0. -1.
        1   -1    0    0  501    0  0.00000000000E+00  0.00000000000E+00 -0.98953655882E+03  0.98953655884E+03  0.50400001928E-02 0.  1.
    10030    2    1    2    0    0  0.00000000000E+00  0.00000000000E+00 -0.58962196562E+03  0.13894511521E+04  0.12581416620E+04 0.  0.
        3    1    3    3  502    0  0.50536458992E+03  0.45643721513E+02 -0.70544187779E+03  0.86897926972E+03  0.10100000352E+00 0.  1.
       -3    1    3    3    0  502 -0.50536458992E+03 -0.45643721513E+02  0.11581991216E+03  0.52047188235E+03  0.10100000352E+00 0. -1.
</event>
<event>
 5   0  0.8191876E-04  0.1493982E+04  0.7818609E-02  0.8888465E-01
        1   -1    0    0  501    0  0.00000000000E+00  0.00000000000E+00  0.13496015639E+04  0.13496015639E+04  0.50400001928E-02 0. -1.
       -1   -1    0    0    0  501  0.00000000000E+00  0.00000000000E+00 -0.41345181215E+03  0.41345181218E+03  0.50400001928E-02 0.  1.
    10030    2    1    2    0    0  0.00000000000E+00  0.00000000000E+00  0.93614975176E+03  0.17630533761E+04  0.14939815425E+04 0.  0.
        2    1    3    3  502    0 -0.67721875049E+03  0.29850372822E+03  0.58764158988E+03  0.94501447075E+03  0.25500000920E-02 0.  1.
       -2    1    3    3    0  502  0.67721875049E+03 -0.29850372822E+03  0.34850816188E+03  0.81803890535E+03  0.25500000920E-02 0. -1.
</event>
<event>
 5   0  0.1526126E-03  0.1486907E+04  0.7818609E-02  0.8893206E-01
       -2   -1    0    0    0  501  0.00000000000E+00  0.00000000000E+00  0.18527208415E+03  0.18527208417E+03  0.25500000920E-02 0.  1.
        2   -1    0    0  501    0  0.00000000000E+00  0.00000000000E+00 -0.29833062902E+04  0.29833062902E+04  0.25500000920E-02 0. -1.
    10030    2    1    2    0    0  0.00000000000E+00  0.00000000000E+00 -0.27980342061E+04  0.31685783744E+04  0.14869073597E+04 0.  0.
        2    1    3    3  502    0  0.58405371816E+03 -0.91486544129E+02 -0.43833516981E+03  0.73595261706E+03  0.25500000920E-02 0.  1.
       -2    1    3    3    0  502 -0.58405371816E+03  0.91486544129E+02 -0.23596990363E+04  0.24326257573E+04  0.25500000920E-02 0. -1.
</event>
<event>
 5   0  0.5603875E-04  0.1522292E+04  0.7818609E-02  0.8869763E-01
        3   -1    0    0  501    0  0.00000000000E+00  0.00000000000E+00  0.12217578591E+04  0.12217578633E+04  0.10100000352E+00 0.  1.
       -3   -1    0    0    0  501  0.00000000000E+00  0.00000000000E+00 -0.47418810122E+03  0.47418811198E+03  0.10100000352E+00 0. -1.
    10030    2    1    2    0    0  0.00000000000E+00  0.00000000000E+00  0.74756975787E+03  0.16959459752E+04  0.15222917618E+04 0.  0.
        2    1    3    3  502    0 -0.59327734358E+02 -0.33252333337E+03 -0.38611785969E+03  0.51300930681E+03  0.25500000920E-02 0. -1.
       -2    1    3    3    0  502  0.59327734358E+02  0.33252333337E+03  0.11336876176E+04  0.11829366684E+04  0.25500000920E-02 0.  1.
</event>
<event>
 5   0  0.7870317E-04  0.1475412E+04  0.7818609E-02  0.8900970E-01
        1   -1    0    0  501    0  0.00000000000E+00  0.00000000000E+00  0.85832409205E+03  0.85832409206E+03  0.50400001928E-02 0. -1.
       -1   -1    0    0    0  501  0.00000000000E+00  0.00000000000E+00 -0.63403822648E+03  0.63403822650E+03  0.50400001928E-02 0.  1.
    10030    2    1    2    0    0  0.00000000000E+00  0.00000000000E+00  0.22428586557E+03  0.14923623186E+04  0.14754121934E+04 0.  0.
        1    1    3    3  502    0  0.56688550857E+02  0.67337322590E+03  0.41145667609E+03  0.79116476759E+03  0.50400001928E-02 0. -1.
       -1    1    3    3    0  502 -0.56688550857E+02 -0.67337322590E+03 -0.18717081053E+03  0.70119755097E+03  0.50400001928E-02 0.  1.
</event>
<event>
 5   0  0.1500956E-03  0.1491361E+04  0.7818609E-02  0.8890218E-01
       -2   -1    0    0    0  501  0.00000000000E+00  0.00000000000E+00  0.46127436052E+03  0.46127436053E+03  0.25500000920E-02 0.  1.
        2   -1    0    0  501    0  0.00000000000E+00  0.00000000000E+00 -0.12054414791E+04  0.12054414791E+04  0.25500000920E-02 0. -1.
    10030    2    1    2    0    0  0.00000000000E+00  0.00000000000E+00 -0.74416711856E+03  0.16667158396E+04  0.14913607845E+04 0.  0.
        4    1    3    3  502    0 -0.63362318285E+03  0.37934994553E+03 -0.48743236029E+03  0.88485967124E+03  0.12699999809E+01 0. -1.
       -4    1    3    3    0  502  0.63362318285E+03 -0.37934994553E+03 -0.25673475827E+03  0.78185616837E+03  0.12699999809E+01 0.  1.
</event>
<event>
 5   0  0.7870317E-04  0.1550028E+04  0.7818609E-02  0.8851850E-01
        1   -1    0    0  501    0  0.00000000000E+00  0.00000000000E+00  0.16340092465E+04  0.16340092465E+04  0.50400001928E-02 0.  1.
       -1   -1    0    0    0  501  0.00000000000E+00  0.00000000000E+00 -0.36759092236E+03  0.36759092239E+03  0.50400001928E-02 0. -1.
    10030    2    1    2    0    0  0.00000000000E+00  0.00000000000E+00  0.12664183242E+04  0.20016001689E+04  0.15500283431E+04 0.  0.
        1    1    3    3  502    0 -0.51722282404E+03 -0.52509139844E+03  0.32381054076E+03  0.80504266517E+03  0.50400001928E-02 0. -1.
       -1    1    3    3    0  502  0.51722282404E+03  0.52509139844E+03  0.94260778342E+03  0.11965575038E+04  0.50400001928E-02 0.  1.
</event>
<event>
 5   0  0.1500956E-03  0.1134199E+04  0.7818609E-02  0.9172485E-01
        2   -1    0    0  501    0  0.00000000000E+00  0.00000000000E+00  0.12534014097E+04  0.12534014097E+04  0.25500000920E-02 0. -1.
       -2   -1    0    0    0  501  0.00000000000E+00  0.00000000000E+00 -0.25658345565E+03  0.25658345566E+03  0.25500000920E-02 0.  1.
    10030    2    1    2    0    0  0.00000000000E+00  0.00000000000E+00  0.99681795408E+03  0.15099848654E+04  0.11341993917E+04 0.  0.
        4    1    3    3  502    0 -0.32327798004E+03 -0.40781173652E+03  0.19839916078E+03  0.55694066535E+03  0.12699999809E+01 0.  1.
       -4    1    3    3    0  502  0.32327798004E+03  0.40781173652E+03  0.79841879330E+03  0.95304420004E+03  0.12699999809E+01 0. -1.
</event>
<event>
 5   0  0.1484056E-03  0.1518336E+04  0.7818609E-02  0.8872350E-01
        2   -1    0    0  501    0  0.00000000000E+00  0.00000000000E+00  0.75963081221E+03  0.75963081222E+03  0.25500000920E-02 0.  1.
       -2   -1    0    0    0  501  0.00000000000E+00  0.00000000000E+00 -0.75870538016E+03  0.75870538016E+03  0.25500000920E-02 0. -1.
    10030    2    1    2    0    0  0.00000000000E+00  0.00000000000E+00  0.92543205659E+00  0.15183361924E+04  0.15183359103E+04 0.  0.
        5    1    3    3  502    0  0.19097228683E+03 -0.13184124921E+03  0.72327774003E+03  0.75960865487E+03  0.46999998093E+01 0.  1.
       -5    1    3    3    0  502 -0.19097228683E+03  0.13184124921E+03 -0.72235230798E+03  0.75872753751E+03  0.46999998093E+01 0. -1.
</event>
<event>
 5   0  0.8306301E-04  0.1739218E+04  0.7818609E-02  0.8739308E-01
        1   -1    0    0  501    0  0.00000000000E+00  0.00000000000E+00  0.18573405133E+04  0.18573405134E+04  0.50400001928E-02 0. -1.
       -1   -1    0    0    0  501  0.00000000000E+00  0.00000000000E+00 -0.40715189890E+03  0.40715189893E+03  0.50400001928E-02 0.  1.
    10030    2    1    2    0    0  0.00000000000E+00  0.00000000000E+00  0.14501886144E+04  0.22644924123E+04  0.17392178897E+04 0.  0.
        4    1    3    3  502    0 -0.19282918980E+03  0.23075273663E+03 -0.33729799905E+03  0.45188657311E+03  0.12699999809E+01 0.  1.
       -4    1    3    3    0  502  0.19282918980E+03 -0.23075273663E+03  0.17874866135E+04  0.18126058392E+04  0.12699999809E+01 0. -1.
</event>
<event>
 5   0  0.1484056E-03  0.1514059E+04  0.7818609E-02  0.8875157E-01
       -2   -1    0    0    0  501  0.00000000000E+00  0.00000000000E+00  0.58310848020E+03  0.58310848021E+03  0.25500000920E-02 0. -1.
        2   -1    0    0  501    0  0.00000000000E+00  0.00000000000E+00 -0.98282575403E+03  0.98282575403E+03  0.25500000920E-02 0.  1.
    10030    2    1    2    0    0  0.00000000000E+00  0.00000000000E+00 -0.39971727383E+03  0.15659342342E+04  0.15140594859E+04 0.  0.
        5    1    3    3  502    0 -0.71580026989E+03  0.55041133709E+02 -0.44823745206E+03  0.84636780196E+03  0.46999998093E+01 0.  1.
       -5    1    3    3    0  502  0.71580026989E+03 -0.55041133709E+02  0.48520178230E+02  0.71956643228E+03  0.46999998093E+01 0. -1.
</event>
<event>
 5   0  0.8191876E-04  0.1493396E+04  0.7818609E-02  0.8888856E-01
       -1   -1    0    0    0  501  0.00000000000E+00  0.00000000000E+00  0.24623758784E+03  0.24623758789E+03  0.50400001928E-02 0.  1.
        1   -1    0    0  501    0  0.00000000000E+00  0.00000000000E+00 -0.22643097603E+04  0.22643097603E+04  0.50400001928E-02 0. -1.
    10030    2    1    2    0    0  0.00000000000E+00  0.00000000000E+00 -0.20180721724E+04  0.25105473482E+04  0.14933963621E+04 0.  0.
        2    1    3    3  502    0  0.60256011423E+03 -0.29894889482E+03 -0.46401492668E+03  0.81716521289E+03  0.25500000920E-02 0. -1.
       -2    1    3    3    0  502 -0.60256011423E+03  0.29894889482E+03 -0.15540572458E+04  0.16933821353E+04  0.25500000920E-02 0.  1.
</event>
<event>
 5   0  0.1526126E-03  0.1426987E+04  0.7818609E-02  0.8934513E-01
       -2   -1    0    0    0  501  0.00000000000E+00  0.00000000000E+00  0.39959222739E+03  0.39959222740E+03  0.25500000920E-02 0. -1.
        2   -1    0    0  501    0  0.00000000000E+00  0.00000000000E+00 -0.12739806884E+04  0.12739806884E+04  0.25500000920E-02 0.  1.
    10030    2    1    2    0    0  0.00000000000E+00  0.00000000000E+00 -0.87438846105E+03  0.16735729158E+04  0.14269867287E+04 0.  0.
        2    1    3    3  502    0  0.31533666224E+03  0.52496114062E+03 -0.77959162205E+01  0.61243953663E+03  0.25500000920E-02 0.  1.
       -2    1    3    3    0  502 -0.31533666224E+03 -0.52496114062E+03 -0.86659254483E+03  0.10611333792E+04  0.25500000920E-02 0. -1.
</event>
<event>
 5   0  0.8058234E-04  0.1502645E+04  0.7818609E-02  0.8882696E-01
       -1   -1    0    0    0  501  0.00000000000E+00  0.00000000000E+00  0.53425436241E+03  0.53425436244E+03  0.50400001928E-02 0.  1.
        1   -1    0    0  501    0  0.00000000000E+00  0.00000000000E+00 -0.10565857843E+04  0.10565857843E+04  0.50400001928E-02 0. -1.
    10030    2    1    2    0    0  0.00000000000E+00  0.00000000000E+00 -0.52233142187E+03  0.15908401467E+04  0.15026450872E+04 0.  0.
        5    1    3    3  502    0  0.41808280700E+03 -0.32705576678E+03 -0.82407276622E+03  0.98024319540E+03  0.46999998093E+01 0. -1.
       -5    1    3    3    0  502 -0.41808280700E+03  0.32705576678E+03  0.30174134435E+03  0.61059695134E+03  0.46999998093E+01 0.  1.
</event>
</LesHouchesEvents>
