<LesHouchesEvents version="3.0">
<header>
<!--
#*********************************************************************
#                                                                    *
#                        MadGraph5_aMC@NLO                           *
#                                                                    *
#                           Going Beyond                             *
#                                                                    *
#                   http://madgraph.hep.uiuc.edu                     *
#                   http://madgraph.phys.ucl.ac.be                   *
#                   http://amcatnlo.cern.ch                          *
#                                                                    *
#                     The MadGraph5_aMC@NLO team                     *
#                                                                    *
#....................................................................*
#                                                                    *
# This file contains all the information necessary to reproduce      *
# the events generated:                                              *
#                                                                    *
# 1. software version                                                *
# 2. proc_card          : code generation info including model       *
# 3. param_card         : model primary parameters in the LH format  *
# 4. run_card           : running parameters (collider and cuts)     *
# 5. pythia_card        : present only if pythia has been run        *
# 6. pgs_card           : present only if pgs has been run           *
# 7. delphes_cards      : present only if delphes has been run       *
#                                                                    *
#                                                                    *
#*********************************************************************
-->
<MGVersion>
#5.2.2.3
</MGVersion>
<MG5ProcCard>
#************************************************************
#*                     MadGraph5_aMC@NLO                    *
#*                                                          *
#*                *                       *                 *
#*                  *        * *        *                   *
#*                    * * * * 5 * * * *                     *
#*                  *        * *        *                   *
#*                *                       *                 *
#*                                                          *
#*                                                          *
#*         VERSION 2.2.3                 2015-02-10         *
#*                                                          *
#*    The MadGraph5_aMC@NLO Development Team - Find us at   *
#*    https://server06.fynu.ucl.ac.be/projects/madgraph     *
#*                                                          *
#************************************************************
#*                                                          *
#*               Command File for MadGraph5_aMC@NLO         *
#*                                                          *
#*     run as ./bin/mg5_aMC  filename                       *
#*                                                          *
#************************************************************
set group_subprocesses Auto
set ignore_six_quark_processes False
set loop_optimized_output True
set gauge unitary
set complex_mass_scheme False
import model sm
define p = g u c d s u~ c~ d~ s~
define j = g u c d s u~ c~ d~ s~
define l+ = e+ mu+
define l- = e- mu-
define vl = ve vm vt
define vl~ = ve~ vm~ vt~
import model Zprime_UFO
generate p p > zph, zph > j j
add process p p > zph, zph > b b~
output Dijet_signal
</MG5ProcCard>
<MGProcCard>
#*********************************************************************
#                        MadGraph/MadEvent                           *
#                   http://madgraph.hep.uiuc.edu                     *
#                                                                    *
#                          proc_card.dat                             *
#*********************************************************************
#                                                                    *
#            This Files is generated by MADGRAPH 5                   *
#                                                                    *
# WARNING: This Files is generated for MADEVENT (compatibility issue)*
#          This files is NOT a valid MG4 proc_card.dat               *
#          Running this in MG4 will NEVER reproduce the result of MG5*
#                                                                    *
#*********************************************************************
#*********************************************************************
# Process(es) requested : mg2 input                                  *
#*********************************************************************
# Begin PROCESS # This is TAG. Do not modify this line
p p > zph , zph > j j           #Process
# Be carefull the coupling are here in MG5 convention
          
end_coup           # End the couplings input

done               # this tells MG there are no more procs
# End PROCESS  # This is TAG. Do not modify this line
#*********************************************************************
# Model information                                                  *
#*********************************************************************
# Begin MODEL  # This is TAG. Do not modify this line
Zprime_UFO
# End   MODEL  # This is TAG. Do not modify this line
#*********************************************************************
# Start multiparticle definitions                                    *
#*********************************************************************
# Begin MULTIPARTICLES # This is TAG. Do not modify this line

# End  MULTIPARTICLES # This is TAG. Do not modify this line
</MGProcCard>
<MGRunCard>
#*********************************************************************
#                       MadGraph5_aMC@NLO                            *
#                                                                    *
#                     run_card.dat MadEvent                          *
#                                                                    *
#  This file is used to set the parameters of the run.               *
#                                                                    *
#  Some notation/conventions:                                        *
#                                                                    *
#   Lines starting with a '# ' are info or comments                  *
#                                                                    *
#   mind the format:   value    = variable     ! comment             *
#*********************************************************************
#
#*******************                                                 
# Running parameters
#*******************                                                 
#                                                                    
#*********************************************************************
# Tag name for the run (one word)                                    *
#*********************************************************************
  tag_1     = run_tag ! name of the run 
#*********************************************************************
# Run to generate the grid pack                                      *
#*********************************************************************
  .false.     = gridpack  !True = setting up the grid pack
#*********************************************************************
# Number of events and rnd seed                                      *
# Warning: Do not generate more than 1M events in a single run       *
# If you want to run Pythia, avoid more than 50k events in a run.    *
#*********************************************************************
  2000 = nevents ! Number of unweighted events requested 
 2208 = iseed   ! rnd seed (0=assigned automatically=default))
#*********************************************************************
# Collider type and energy                                           *
# lpp: 0=No PDF, 1=proton, -1=antiproton, 2=photon from proton,      *
#                                         3=photon from electron     *
#*********************************************************************
        1     = lpp1    ! beam 1 type 
        1     = lpp2    ! beam 2 type
     4000     = ebeam1  ! beam 1 total energy in GeV
     4000     = ebeam2  ! beam 2 total energy in GeV
#*********************************************************************
# Beam polarization from -100 (left-handed) to 100 (right-handed)    *
#*********************************************************************
        0     = polbeam1 ! beam polarization for beam 1
        0     = polbeam2 ! beam polarization for beam 2
#*********************************************************************
# PDF CHOICE: this automatically fixes also alpha_s and its evol.    *
#*********************************************************************
 'nn23lo1'    = pdlabel     ! PDF set                                     
 230000    = lhaid     ! if pdlabel=lhapdf, this is the lhapdf number
#*********************************************************************
# Renormalization and factorization scales                           *
#*********************************************************************
 F        = fixed_ren_scale  ! if .true. use fixed ren scale
 F        = fixed_fac_scale  ! if .true. use fixed fac scale
 91.1880  = scale            ! fixed ren scale
 91.1880  = dsqrt_q2fact1    ! fixed fact scale for pdf1
 91.1880  = dsqrt_q2fact2    ! fixed fact scale for pdf2
 1        = scalefact        ! scale factor for event-by-event scales
#*********************************************************************
# Matching - Warning! ickkw > 1 is still beta
#*********************************************************************
 0        = ickkw            ! 0 no matching, 1 MLM, 2 CKKW matching
 1        = highestmult      ! for ickkw=2, highest mult group
 1        = ktscheme         ! for ickkw=1, 1 Durham kT, 2 Pythia pTE
 1        = alpsfact         ! scale factor for QCD emission vx
 F        = chcluster        ! cluster only according to channel diag
 T        = pdfwgt           ! for ickkw=1, perform pdf reweighting
 5        = asrwgtflavor     ! highest quark flavor for a_s reweight
 T        = clusinfo         ! include clustering tag in output
 3.0      = lhe_version       ! Change the way clustering information pass to shower.        
#*********************************************************************
#**********************************************************
#
#**********************************************************
# Automatic ptj and mjj cuts if xqcut > 0
# (turn off for VBF and single top processes)
#**********************************************************
   T  = auto_ptj_mjj  ! Automatic setting of ptj and mjj
#**********************************************************
#                                                                    
#**********************************
# BW cutoff (M+/-bwcutoff*Gamma)
#**********************************
  15  = bwcutoff      ! (M+/-bwcutoff*Gamma)
#**********************************************************
# Apply pt/E/eta/dr/mij cuts on decay products or not
# (note that etmiss/ptll/ptheavy/ht/sorted cuts always apply)
#**********************************************************
   T  = cut_decays    ! Cut decay products 
#*************************************************************
# Number of helicities to sum per event (0 = all helicities)
# 0 gives more stable result, but longer run time (needed for
# long decay chains e.g.).
# Use >=2 if most helicities contribute, e.g. pure QCD.
#*************************************************************
   0  = nhel          ! Number of helicities used per event
#*******************                                                 
# Standard Cuts
#*******************                                                 
#                                                                    
#*********************************************************************
# Minimum and maximum pt's (for max, -1 means no cut)                *
#*********************************************************************
 20  = ptj       ! minimum pt for the jets 
  0  = ptb       ! minimum pt for the b 
 10  = pta       ! minimum pt for the photons 
 10  = ptl       ! minimum pt for the charged leptons 
  0  = misset    ! minimum missing Et (sum of neutrino's momenta)
  0  = ptheavy   ! minimum pt for one heavy final state
 1.0 = ptonium   ! minimum pt for the quarkonium states
 -1  = ptjmax    ! maximum pt for the jets
 -1  = ptbmax    ! maximum pt for the b
 -1  = ptamax    ! maximum pt for the photons
 -1  = ptlmax    ! maximum pt for the charged leptons
 -1  = missetmax ! maximum missing Et (sum of neutrino's momenta)
#*********************************************************************
# Minimum and maximum E's (in the center of mass frame)              *
#*********************************************************************
  0  = ej     ! minimum E for the jets 
  0  = eb     ! minimum E for the b 
  0  = ea     ! minimum E for the photons 
  0  = el     ! minimum E for the charged leptons 
 -1   = ejmax ! maximum E for the jets
 -1   = ebmax ! maximum E for the b
 -1   = eamax ! maximum E for the photons
 -1   = elmax ! maximum E for the charged leptons
#*********************************************************************
# Maximum and minimum absolute rapidity (for max, -1 means no cut)   *
#*********************************************************************
   5  = etaj    ! max rap for the jets 
  -1  = etab    ! max rap for the b
 2.5  = etaa    ! max rap for the photons 
 2.5  = etal    ! max rap for the charged leptons 
 0.6  = etaonium ! max rap for the quarkonium states
   0  = etajmin ! min rap for the jets
   0  = etabmin ! min rap for the b
   0  = etaamin ! min rap for the photons
   0  = etalmin ! main rap for the charged leptons
#*********************************************************************
# Minimum and maximum DeltaR distance                                *
#*********************************************************************
 0.4 = drjj    ! min distance between jets 
 0   = drbb    ! min distance between b's 
 0.4 = drll    ! min distance between leptons 
 0.4 = draa    ! min distance between gammas 
 0   = drbj    ! min distance between b and jet 
 0.4 = draj    ! min distance between gamma and jet 
 0.4 = drjl    ! min distance between jet and lepton 
 0   = drab    ! min distance between gamma and b 
 0   = drbl    ! min distance between b and lepton 
 0.4 = dral    ! min distance between gamma and lepton 
 -1  = drjjmax ! max distance between jets
 -1  = drbbmax ! max distance between b's
 -1  = drllmax ! max distance between leptons
 -1  = draamax ! max distance between gammas
 -1  = drbjmax ! max distance between b and jet
 -1  = drajmax ! max distance between gamma and jet
 -1  = drjlmax ! max distance between jet and lepton
 -1  = drabmax ! max distance between gamma and b
 -1  = drblmax ! max distance between b and lepton
 -1  = dralmax ! maxdistance between gamma and lepton
#*********************************************************************
# Minimum and maximum invariant mass for pairs                       *
# WARNING: for four lepton final state mmll cut require to have      *
#          different lepton masses for each flavor!                  *           
#*********************************************************************
 0   = mmjj    ! min invariant mass of a jet pair 
 0   = mmbb    ! min invariant mass of a b pair 
 0   = mmaa    ! min invariant mass of gamma gamma pair
 0   = mmll    ! min invariant mass of l+l- (same flavour) lepton pair
 -1  = mmjjmax ! max invariant mass of a jet pair
 -1  = mmbbmax ! max invariant mass of a b pair
 -1  = mmaamax ! max invariant mass of gamma gamma pair
 -1  = mmllmax ! max invariant mass of l+l- (same flavour) lepton pair
#*********************************************************************
# Minimum and maximum invariant mass for all letpons                 *
#*********************************************************************
 0   = mmnl    ! min invariant mass for all letpons (l+- and vl) 
 -1  = mmnlmax ! max invariant mass for all letpons (l+- and vl) 
#*********************************************************************
# Minimum and maximum pt for 4-momenta sum of leptons                *
#*********************************************************************
 0   = ptllmin  ! Minimum pt for 4-momenta sum of leptons(l and vl)
 -1  = ptllmax  ! Maximum pt for 4-momenta sum of leptons(l and vl)
#*********************************************************************
# Inclusive cuts                                                     *
#*********************************************************************
 0  = xptj ! minimum pt for at least one jet  
 0  = xptb ! minimum pt for at least one b 
 0  = xpta ! minimum pt for at least one photon 
 0  = xptl ! minimum pt for at least one charged lepton 
#*********************************************************************
# Control the pt's of the jets sorted by pt                          *
#*********************************************************************
 0   = ptj1min ! minimum pt for the leading jet in pt
 0   = ptj2min ! minimum pt for the second jet in pt
 0   = ptj3min ! minimum pt for the third jet in pt
 0   = ptj4min ! minimum pt for the fourth jet in pt
 -1  = ptj1max ! maximum pt for the leading jet in pt 
 -1  = ptj2max ! maximum pt for the second jet in pt
 -1  = ptj3max ! maximum pt for the third jet in pt
 -1  = ptj4max ! maximum pt for the fourth jet in pt
 0   = cutuse  ! reject event if fails any (0) / all (1) jet pt cuts
#*********************************************************************
# Control the pt's of leptons sorted by pt                           *
#*********************************************************************
 0   = ptl1min ! minimum pt for the leading lepton in pt
 0   = ptl2min ! minimum pt for the second lepton in pt
 0   = ptl3min ! minimum pt for the third lepton in pt
 0   = ptl4min ! minimum pt for the fourth lepton in pt
 -1  = ptl1max ! maximum pt for the leading lepton in pt 
 -1  = ptl2max ! maximum pt for the second lepton in pt
 -1  = ptl3max ! maximum pt for the third lepton in pt
 -1  = ptl4max ! maximum pt for the fourth lepton in pt
#*********************************************************************
# Control the Ht(k)=Sum of k leading jets                            *
#*********************************************************************
 0   = htjmin ! minimum jet HT=Sum(jet pt)
 -1  = htjmax ! maximum jet HT=Sum(jet pt)
 0   = ihtmin  !inclusive Ht for all partons (including b)
 -1  = ihtmax  !inclusive Ht for all partons (including b)
 0   = ht2min ! minimum Ht for the two leading jets
 0   = ht3min ! minimum Ht for the three leading jets
 0   = ht4min ! minimum Ht for the four leading jets
 -1  = ht2max ! maximum Ht for the two leading jets
 -1  = ht3max ! maximum Ht for the three leading jets
 -1  = ht4max ! maximum Ht for the four leading jets
#***********************************************************************
# Photon-isolation cuts, according to hep-ph/9801442                   *
# When ptgmin=0, all the other parameters are ignored                  *
# When ptgmin>0, pta and draj are not going to be used                 *
#***********************************************************************
   0 = ptgmin ! Min photon transverse momentum
 0.4 = R0gamma ! Radius of isolation code
 1.0 = xn ! n parameter of eq.(3.4) in hep-ph/9801442
 1.0 = epsgamma ! epsilon_gamma parameter of eq.(3.4) in hep-ph/9801442
 .true. = isoEM ! isolate photons from EM energy (photons and leptons)
#*********************************************************************
# WBF cuts                                                           *
#*********************************************************************
 0   = xetamin ! minimum rapidity for two jets in the WBF case  
 0   = deltaeta ! minimum rapidity for two jets in the WBF case 
#*********************************************************************
# KT DURHAM CUT                                                      *
#*********************************************************************
 -1    =  ktdurham        
 0.4  =  dparameter 
#*********************************************************************
# maximal pdg code for quark to be considered as a light jet         *
# (otherwise b cuts are applied)                                     *
#*********************************************************************
 4 = maxjetflavor    ! Maximum jet pdg code
#*********************************************************************
# Jet measure cuts                                                   *
#*********************************************************************
 0   = xqcut   ! minimum kt jet measure between partons
#*********************************************************************
#
#*********************************************************************
# Store info for systematics studies                                 *
# WARNING: If use_syst is T, matched Pythia output is                *
#          meaningful ONLY if plotted taking matchscale              *
#          reweighting into account!                                 *
#*********************************************************************
   F  = use_syst      ! Enable systematics studies
#
#**************************************
# Parameter of the systematics study
#  will be used by SysCalc (if installed)
#**************************************                                  
#
0.5 1 2 = sys_scalefact  # factorization/renormalization scale factor
0.5 1 2 = sys_alpsfact  # \alpha_s emission scale factors
30 50 = sys_matchscale # variation of merging scale
# PDF sets and number of members (0 or none for all members).
CT10nlo.LHgrid = sys_pdf # matching scales
# MSTW2008nlo68cl.LHgrid 1  = sys_pdf
</MGRunCard>
<slha>
######################################################################
## PARAM_CARD AUTOMATICALY GENERATED BY MG5 FOLLOWING UFO MODEL   ####
######################################################################
##                                                                  ##
##  Width set on Auto will be computed following the information    ##
##        present in the decay.py files of the model.               ##
##        See  arXiv:1402.1178 for more details.                    ##
##                                                                  ##
######################################################################

###################################
## INFORMATION FOR CKMBLOCK
###################################
Block ckmblock 
    1 2.277360e-01 # cabi 

###################################
## INFORMATION FOR FRBLOCK
###################################
Block frblock 
    1 1.200000e+00 # gz 

###################################
## INFORMATION FOR MASS
###################################
Block mass 
    1 5.040000e-03 # MD 
    2 2.550000e-03 # MU 
    3 1.010000e-01 # MS 
    4 1.270000e+00 # MC 
    5 4.700000e+00 # MB 
    6 1.720000e+02 # MT 
   11 5.110000e-04 # Me 
   13 1.056600e-01 # MM 
   15 1.777000e+00 # MTA 
   23 9.118760e+01 # MZ 
   25 1.200000e+02 # MH 
  10030 1.500000e+03 # MZph 
  10031 3.000000e+02 # MZpl 
## Dependent parameters, given by model restrictions.
## Those values should be edited following the 
## analytical expression. MG5 ignores those values 
## but they are important for interfacing the output of MG5
## to external program such as Pythia.
  12 0.000000 # ve : 0.0 
  14 0.000000 # vm : 0.0 
  16 0.000000 # vt : 0.0 
  21 0.000000 # g : 0.0 
  22 0.000000 # a : 0.0 
  24 79.824360 # w+ : cmath.sqrt(MZ__exp__2/2. + cmath.sqrt(MZ__exp__4/4. - (aEW*cmath.pi*MZ__exp__2)/(Gf*sqrt__2))) 

###################################
## INFORMATION FOR SMINPUTS
###################################
Block sminputs 
    1 1.279000e+02 # aEWM1 
    2 1.166370e-05 # Gf 
    3 1.184000e-01 # aS 

###################################
## INFORMATION FOR YUKAWA
###################################
Block yukawa 
    1 5.040000e-03 # ymdo 
    2 2.550000e-03 # ymup 
    3 1.010000e-01 # yms 
    4 1.270000e+00 # ymc 
    5 4.700000e+00 # ymb 
    6 1.720000e+02 # ymt 
   11 5.110000e-04 # yme 
   13 1.056600e-01 # ymm 
   15 1.777000e+00 # ymtau 

###################################
## INFORMATION FOR DECAY
###################################
DECAY   6 1.508336e+00 # WT 
DECAY  23 2.495200e+00 # WZ 
DECAY  24 2.085000e+00 # WW 
DECAY  25 5.753088e-03 # WH 
## Dependent parameters, given by model restrictions.
## Those values should be edited following the 
## analytical expression. MG5 ignores those values 
## but they are important for interfacing the output of MG5
## to external program such as Pythia.
DECAY  1 0.000000 # d : 0.0 
DECAY  2 0.000000 # u : 0.0 
DECAY  3 0.000000 # s : 0.0 
DECAY  4 0.000000 # c : 0.0 
DECAY  5 0.000000 # b : 0.0 
DECAY  11 0.000000 # e- : 0.0 
DECAY  12 0.000000 # ve : 0.0 
DECAY  13 0.000000 # mu- : 0.0 
DECAY  14 0.000000 # vm : 0.0 
DECAY  15 0.000000 # ta- : 0.0 
DECAY  16 0.000000 # vt : 0.0 
DECAY  21 0.000000 # g : 0.0 
DECAY  22 0.000000 # a : 0.0 
DECAY  10030 0.308725 # zph : (gz__exp__2*MZph*(5 + cmath.sqrt(1 - (4*MT__exp__2)/MZph__exp__2)))/(144.*cmath.pi) 
DECAY  10031 0.132629 # zpl : (5*gz__exp__2*MZpl)/(144.*cmath.pi) 
#===========================================================
# QUANTUM NUMBERS OF NEW STATE(S) (NON SM PDG CODE)
#===========================================================

Block QNUMBERS 10030  # zph 
        1 0  # 3 times electric charge
        2 3  # number of spin states (2S+1)
        3 1  # colour rep (1: singlet, 3: triplet, 8: octet)
        4 0  # Particle/Antiparticle distinction (0=own anti)
Block QNUMBERS 10031  # zpl 
        1 0  # 3 times electric charge
        2 3  # number of spin states (2S+1)
        3 1  # colour rep (1: singlet, 3: triplet, 8: octet)
        4 0  # Particle/Antiparticle distinction (0=own anti)
</slha>
## END BANNER##
<MGGenerationInfo>
#  Number of Events        :         3928
#  Integrated weight (pb)  :  0.32565E+00
#  Max wgt                 :  0.11497E-03
#  Average wgt             :  0.82905E-04
</MGGenerationInfo>
</header>
<init>
     2212     2212  0.40000000000E+04  0.40000000000E+04 0 0  247000  247000 2   1
  0.32606235271E+00  0.72233349452E-03  0.11497160000E-03   0
</init>
<event>
 5   0  0.1149716E-03  0.1512567E+04  0.7818609E-02  0.8876139E-01
        2   -1    0    0  501    0  0.00000000000E+00  0.00000000000E+00  0.31672394386E+04  0.31672394386E+04  0.25500000920E-02 0. -1.
       -2   -1    0    0    0  501  0.00000000000E+00  0.00000000000E+00 -0.18058766564E+03  0.18058766566E+03  0.25500000920E-02 0.  1.
    10030    2    1    2    0    0  0.00000000000E+00  0.00000000000E+00  0.29866517729E+04  0.33478271042E+04  0.15125665298E+04 0.  0.
        1    1    3    3  502    0 -0.33252391521E+03  0.25695262982E+03  0.10161489889E+03  0.43234522764E+03  0.50400001928E-02 0.  1.
       -1    1    3    3    0  502  0.33252391521E+03 -0.25695262982E+03  0.28850368740E+04  0.29154818766E+04  0.50400001928E-02 0. -1.
</event>
<event>
 5   0  0.1149716E-03  0.1402855E+04  0.7818609E-02  0.8951754E-01
        2   -1    0    0  501    0  0.00000000000E+00  0.00000000000E+00  0.20157426394E+04  0.20157426394E+04  0.25500000920E-02 0.  1.
       -2   -1    0    0    0  501  0.00000000000E+00  0.00000000000E+00 -0.24407910514E+03  0.24407910516E+03  0.25500000920E-02 0. -1.
    10030    2    1    2    0    0  0.00000000000E+00  0.00000000000E+00  0.17716635342E+04  0.22598217445E+04  0.14028551737E+04 0.  0.
        1    1    3    3  502    0 -0.10095269480E+03 -0.18676251670E+03  0.19627447208E+04  0.19741931323E+04  0.50400001928E-02 0.  1.
       -1    1    3    3    0  502  0.10095269480E+03  0.18676251670E+03 -0.19108118663E+03  0.28562861226E+03  0.50400001928E-02 0. -1.
</event>
<event>
 5   0  0.1126175E-03  0.1500589E+04  0.7818609E-02  0.8884061E-01
       -2   -1    0    0    0  501  0.00000000000E+00  0.00000000000E+00  0.75758104756E+03  0.75758104757E+03  0.25500000920E-02 0. -1.
        2   -1    0    0  501    0  0.00000000000E+00  0.00000000000E+00 -0.74307819219E+03  0.74307819219E+03  0.25500000920E-02 0.  1.
    10030    2    1    2    0    0  0.00000000000E+00  0.00000000000E+00  0.14502855377E+02  0.15006592398E+04  0.15005891580E+04 0.  0.
        3    1    3    3  502    0  0.57192639373E+03  0.14149041742E+02 -0.47820089814E+03  0.74563805188E+03  0.10100000352E+00 0.  1.
       -3    1    3    3    0  502 -0.57192639373E+03 -0.14149041742E+02  0.49270375351E+03  0.75502118788E+03  0.10100000352E+00 0. -1.
</event>
<event>
 5   0  0.1149716E-03  0.1493513E+04  0.7818609E-02  0.8888778E-01
        2   -1    0    0  501    0  0.00000000000E+00  0.00000000000E+00  0.17278288378E+04  0.17278288378E+04  0.25500000920E-02 0.  1.
       -2   -1    0    0    0  501  0.00000000000E+00  0.00000000000E+00 -0.32274354395E+03  0.32274354396E+03  0.25500000920E-02 0. -1.
    10030    2    1    2    0    0  0.00000000000E+00  0.00000000000E+00  0.14050852938E+04  0.20505723817E+04  0.14935134448E+04 0.  0.
        1    1    3    3  502    0 -0.14988515495E+03  0.27037225379E+03  0.16358485872E+04  0.16648024854E+04  0.50400001928E-02 0.  1.
       -1    1    3    3    0  502  0.14988515495E+03 -0.27037225379E+03 -0.23076329337E+03  0.38576989629E+03  0.50400001928E-02 0. -1.
</event>
<event>
 5   0  0.1126175E-03  0.1473195E+04  0.7818609E-02  0.8902476E-01
        2   -1    0    0  501    0  0.00000000000E+00  0.00000000000E+00  0.12689515223E+04  0.12689515223E+04  0.25500000920E-02 0.  1.
       -2   -1    0    0    0  501  0.00000000000E+00  0.00000000000E+00 -0.42757814192E+03  0.42757814192E+03  0.25500000920E-02 0. -1.
    10030    2    1    2    0    0  0.00000000000E+00  0.00000000000E+00  0.84137338041E+03  0.16965296643E+04  0.14731950775E+04 0.  0.
        3    1    3    3  502    0 -0.44923900962E+03 -0.47079342691E+03  0.23236955072E+02  0.65115444011E+03  0.10100000352E+00 0. -1.
       -3    1    3    3    0  502  0.44923900962E+03  0.47079342691E+03  0.81813642534E+03  0.10453752241E+04  0.10100000352E+00 0.  1.
</event>
<event>
 5   0  0.5924403E-04  0.1397467E+04  0.7818609E-02  0.8955654E-01
        1   -1    0    0  501    0  0.00000000000E+00  0.00000000000E+00  0.74866700898E+03  0.74866700900E+03  0.50400001928E-02 0. -1.
       -1   -1    0    0    0  501  0.00000000000E+00  0.00000000000E+00 -0.65213043473E+03  0.65213043475E+03  0.50400001928E-02 0.  1.
    10030    2    1    2    0    0  0.00000000000E+00  0.00000000000E+00  0.96536574251E+02  0.14007974437E+04  0.13974670544E+04 0.  0.
        1    1    3    3  502    0  0.10386765813E+03  0.17809073571E+03  0.71748479622E+03  0.74651807304E+03  0.50400001928E-02 0. -1.
       -1    1    3    3    0  502 -0.10386765813E+03 -0.17809073571E+03 -0.62094822196E+03  0.65427937071E+03  0.50400001928E-02 0.  1.
</event>
<event>
 5   0  0.5840834E-04  0.1473335E+04  0.7818609E-02  0.8902381E-01
        1   -1    0    0  501    0  0.00000000000E+00  0.00000000000E+00  0.19848242381E+04  0.19848242381E+04  0.50400001928E-02 0. -1.
       -1   -1    0    0    0  501  0.00000000000E+00  0.00000000000E+00 -0.27341398935E+03  0.27341398940E+03  0.50400001928E-02 0.  1.
    10030    2    1    2    0    0  0.00000000000E+00  0.00000000000E+00  0.17114102487E+04  0.22582382275E+04  0.14733346031E+04 0.  0.
        3    1    3    3  502    0 -0.16927471665E+03  0.50250213597E+03  0.71882470655E+02  0.53509758563E+03  0.10100000352E+00 0.  1.
       -3    1    3    3    0  502  0.16927471665E+03 -0.50250213597E+03  0.16395277781E+04  0.17231406419E+04  0.10100000352E+00 0. -1.
</event>
<event>
 5   0  0.1149716E-03  0.1490752E+04  0.7818609E-02  0.8890626E-01
        2   -1    0    0  501    0  0.00000000000E+00  0.00000000000E+00  0.87897007559E+03  0.87897007559E+03  0.25500000920E-02 0.  1.
       -2   -1    0    0    0  501  0.00000000000E+00  0.00000000000E+00 -0.63208722045E+03  0.63208722045E+03  0.25500000920E-02 0. -1.
    10030    2    1    2    0    0  0.00000000000E+00  0.00000000000E+00  0.24688285514E+03  0.15110572960E+04  0.14907524972E+04 0.  0.
        1    1    3    3  502    0  0.25603306310E+03  0.28380217948E+03 -0.52518790369E+03  0.64955287752E+03  0.50400001928E-02 0. -1.
       -1    1    3    3    0  502 -0.25603306310E+03 -0.28380217948E+03  0.77207075883E+03  0.86150441853E+03  0.50400001928E-02 0.  1.
</event>
<event>
 5   0  0.5914645E-04  0.1463834E+04  0.7818609E-02  0.8908866E-01
        1   -1    0    0  501    0  0.00000000000E+00  0.00000000000E+00  0.83048274803E+03  0.83048274804E+03  0.50400001928E-02 0. -1.
       -1   -1    0    0    0  501  0.00000000000E+00  0.00000000000E+00 -0.64504919462E+03  0.64504919463E+03  0.50400001928E-02 0.  1.
    10030    2    1    2    0    0  0.00000000000E+00  0.00000000000E+00  0.18543355341E+03  0.14755319427E+04  0.14638336351E+04 0.  0.
        2    1    3    3  502    0  0.29852363973E+03  0.54592661832E+03 -0.29578517931E+03  0.68894202106E+03  0.25500000920E-02 0.  1.
       -2    1    3    3    0  502 -0.29852363973E+03 -0.54592661832E+03  0.48121873272E+03  0.78658992162E+03  0.25500000920E-02 0. -1.
</event>
<event>
 5   0  0.1126175E-03  0.1535539E+04  0.7818609E-02  0.8861158E-01
       -2   -1    0    0    0  501  0.00000000000E+00  0.00000000000E+00  0.49424867242E+03  0.49424867242E+03  0.25500000920E-02 0.  1.
        2   -1    0    0  501    0  0.00000000000E+00  0.00000000000E+00 -0.11926591427E+04  0.11926591427E+04  0.25500000920E-02 0. -1.
    10030    2    1    2    0    0  0.00000000000E+00  0.00000000000E+00 -0.69841047030E+03  0.16869078151E+04  0.15355392511E+04 0.  0.
        3    1    3    3  502    0 -0.37783466445E+03  0.12945905117E+03  0.37113913503E+03  0.54521825661E+03  0.10100000352E+00 0.  1.
       -3    1    3    3    0  502  0.37783466445E+03 -0.12945905117E+03 -0.10695496053E+04  0.11416895585E+04  0.10100000352E+00 0. -1.
</event>
<event>
 5   0  0.5914645E-04  0.1465673E+04  0.7818609E-02  0.8907607E-01
       -1   -1    0    0    0  501  0.00000000000E+00  0.00000000000E+00  0.47568614635E+03  0.47568614638E+03  0.50400001928E-02 0.  1.
        1   -1    0    0  501    0  0.00000000000E+00  0.00000000000E+00 -0.11289987018E+04  0.11289987018E+04  0.50400001928E-02 0. -1.
    10030    2    1    2    0    0  0.00000000000E+00  0.00000000000E+00 -0.65331255547E+03  0.16046848482E+04  0.14656725988E+04 0.  0.
        2    1    3    3  502    0 -0.24716953824E+03  0.64349890993E+03 -0.59897452622E+03  0.91321087969E+03  0.25500000920E-02 0. -1.
       -2    1    3    3    0  502  0.24716953824E+03 -0.64349890993E+03 -0.54338029256E+02  0.69147396852E+03  0.25500000920E-02 0.  1.
</event>
<event>
 5   0  0.1082667E-03  0.1506393E+04  0.7818609E-02  0.8880213E-01
        2   -1    0    0  501    0  0.00000000000E+00  0.00000000000E+00  0.10347519490E+04  0.10347519490E+04  0.25500000920E-02 0. -1.
       -2   -1    0    0    0  501  0.00000000000E+00  0.00000000000E+00 -0.54825202007E+03  0.54825202008E+03  0.25500000920E-02 0.  1.
    10030    2    1    2    0    0  0.00000000000E+00  0.00000000000E+00  0.48649992896E+03  0.15830039691E+04  0.15063928390E+04 0.  0.
        5    1    3    3  502    0  0.22690770207E+03 -0.10210777017E+03  0.99029767922E+03  0.10210899497E+04  0.46999998093E+01 0. -1.
       -5    1    3    3    0  502 -0.22690770207E+03  0.10210777017E+03 -0.50379775027E+03  0.56191401937E+03  0.46999998093E+01 0.  1.
</event>
<event>
 5   0  0.6146552E-04  0.1405692E+04  0.7818609E-02  0.8949708E-01
        1   -1    0    0  501    0  0.00000000000E+00  0.00000000000E+00  0.35897117322E+03  0.35897117326E+03  0.50400001928E-02 0. -1.
       -1   -1    0    0    0  501  0.00000000000E+00  0.00000000000E+00 -0.13761350377E+04  0.13761350377E+04  0.50400001928E-02 0.  1.
    10030    2    1    2    0    0  0.00000000000E+00  0.00000000000E+00 -0.10171638645E+04  0.17351062110E+04  0.14056924401E+04 0.  0.
        5    1    3    3  502    0  0.31433502884E+03 -0.77500536714E+02  0.26143214888E+03  0.41615105672E+03  0.46999998093E+01 0. -1.
       -5    1    3    3    0  502 -0.31433502884E+03  0.77500536714E+02 -0.12785960134E+04  0.13189551543E+04  0.46999998093E+01 0.  1.
</event>
<event>
 5   0  0.5924403E-04  0.1548647E+04  0.7818609E-02  0.8852732E-01
        1   -1    0    0  501    0  0.00000000000E+00  0.00000000000E+00  0.10824906147E+04  0.10824906147E+04  0.50400001928E-02 0.  1.
       -1   -1    0    0    0  501  0.00000000000E+00  0.00000000000E+00 -0.55388660270E+03  0.55388660272E+03  0.50400001928E-02 0. -1.
    10030    2    1    2    0    0  0.00000000000E+00  0.00000000000E+00  0.52860401201E+03  0.16363772174E+04  0.15486472149E+04 0.  0.
        1    1    3    3  502    0 -0.60621831423E+03  0.26809020225E+03  0.68723120643E+03  0.95480874114E+03  0.50400001928E-02 0.  1.
       -1    1    3    3    0  502  0.60621831423E+03 -0.26809020225E+03 -0.15862719442E+03  0.68156847630E+03  0.50400001928E-02 0. -1.
</event>
<event>
 5   0  0.5840834E-04  0.1264930E+04  0.7818609E-02  0.9057848E-01
       -1   -1    0    0    0  501  0.00000000000E+00  0.00000000000E+00  0.52784014153E+03  0.52784014155E+03  0.50400001928E-02 0.  1.
        1   -1    0    0  501    0  0.00000000000E+00  0.00000000000E+00 -0.75782734259E+03  0.75782734260E+03  0.50400001928E-02 0. -1.
    10030    2    1    2    0    0  0.00000000000E+00  0.00000000000E+00 -0.22998720106E+03  0.12856674842E+04  0.12649295503E+04 0.  0.
        3    1    3    3  502    0 -0.54499533381E+03  0.26931653969E+03 -0.29238391484E+03  0.67456628754E+03  0.10100000352E+00 0.  1.
       -3    1    3    3    0  502  0.54499533381E+03 -0.26931653969E+03  0.62396713781E+02  0.61110119662E+03  0.10100000352E+00 0. -1.
</event>
<event>
 5   0  0.5840834E-04  0.1511717E+04  0.7818609E-02  0.8876698E-01
       -1   -1    0    0    0  501  0.00000000000E+00  0.00000000000E+00  0.72761122500E+03  0.72761122502E+03  0.50400001928E-02 0. -1.
        1   -1    0    0  501    0  0.00000000000E+00  0.00000000000E+00 -0.78520251316E+03  0.78520251318E+03  0.50400001928E-02 0.  1.
    10030    2    1    2    0    0  0.00000000000E+00  0.00000000000E+00 -0.57591288161E+02  0.15128137382E+04  0.15117171197E+04 0.  0.
        3    1    3    3  502    0 -0.53767221608E+02 -0.53686729757E+03 -0.55852332740E+03  0.77657306596E+03  0.10100000352E+00 0.  1.
       -3    1    3    3    0  502  0.53767221608E+02  0.53686729757E+03  0.50093203924E+03  0.73624067224E+03  0.10100000352E+00 0. -1.
</event>
<event>
 5   0  0.1149716E-03  0.1575376E+04  0.7818609E-02  0.8835820E-01
        2   -1    0    0  501    0  0.00000000000E+00  0.00000000000E+00  0.24251488981E+04  0.24251488981E+04  0.25500000920E-02 0.  1.
       -2   -1    0    0    0  501  0.00000000000E+00  0.00000000000E+00 -0.25584105085E+03  0.25584105086E+03  0.25500000920E-02 0. -1.
    10030    2    1    2    0    0  0.00000000000E+00  0.00000000000E+00  0.21693078472E+04  0.26809899489E+04  0.15753763266E+04 0.  0.
        1    1    3    3  502    0  0.47049556525E+03  0.48773267512E+03  0.40137507989E+03  0.78762376429E+03  0.50400001928E-02 0. -1.
       -1    1    3    3    0  502 -0.47049556525E+03 -0.48773267512E+03  0.17679327673E+04  0.18933661846E+04  0.50400001928E-02 0.  1.
</event>
<event>
 5   0  0.5606965E-04  0.1507366E+04  0.7818609E-02  0.8879569E-01
       -1   -1    0    0    0  501  0.00000000000E+00  0.00000000000E+00  0.69580067903E+03  0.69580067904E+03  0.50400001928E-02 0. -1.
        1   -1    0    0  501    0  0.00000000000E+00  0.00000000000E+00 -0.81638068035E+03  0.81638068037E+03  0.50400001928E-02 0.  1.
    10030    2    1    2    0    0  0.00000000000E+00  0.00000000000E+00 -0.12058000132E+03  0.15121813594E+04  0.15073662219E+04 0.  0.
        4    1    3    3  502    0  0.47289194028E+03  0.53387829965E+03  0.18417633755E+03  0.73659715057E+03  0.12699999809E+01 0. -1.
       -4    1    3    3    0  502 -0.47289194028E+03 -0.53387829965E+03 -0.30475633887E+03  0.77558420884E+03  0.12699999809E+01 0.  1.
</event>
<event>
 5   0  0.5924403E-04  0.1509306E+04  0.7818609E-02  0.8878288E-01
       -1   -1    0    0    0  501  0.00000000000E+00  0.00000000000E+00  0.60536992908E+03  0.60536992910E+03  0.50400001928E-02 0. -1.
        1   -1    0    0  501    0  0.00000000000E+00  0.00000000000E+00 -0.94074876904E+03  0.94074876906E+03  0.50400001928E-02 0.  1.
    10030    2    1    2    0    0  0.00000000000E+00  0.00000000000E+00 -0.33537883996E+03  0.15461186982E+04  0.15093058214E+04 0.  0.
        1    1    3    3  502    0 -0.20137379055E+03  0.61161365451E+03 -0.57083410772E+03  0.86050813155E+03  0.50400001928E-02 0. -1.
       -1    1    3    3    0  502  0.20137379055E+03 -0.61161365451E+03  0.23545526776E+03  0.68561056661E+03  0.50400001928E-02 0.  1.
</event>
<event>
 5   0  0.1097156E-03  0.1499305E+04  0.7818609E-02  0.8884915E-01
        2   -1    0    0  501    0  0.00000000000E+00  0.00000000000E+00  0.28205886189E+04  0.28205886189E+04  0.25500000920E-02 0. -1.
       -2   -1    0    0    0  501  0.00000000000E+00  0.00000000000E+00 -0.19924170099E+03  0.19924170101E+03  0.25500000920E-02 0.  1.
    10030    2    1    2    0    0  0.00000000000E+00  0.00000000000E+00  0.26213469179E+04  0.30198303199E+04  0.14993050047E+04 0.  0.
        2    1    3    3  502    0  0.35060488393E+03  0.63064355941E+03  0.17202147515E+04  0.18654152017E+04  0.25500000920E-02 0. -1.
       -2    1    3    3    0  502 -0.35060488393E+03 -0.63064355941E+03  0.90113216642E+03  0.11544151182E+04  0.25500000920E-02 0.  1.
</event>
<event>
 5   0  0.5840834E-04  0.1507780E+04  0.7818609E-02  0.8879296E-01
        1   -1    0    0  501    0  0.00000000000E+00  0.00000000000E+00  0.97136987784E+03  0.97136987786E+03  0.50400001928E-02 0. -1.
       -1   -1    0    0    0  501  0.00000000000E+00  0.00000000000E+00 -0.58510148601E+03  0.58510148603E+03  0.50400001928E-02 0.  1.
    10030    2    1    2    0    0  0.00000000000E+00  0.00000000000E+00  0.38626839183E+03  0.15564713639E+04  0.15077797704E+04 0.  0.
        3    1    3    3  502    0  0.38294547497E+03  0.40771107894E+03  0.71490155465E+03  0.90772231642E+03  0.10100000352E+00 0. -1.
       -3    1    3    3    0  502 -0.38294547497E+03 -0.40771107894E+03 -0.32863316282E+03  0.64874904747E+03  0.10100000352E+00 0.  1.
</event>
<event>
 5   0  0.1126175E-03  0.1472889E+04  0.7818609E-02  0.8902684E-01
        2   -1    0    0  501    0  0.00000000000E+00  0.00000000000E+00  0.60345018444E+03  0.60345018445E+03  0.25500000920E-02 0. -1.
       -2   -1    0    0    0  501  0.00000000000E+00  0.00000000000E+00 -0.89874986557E+03  0.89874986558E+03  0.25500000920E-02 0.  1.
    10030    2    1    2    0    0  0.00000000000E+00  0.00000000000E+00 -0.29529968113E+03  0.15022000500E+04  0.14728893674E+04 0.  0.
        3    1    3    3  502    0 -0.20471315651E+03 -0.30553074011E+03  0.50308660443E+03  0.62317946962E+03  0.10100000352E+00 0. -1.
       -3    1    3    3    0  502  0.20471315651E+03  0.30553074011E+03 -0.79838628556E+03  0.87902058040E+03  0.10100000352E+00 0.  1.
</event>
<event>
 5   0  0.5924403E-04  0.1192318E+04  0.7818609E-02  0.9119607E-01
       -1   -1    0    0    0  501  0.00000000000E+00  0.00000000000E+00  0.54907937591E+03  0.54907937593E+03  0.50400001928E-02 0.  1.
        1   -1    0    0  501    0  0.00000000000E+00  0.00000000000E+00 -0.64727574471E+03  0.64727574473E+03  0.50400001928E-02 0. -1.
    10030    2    1    2    0    0  0.00000000000E+00  0.00000000000E+00 -0.98196368802E+02  0.11963551207E+04  0.11923183501E+04 0.  0.
        1    1    3    3  502    0 -0.59558264047E+03 -0.18592286999E+02 -0.67637948869E+02  0.59969929708E+03  0.50400001928E-02 0. -1.
       -1    1    3    3    0  502  0.59558264047E+03  0.18592286999E+02 -0.30558419934E+02  0.59665582358E+03  0.50400001928E-02 0.  1.
</event>
<event>
 5   0  0.1097156E-03  0.1459773E+04  0.7818609E-02  0.8911653E-01
       -2   -1    0    0    0  501  0.00000000000E+00  0.00000000000E+00  0.33158100626E+03  0.33158100627E+03  0.25500000920E-02 0. -1.
        2   -1    0    0  501    0  0.00000000000E+00  0.00000000000E+00 -0.16066491184E+04  0.16066491184E+04  0.25500000920E-02 0.  1.
    10030    2    1    2    0    0  0.00000000000E+00  0.00000000000E+00 -0.12750681121E+04  0.19382301247E+04  0.14597730391E+04 0.  0.
        2    1    3    3  502    0  0.18435790940E+02  0.69059333450E+03 -0.95026426008E+03  0.11748451796E+04  0.25500000920E-02 0. -1.
       -2    1    3    3    0  502 -0.18435790940E+02 -0.69059333450E+03 -0.32480385206E+03  0.76338494507E+03  0.25500000920E-02 0.  1.
</event>
<event>
 5   0  0.5914645E-04  0.1507721E+04  0.7818609E-02  0.8879334E-01
       -1   -1    0    0    0  501  0.00000000000E+00  0.00000000000E+00  0.83597159115E+03  0.83597159116E+03  0.50400001928E-02 0. -1.
        1   -1    0    0  501    0  0.00000000000E+00  0.00000000000E+00 -0.67981487946E+03  0.67981487948E+03  0.50400001928E-02 0.  1.
    10030    2    1    2    0    0  0.00000000000E+00  0.00000000000E+00  0.15615671169E+03  0.15157864706E+04  0.15077213622E+04 0.  0.
        2    1    3    3  502    0  0.50017152739E+03 -0.32989486435E+03  0.53802286757E+03  0.80527683710E+03  0.25500000920E-02 0. -1.
       -2    1    3    3    0  502 -0.50017152739E+03  0.32989486435E+03 -0.38186615588E+03  0.71050963354E+03  0.25500000920E-02 0.  1.
</event>
<event>
 5   0  0.1126175E-03  0.1499030E+04  0.7818609E-02  0.8885098E-01
        2   -1    0    0  501    0  0.00000000000E+00  0.00000000000E+00  0.23905420671E+04  0.23905420671E+04  0.25500000920E-02 0.  1.
       -2   -1    0    0    0  501  0.00000000000E+00  0.00000000000E+00 -0.23499811947E+03  0.23499811949E+03  0.25500000920E-02 0. -1.
    10030    2    1    2    0    0  0.00000000000E+00  0.00000000000E+00  0.21555439476E+04  0.26255401866E+04  0.14990302069E+04 0.  0.
        3    1    3    3  502    0 -0.39819763284E+03  0.62588380936E+03  0.89010069512E+03  0.11586937280E+04  0.10100000352E+00 0. -1.
       -3    1    3    3    0  502  0.39819763284E+03 -0.62588380936E+03  0.12654432525E+04  0.14668464586E+04  0.10100000352E+00 0.  1.
</event>
<event>
 5   0  0.1082667E-03  0.1473308E+04  0.7818609E-02  0.8902400E-01
       -2   -1    0    0    0  501  0.00000000000E+00  0.00000000000E+00  0.43882695393E+03  0.43882695394E+03  0.25500000920E-02 0.  1.
        2   -1    0    0  501    0  0.00000000000E+00  0.00000000000E+00 -0.12366121801E+04  0.12366121801E+04  0.25500000920E-02 0. -1.
    10030    2    1    2    0    0  0.00000000000E+00  0.00000000000E+00 -0.79778522618E+03  0.16754391340E+04  0.14733075120E+04 0.  0.
        5    1    3    3  502    0 -0.64621098053E+03  0.39695793505E+02  0.70233029039E+00  0.64744650021E+03  0.46999998093E+01 0.  1.
       -5    1    3    3    0  502  0.64621098053E+03 -0.39695793505E+02 -0.79848755647E+03  0.10279926338E+04  0.46999998093E+01 0. -1.
</event>
<event>
 5   0  0.5914645E-04  0.1582739E+04  0.7818609E-02  0.8831223E-01
        1   -1    0    0  501    0  0.00000000000E+00  0.00000000000E+00  0.12911561861E+04  0.12911561861E+04  0.50400001928E-02 0. -1.
       -1   -1    0    0    0  501  0.00000000000E+00  0.00000000000E+00 -0.48504261835E+03  0.48504261838E+03  0.50400001928E-02 0.  1.
    10030    2    1    2    0    0  0.00000000000E+00  0.00000000000E+00  0.80611356776E+03  0.17761988045E+04  0.15827391159E+04 0.  0.
        2    1    3    3  502    0 -0.76594984796E+02  0.69556934752E+03 -0.11686534649E+02  0.69987147677E+03  0.25500000920E-02 0.  1.
       -2    1    3    3    0  502  0.76594984796E+02 -0.69556934752E+03  0.81780010241E+03  0.10763273277E+04  0.25500000920E-02 0. -1.
</event>
<event>
 5   0  0.1126175E-03  0.1504133E+04  0.7818609E-02  0.8881709E-01
        2   -1    0    0  501    0  0.00000000000E+00  0.00000000000E+00  0.32936907374E+03  0.32936907375E+03  0.25500000920E-02 0.  1.
       -2   -1    0    0    0  501  0.00000000000E+00  0.00000000000E+00 -0.17172337965E+04  0.17172337965E+04  0.25500000920E-02 0. -1.
    10030    2    1    2    0    0  0.00000000000E+00  0.00000000000E+00 -0.13878647228E+04  0.20466028703E+04  0.15041325806E+04 0.  0.
        3    1    3    3  502    0  0.74961366853E+03  0.50285252866E+02 -0.74016326739E+03  0.10546520428E+04  0.10100000352E+00 0.  1.
       -3    1    3    3    0  502 -0.74961366853E+03 -0.50285252866E+02 -0.64770145538E+03  0.99195082751E+03  0.10100000352E+00 0. -1.
</event>
<event>
 5   0  0.1149716E-03  0.1512538E+04  0.7818609E-02  0.8876158E-01
       -2   -1    0    0    0  501  0.00000000000E+00  0.00000000000E+00  0.81988127346E+03  0.81988127346E+03  0.25500000920E-02 0. -1.
        2   -1    0    0  501    0  0.00000000000E+00  0.00000000000E+00 -0.69759184388E+03  0.69759184389E+03  0.25500000920E-02 0.  1.
    10030    2    1    2    0    0  0.00000000000E+00  0.00000000000E+00  0.12228942958E+03  0.15174731174E+04  0.15125375887E+04 0.  0.
        1    1    3    3  502    0 -0.36715379165E+03  0.61329637209E+02 -0.59931889026E+03  0.70551141973E+03  0.50400001928E-02 0.  1.
       -1    1    3    3    0  502  0.36715379165E+03 -0.61329637209E+02  0.72160831983E+03  0.81196169762E+03  0.50400001928E-02 0. -1.
</event>
<event>
 5   0  0.6146552E-04  0.1535525E+04  0.7818609E-02  0.8861167E-01
        1   -1    0    0  501    0  0.00000000000E+00  0.00000000000E+00  0.76315225004E+03  0.76315225006E+03  0.50400001928E-02 0.  1.
       -1   -1    0    0    0  501  0.00000000000E+00  0.00000000000E+00 -0.77240080822E+03  0.77240080823E+03  0.50400001928E-02 0. -1.
    10030    2    1    2    0    0  0.00000000000E+00  0.00000000000E+00 -0.92485581749E+01  0.15355530583E+04  0.15355252062E+04 0.  0.
        5    1    3    3  502    0  0.71807982298E+03 -0.88073951439E+02 -0.26161468254E+03  0.76932436931E+03  0.46999998093E+01 0. -1.
       -5    1    3    3    0  502 -0.71807982298E+03  0.88073951439E+02  0.25236612436E+03  0.76622868898E+03  0.46999998093E+01 0.  1.
</event>
<event>
 5   0  0.1126175E-03  0.1090806E+04  0.7818609E-02  0.9214200E-01
        2   -1    0    0  501    0  0.00000000000E+00  0.00000000000E+00  0.96675739055E+03  0.96675739056E+03  0.25500000920E-02 0.  1.
       -2   -1    0    0    0  501  0.00000000000E+00  0.00000000000E+00 -0.30769269319E+03  0.30769269320E+03  0.25500000920E-02 0. -1.
    10030    2    1    2    0    0  0.00000000000E+00  0.00000000000E+00  0.65906469736E+03  0.12744500838E+04  0.10908055467E+04 0.  0.
        3    1    3    3  502    0 -0.39733107062E+03 -0.25317372025E+03  0.65055475276E+03  0.80323745483E+03  0.10100000352E+00 0.  1.
       -3    1    3    3    0  502  0.39733107062E+03  0.25317372025E+03  0.85099445977E+01  0.47121262893E+03  0.10100000352E+00 0. -1.
</event>
<event>
 5   0  0.5606965E-04  0.1499128E+04  0.7818609E-02  0.8885033E-01
        1   -1    0    0  501    0  0.00000000000E+00  0.00000000000E+00  0.16403839233E+04  0.16403839233E+04  0.50400001928E-02 0. -1.
       -1   -1    0    0    0  501  0.00000000000E+00  0.00000000000E+00 -0.34250893299E+03  0.34250893302E+03  0.50400001928E-02 0.  1.
    10030    2    1    2    0    0  0.00000000000E+00  0.00000000000E+00  0.12978749903E+04  0.19828928563E+04  0.14991279429E+04 0.  0.
        4    1    3    3  502    0 -0.50570904772E+03  0.59033997802E+02 -0.78687888963E+02  0.51518933472E+03  0.12699999809E+01 0.  1.
       -4    1    3    3    0  502  0.50570904772E+03 -0.59033997802E+02  0.13765628792E+04  0.14677035216E+04  0.12699999809E+01 0. -1.
</event>
<event>
 5   0  0.5924403E-04  0.1496738E+04  0.7818609E-02  0.8886625E-01
        1   -1    0    0  501    0  0.00000000000E+00  0.00000000000E+00  0.59018473424E+03  0.59018473426E+03  0.50400001928E-02 0.  1.
       -1   -1    0    0    0  501  0.00000000000E+00  0.00000000000E+00 -0.94895071490E+03  0.94895071491E+03  0.50400001928E-02 0. -1.
    10030    2    1    2    0    0  0.00000000000E+00  0.00000000000E+00 -0.35876598066E+03  0.15391354492E+04  0.14967380873E+04 0.  0.
        1    1    3    3  502    0 -0.18580585180E+03 -0.71981939652E+03 -0.90968153542E+02  0.74895859909E+03  0.50400001928E-02 0.  1.
       -1    1    3    3    0  502  0.18580585180E+03  0.71981939652E+03 -0.26779782712E+03  0.79017685008E+03  0.50400001928E-02 0. -1.
</event>
<event>
 5   0  0.5840834E-04  0.1496566E+04  0.7818609E-02  0.8886740E-01
        1   -1    0    0  501    0  0.00000000000E+00  0.00000000000E+00  0.64132184222E+03  0.64132184224E+03  0.50400001928E-02 0.  1.
       -1   -1    0    0    0  501  0.00000000000E+00  0.00000000000E+00 -0.87308360220E+03  0.87308360221E+03  0.50400001928E-02 0. -1.
    10030    2    1    2    0    0  0.00000000000E+00  0.00000000000E+00 -0.23176175998E+03  0.15144054445E+04  0.14965661819E+04 0.  0.
        3    1    3    3  502    0 -0.36855104945E+03 -0.59570381778E+03  0.15038039987E+03  0.71645459691E+03  0.10100000352E+00 0.  1.
       -3    1    3    3    0  502  0.36855104945E+03  0.59570381778E+03 -0.38214215984E+03  0.79795084755E+03  0.10100000352E+00 0. -1.
</event>
<event>
 5   0  0.1147755E-03  0.1482801E+04  0.7818609E-02  0.8895971E-01
        2   -1    0    0  501    0  0.00000000000E+00  0.00000000000E+00  0.10559845911E+04  0.10559845911E+04  0.25500000920E-02 0. -1.
       -2   -1    0    0    0  501  0.00000000000E+00  0.00000000000E+00 -0.52053309910E+03  0.52053309911E+03  0.25500000920E-02 0.  1.
    10030    2    1    2    0    0  0.00000000000E+00  0.00000000000E+00  0.53545149197E+03  0.15765176902E+04  0.14828013108E+04 0.  0.
        4    1    3    3  502    0  0.20655849010E+03 -0.40660553928E+03 -0.35375106984E+03  0.57717926741E+03  0.12699999809E+01 0.  1.
       -4    1    3    3    0  502 -0.20655849010E+03  0.40660553928E+03  0.88920256181E+03  0.99933842278E+03  0.12699999809E+01 0. -1.
</event>
<event>
 5   0  0.1147755E-03  0.1472247E+04  0.7818609E-02  0.8903121E-01
        2   -1    0    0  501    0  0.00000000000E+00  0.00000000000E+00  0.26548968259E+04  0.26548968259E+04  0.25500000920E-02 0.  1.
       -2   -1    0    0    0  501  0.00000000000E+00  0.00000000000E+00 -0.20410501881E+03  0.20410501882E+03  0.25500000920E-02 0. -1.
    10030    2    1    2    0    0  0.00000000000E+00  0.00000000000E+00  0.24507918070E+04  0.28590018447E+04  0.14722469448E+04 0.  0.
        4    1    3    3  502    0  0.46309865213E+02 -0.68715264606E+02 -0.19501705987E+03  0.21189539341E+03  0.12699999809E+01 0. -1.
       -4    1    3    3    0  502 -0.46309865213E+02  0.68715264606E+02  0.26458088669E+04  0.26471064513E+04  0.12699999809E+01 0.  1.
</event>
<event>
 5   0  0.5914645E-04  0.1456729E+04  0.7818609E-02  0.8913749E-01
       -1   -1    0    0    0  501  0.00000000000E+00  0.00000000000E+00  0.29166445650E+03  0.29166445654E+03  0.50400001928E-02 0.  1.
        1   -1    0    0  501    0  0.00000000000E+00  0.00000000000E+00 -0.18189219554E+04  0.18189219554E+04  0.50400001928E-02 0. -1.
    10030    2    1    2    0    0  0.00000000000E+00  0.00000000000E+00 -0.15272574989E+04  0.21105864120E+04  0.14567290532E+04 0.  0.
        2    1    3    3  502    0 -0.21112439176E+03  0.53339817260E+03 -0.14138842312E+04  0.15258295247E+04  0.25500000920E-02 0. -1.
       -2    1    3    3    0  502  0.21112439176E+03 -0.53339817260E+03 -0.11337326773E+03  0.58475688724E+03  0.25500000920E-02 0.  1.
</event>
<event>
 5   0  0.6146552E-04  0.1431725E+04  0.7818609E-02  0.8931169E-01
       -1   -1    0    0    0  501  0.00000000000E+00  0.00000000000E+00  0.68365347760E+03  0.68365347762E+03  0.50400001928E-02 0. -1.
        1   -1    0    0  501    0  0.00000000000E+00  0.00000000000E+00 -0.74958916212E+03  0.74958916214E+03  0.50400001928E-02 0.  1.
    10030    2    1    2    0    0  0.00000000000E+00  0.00000000000E+00 -0.65935684525E+02  0.14332426398E+04  0.14317251656E+04 0.  0.
        5    1    3    3  502    0  0.32567210225E+03 -0.63325438345E+03  0.40347170383E+02  0.71324849562E+03  0.46999998093E+01 0. -1.
       -5    1    3    3    0  502 -0.32567210225E+03  0.63325438345E+03 -0.10628285491E+03  0.71999414414E+03  0.46999998093E+01 0.  1.
</event>
<event>
 5   0  0.6146552E-04  0.1497361E+04  0.7818609E-02  0.8886210E-01
       -1   -1    0    0    0  501  0.00000000000E+00  0.00000000000E+00  0.66876014547E+03  0.66876014549E+03  0.50400001928E-02 0.  1.
        1   -1    0    0  501    0  0.00000000000E+00  0.00000000000E+00 -0.83815198454E+03  0.83815198455E+03  0.50400001928E-02 0. -1.
    10030    2    1    2    0    0  0.00000000000E+00  0.00000000000E+00 -0.16939183906E+03  0.15069121300E+04  0.14973612031E+04 0.  0.
        5    1    3    3  502    0 -0.58256918186E+03  0.53204532278E+02  0.38549180744E+03  0.70060231052E+03  0.46999998093E+01 0.  1.
       -5    1    3    3    0  502  0.58256918186E+03 -0.53204532278E+02 -0.55488364650E+03  0.80630981952E+03  0.46999998093E+01 0. -1.
</event>
<event>
 5   0  0.1097156E-03  0.1463211E+04  0.7818609E-02  0.8909293E-01
       -2   -1    0    0    0  501  0.00000000000E+00  0.00000000000E+00  0.49972296499E+03  0.49972296500E+03  0.25500000920E-02 0.  1.
        2   -1    0    0  501    0  0.00000000000E+00  0.00000000000E+00 -0.10710860063E+04  0.10710860063E+04  0.25500000920E-02 0. -1.
    10030    2    1    2    0    0  0.00000000000E+00  0.00000000000E+00 -0.57136304130E+03  0.15708089713E+04  0.14632105451E+04 0.  0.
        2    1    3    3  502    0  0.33227425129E+03 -0.64775851498E+03 -0.36345919666E+03  0.81369518828E+03  0.25500000920E-02 0.  1.
       -2    1    3    3    0  502 -0.33227425129E+03  0.64775851498E+03 -0.20790384465E+03  0.75711378301E+03  0.25500000920E-02 0. -1.
</event>
<event>
 5   0  0.1082667E-03  0.1481071E+04  0.7818609E-02  0.8897139E-01
       -2   -1    0    0    0  501  0.00000000000E+00  0.00000000000E+00  0.65215123331E+03  0.65215123332E+03  0.25500000920E-02 0. -1.
        2   -1    0    0  501    0  0.00000000000E+00  0.00000000000E+00 -0.84089794420E+03  0.84089794420E+03  0.25500000920E-02 0.  1.
    10030    2    1    2    0    0  0.00000000000E+00  0.00000000000E+00 -0.18874671089E+03  0.14930491775E+04  0.14810707362E+04 0.  0.
        5    1    3    3  502    0 -0.52424104271E+03 -0.50473588230E+03 -0.23253492582E+03  0.76399055195E+03  0.46999998093E+01 0. -1.
       -5    1    3    3    0  502  0.52424104271E+03  0.50473588230E+03  0.43788214927E+02  0.72905862557E+03  0.46999998093E+01 0.  1.
</event>
<event>
 5   0  0.1149716E-03  0.1589925E+04  0.7818609E-02  0.8826761E-01
        2   -1    0    0  501    0  0.00000000000E+00  0.00000000000E+00  0.15186071607E+04  0.15186071607E+04  0.25500000920E-02 0. -1.
       -2   -1    0    0    0  501  0.00000000000E+00  0.00000000000E+00 -0.41614810779E+03  0.41614810780E+03  0.25500000920E-02 0.  1.
    10030    2    1    2    0    0  0.00000000000E+00  0.00000000000E+00  0.11024590529E+04  0.19347552685E+04  0.15899251510E+04 0.  0.
        1    1    3    3  502    0  0.26558512771E+03  0.51990902364E+02  0.14608268651E+04  0.14856828881E+04  0.50400001928E-02 0. -1.
       -1    1    3    3    0  502 -0.26558512771E+03 -0.51990902364E+02 -0.35836781223E+03  0.44907238042E+03  0.50400001928E-02 0.  1.
</event>
<event>
 5   0  0.1097156E-03  0.1474696E+04  0.7818609E-02  0.8901456E-01
       -2   -1    0    0    0  501  0.00000000000E+00  0.00000000000E+00  0.45441698166E+03  0.45441698167E+03  0.25500000920E-02 0. -1.
        2   -1    0    0  501    0  0.00000000000E+00  0.00000000000E+00 -0.11964394521E+04  0.11964394521E+04  0.25500000920E-02 0.  1.
    10030    2    1    2    0    0  0.00000000000E+00  0.00000000000E+00 -0.74202247046E+03  0.16508564338E+04  0.14746964496E+04 0.  0.
        2    1    3    3  502    0 -0.53614368556E+02 -0.73393287796E+03 -0.31909899122E+03  0.80209484232E+03  0.25500000920E-02 0.  1.
       -2    1    3    3    0  502  0.53614368556E+02  0.73393287796E+03 -0.42292347924E+03  0.84876159148E+03  0.25500000920E-02 0. -1.
</event>
<event>
 5   0  0.1126175E-03  0.1519594E+04  0.7818609E-02  0.8871527E-01
        2   -1    0    0  501    0  0.00000000000E+00  0.00000000000E+00  0.20283734753E+04  0.20283734753E+04  0.25500000920E-02 0. -1.
       -2   -1    0    0    0  501  0.00000000000E+00  0.00000000000E+00 -0.28460818812E+03  0.28460818813E+03  0.25500000920E-02 0.  1.
    10030    2    1    2    0    0  0.00000000000E+00  0.00000000000E+00  0.17437652872E+04  0.23129816634E+04  0.15195942875E+04 0.  0.
        3    1    3    3  502    0  0.46387356402E+03  0.63874911051E+02  0.17826470874E+04  0.18431194579E+04  0.10100000352E+00 0. -1.
       -3    1    3    3    0  502 -0.46387356402E+03 -0.63874911051E+02 -0.38881800174E+02  0.46986220559E+03  0.10100000352E+00 0.  1.
</event>
<event>
 5   0  0.5840834E-04  0.1531089E+04  0.7818609E-02  0.8864039E-01
       -1   -1    0    0    0  501  0.00000000000E+00  0.00000000000E+00  0.58246674934E+03  0.58246674937E+03  0.50400001928E-02 0. -1.
        1   -1    0    0  501    0  0.00000000000E+00  0.00000000000E+00 -0.10061657205E+04  0.10061657205E+04  0.50400001928E-02 0.  1.
    10030    2    1    2    0    0  0.00000000000E+00  0.00000000000E+00 -0.42369897113E+03  0.15886324699E+04  0.15310886017E+04 0.  0.
        3    1    3    3  502    0 -0.39035423997E+02  0.65352494052E+03  0.19984959689E+03  0.68451331892E+03  0.10100000352E+00 0. -1.
       -3    1    3    3    0  502  0.39035423997E+02 -0.65352494052E+03 -0.62354856802E+03  0.90411915093E+03  0.10100000352E+00 0.  1.
</event>
<event>
 5   0  0.1082667E-03  0.1516131E+04  0.7818609E-02  0.8873796E-01
       -2   -1    0    0    0  501  0.00000000000E+00  0.00000000000E+00  0.31432134751E+03  0.31432134752E+03  0.25500000920E-02 0. -1.
        2   -1    0    0  501    0  0.00000000000E+00  0.00000000000E+00 -0.18282668514E+04  0.18282668514E+04  0.25500000920E-02 0.  1.
    10030    2    1    2    0    0  0.00000000000E+00  0.00000000000E+00 -0.15139455039E+04  0.21425881989E+04  0.15161309974E+04 0.  0.
        5    1    3    3  502    0  0.66882734318E+03 -0.12581863542E+03 -0.12288207850E+04  0.14047003082E+04  0.46999998093E+01 0.  1.
       -5    1    3    3    0  502 -0.66882734318E+03  0.12581863542E+03 -0.28512471883E+03  0.73788789074E+03  0.46999998093E+01 0. -1.
</event>
<event>
 5   0  0.6146552E-04  0.1136998E+04  0.7818609E-02  0.9169863E-01
        1   -1    0    0  501    0  0.00000000000E+00  0.00000000000E+00  0.90372547370E+03  0.90372547372E+03  0.50400001928E-02 0. -1.
       -1   -1    0    0    0  501  0.00000000000E+00  0.00000000000E+00 -0.35762087707E+03  0.35762087711E+03  0.50400001928E-02 0.  1.
    10030    2    1    2    0    0  0.00000000000E+00  0.00000000000E+00  0.54610459663E+03  0.12613463508E+04  0.11369979711E+04 0.  0.
        5    1    3    3  502    0  0.29960230831E+03 -0.33963323916E+03 -0.10811886132E+03  0.46564370334E+03  0.46999998093E+01 0.  1.
       -5    1    3    3    0  502 -0.29960230831E+03  0.33963323916E+03  0.65422345795E+03  0.79570264749E+03  0.46999998093E+01 0. -1.
</event>
<event>
 5   0  0.5840834E-04  0.1480997E+04  0.7818609E-02  0.8897189E-01
        1   -1    0    0  501    0  0.00000000000E+00  0.00000000000E+00  0.41406970203E+03  0.41406970206E+03  0.50400001928E-02 0.  1.
       -1   -1    0    0    0  501  0.00000000000E+00  0.00000000000E+00 -0.13242649021E+04  0.13242649021E+04  0.50400001928E-02 0. -1.
    10030    2    1    2    0    0  0.00000000000E+00  0.00000000000E+00 -0.91019520010E+03  0.17383346042E+04  0.14809969257E+04 0.  0.
        3    1    3    3  502    0 -0.43082143923E+03 -0.30793301691E+03  0.15243858129E+03  0.55106023870E+03  0.10100000352E+00 0.  1.
       -3    1    3    3    0  502  0.43082143923E+03  0.30793301691E+03 -0.10626337814E+04  0.11872743655E+04  0.10100000352E+00 0. -1.
</event>
<event>
 5   0  0.1126175E-03  0.1483549E+04  0.7818609E-02  0.8895467E-01
       -2   -1    0    0    0  501  0.00000000000E+00  0.00000000000E+00  0.35048544893E+03  0.35048544894E+03  0.25500000920E-02 0.  1.
        2   -1    0    0  501    0  0.00000000000E+00  0.00000000000E+00 -0.15699071091E+04  0.15699071091E+04  0.25500000920E-02 0. -1.
    10030    2    1    2    0    0  0.00000000000E+00  0.00000000000E+00 -0.12194216602E+04  0.19203925580E+04  0.14835492549E+04 0.  0.
        3    1    3    3  502    0 -0.19430022224E+03  0.35929623970E+03  0.19179114491E+03  0.45125405005E+03  0.10100000352E+00 0.  1.
       -3    1    3    3    0  502  0.19430022224E+03 -0.35929623970E+03 -0.14112128051E+04  0.14691385080E+04  0.10100000352E+00 0. -1.
</event>
<event>
 5   0  0.5924403E-04  0.1732412E+04  0.7818609E-02  0.8743091E-01
       -1   -1    0    0    0  501  0.00000000000E+00  0.00000000000E+00  0.64810386480E+03  0.64810386482E+03  0.50400001928E-02 0. -1.
        1   -1    0    0  501    0  0.00000000000E+00  0.00000000000E+00 -0.11577046215E+04  0.11577046215E+04  0.50400001928E-02 0.  1.
    10030    2    1    2    0    0  0.00000000000E+00  0.00000000000E+00 -0.50960075670E+03  0.18058084863E+04  0.17324120059E+04 0.  0.
        1    1    3    3  502    0 -0.10514674792E+03 -0.22243460075E+03  0.61091624406E+03  0.65859824438E+03  0.50400001928E-02 0. -1.
       -1    1    3    3    0  502  0.10514674792E+03  0.22243460075E+03 -0.11205170008E+04  0.11472102420E+04  0.50400001928E-02 0.  1.
</event>
<event>
 5   0  0.5840834E-04  0.1505841E+04  0.7818609E-02  0.8880578E-01
        1   -1    0    0  501    0  0.00000000000E+00  0.00000000000E+00  0.77606664823E+03  0.77606664825E+03  0.50400001928E-02 0. -1.
       -1   -1    0    0    0  501  0.00000000000E+00  0.00000000000E+00 -0.73046443906E+03  0.73046443908E+03  0.50400001928E-02 0.  1.
    10030    2    1    2    0    0  0.00000000000E+00  0.00000000000E+00  0.45602209177E+02  0.15065310873E+04  0.15058407471E+04 0.  0.
        3    1    3    3  502    0  0.62462251664E+03 -0.26854295838E+03 -0.30079805590E+03  0.74347030165E+03  0.10100000352E+00 0.  1.
       -3    1    3    3    0  502 -0.62462251664E+03  0.26854295838E+03  0.34640026508E+03  0.76306078568E+03  0.10100000352E+00 0. -1.
</event>
<event>
 5   0  0.5606965E-04  0.1494677E+04  0.7818609E-02  0.8888000E-01
       -1   -1    0    0    0  501  0.00000000000E+00  0.00000000000E+00  0.78168119997E+03  0.78168119998E+03  0.50400001928E-02 0.  1.
        1   -1    0    0  501    0  0.00000000000E+00  0.00000000000E+00 -0.71450471592E+03  0.71450471594E+03  0.50400001928E-02 0. -1.
    10030    2    1    2    0    0  0.00000000000E+00  0.00000000000E+00  0.67176484044E+02  0.14961859159E+04  0.14946770939E+04 0.  0.
        4    1    3    3  502    0 -0.20229237782E+03 -0.61050584255E+03  0.41459524722E+03  0.76519959607E+03  0.12699999809E+01 0.  1.
       -4    1    3    3    0  502  0.20229237782E+03  0.61050584255E+03 -0.34741876317E+03  0.73098631985E+03  0.12699999809E+01 0. -1.
</event>
<event>
 5   0  0.6146552E-04  0.1549769E+04  0.7818609E-02  0.8852015E-01
       -1   -1    0    0    0  501  0.00000000000E+00  0.00000000000E+00  0.44916670083E+03  0.44916670086E+03  0.50400001928E-02 0. -1.
        1   -1    0    0  501    0  0.00000000000E+00  0.00000000000E+00 -0.13368000310E+04  0.13368000310E+04  0.50400001928E-02 0.  1.
    10030    2    1    2    0    0  0.00000000000E+00  0.00000000000E+00 -0.88763333019E+03  0.17859667319E+04  0.15497690920E+04 0.  0.
        5    1    3    3  502    0  0.31824464010E+03 -0.68032953106E+03 -0.22426535195E+03  0.78386539653E+03  0.46999998093E+01 0. -1.
       -5    1    3    3    0  502 -0.31824464010E+03  0.68032953106E+03 -0.66336797824E+03  0.10021013354E+04  0.46999998093E+01 0.  1.
</event>
<event>
 5   0  0.1147755E-03  0.1478922E+04  0.7818609E-02  0.8898591E-01
        2   -1    0    0  501    0  0.00000000000E+00  0.00000000000E+00  0.27927563301E+04  0.27927563301E+04  0.25500000920E-02 0.  1.
       -2   -1    0    0    0  501  0.00000000000E+00  0.00000000000E+00 -0.19579327393E+03  0.19579327395E+03  0.25500000920E-02 0. -1.
    10030    2    1    2    0    0  0.00000000000E+00  0.00000000000E+00  0.25969630561E+04  0.29885496040E+04  0.14789224526E+04 0.  0.
        4    1    3    3  502    0  0.47671977359E+03 -0.23717718913E+03  0.26159940396E+03  0.59325426474E+03  0.12699999809E+01 0. -1.
       -4    1    3    3    0  502 -0.47671977359E+03  0.23717718913E+03  0.23353636522E+04  0.23952953393E+04  0.12699999809E+01 0.  1.
</event>
<event>
 5   0  0.1126175E-03  0.1501284E+04  0.7818609E-02  0.8883599E-01
       -2   -1    0    0    0  501  0.00000000000E+00  0.00000000000E+00  0.55100073727E+03  0.55100073728E+03  0.25500000920E-02 0. -1.
        2   -1    0    0  501    0  0.00000000000E+00  0.00000000000E+00 -0.10226189000E+04  0.10226189000E+04  0.25500000920E-02 0.  1.
    10030    2    1    2    0    0  0.00000000000E+00  0.00000000000E+00 -0.47161816273E+03  0.15736196373E+04  0.15012844739E+04 0.  0.
        3    1    3    3  502    0 -0.24487382158E+03 -0.15162486750E+02  0.50778783999E+03  0.56395176225E+03  0.10100000352E+00 0. -1.
       -3    1    3    3    0  502  0.24487382158E+03  0.15162486750E+02 -0.97940600272E+03  0.10096678750E+04  0.10100000352E+00 0.  1.
</event>
<event>
 5   0  0.5606965E-04  0.1495266E+04  0.7818609E-02  0.8887607E-01
        1   -1    0    0  501    0  0.00000000000E+00  0.00000000000E+00  0.72906278102E+03  0.72906278104E+03  0.50400001928E-02 0.  1.
       -1   -1    0    0    0  501  0.00000000000E+00  0.00000000000E+00 -0.76667605839E+03  0.76667605841E+03  0.50400001928E-02 0. -1.
    10030    2    1    2    0    0  0.00000000000E+00  0.00000000000E+00 -0.37613277372E+02  0.14957388394E+04  0.14952658350E+04 0.  0.
        4    1    3    3  502    0  0.19343078365E+03  0.47964293652E+03  0.52125353554E+03  0.73428855079E+03  0.12699999809E+01 0.  1.
       -4    1    3    3    0  502 -0.19343078365E+03 -0.47964293652E+03 -0.55886681291E+03  0.76145028865E+03  0.12699999809E+01 0. -1.
</event>
<event>
 5   0  0.1097156E-03  0.1521718E+04  0.7818609E-02  0.8870137E-01
        2   -1    0    0  501    0  0.00000000000E+00  0.00000000000E+00  0.21266178902E+04  0.21266178902E+04  0.25500000920E-02 0.  1.
       -2   -1    0    0    0  501  0.00000000000E+00  0.00000000000E+00 -0.27221945734E+03  0.27221945735E+03  0.25500000920E-02 0. -1.
    10030    2    1    2    0    0  0.00000000000E+00  0.00000000000E+00  0.18543984328E+04  0.23988373475E+04  0.15217184602E+04 0.  0.
        2    1    3    3  502    0  0.13811108241E+02  0.59732379971E+03  0.18458200989E+03  0.62534549394E+03  0.25500000920E-02 0. -1.
       -2    1    3    3    0  502 -0.13811108241E+02 -0.59732379971E+03  0.16698164229E+04  0.17734918536E+04  0.25500000920E-02 0.  1.
</event>
<event>
 5   0  0.6146552E-04  0.1536763E+04  0.7818609E-02  0.8860367E-01
       -1   -1    0    0    0  501  0.00000000000E+00  0.00000000000E+00  0.40471474782E+03  0.40471474786E+03  0.50400001928E-02 0. -1.
        1   -1    0    0  501    0  0.00000000000E+00  0.00000000000E+00 -0.14588308776E+04  0.14588308776E+04  0.50400001928E-02 0.  1.
    10030    2    1    2    0    0  0.00000000000E+00  0.00000000000E+00 -0.10541161297E+04  0.18635456254E+04  0.15367633139E+04 0.  0.
        5    1    3    3  502    0  0.73924134369E+02  0.35926247217E+03 -0.13457978994E+04  0.13948936796E+04  0.46999998093E+01 0.  1.
       -5    1    3    3    0  502 -0.73924134369E+02 -0.35926247217E+03  0.29168176963E+03  0.46865194578E+03  0.46999998093E+01 0. -1.
</event>
<event>
 5   0  0.1097156E-03  0.1480358E+04  0.7818609E-02  0.8897620E-01
        2   -1    0    0  501    0  0.00000000000E+00  0.00000000000E+00  0.14358887825E+04  0.14358887825E+04  0.25500000920E-02 0.  1.
       -2   -1    0    0    0  501  0.00000000000E+00  0.00000000000E+00 -0.38155128205E+03  0.38155128206E+03  0.25500000920E-02 0. -1.
    10030    2    1    2    0    0  0.00000000000E+00  0.00000000000E+00  0.10543375005E+04  0.18174400646E+04  0.14803583429E+04 0.  0.
        2    1    3    3  502    0 -0.22215982806E+02 -0.30771789342E+03 -0.29884931422E+03  0.42952853740E+03  0.25500000920E-02 0. -1.
       -2    1    3    3    0  502  0.22215982806E+02  0.30771789342E+03  0.13531868147E+04  0.13879115272E+04  0.25500000920E-02 0.  1.
</event>
<event>
 5   0  0.5606965E-04  0.1485123E+04  0.7818609E-02  0.8894407E-01
       -1   -1    0    0    0  501  0.00000000000E+00  0.00000000000E+00  0.35178961765E+03  0.35178961768E+03  0.50400001928E-02 0. -1.
        1   -1    0    0  501    0  0.00000000000E+00  0.00000000000E+00 -0.15674073000E+04  0.15674073001E+04  0.50400001928E-02 0.  1.
    10030    2    1    2    0    0  0.00000000000E+00  0.00000000000E+00 -0.12156176824E+04  0.19191969177E+04  0.14851230452E+04 0.  0.
        4    1    3    3  502    0  0.44931544035E+03 -0.21379039375E+02 -0.13712995682E+04  0.14431928308E+04  0.12699999809E+01 0.  1.
       -4    1    3    3    0  502 -0.44931544035E+03  0.21379039375E+02  0.15568188583E+03  0.47600408690E+03  0.12699999809E+01 0. -1.
</event>
<event>
 5   0  0.5606965E-04  0.1466053E+04  0.7818609E-02  0.8907347E-01
       -1   -1    0    0    0  501  0.00000000000E+00  0.00000000000E+00  0.50617393409E+03  0.50617393411E+03  0.50400001928E-02 0.  1.
        1   -1    0    0  501    0  0.00000000000E+00  0.00000000000E+00 -0.10615475185E+04  0.10615475185E+04  0.50400001928E-02 0. -1.
    10030    2    1    2    0    0  0.00000000000E+00  0.00000000000E+00 -0.55537358437E+03  0.15677214526E+04  0.14660527735E+04 0.  0.
        4    1    3    3  502    0 -0.34426382778E+02  0.63037407602E+03 -0.67603804072E+03  0.92497875486E+03  0.12699999809E+01 0. -1.
       -4    1    3    3    0  502  0.34426382778E+02 -0.63037407602E+03  0.12066445635E+03  0.64274269772E+03  0.12699999809E+01 0.  1.
</event>
<event>
 5   0  0.5606965E-04  0.1752974E+04  0.7818609E-02  0.8731715E-01
        1   -1    0    0  501    0  0.00000000000E+00  0.00000000000E+00  0.72429412007E+03  0.72429412009E+03  0.50400001928E-02 0.  1.
       -1   -1    0    0    0  501  0.00000000000E+00  0.00000000000E+00 -0.10606596132E+04  0.10606596132E+04  0.50400001928E-02 0. -1.
    10030    2    1    2    0    0  0.00000000000E+00  0.00000000000E+00 -0.33636549311E+03  0.17849537333E+04  0.17529740685E+04 0.  0.
        4    1    3    3  502    0 -0.21550075983E+03 -0.15382188029E+03 -0.10189650108E+04  0.10528024765E+04  0.12699999809E+01 0. -1.
       -4    1    3    3    0  502  0.21550075983E+03  0.15382188029E+03  0.68259951771E+03  0.73215125679E+03  0.12699999809E+01 0.  1.
</event>
<event>
 5   0  0.1097156E-03  0.1456666E+04  0.7818609E-02  0.8913792E-01
        2   -1    0    0  501    0  0.00000000000E+00  0.00000000000E+00  0.25429744339E+04  0.25429744339E+04  0.25500000920E-02 0.  1.
       -2   -1    0    0    0  501  0.00000000000E+00  0.00000000000E+00 -0.20860187604E+03  0.20860187605E+03  0.25500000920E-02 0. -1.
    10030    2    1    2    0    0  0.00000000000E+00  0.00000000000E+00  0.23343725578E+04  0.27515763099E+04  0.14566663827E+04 0.  0.
        2    1    3    3  502    0  0.42286935257E+03 -0.26925240793E+03  0.21652156111E+04  0.22224927427E+04  0.25500000920E-02 0.  1.
       -2    1    3    3    0  502 -0.42286935257E+03  0.26925240793E+03  0.16915694671E+03  0.52908356726E+03  0.25500000920E-02 0. -1.
</event>
<event>
 5   0  0.4070625E-04  0.1507076E+04  0.7818609E-02  0.8879761E-01
       -3   -1    0    0    0  501  0.00000000000E+00  0.00000000000E+00  0.48140959253E+03  0.48140960312E+03  0.10100000352E+00 0.  1.
        3   -1    0    0  501    0  0.00000000000E+00  0.00000000000E+00 -0.11794937831E+04  0.11794937874E+04  0.10100000352E+00 0. -1.
    10030    2    1    2    0    0  0.00000000000E+00  0.00000000000E+00 -0.69808419054E+03  0.16609033905E+04  0.15070761545E+04 0.  0.
        1    1    3    3  502    0 -0.82443589076E+02  0.74181787419E+03 -0.23488908212E+03  0.78247273740E+03  0.50400001928E-02 0. -1.
       -1    1    3    3    0  502  0.82443589076E+02 -0.74181787419E+03 -0.46319510843E+03  0.87843065312E+03  0.50400001928E-02 0.  1.
</event>
<event>
 5   0  0.1082667E-03  0.1077534E+04  0.7818609E-02  0.9227369E-01
        2   -1    0    0  501    0  0.00000000000E+00  0.00000000000E+00  0.10225739575E+04  0.10225739575E+04  0.25500000920E-02 0. -1.
       -2   -1    0    0    0  501  0.00000000000E+00  0.00000000000E+00 -0.28386211251E+03  0.28386211252E+03  0.25500000920E-02 0.  1.
    10030    2    1    2    0    0  0.00000000000E+00  0.00000000000E+00  0.73871184497E+03  0.13064360700E+04  0.10775342292E+04 0.  0.
        5    1    3    3  502    0 -0.35541195121E+03  0.34079407580E+03  0.10430822086E+03  0.50334933406E+03  0.46999998093E+01 0. -1.
       -5    1    3    3    0  502  0.35541195121E+03 -0.34079407580E+03  0.63440362411E+03  0.80308673594E+03  0.46999998093E+01 0.  1.
</event>
<event>
 5   0  0.1082667E-03  0.1502258E+04  0.7818609E-02  0.8882953E-01
       -2   -1    0    0    0  501  0.00000000000E+00  0.00000000000E+00  0.35358224672E+03  0.35358224673E+03  0.25500000920E-02 0. -1.
        2   -1    0    0  501    0  0.00000000000E+00  0.00000000000E+00 -0.15956531195E+04  0.15956531195E+04  0.25500000920E-02 0.  1.
    10030    2    1    2    0    0  0.00000000000E+00  0.00000000000E+00 -0.12420708728E+04  0.19492353663E+04  0.15022577875E+04 0.  0.
        5    1    3    3  502    0  0.69163869244E+03  0.11543009923E+02 -0.24124205716E+03  0.73260981573E+03  0.46999998093E+01 0. -1.
       -5    1    3    3    0  502 -0.69163869244E+03 -0.11543009923E+02 -0.10008288157E+04  0.12166255505E+04  0.46999998093E+01 0.  1.
</event>
<event>
 5   0  0.1147755E-03  0.1541371E+04  0.7818609E-02  0.8857398E-01
       -2   -1    0    0    0  501  0.00000000000E+00  0.00000000000E+00  0.32177059070E+03  0.32177059071E+03  0.25500000920E-02 0.  1.
        2   -1    0    0  501    0  0.00000000000E+00  0.00000000000E+00 -0.18459003517E+04  0.18459003517E+04  0.25500000920E-02 0. -1.
    10030    2    1    2    0    0  0.00000000000E+00  0.00000000000E+00 -0.15241297610E+04  0.21676709424E+04  0.15413713979E+04 0.  0.
        4    1    3    3  502    0 -0.49408556209E+03 -0.19801725709E+03 -0.15458611361E+04  0.16349371981E+04  0.12699999809E+01 0. -1.
       -4    1    3    3    0  502  0.49408556209E+03  0.19801725709E+03  0.21731375080E+02  0.53273374432E+03  0.12699999809E+01 0.  1.
</event>
<event>
 5   0  0.5606965E-04  0.1434803E+04  0.7818609E-02  0.8929005E-01
       -1   -1    0    0    0  501  0.00000000000E+00  0.00000000000E+00  0.49152775114E+03  0.49152775117E+03  0.50400001928E-02 0.  1.
        1   -1    0    0  501    0  0.00000000000E+00  0.00000000000E+00 -0.10470719007E+04  0.10470719007E+04  0.50400001928E-02 0. -1.
    10030    2    1    2    0    0  0.00000000000E+00  0.00000000000E+00 -0.55554414955E+03  0.15385996519E+04  0.14348029783E+04 0.  0.
        4    1    3    3  502    0 -0.49452400950E+02 -0.54813100174E+03  0.21570357907E+03  0.59111993872E+03  0.12699999809E+01 0.  1.
       -4    1    3    3    0  502  0.49452400950E+02  0.54813100174E+03 -0.77124772862E+03  0.94747971315E+03  0.12699999809E+01 0. -1.
</event>
<event>
 5   0  0.5914645E-04  0.1495873E+04  0.7818609E-02  0.8887202E-01
        1   -1    0    0  501    0  0.00000000000E+00  0.00000000000E+00  0.43090535726E+03  0.43090535729E+03  0.50400001928E-02 0. -1.
       -1   -1    0    0    0  501  0.00000000000E+00  0.00000000000E+00 -0.12982175526E+04  0.12982175526E+04  0.50400001928E-02 0.  1.
    10030    2    1    2    0    0  0.00000000000E+00  0.00000000000E+00 -0.86731219538E+03  0.17291229099E+04  0.14958728534E+04 0.  0.
        2    1    3    3  502    0  0.15586432454E+02 -0.73770141913E+03 -0.29226098668E+03  0.79363896389E+03  0.25500000920E-02 0. -1.
       -2    1    3    3    0  502 -0.15586432454E+02  0.73770141913E+03 -0.57505120870E+03  0.93548394604E+03  0.25500000920E-02 0.  1.
</event>
<event>
 5   0  0.1097156E-03  0.1534580E+04  0.7818609E-02  0.8861778E-01
       -2   -1    0    0    0  501  0.00000000000E+00  0.00000000000E+00  0.48573554476E+03  0.48573554477E+03  0.25500000920E-02 0.  1.
        2   -1    0    0  501    0  0.00000000000E+00  0.00000000000E+00 -0.12120458085E+04  0.12120458085E+04  0.25500000920E-02 0. -1.
    10030    2    1    2    0    0  0.00000000000E+00  0.00000000000E+00 -0.72631026370E+03  0.16977813532E+04  0.15345797223E+04 0.  0.
        2    1    3    3  502    0  0.14657188200E+03  0.19919484306E+02  0.46981181749E+03  0.49254770967E+03  0.25500000920E-02 0.  1.
       -2    1    3    3    0  502 -0.14657188200E+03 -0.19919484306E+02 -0.11961220812E+04  0.12052336436E+04  0.25500000920E-02 0. -1.
</event>
<event>
 5   0  0.5914645E-04  0.1480028E+04  0.7818609E-02  0.8897844E-01
       -1   -1    0    0    0  501  0.00000000000E+00  0.00000000000E+00  0.62666498703E+03  0.62666498705E+03  0.50400001928E-02 0.  1.
        1   -1    0    0  501    0  0.00000000000E+00  0.00000000000E+00 -0.87386492809E+03  0.87386492810E+03  0.50400001928E-02 0. -1.
    10030    2    1    2    0    0  0.00000000000E+00  0.00000000000E+00 -0.24719994106E+03  0.15005299151E+04  0.14800277752E+04 0.  0.
        2    1    3    3  502    0 -0.53694827531E+03 -0.17182262275E+03  0.36239835153E+03  0.67020073802E+03  0.25500000920E-02 0.  1.
       -2    1    3    3    0  502  0.53694827531E+03  0.17182262275E+03 -0.60959829259E+03  0.83032917712E+03  0.25500000920E-02 0. -1.
</event>
<event>
 5   0  0.1126175E-03  0.1501427E+04  0.7818609E-02  0.8883505E-01
       -2   -1    0    0    0  501  0.00000000000E+00  0.00000000000E+00  0.40802706847E+03  0.40802706847E+03  0.25500000920E-02 0.  1.
        2   -1    0    0  501    0  0.00000000000E+00  0.00000000000E+00 -0.13812086255E+04  0.13812086255E+04  0.25500000920E-02 0. -1.
    10030    2    1    2    0    0  0.00000000000E+00  0.00000000000E+00 -0.97318155706E+03  0.17892356940E+04  0.15014266634E+04 0.  0.
        3    1    3    3  502    0 -0.73037136106E+03 -0.15681125434E+03 -0.39790465864E+03  0.84638066029E+03  0.10100000352E+00 0. -1.
       -3    1    3    3    0  502  0.73037136106E+03  0.15681125434E+03 -0.57527689842E+03  0.94285503371E+03  0.10100000352E+00 0.  1.
</event>
<event>
 5   0  0.1082667E-03  0.1510530E+04  0.7818609E-02  0.8877481E-01
        2   -1    0    0  501    0  0.00000000000E+00  0.00000000000E+00  0.12039992568E+04  0.12039992568E+04  0.25500000920E-02 0. -1.
       -2   -1    0    0    0  501  0.00000000000E+00  0.00000000000E+00 -0.47377552838E+03  0.47377552839E+03  0.25500000920E-02 0.  1.
    10030    2    1    2    0    0  0.00000000000E+00  0.00000000000E+00  0.73022372839E+03  0.16777747852E+04  0.15105302169E+04 0.  0.
        5    1    3    3  502    0 -0.45714885576E+02 -0.59600207782E+03 -0.14762063001E+03  0.61572905400E+03  0.46999998093E+01 0.  1.
       -5    1    3    3    0  502  0.45714885576E+02  0.59600207782E+03  0.87784435840E+03  0.10620457312E+04  0.46999998093E+01 0. -1.
</event>
<event>
 5   0  0.6146552E-04  0.1502461E+04  0.7818609E-02  0.8882818E-01
       -1   -1    0    0    0  501  0.00000000000E+00  0.00000000000E+00  0.47460882714E+03  0.47460882716E+03  0.50400001928E-02 0.  1.
        1   -1    0    0  501    0  0.00000000000E+00  0.00000000000E+00 -0.11890790345E+04  0.11890790345E+04  0.50400001928E-02 0. -1.
    10030    2    1    2    0    0  0.00000000000E+00  0.00000000000E+00 -0.71447020739E+03  0.16636878617E+04  0.15024611888E+04 0.  0.
        5    1    3    3  502    0 -0.19534630606E+03  0.19035663317E+03  0.41782498909E+03  0.49899462782E+03  0.46999998093E+01 0.  1.
       -5    1    3    3    0  502  0.19534630606E+03 -0.19035663317E+03 -0.11322951965E+04  0.11646932339E+04  0.46999998093E+01 0. -1.
</event>
<event>
 5   0  0.5840834E-04  0.1499921E+04  0.7818609E-02  0.8884506E-01
       -1   -1    0    0    0  501  0.00000000000E+00  0.00000000000E+00  0.80306168315E+03  0.80306168316E+03  0.50400001928E-02 0. -1.
        1   -1    0    0  501    0  0.00000000000E+00  0.00000000000E+00 -0.70037040905E+03  0.70037040906E+03  0.50400001928E-02 0.  1.
    10030    2    1    2    0    0  0.00000000000E+00  0.00000000000E+00  0.10269127410E+03  0.15034320922E+04  0.14999208506E+04 0.  0.
        3    1    3    3  502    0  0.42432707849E+03 -0.11545803446E+03 -0.55757678129E+03  0.71012386560E+03  0.10100000352E+00 0. -1.
       -3    1    3    3    0  502 -0.42432707849E+03  0.11545803446E+03  0.66026805540E+03  0.79330822663E+03  0.10100000352E+00 0.  1.
</event>
<event>
 5   0  0.1126175E-03  0.1496298E+04  0.7818609E-02  0.8886919E-01
       -2   -1    0    0    0  501  0.00000000000E+00  0.00000000000E+00  0.43561099285E+03  0.43561099286E+03  0.25500000920E-02 0. -1.
        2   -1    0    0  501    0  0.00000000000E+00  0.00000000000E+00 -0.12849230701E+04  0.12849230701E+04  0.25500000920E-02 0.  1.
    10030    2    1    2    0    0  0.00000000000E+00  0.00000000000E+00 -0.84931207728E+03  0.17205340630E+04  0.14962975831E+04 0.  0.
        3    1    3    3  502    0 -0.13412227836E+03 -0.44050054883E+03  0.25336914592E+03  0.52557154925E+03  0.10100000352E+00 0. -1.
       -3    1    3    3    0  502  0.13412227836E+03  0.44050054883E+03 -0.11026812232E+04  0.11949625138E+04  0.10100000352E+00 0.  1.
</event>
<event>
 5   0  0.1149716E-03  0.1492985E+04  0.7818609E-02  0.8889131E-01
        2   -1    0    0  501    0  0.00000000000E+00  0.00000000000E+00  0.97159057299E+03  0.97159057300E+03  0.25500000920E-02 0.  1.
       -2   -1    0    0    0  501  0.00000000000E+00  0.00000000000E+00 -0.57354505962E+03  0.57354505963E+03  0.25500000920E-02 0. -1.
    10030    2    1    2    0    0  0.00000000000E+00  0.00000000000E+00  0.39804551337E+03  0.15451356326E+04  0.14929848936E+04 0.  0.
        1    1    3    3  502    0  0.47353930302E+03 -0.47661606251E+03 -0.13768553887E+03  0.68582771174E+03  0.50400001928E-02 0.  1.
       -1    1    3    3    0  502 -0.47353930302E+03  0.47661606251E+03  0.53573105224E+03  0.85930792089E+03  0.50400001928E-02 0. -1.
</event>
<event>
 5   0  0.1149716E-03  0.1518409E+04  0.7818609E-02  0.8872303E-01
        2   -1    0    0  501    0  0.00000000000E+00  0.00000000000E+00  0.92169770267E+03  0.92169770267E+03  0.25500000920E-02 0. -1.
       -2   -1    0    0    0  501  0.00000000000E+00  0.00000000000E+00 -0.62535848505E+03  0.62535848506E+03  0.25500000920E-02 0.  1.
    10030    2    1    2    0    0  0.00000000000E+00  0.00000000000E+00  0.29633921762E+03  0.15470561877E+04  0.15184090082E+04 0.  0.
        1    1    3    3  502    0  0.31938268258E+03  0.94057296807E+02 -0.54700762270E+03  0.64036662337E+03  0.50400001928E-02 0.  1.
       -1    1    3    3    0  502 -0.31938268258E+03 -0.94057296807E+02  0.84334684032E+03  0.90668956436E+03  0.50400001928E-02 0. -1.
</event>
<event>
 5   0  0.1097156E-03  0.1237760E+04  0.7818609E-02  0.9080433E-01
        2   -1    0    0  501    0  0.00000000000E+00  0.00000000000E+00  0.60182732779E+03  0.60182732779E+03  0.25500000920E-02 0. -1.
       -2   -1    0    0    0  501  0.00000000000E+00  0.00000000000E+00 -0.63641541002E+03  0.63641541002E+03  0.25500000920E-02 0.  1.
    10030    2    1    2    0    0  0.00000000000E+00  0.00000000000E+00 -0.34588082230E+02  0.12382427378E+04  0.12377595656E+04 0.  0.
        2    1    3    3  502    0  0.49043182122E+03  0.18962226188E+03  0.30922609643E+03  0.61000061655E+03  0.25500000920E-02 0. -1.
       -2    1    3    3    0  502 -0.49043182122E+03 -0.18962226188E+03 -0.34381417866E+03  0.62824212126E+03  0.25500000920E-02 0.  1.
</event>
<event>
 5   0  0.5924403E-04  0.1496433E+04  0.7818609E-02  0.8886829E-01
       -1   -1    0    0    0  501  0.00000000000E+00  0.00000000000E+00  0.12667276086E+04  0.12667276086E+04  0.50400001928E-02 0. -1.
        1   -1    0    0  501    0  0.00000000000E+00  0.00000000000E+00 -0.44194805703E+03  0.44194805706E+03  0.50400001928E-02 0.  1.
    10030    2    1    2    0    0  0.00000000000E+00  0.00000000000E+00  0.82477955158E+03  0.17086756657E+04  0.14964328324E+04 0.  0.
        1    1    3    3  502    0 -0.31355219576E+03  0.32257463671E+03 -0.27028707717E+03  0.52480899366E+03  0.50400001928E-02 0.  1.
       -1    1    3    3    0  502  0.31355219576E+03 -0.32257463671E+03  0.10950666287E+04  0.11838666720E+04  0.50400001928E-02 0. -1.
</event>
<event>
 5   0  0.1149716E-03  0.1502067E+04  0.7818609E-02  0.8883079E-01
        2   -1    0    0  501    0  0.00000000000E+00  0.00000000000E+00  0.69100987098E+03  0.69100987098E+03  0.25500000920E-02 0. -1.
       -2   -1    0    0    0  501  0.00000000000E+00  0.00000000000E+00 -0.81627142086E+03  0.81627142087E+03  0.25500000920E-02 0.  1.
    10030    2    1    2    0    0  0.00000000000E+00  0.00000000000E+00 -0.12526154989E+03  0.15072812918E+04  0.15020673876E+04 0.  0.
        1    1    3    3  502    0 -0.26222081369E+03 -0.23150651545E+03 -0.72954029004E+03  0.80906369134E+03  0.50400001928E-02 0.  1.
       -1    1    3    3    0  502  0.26222081369E+03  0.23150651545E+03  0.60427874015E+03  0.69821760051E+03  0.50400001928E-02 0. -1.
</event>
<event>
 5   0  0.1147755E-03  0.1492761E+04  0.7818609E-02  0.8889281E-01
        2   -1    0    0  501    0  0.00000000000E+00  0.00000000000E+00  0.10643403385E+04  0.10643403385E+04  0.25500000920E-02 0. -1.
       -2   -1    0    0    0  501  0.00000000000E+00  0.00000000000E+00 -0.52340791918E+03  0.52340791918E+03  0.25500000920E-02 0.  1.
    10030    2    1    2    0    0  0.00000000000E+00  0.00000000000E+00  0.54093241928E+03  0.15877482576E+04  0.14927614168E+04 0.  0.
        4    1    3    3  502    0 -0.60993458535E+03 -0.49864589106E+02  0.72494428464E+03  0.94871096989E+03  0.12699999809E+01 0. -1.
       -4    1    3    3    0  502  0.60993458535E+03  0.49864589106E+02 -0.18401186537E+03  0.63903728776E+03  0.12699999809E+01 0.  1.
</event>
<event>
 5   0  0.1126175E-03  0.1500621E+04  0.7818609E-02  0.8884040E-01
        2   -1    0    0  501    0  0.00000000000E+00  0.00000000000E+00  0.62181770040E+03  0.62181770040E+03  0.25500000920E-02 0.  1.
       -2   -1    0    0    0  501  0.00000000000E+00  0.00000000000E+00 -0.90535491094E+03  0.90535491094E+03  0.25500000920E-02 0. -1.
    10030    2    1    2    0    0  0.00000000000E+00  0.00000000000E+00 -0.28353721054E+03  0.15271726113E+04  0.15006208166E+04 0.  0.
        3    1    3    3  502    0 -0.20933225359E+03  0.53737600380E+03 -0.63023276192E+03  0.85427531057E+03  0.10100000352E+00 0. -1.
       -3    1    3    3    0  502  0.20933225359E+03 -0.53737600380E+03  0.34669555137E+03  0.67289730078E+03  0.10100000352E+00 0.  1.
</event>
<event>
 5   0  0.6146552E-04  0.1504121E+04  0.7818609E-02  0.8881717E-01
        1   -1    0    0  501    0  0.00000000000E+00  0.00000000000E+00  0.35985771061E+03  0.35985771064E+03  0.50400001928E-02 0. -1.
       -1   -1    0    0    0  501  0.00000000000E+00  0.00000000000E+00 -0.15717193141E+04  0.15717193141E+04  0.50400001928E-02 0.  1.
    10030    2    1    2    0    0  0.00000000000E+00  0.00000000000E+00 -0.12118616035E+04  0.19315770248E+04  0.15041214235E+04 0.  0.
        5    1    3    3  502    0  0.54338061670E+03 -0.51656153547E+03 -0.68163167520E+03  0.10132828555E+04  0.46999998093E+01 0.  1.
       -5    1    3    3    0  502 -0.54338061670E+03  0.51656153547E+03 -0.53022992832E+03  0.91829416932E+03  0.46999998093E+01 0. -1.
</event>
<event>
 5   0  0.5914645E-04  0.1491366E+04  0.7818609E-02  0.8890215E-01
        1   -1    0    0  501    0  0.00000000000E+00  0.00000000000E+00  0.13391862591E+04  0.13391862591E+04  0.50400001928E-02 0. -1.
       -1   -1    0    0    0  501  0.00000000000E+00  0.00000000000E+00 -0.41520948160E+03  0.41520948163E+03  0.50400001928E-02 0.  1.
    10030    2    1    2    0    0  0.00000000000E+00  0.00000000000E+00  0.92397677751E+03  0.17543957408E+04  0.14913655923E+04 0.  0.
        2    1    3    3  502    0 -0.14211966467E+03 -0.11229821990E+03 -0.38893683992E+03  0.42904633168E+03  0.25500000920E-02 0.  1.
       -2    1    3    3    0  502  0.14211966467E+03  0.11229821990E+03  0.13129136174E+04  0.13253494091E+04  0.25500000920E-02 0. -1.
</event>
<event>
 5   0  0.1149716E-03  0.1184566E+04  0.7818609E-02  0.9126474E-01
       -2   -1    0    0    0  501  0.00000000000E+00  0.00000000000E+00  0.13424894699E+04  0.13424894700E+04  0.25500000920E-02 0.  1.
        2   -1    0    0  501    0  0.00000000000E+00  0.00000000000E+00 -0.26130489097E+03  0.26130489098E+03  0.25500000920E-02 0. -1.
    10030    2    1    2    0    0  0.00000000000E+00  0.00000000000E+00  0.10811845790E+04  0.16037943609E+04  0.11845658523E+04 0.  0.
        1    1    3    3  502    0 -0.24105513009E+03  0.26675551916E+03  0.11778405662E+04  0.12314927861E+04  0.50400001928E-02 0.  1.
       -1    1    3    3    0  502  0.24105513009E+03 -0.26675551916E+03 -0.96655987232E+02  0.37230157485E+03  0.50400001928E-02 0. -1.
</event>
<event>
 5   0  0.1147755E-03  0.1425147E+04  0.7818609E-02  0.8935814E-01
        2   -1    0    0  501    0  0.00000000000E+00  0.00000000000E+00  0.17244196272E+04  0.17244196273E+04  0.25500000920E-02 0. -1.
       -2   -1    0    0    0  501  0.00000000000E+00  0.00000000000E+00 -0.29445337235E+03  0.29445337236E+03  0.25500000920E-02 0.  1.
    10030    2    1    2    0    0  0.00000000000E+00  0.00000000000E+00  0.14299662549E+04  0.20188729996E+04  0.14251472550E+04 0.  0.
        4    1    3    3  502    0 -0.14774832315E+03 -0.19814321321E+03  0.16617483412E+04  0.16800296016E+04  0.12699999809E+01 0. -1.
       -4    1    3    3    0  502  0.14774832315E+03  0.19814321321E+03 -0.23178208630E+03  0.33884339799E+03  0.12699999809E+01 0.  1.
</event>
<event>
 5   0  0.1126175E-03  0.1498014E+04  0.7818609E-02  0.8885775E-01
        2   -1    0    0  501    0  0.00000000000E+00  0.00000000000E+00  0.16596353306E+04  0.16596353306E+04  0.25500000920E-02 0. -1.
       -2   -1    0    0    0  501  0.00000000000E+00  0.00000000000E+00 -0.33803299868E+03  0.33803299869E+03  0.25500000920E-02 0.  1.
    10030    2    1    2    0    0  0.00000000000E+00  0.00000000000E+00  0.13216023320E+04  0.19976683293E+04  0.14980140287E+04 0.  0.
        3    1    3    3  502    0  0.17120895396E+03  0.39226634427E+03 -0.15889609792E+03  0.45654503710E+03  0.10100000352E+00 0.  1.
       -3    1    3    3    0  502 -0.17120895396E+03 -0.39226634427E+03  0.14804984299E+04  0.15411232922E+04  0.10100000352E+00 0. -1.
</event>
<event>
 5   0  0.5924403E-04  0.1501182E+04  0.7818609E-02  0.8883668E-01
       -1   -1    0    0    0  501  0.00000000000E+00  0.00000000000E+00  0.38936244224E+03  0.38936244228E+03  0.50400001928E-02 0.  1.
        1   -1    0    0  501    0  0.00000000000E+00  0.00000000000E+00 -0.14469462663E+04  0.14469462663E+04  0.50400001928E-02 0. -1.
    10030    2    1    2    0    0  0.00000000000E+00  0.00000000000E+00 -0.10575838240E+04  0.18363087086E+04  0.15011815774E+04 0.  0.
        1    1    3    3  502    0  0.28973990725E+03  0.28082033756E+02 -0.13750852412E+04  0.14055594029E+04  0.50400001928E-02 0. -1.
       -1    1    3    3    0  502 -0.28973990725E+03 -0.28082033756E+02  0.31750141712E+03  0.43074930571E+03  0.50400001928E-02 0.  1.
</event>
<event>
 5   0  0.1097156E-03  0.1506066E+04  0.7818609E-02  0.8880429E-01
       -2   -1    0    0    0  501  0.00000000000E+00  0.00000000000E+00  0.84271093848E+03  0.84271093848E+03  0.25500000920E-02 0. -1.
        2   -1    0    0  501    0  0.00000000000E+00  0.00000000000E+00 -0.67289858850E+03  0.67289858850E+03  0.25500000920E-02 0.  1.
    10030    2    1    2    0    0  0.00000000000E+00  0.00000000000E+00  0.16981234998E+03  0.15156095270E+04  0.15060664010E+04 0.  0.
        2    1    3    3  502    0 -0.36071898431E+03 -0.41691476024E+03  0.60111155743E+03  0.81564159251E+03  0.25500000920E-02 0. -1.
       -2    1    3    3    0  502  0.36071898431E+03  0.41691476024E+03 -0.43129920745E+03  0.69996793448E+03  0.25500000920E-02 0.  1.
</event>
<event>
 5   0  0.5924403E-04  0.1515840E+04  0.7818609E-02  0.8873987E-01
       -1   -1    0    0    0  501  0.00000000000E+00  0.00000000000E+00  0.73293899735E+03  0.73293899736E+03  0.50400001928E-02 0.  1.
        1   -1    0    0  501    0  0.00000000000E+00  0.00000000000E+00 -0.78375219942E+03  0.78375219943E+03  0.50400001928E-02 0. -1.
    10030    2    1    2    0    0  0.00000000000E+00  0.00000000000E+00 -0.50813202073E+02  0.15166911968E+04  0.15158397689E+04 0.  0.
        1    1    3    3  502    0 -0.92608302853E+02  0.36000917042E+03  0.63546393946E+03  0.73620467189E+03  0.50400001928E-02 0.  1.
       -1    1    3    3    0  502  0.92608302853E+02 -0.36000917042E+03 -0.68627714153E+03  0.78048652490E+03  0.50400001928E-02 0. -1.
</event>
<event>
 5   0  0.5914645E-04  0.1496991E+04  0.7818609E-02  0.8886456E-01
       -1   -1    0    0    0  501  0.00000000000E+00  0.00000000000E+00  0.51906303725E+03  0.51906303727E+03  0.50400001928E-02 0.  1.
        1   -1    0    0  501    0  0.00000000000E+00  0.00000000000E+00 -0.10793399063E+04  0.10793399064E+04  0.50400001928E-02 0. -1.
    10030    2    1    2    0    0  0.00000000000E+00  0.00000000000E+00 -0.56027686910E+03  0.15984029436E+04  0.14969909152E+04 0.  0.
        2    1    3    3  502    0  0.32632951075E+01  0.14319121695E+03 -0.10645713669E+04  0.10741631948E+04  0.25500000920E-02 0. -1.
       -2    1    3    3    0  502 -0.32632951075E+01 -0.14319121695E+03  0.50429449785E+03  0.52423974885E+03  0.25500000920E-02 0.  1.
</event>
<event>
 5   0  0.1082667E-03  0.1462457E+04  0.7818609E-02  0.8909810E-01
       -2   -1    0    0    0  501  0.00000000000E+00  0.00000000000E+00  0.30176016328E+03  0.30176016329E+03  0.25500000920E-02 0.  1.
        2   -1    0    0  501    0  0.00000000000E+00  0.00000000000E+00 -0.17719202595E+04  0.17719202595E+04  0.25500000920E-02 0. -1.
    10030    2    1    2    0    0  0.00000000000E+00  0.00000000000E+00 -0.14701600962E+04  0.20736804228E+04  0.14624567643E+04 0.  0.
        5    1    3    3  502    0 -0.24674269804E+03 -0.15140657907E+03  0.21702088453E+03  0.36183707044E+03  0.46999998093E+01 0.  1.
       -5    1    3    3    0  502  0.24674269804E+03  0.15140657907E+03 -0.16871809808E+04  0.17118433524E+04  0.46999998093E+01 0. -1.
</event>
<event>
 5   0  0.5924403E-04  0.1496371E+04  0.7818609E-02  0.8886870E-01
       -1   -1    0    0    0  501  0.00000000000E+00  0.00000000000E+00  0.41863029141E+03  0.41863029144E+03  0.50400001928E-02 0. -1.
        1   -1    0    0  501    0  0.00000000000E+00  0.00000000000E+00 -0.13371746747E+04  0.13371746747E+04  0.50400001928E-02 0.  1.
    10030    2    1    2    0    0  0.00000000000E+00  0.00000000000E+00 -0.91854438332E+03  0.17558049662E+04  0.14963713761E+04 0.  0.
        1    1    3    3  502    0 -0.22463811958E+02  0.34413912751E+03  0.31980424325E+03  0.47033085797E+03  0.50400001928E-02 0. -1.
       -1    1    3    3    0  502  0.22463811958E+02 -0.34413912751E+03 -0.12383486266E+04  0.12854741082E+04  0.50400001928E-02 0.  1.
</event>
<event>
 5   0  0.1147755E-03  0.1508257E+04  0.7818609E-02  0.8878980E-01
       -2   -1    0    0    0  501  0.00000000000E+00  0.00000000000E+00  0.49045377027E+03  0.49045377027E+03  0.25500000920E-02 0. -1.
        2   -1    0    0  501    0  0.00000000000E+00  0.00000000000E+00 -0.11595588304E+04  0.11595588304E+04  0.25500000920E-02 0.  1.
    10030    2    1    2    0    0  0.00000000000E+00  0.00000000000E+00 -0.66910506015E+03  0.16500126007E+04  0.15082572728E+04 0.  0.
        4    1    3    3  502    0 -0.61763792009E+03  0.58032362872E+02  0.13454184173E+03  0.63478143920E+03  0.12699999809E+01 0. -1.
       -4    1    3    3    0  502  0.61763792009E+03 -0.58032362872E+02 -0.80364690187E+03  0.10152311615E+04  0.12699999809E+01 0.  1.
</event>
<event>
 5   0  0.4070625E-04  0.1504647E+04  0.7818609E-02  0.8881368E-01
       -3   -1    0    0    0  501  0.00000000000E+00  0.00000000000E+00  0.45769887996E+03  0.45769889110E+03  0.10100000352E+00 0. -1.
        3   -1    0    0  501    0  0.00000000000E+00  0.00000000000E+00 -0.12366008820E+04  0.12366008862E+04  0.10100000352E+00 0.  1.
    10030    2    1    2    0    0  0.00000000000E+00  0.00000000000E+00 -0.77890200209E+03  0.16942997773E+04  0.15046472698E+04 0.  0.
        1    1    3    3  502    0  0.74210413474E+02  0.66395513951E+03 -0.77895049038E+03  0.10262102510E+04  0.50400001928E-02 0.  1.
       -1    1    3    3    0  502 -0.74210413474E+02 -0.66395513951E+03  0.48488290022E-01  0.66808952628E+03  0.50400001928E-02 0. -1.
</event>
<event>
 5   0  0.1126175E-03  0.1503783E+04  0.7818609E-02  0.8881941E-01
        2   -1    0    0  501    0  0.00000000000E+00  0.00000000000E+00  0.76510583562E+03  0.76510583563E+03  0.25500000920E-02 0. -1.
       -2   -1    0    0    0  501  0.00000000000E+00  0.00000000000E+00 -0.73890527849E+03  0.73890527849E+03  0.25500000920E-02 0.  1.
    10030    2    1    2    0    0  0.00000000000E+00  0.00000000000E+00  0.26200557135E+02  0.15040111141E+04  0.15037828840E+04 0.  0.
        3    1    3    3  502    0  0.26001297925E+03 -0.15412666822E+03 -0.67546550205E+03  0.74001042823E+03  0.10100000352E+00 0.  1.
       -3    1    3    3    0  502 -0.26001297925E+03  0.15412666822E+03  0.70166605918E+03  0.76400068589E+03  0.10100000352E+00 0. -1.
</event>
<event>
 5   0  0.1082667E-03  0.1438523E+04  0.7818609E-02  0.8926396E-01
       -2   -1    0    0    0  501  0.00000000000E+00  0.00000000000E+00  0.45404742995E+03  0.45404742995E+03  0.25500000920E-02 0.  1.
        2   -1    0    0  501    0  0.00000000000E+00  0.00000000000E+00 -0.11393900684E+04  0.11393900684E+04  0.25500000920E-02 0. -1.
    10030    2    1    2    0    0  0.00000000000E+00  0.00000000000E+00 -0.68534263845E+03  0.15934374983E+04  0.14385230374E+04 0.  0.
        5    1    3    3  502    0 -0.57450568643E+03 -0.42225544019E+03 -0.23782858767E+03  0.75162555014E+03  0.46999998093E+01 0.  1.
       -5    1    3    3    0  502  0.57450568643E+03  0.42225544019E+03 -0.44751405077E+03  0.84181194821E+03  0.46999998093E+01 0. -1.
</event>
<event>
 5   0  0.5840834E-04  0.1517277E+04  0.7818609E-02  0.8873045E-01
        1   -1    0    0  501    0  0.00000000000E+00  0.00000000000E+00  0.68780791365E+03  0.68780791367E+03  0.50400001928E-02 0.  1.
       -1   -1    0    0    0  501  0.00000000000E+00  0.00000000000E+00 -0.83676289811E+03  0.83676289812E+03  0.50400001928E-02 0. -1.
    10030    2    1    2    0    0  0.00000000000E+00  0.00000000000E+00 -0.14895498445E+03  0.15245708118E+04  0.15172766962E+04 0.  0.
        3    1    3    3  502    0 -0.71500600326E+03 -0.25249985588E+03 -0.51076672239E+02  0.75999907800E+03  0.10100000352E+00 0.  1.
       -3    1    3    3    0  502  0.71500600326E+03  0.25249985588E+03 -0.97878312213E+02  0.76457173379E+03  0.10100000352E+00 0. -1.
</event>
<event>
 5   0  0.1097156E-03  0.1510646E+04  0.7818609E-02  0.8877404E-01
        2   -1    0    0  501    0  0.00000000000E+00  0.00000000000E+00  0.15101579560E+04  0.15101579560E+04  0.25500000920E-02 0. -1.
       -2   -1    0    0    0  501  0.00000000000E+00  0.00000000000E+00 -0.37778374357E+03  0.37778374357E+03  0.25500000920E-02 0.  1.
    10030    2    1    2    0    0  0.00000000000E+00  0.00000000000E+00  0.11323742124E+04  0.18879416996E+04  0.15106463862E+04 0.  0.
        2    1    3    3  502    0 -0.49059850754E+03  0.57359702178E+03  0.60181477609E+03  0.96534007672E+03  0.25500000920E-02 0. -1.
       -2    1    3    3    0  502  0.49059850754E+03 -0.57359702178E+03  0.53055943635E+03  0.92260162286E+03  0.25500000920E-02 0.  1.
</event>
<event>
 5   0  0.1147755E-03  0.1491698E+04  0.7818609E-02  0.8889993E-01
        2   -1    0    0  501    0  0.00000000000E+00  0.00000000000E+00  0.63218121506E+03  0.63218121506E+03  0.25500000920E-02 0. -1.
       -2   -1    0    0    0  501  0.00000000000E+00  0.00000000000E+00 -0.87995396958E+03  0.87995396959E+03  0.25500000920E-02 0.  1.
    10030    2    1    2    0    0  0.00000000000E+00  0.00000000000E+00 -0.24777275453E+03  0.15121351847E+04  0.14916975158E+04 0.  0.
        4    1    3    3  502    0  0.39621211757E+03 -0.37456165301E+03  0.39201498961E+03  0.67153394478E+03  0.12699999809E+01 0. -1.
       -4    1    3    3    0  502 -0.39621211757E+03  0.37456165301E+03 -0.63978774414E+03  0.84060123987E+03  0.12699999809E+01 0.  1.
</event>
<event>
 5   0  0.1147755E-03  0.1527927E+04  0.7818609E-02  0.8866091E-01
        2   -1    0    0  501    0  0.00000000000E+00  0.00000000000E+00  0.32561699862E+03  0.32561699863E+03  0.25500000920E-02 0.  1.
       -2   -1    0    0    0  501  0.00000000000E+00  0.00000000000E+00 -0.17924132388E+04  0.17924132388E+04  0.25500000920E-02 0. -1.
    10030    2    1    2    0    0  0.00000000000E+00  0.00000000000E+00 -0.14667962401E+04  0.21180302374E+04  0.15279269866E+04 0.  0.
        4    1    3    3  502    0 -0.55632733390E+03 -0.37169732732E+03 -0.22222685205E+03  0.70501446244E+03  0.12699999809E+01 0. -1.
       -4    1    3    3    0  502  0.55632733390E+03  0.37169732732E+03 -0.12445693881E+04  0.14130157750E+04  0.12699999809E+01 0.  1.
</event>
<event>
 5   0  0.5606965E-04  0.1433371E+04  0.7818609E-02  0.8930011E-01
       -1   -1    0    0    0  501  0.00000000000E+00  0.00000000000E+00  0.11327831776E+04  0.11327831776E+04  0.50400001928E-02 0.  1.
        1   -1    0    0  501    0  0.00000000000E+00  0.00000000000E+00 -0.45342999199E+03  0.45342999202E+03  0.50400001928E-02 0. -1.
    10030    2    1    2    0    0  0.00000000000E+00  0.00000000000E+00  0.67935318560E+03  0.15862131696E+04  0.14333706669E+04 0.  0.
        4    1    3    3  502    0  0.28577543188E+03 -0.11220919668E+03 -0.37697114267E+03  0.48617626083E+03  0.12699999809E+01 0. -1.
       -4    1    3    3    0  502 -0.28577543188E+03  0.11220919668E+03  0.10563243283E+04  0.11000369088E+04  0.12699999809E+01 0.  1.
</event>
<event>
 5   0  0.6146552E-04  0.1494609E+04  0.7818609E-02  0.8888046E-01
       -1   -1    0    0    0  501  0.00000000000E+00  0.00000000000E+00  0.48685752857E+03  0.48685752859E+03  0.50400001928E-02 0.  1.
        1   -1    0    0  501    0  0.00000000000E+00  0.00000000000E+00 -0.11470784588E+04  0.11470784588E+04  0.50400001928E-02 0. -1.
    10030    2    1    2    0    0  0.00000000000E+00  0.00000000000E+00 -0.66022093022E+03  0.16339359874E+04  0.14946086893E+04 0.  0.
        5    1    3    3  502    0  0.33034675388E+03  0.55448132429E+03  0.81647847780E+02  0.65058971544E+03  0.46999998093E+01 0.  1.
       -5    1    3    3    0  502 -0.33034675388E+03 -0.55448132429E+03 -0.74186877800E+03  0.98334627196E+03  0.46999998093E+01 0. -1.
</event>
<event>
 5   0  0.5924403E-04  0.1502639E+04  0.7818609E-02  0.8882700E-01
       -1   -1    0    0    0  501  0.00000000000E+00  0.00000000000E+00  0.92345356495E+03  0.92345356497E+03  0.50400001928E-02 0. -1.
        1   -1    0    0  501    0  0.00000000000E+00  0.00000000000E+00 -0.61127126461E+03  0.61127126463E+03  0.50400001928E-02 0.  1.
    10030    2    1    2    0    0  0.00000000000E+00  0.00000000000E+00  0.31218230035E+03  0.15347248296E+04  0.15026385174E+04 0.  0.
        1    1    3    3  502    0 -0.27537718063E+03 -0.63382668880E+03  0.45719429280E+03  0.82861057466E+03  0.50400001928E-02 0. -1.
       -1    1    3    3    0  502  0.27537718063E+03  0.63382668880E+03 -0.14501199246E+03  0.70611425493E+03  0.50400001928E-02 0.  1.
</event>
<event>
 5   0  0.5606965E-04  0.1517995E+04  0.7818609E-02  0.8872574E-01
       -1   -1    0    0    0  501  0.00000000000E+00  0.00000000000E+00  0.40586726453E+03  0.40586726456E+03  0.50400001928E-02 0.  1.
        1   -1    0    0  501    0  0.00000000000E+00  0.00000000000E+00 -0.14193732739E+04  0.14193732740E+04  0.50400001928E-02 0. -1.
    10030    2    1    2    0    0  0.00000000000E+00  0.00000000000E+00 -0.10135060094E+04  0.18252405385E+04  0.15179949250E+04 0.  0.
        4    1    3    3  502    0  0.73055044478E+03  0.53990455260E+02 -0.74559444990E+03  0.10452423730E+04  0.12699999809E+01 0. -1.
       -4    1    3    3    0  502 -0.73055044478E+03 -0.53990455260E+02 -0.26791155952E+03  0.77999816555E+03  0.12699999809E+01 0.  1.
</event>
<event>
 5   0  0.5924403E-04  0.1505225E+04  0.7818609E-02  0.8880986E-01
       -1   -1    0    0    0  501  0.00000000000E+00  0.00000000000E+00  0.65081706453E+03  0.65081706455E+03  0.50400001928E-02 0. -1.
        1   -1    0    0  501    0  0.00000000000E+00  0.00000000000E+00 -0.87032953860E+03  0.87032953861E+03  0.50400001928E-02 0.  1.
    10030    2    1    2    0    0  0.00000000000E+00  0.00000000000E+00 -0.21951247407E+03  0.15211466032E+04  0.15052246550E+04 0.  0.
        1    1    3    3  502    0 -0.41255431136E+03  0.21575031310E+03  0.48783290444E+03  0.67433685951E+03  0.50400001928E-02 0. -1.
       -1    1    3    3    0  502  0.41255431136E+03 -0.21575031310E+03 -0.70734537850E+03  0.84680974365E+03  0.50400001928E-02 0.  1.
</event>
<event>
 5   0  0.1097156E-03  0.1504439E+04  0.7818609E-02  0.8881506E-01
       -2   -1    0    0    0  501  0.00000000000E+00  0.00000000000E+00  0.40208913784E+03  0.40208913785E+03  0.25500000920E-02 0.  1.
        2   -1    0    0  501    0  0.00000000000E+00  0.00000000000E+00 -0.14072354823E+04  0.14072354823E+04  0.25500000920E-02 0. -1.
    10030    2    1    2    0    0  0.00000000000E+00  0.00000000000E+00 -0.10051463445E+04  0.18093246202E+04  0.15044389012E+04 0.  0.
        2    1    3    3  502    0 -0.93994490614E+01 -0.11804617224E+03 -0.13959548827E+04  0.14009686945E+04  0.25500000920E-02 0. -1.
       -2    1    3    3    0  502  0.93994490614E+01  0.11804617224E+03  0.39080853826E+03  0.40835592564E+03  0.25500000920E-02 0.  1.
</event>
<event>
 5   0  0.5606965E-04  0.1506644E+04  0.7818609E-02  0.8880047E-01
       -1   -1    0    0    0  501  0.00000000000E+00  0.00000000000E+00  0.65397189525E+03  0.65397189527E+03  0.50400001928E-02 0. -1.
        1   -1    0    0  501    0  0.00000000000E+00  0.00000000000E+00 -0.86776508238E+03  0.86776508240E+03  0.50400001928E-02 0.  1.
    10030    2    1    2    0    0  0.00000000000E+00  0.00000000000E+00 -0.21379318713E+03  0.15217369777E+04  0.15066439202E+04 0.  0.
        4    1    3    3  502    0 -0.22160119667E+03  0.42857032339E+03  0.47744271008E+03  0.67877298618E+03  0.12699999809E+01 0. -1.
       -4    1    3    3    0  502  0.22160119667E+03 -0.42857032339E+03 -0.69123589721E+03  0.84296399149E+03  0.12699999809E+01 0.  1.
</event>
<event>
 5   0  0.1147755E-03  0.1509365E+04  0.7818609E-02  0.8878249E-01
       -2   -1    0    0    0  501  0.00000000000E+00  0.00000000000E+00  0.72768350863E+03  0.72768350863E+03  0.25500000920E-02 0. -1.
        2   -1    0    0  501    0  0.00000000000E+00  0.00000000000E+00 -0.78268279873E+03  0.78268279874E+03  0.25500000920E-02 0.  1.
    10030    2    1    2    0    0  0.00000000000E+00  0.00000000000E+00 -0.54999290109E+02  0.15103663074E+04  0.15093645883E+04 0.  0.
        4    1    3    3  502    0 -0.59499206843E+03 -0.28377133614E+03 -0.39516970421E+03  0.76857168874E+03  0.12699999809E+01 0.  1.
       -4    1    3    3    0  502  0.59499206843E+03  0.28377133614E+03  0.34017041410E+03  0.74179461863E+03  0.12699999809E+01 0. -1.
</event>
<event>
 5   0  0.5924403E-04  0.1483956E+04  0.7818609E-02  0.8895192E-01
       -1   -1    0    0    0  501  0.00000000000E+00  0.00000000000E+00  0.13650981647E+04  0.13650981647E+04  0.50400001928E-02 0. -1.
        1   -1    0    0  501    0  0.00000000000E+00  0.00000000000E+00 -0.40329082347E+03  0.40329082350E+03  0.50400001928E-02 0.  1.
    10030    2    1    2    0    0  0.00000000000E+00  0.00000000000E+00  0.96180734127E+03  0.17683889883E+04  0.14839562837E+04 0.  0.
        1    1    3    3  502    0  0.55773222591E+03 -0.48891831059E+03  0.50547676395E+03  0.89755952959E+03  0.50400001928E-02 0.  1.
       -1    1    3    3    0  502 -0.55773222591E+03  0.48891831059E+03  0.45633057732E+03  0.87082945866E+03  0.50400001928E-02 0. -1.
</event>
<event>
 5   0  0.5840834E-04  0.1498073E+04  0.7818609E-02  0.8885735E-01
        1   -1    0    0  501    0  0.00000000000E+00  0.00000000000E+00  0.11252387628E+04  0.11252387628E+04  0.50400001928E-02 0.  1.
       -1   -1    0    0    0  501  0.00000000000E+00  0.00000000000E+00 -0.49861036985E+03  0.49861036988E+03  0.50400001928E-02 0. -1.
    10030    2    1    2    0    0  0.00000000000E+00  0.00000000000E+00  0.62662839294E+03  0.16238491327E+04  0.14980730499E+04 0.  0.
        3    1    3    3  502    0 -0.10909929047E+03 -0.11378224326E+03  0.11070551434E+04  0.11182218719E+04  0.10100000352E+00 0.  1.
       -3    1    3    3    0  502  0.10909929047E+03  0.11378224326E+03 -0.48042675047E+03  0.50562726077E+03  0.10100000352E+00 0. -1.
</event>
<event>
 5   0  0.1097156E-03  0.1579480E+04  0.7818609E-02  0.8833254E-01
        2   -1    0    0  501    0  0.00000000000E+00  0.00000000000E+00  0.62389701685E+03  0.62389701685E+03  0.25500000920E-02 0. -1.
       -2   -1    0    0    0  501  0.00000000000E+00  0.00000000000E+00 -0.99966676904E+03  0.99966676904E+03  0.25500000920E-02 0.  1.
    10030    2    1    2    0    0  0.00000000000E+00  0.00000000000E+00 -0.37576975219E+03  0.16235637859E+04  0.15794798068E+04 0.  0.
        2    1    3    3  502    0 -0.91058681549E+01 -0.75197105137E+03  0.59979557752E+02  0.75441429354E+03  0.25500000920E-02 0. -1.
       -2    1    3    3    0  502  0.91058681549E+01  0.75197105137E+03 -0.43574930994E+03  0.86914949235E+03  0.25500000920E-02 0.  1.
</event>
<event>
 5   0  0.1126175E-03  0.1499281E+04  0.7818609E-02  0.8884931E-01
       -2   -1    0    0    0  501  0.00000000000E+00  0.00000000000E+00  0.22144805184E+03  0.22144805186E+03  0.25500000920E-02 0.  1.
        2   -1    0    0  501    0  0.00000000000E+00  0.00000000000E+00 -0.25376638170E+04  0.25376638170E+04  0.25500000920E-02 0. -1.
    10030    2    1    2    0    0  0.00000000000E+00  0.00000000000E+00 -0.23162157651E+04  0.27591118688E+04  0.14992807723E+04 0.  0.
        3    1    3    3  502    0  0.35380127582E+03 -0.23223276416E+03 -0.19425674646E+02  0.42365642514E+03  0.10100000352E+00 0.  1.
       -3    1    3    3    0  502 -0.35380127582E+03  0.23223276416E+03 -0.22967900905E+04  0.23354554437E+04  0.10100000352E+00 0. -1.
</event>
<event>
 5   0  0.1082667E-03  0.1487684E+04  0.7818609E-02  0.8892685E-01
        2   -1    0    0  501    0  0.00000000000E+00  0.00000000000E+00  0.71524207459E+03  0.71524207460E+03  0.25500000920E-02 0. -1.
       -2   -1    0    0    0  501  0.00000000000E+00  0.00000000000E+00 -0.77358531871E+03  0.77358531871E+03  0.25500000920E-02 0.  1.
    10030    2    1    2    0    0  0.00000000000E+00  0.00000000000E+00 -0.58343244114E+02  0.14888273933E+04  0.14876837947E+04 0.  0.
        5    1    3    3  502    0 -0.15046851048E+03 -0.55234837196E+03  0.44611363866E+03  0.72578851276E+03  0.46999998093E+01 0. -1.
       -5    1    3    3    0  502  0.15046851048E+03  0.55234837196E+03 -0.50445688277E+03  0.76303888055E+03  0.46999998093E+01 0.  1.
</event>
<event>
 5   0  0.5606965E-04  0.1485221E+04  0.7818609E-02  0.8894340E-01
        1   -1    0    0  501    0  0.00000000000E+00  0.00000000000E+00  0.48011893562E+03  0.48011893564E+03  0.50400001928E-02 0. -1.
       -1   -1    0    0    0  501  0.00000000000E+00  0.00000000000E+00 -0.11486126463E+04  0.11486126463E+04  0.50400001928E-02 0.  1.
    10030    2    1    2    0    0  0.00000000000E+00  0.00000000000E+00 -0.66849371066E+03  0.16287315819E+04  0.14852214396E+04 0.  0.
        4    1    3    3  502    0  0.46109289949E+03 -0.45543512793E+03 -0.73182650721E+03  0.97754768031E+03  0.12699999809E+01 0.  1.
       -4    1    3    3    0  502 -0.46109289949E+03  0.45543512793E+03  0.63332796549E+02  0.65118390163E+03  0.12699999809E+01 0. -1.
</event>
<event>
 5   0  0.5924403E-04  0.1496398E+04  0.7818609E-02  0.8886852E-01
        1   -1    0    0  501    0  0.00000000000E+00  0.00000000000E+00  0.88403648353E+03  0.88403648354E+03  0.50400001928E-02 0.  1.
       -1   -1    0    0    0  501  0.00000000000E+00  0.00000000000E+00 -0.63323377834E+03  0.63323377836E+03  0.50400001928E-02 0. -1.
    10030    2    1    2    0    0  0.00000000000E+00  0.00000000000E+00  0.25080270519E+03  0.15172702619E+04  0.14963980255E+04 0.  0.
        1    1    3    3  502    0 -0.54204512870E+03  0.48156820222E+03 -0.61783799210E+02  0.72769368062E+03  0.50400001928E-02 0. -1.
       -1    1    3    3    0  502  0.54204512870E+03 -0.48156820222E+03  0.31258650440E+03  0.78957658128E+03  0.50400001928E-02 0.  1.
</event>
<event>
 5   0  0.6146552E-04  0.1500939E+04  0.7818609E-02  0.8883829E-01
        1   -1    0    0  501    0  0.00000000000E+00  0.00000000000E+00  0.42130959233E+03  0.42130959236E+03  0.50400001928E-02 0.  1.
       -1   -1    0    0    0  501  0.00000000000E+00  0.00000000000E+00 -0.13367946962E+04  0.13367946962E+04  0.50400001928E-02 0. -1.
    10030    2    1    2    0    0  0.00000000000E+00  0.00000000000E+00 -0.91548510384E+03  0.17581042885E+04  0.15009389441E+04 0.  0.
        5    1    3    3  502    0  0.16091816779E+03 -0.51584975337E+03 -0.10677228548E+04  0.11966828358E+04  0.46999998093E+01 0. -1.
       -5    1    3    3    0  502 -0.16091816779E+03  0.51584975337E+03  0.15223775099E+03  0.56142145274E+03  0.46999998093E+01 0.  1.
</event>
<event>
 5   0  0.1126175E-03  0.1495881E+04  0.7818609E-02  0.8887197E-01
       -2   -1    0    0    0  501  0.00000000000E+00  0.00000000000E+00  0.27793351195E+03  0.27793351196E+03  0.25500000920E-02 0. -1.
        2   -1    0    0  501    0  0.00000000000E+00  0.00000000000E+00 -0.20127648765E+04  0.20127648765E+04  0.25500000920E-02 0.  1.
    10030    2    1    2    0    0  0.00000000000E+00  0.00000000000E+00 -0.17348313646E+04  0.22906983885E+04  0.14958807584E+04 0.  0.
        3    1    3    3  502    0 -0.71854735045E+03  0.26896635653E+02 -0.11826670126E+04  0.13841007900E+04  0.10100000352E+00 0.  1.
       -3    1    3    3    0  502  0.71854735045E+03 -0.26896635653E+02 -0.55216435194E+03  0.90659759850E+03  0.10100000352E+00 0. -1.
</event>
<event>
 5   0  0.1097156E-03  0.1505838E+04  0.7818609E-02  0.8880580E-01
        2   -1    0    0  501    0  0.00000000000E+00  0.00000000000E+00  0.68625112311E+03  0.68625112312E+03  0.25500000920E-02 0. -1.
       -2   -1    0    0    0  501  0.00000000000E+00  0.00000000000E+00 -0.82606317784E+03  0.82606317784E+03  0.25500000920E-02 0.  1.
    10030    2    1    2    0    0  0.00000000000E+00  0.00000000000E+00 -0.13981205472E+03  0.15123143010E+04  0.15058376852E+04 0.  0.
        2    1    3    3  502    0 -0.30651599557E+03 -0.52108239947E+03  0.38080907031E+03  0.71448895766E+03  0.25500000920E-02 0. -1.
       -2    1    3    3    0  502  0.30651599557E+03  0.52108239947E+03 -0.52062112503E+03  0.79782534330E+03  0.25500000920E-02 0.  1.
</event>
<event>
 5   0  0.5914645E-04  0.1439519E+04  0.7818609E-02  0.8925699E-01
        1   -1    0    0  501    0  0.00000000000E+00  0.00000000000E+00  0.95758110158E+03  0.95758110159E+03  0.50400001928E-02 0. -1.
       -1   -1    0    0    0  501  0.00000000000E+00  0.00000000000E+00 -0.54100265093E+03  0.54100265095E+03  0.50400001928E-02 0.  1.
    10030    2    1    2    0    0  0.00000000000E+00  0.00000000000E+00  0.41657845066E+03  0.14985837525E+04  0.14395192454E+04 0.  0.
        2    1    3    3  502    0  0.18854034548E+03 -0.51312827343E+03 -0.27911533927E+03  0.61380245967E+03  0.25500000920E-02 0.  1.
       -2    1    3    3    0  502 -0.18854034548E+03  0.51312827343E+03  0.69569378993E+03  0.88478129287E+03  0.25500000920E-02 0. -1.
</event>
<event>
 5   0  0.5914645E-04  0.1476574E+04  0.7818609E-02  0.8900182E-01
       -1   -1    0    0    0  501  0.00000000000E+00  0.00000000000E+00  0.31009627434E+03  0.31009627438E+03  0.50400001928E-02 0.  1.
        1   -1    0    0  501    0  0.00000000000E+00  0.00000000000E+00 -0.17577375042E+04  0.17577375042E+04  0.50400001928E-02 0. -1.
    10030    2    1    2    0    0  0.00000000000E+00  0.00000000000E+00 -0.14476412299E+04  0.20678337786E+04  0.14765742127E+04 0.  0.
        2    1    3    3  502    0 -0.34699774805E+03 -0.21216283889E+03  0.13905963516E+03  0.42983495611E+03  0.25500000920E-02 0.  1.
       -2    1    3    3    0  502  0.34699774805E+03  0.21216283889E+03 -0.15867008650E+04  0.16379988225E+04  0.25500000920E-02 0. -1.
</event>
<event>
 5   0  0.1149716E-03  0.1499664E+04  0.7818609E-02  0.8884676E-01
        2   -1    0    0  501    0  0.00000000000E+00  0.00000000000E+00  0.19457609867E+04  0.19457609867E+04  0.25500000920E-02 0.  1.
       -2   -1    0    0    0  501  0.00000000000E+00  0.00000000000E+00 -0.28896050649E+03  0.28896050650E+03  0.25500000920E-02 0. -1.
    10030    2    1    2    0    0  0.00000000000E+00  0.00000000000E+00  0.16568004803E+04  0.22347214933E+04  0.14996640694E+04 0.  0.
        1    1    3    3  502    0  0.15322980171E+02  0.74766928272E+03  0.74672802451E+03  0.10568097713E+04  0.50400001928E-02 0. -1.
       -1    1    3    3    0  502 -0.15322980171E+02 -0.74766928272E+03  0.91007245575E+03  0.11779117220E+04  0.50400001928E-02 0.  1.
</event>
<event>
 5   0  0.5840834E-04  0.1515549E+04  0.7818609E-02  0.8874179E-01
       -1   -1    0    0    0  501  0.00000000000E+00  0.00000000000E+00  0.68513137021E+03  0.68513137023E+03  0.50400001928E-02 0. -1.
        1   -1    0    0  501    0  0.00000000000E+00  0.00000000000E+00 -0.83811957230E+03  0.83811957232E+03  0.50400001928E-02 0.  1.
    10030    2    1    2    0    0  0.00000000000E+00  0.00000000000E+00 -0.15298820209E+03  0.15232509425E+04  0.15155487600E+04 0.  0.
        3    1    3    3  502    0  0.20337566928E+03  0.55294658661E+03 -0.55547706039E+03  0.80973228003E+03  0.10100000352E+00 0.  1.
       -3    1    3    3    0  502 -0.20337566928E+03 -0.55294658661E+03  0.40248885830E+03  0.71351866252E+03  0.10100000352E+00 0. -1.
</event>
<event>
 5   0  0.1149716E-03  0.1603361E+04  0.7818609E-02  0.8818486E-01
       -2   -1    0    0    0  501  0.00000000000E+00  0.00000000000E+00  0.68924599043E+03  0.68924599044E+03  0.25500000920E-02 0.  1.
        2   -1    0    0  501    0  0.00000000000E+00  0.00000000000E+00 -0.93245567090E+03  0.93245567090E+03  0.25500000920E-02 0. -1.
    10030    2    1    2    0    0  0.00000000000E+00  0.00000000000E+00 -0.24320968047E+03  0.16217016613E+04  0.16033606362E+04 0.  0.
        1    1    3    3  502    0  0.56734164539E+03  0.28337395099E+03  0.37442741655E+03  0.73645993033E+03  0.50400001928E-02 0.  1.
       -1    1    3    3    0  502 -0.56734164539E+03 -0.28337395099E+03 -0.61763709701E+03  0.88524173101E+03  0.50400001928E-02 0. -1.
</event>
<event>
 5   0  0.5914645E-04  0.1516803E+04  0.7818609E-02  0.8873355E-01
        1   -1    0    0  501    0  0.00000000000E+00  0.00000000000E+00  0.98589320201E+03  0.98589320202E+03  0.50400001928E-02 0. -1.
       -1   -1    0    0    0  501  0.00000000000E+00  0.00000000000E+00 -0.58340291716E+03  0.58340291718E+03  0.50400001928E-02 0.  1.
    10030    2    1    2    0    0  0.00000000000E+00  0.00000000000E+00  0.40249028484E+03  0.15692961192E+04  0.15168031779E+04 0.  0.
        2    1    3    3  502    0  0.24407897558E+03 -0.16837679848E+03  0.92343362780E+03  0.96987368123E+03  0.25500000920E-02 0. -1.
       -2    1    3    3    0  502 -0.24407897558E+03  0.16837679848E+03 -0.52094334295E+03  0.59942243798E+03  0.25500000920E-02 0.  1.
</event>
<event>
 5   0  0.5606965E-04  0.1438669E+04  0.7818609E-02  0.8926294E-01
       -1   -1    0    0    0  501  0.00000000000E+00  0.00000000000E+00  0.61867680330E+03  0.61867680332E+03  0.50400001928E-02 0. -1.
        1   -1    0    0  501    0  0.00000000000E+00  0.00000000000E+00 -0.83636958168E+03  0.83636958170E+03  0.50400001928E-02 0.  1.
    10030    2    1    2    0    0  0.00000000000E+00  0.00000000000E+00 -0.21769277839E+03  0.14550463850E+04  0.14386694675E+04 0.  0.
        4    1    3    3  502    0 -0.57367757359E+03  0.26540530737E+03 -0.45611324936E+03  0.77947857236E+03  0.12699999809E+01 0.  1.
       -4    1    3    3    0  502  0.57367757359E+03 -0.26540530737E+03  0.23842047097E+03  0.67556781266E+03  0.12699999809E+01 0. -1.
</event>
<event>
 5   0  0.1147755E-03  0.1437403E+04  0.7818609E-02  0.8927180E-01
       -2   -1    0    0    0  501  0.00000000000E+00  0.00000000000E+00  0.98011983542E+03  0.98011983543E+03  0.25500000920E-02 0. -1.
        2   -1    0    0  501    0  0.00000000000E+00  0.00000000000E+00 -0.52700916159E+03  0.52700916160E+03  0.25500000920E-02 0.  1.
    10030    2    1    2    0    0  0.00000000000E+00  0.00000000000E+00  0.45311067383E+03  0.15071289970E+04  0.14374033988E+04 0.  0.
        4    1    3    3  502    0  0.44282242089E+03 -0.54412227374E+03  0.62874621523E+02  0.70435472324E+03  0.12699999809E+01 0. -1.
       -4    1    3    3    0  502 -0.44282242089E+03  0.54412227374E+03  0.39023605231E+03  0.80277427378E+03  0.12699999809E+01 0.  1.
</event>
<event>
 5   0  0.1097156E-03  0.1580577E+04  0.7818609E-02  0.8832570E-01
       -2   -1    0    0    0  501  0.00000000000E+00  0.00000000000E+00  0.40288343787E+03  0.40288343788E+03  0.25500000920E-02 0.  1.
        2   -1    0    0  501    0  0.00000000000E+00  0.00000000000E+00 -0.15502155380E+04  0.15502155381E+04  0.25500000920E-02 0. -1.
    10030    2    1    2    0    0  0.00000000000E+00  0.00000000000E+00 -0.11473321002E+04  0.19530989759E+04  0.15805773191E+04 0.  0.
        2    1    3    3  502    0 -0.59053126247E+03 -0.52426879232E+03 -0.53515646419E+03  0.95392734509E+03  0.25500000920E-02 0. -1.
       -2    1    3    3    0  502  0.59053126247E+03  0.52426879232E+03 -0.61217563599E+03  0.99917163083E+03  0.25500000920E-02 0.  1.
</event>
<event>
 5   0  0.6146552E-04  0.1543274E+04  0.7818609E-02  0.8856176E-01
        1   -1    0    0  501    0  0.00000000000E+00  0.00000000000E+00  0.10473729037E+04  0.10473729037E+04  0.50400001928E-02 0.  1.
       -1   -1    0    0    0  501  0.00000000000E+00  0.00000000000E+00 -0.56849221360E+03  0.56849221362E+03  0.50400001928E-02 0. -1.
    10030    2    1    2    0    0  0.00000000000E+00  0.00000000000E+00  0.47888069009E+03  0.16158651173E+04  0.15432735862E+04 0.  0.
        5    1    3    3  502    0  0.17786039105E+03 -0.21840054557E+03 -0.51272912875E+03  0.58501826166E+03  0.46999998093E+01 0. -1.
       -5    1    3    3    0  502 -0.17786039105E+03  0.21840054557E+03  0.99160981884E+03  0.10308468557E+04  0.46999998093E+01 0.  1.
</event>
<event>
 5   0  0.1082667E-03  0.1473410E+04  0.7818609E-02  0.8902330E-01
        2   -1    0    0  501    0  0.00000000000E+00  0.00000000000E+00  0.31813877384E+03  0.31813877385E+03  0.25500000920E-02 0. -1.
       -2   -1    0    0    0  501  0.00000000000E+00  0.00000000000E+00 -0.17059669651E+04  0.17059669651E+04  0.25500000920E-02 0.  1.
    10030    2    1    2    0    0  0.00000000000E+00  0.00000000000E+00 -0.13878281913E+04  0.20241057390E+04  0.14734099749E+04 0.  0.
        5    1    3    3  502    0 -0.19586750922E+03  0.26570863729E+03  0.21083430962E+03  0.39171208459E+03  0.46999998093E+01 0. -1.
       -5    1    3    3    0  502  0.19586750922E+03 -0.26570863729E+03 -0.15986625009E+04  0.16323936544E+04  0.46999998093E+01 0.  1.
</event>
<event>
 5   0  0.1097156E-03  0.1490892E+04  0.7818609E-02  0.8890532E-01
       -2   -1    0    0    0  501  0.00000000000E+00  0.00000000000E+00  0.44329752606E+03  0.44329752607E+03  0.25500000920E-02 0. -1.
        2   -1    0    0  501    0  0.00000000000E+00  0.00000000000E+00 -0.12535369987E+04  0.12535369987E+04  0.25500000920E-02 0.  1.
    10030    2    1    2    0    0  0.00000000000E+00  0.00000000000E+00 -0.81023947263E+03  0.16968345248E+04  0.14908921495E+04 0.  0.
        2    1    3    3  502    0 -0.36610754284E+03  0.15142259980E+03 -0.11237917167E+04  0.11915835511E+04  0.25500000920E-02 0.  1.
       -2    1    3    3    0  502  0.36610754284E+03 -0.15142259980E+03  0.31355224407E+03  0.50525097370E+03  0.25500000920E-02 0. -1.
</event>
<event>
 5   0  0.5914645E-04  0.1498878E+04  0.7818609E-02  0.8885199E-01
       -1   -1    0    0    0  501  0.00000000000E+00  0.00000000000E+00  0.72400152934E+03  0.72400152935E+03  0.50400001928E-02 0. -1.
        1   -1    0    0  501    0  0.00000000000E+00  0.00000000000E+00 -0.77577026020E+03  0.77577026021E+03  0.50400001928E-02 0.  1.
    10030    2    1    2    0    0  0.00000000000E+00  0.00000000000E+00 -0.51768730862E+02  0.14997717896E+04  0.14988780535E+04 0.  0.
        2    1    3    3  502    0 -0.54935750613E+03  0.35347974071E+03  0.34164549783E+03  0.73719959497E+03  0.25500000920E-02 0. -1.
       -2    1    3    3    0  502  0.54935750613E+03 -0.35347974071E+03 -0.39341422869E+03  0.76257219460E+03  0.25500000920E-02 0.  1.
</event>
<event>
 5   0  0.5840834E-04  0.1490959E+04  0.7818609E-02  0.8890487E-01
        1   -1    0    0  501    0  0.00000000000E+00  0.00000000000E+00  0.11829781507E+04  0.11829781507E+04  0.50400001928E-02 0. -1.
       -1   -1    0    0    0  501  0.00000000000E+00  0.00000000000E+00 -0.46978016050E+03  0.46978016053E+03  0.50400001928E-02 0.  1.
    10030    2    1    2    0    0  0.00000000000E+00  0.00000000000E+00  0.71319799023E+03  0.16527583113E+04  0.14909589740E+04 0.  0.
        3    1    3    3  502    0  0.73773604899E+03  0.70617910548E+02  0.44595899037E+03  0.86493976585E+03  0.10100000352E+00 0.  1.
       -3    1    3    3    0  502 -0.73773604899E+03 -0.70617910548E+02  0.26723899986E+03  0.78781854542E+03  0.10100000352E+00 0. -1.
</event>
<event>
 5   0  0.1149716E-03  0.1380454E+04  0.7818609E-02  0.8968090E-01
        2   -1    0    0  501    0  0.00000000000E+00  0.00000000000E+00  0.79263724233E+03  0.79263724233E+03  0.25500000920E-02 0.  1.
       -2   -1    0    0    0  501  0.00000000000E+00  0.00000000000E+00 -0.60104799773E+03  0.60104799773E+03  0.25500000920E-02 0. -1.
    10030    2    1    2    0    0  0.00000000000E+00  0.00000000000E+00  0.19158924460E+03  0.13936852401E+04  0.13804535884E+04 0.  0.
        1    1    3    3  502    0 -0.17518688151E+03 -0.25030388917E+03  0.72065397063E+03  0.78274173634E+03  0.50400001928E-02 0.  1.
       -1    1    3    3    0  502  0.17518688151E+03  0.25030388917E+03 -0.52906472604E+03  0.61094350373E+03  0.50400001928E-02 0. -1.
</event>
<event>
 5   0  0.5840834E-04  0.1476707E+04  0.7818609E-02  0.8900092E-01
        1   -1    0    0  501    0  0.00000000000E+00  0.00000000000E+00  0.10737825841E+04  0.10737825842E+04  0.50400001928E-02 0. -1.
       -1   -1    0    0    0  501  0.00000000000E+00  0.00000000000E+00 -0.50770587705E+03  0.50770587707E+03  0.50400001928E-02 0.  1.
    10030    2    1    2    0    0  0.00000000000E+00  0.00000000000E+00  0.56607670709E+03  0.15814884612E+04  0.14767067802E+04 0.  0.
        3    1    3    3  502    0 -0.47320590790E+03  0.53476674237E+03  0.81919661114E+02  0.71875596769E+03  0.10100000352E+00 0. -1.
       -3    1    3    3    0  502  0.47320590790E+03 -0.53476674237E+03  0.48415704598E+03  0.86273249353E+03  0.10100000352E+00 0.  1.
</event>
<event>
 5   0  0.1097156E-03  0.1496217E+04  0.7818609E-02  0.8886973E-01
        2   -1    0    0  501    0  0.00000000000E+00  0.00000000000E+00  0.16317733176E+04  0.16317733176E+04  0.25500000920E-02 0.  1.
       -2   -1    0    0    0  501  0.00000000000E+00  0.00000000000E+00 -0.34298029331E+03  0.34298029332E+03  0.25500000920E-02 0. -1.
    10030    2    1    2    0    0  0.00000000000E+00  0.00000000000E+00  0.12887930243E+04  0.19747536109E+04  0.14962166836E+04 0.  0.
        2    1    3    3  502    0  0.54544851751E+03  0.41126921397E+03  0.10469118224E+04  0.12500723241E+04  0.25500000920E-02 0.  1.
       -2    1    3    3    0  502 -0.54544851751E+03 -0.41126921397E+03  0.24188120189E+03  0.72468128681E+03  0.25500000920E-02 0. -1.
</event>
<event>
 5   0  0.1126175E-03  0.1488537E+04  0.7818609E-02  0.8892112E-01
        2   -1    0    0  501    0  0.00000000000E+00  0.00000000000E+00  0.11758539220E+04  0.11758539220E+04  0.25500000920E-02 0.  1.
       -2   -1    0    0    0  501  0.00000000000E+00  0.00000000000E+00 -0.47109228461E+03  0.47109228462E+03  0.25500000920E-02 0. -1.
    10030    2    1    2    0    0  0.00000000000E+00  0.00000000000E+00  0.70476163737E+03  0.16469462066E+04  0.14885371483E+04 0.  0.
        3    1    3    3  502    0 -0.42294338542E+03 -0.58650593157E+03  0.54739136935E+03  0.90692206748E+03  0.10100000352E+00 0.  1.
       -3    1    3    3    0  502  0.42294338542E+03  0.58650593157E+03  0.15737026802E+03  0.74002413913E+03  0.10100000352E+00 0. -1.
</event>
<event>
 5   0  0.1149716E-03  0.1509875E+04  0.7818609E-02  0.8877913E-01
        2   -1    0    0  501    0  0.00000000000E+00  0.00000000000E+00  0.21173159870E+04  0.21173159870E+04  0.25500000920E-02 0. -1.
       -2   -1    0    0    0  501  0.00000000000E+00  0.00000000000E+00 -0.26917600928E+03  0.26917600929E+03  0.25500000920E-02 0.  1.
    10030    2    1    2    0    0  0.00000000000E+00  0.00000000000E+00  0.18481399777E+04  0.23864919963E+04  0.15098750515E+04 0.  0.
        1    1    3    3  502    0  0.66884116631E+03 -0.29543555034E+03  0.62710427491E+03  0.96327070017E+03  0.50400001928E-02 0.  1.
       -1    1    3    3    0  502 -0.66884116631E+03  0.29543555034E+03  0.12210357028E+04  0.14232212961E+04  0.50400001928E-02 0. -1.
</event>
<event>
 5   0  0.1082667E-03  0.1466603E+04  0.7818609E-02  0.8906970E-01
        2   -1    0    0  501    0  0.00000000000E+00  0.00000000000E+00  0.46001993808E+03  0.46001993809E+03  0.25500000920E-02 0. -1.
       -2   -1    0    0    0  501  0.00000000000E+00  0.00000000000E+00 -0.11689299506E+04  0.11689299506E+04  0.25500000920E-02 0.  1.
    10030    2    1    2    0    0  0.00000000000E+00  0.00000000000E+00 -0.70891001249E+03  0.16289498887E+04  0.14666029913E+04 0.  0.
        5    1    3    3  502    0 -0.24842253402E+02  0.65210194924E+03 -0.72592408787E+03  0.97613624106E+03  0.46999998093E+01 0.  1.
       -5    1    3    3    0  502  0.24842253402E+02 -0.65210194924E+03  0.17014075379E+02  0.65281364762E+03  0.46999998093E+01 0. -1.
</event>
<event>
 5   0  0.5606965E-04  0.1479918E+04  0.7818609E-02  0.8897918E-01
        1   -1    0    0  501    0  0.00000000000E+00  0.00000000000E+00  0.67627495514E+03  0.67627495516E+03  0.50400001928E-02 0.  1.
       -1   -1    0    0    0  501  0.00000000000E+00  0.00000000000E+00 -0.80964040844E+03  0.80964040845E+03  0.50400001928E-02 0. -1.
    10030    2    1    2    0    0  0.00000000000E+00  0.00000000000E+00 -0.13336545330E+03  0.14859153636E+04  0.14799182828E+04 0.  0.
        4    1    3    3  502    0  0.40855278770E+03  0.16085381672E+03  0.53133860403E+03  0.68928343642E+03  0.12699999809E+01 0.  1.
       -4    1    3    3    0  502 -0.40855278770E+03 -0.16085381672E+03 -0.66470405733E+03  0.79663192719E+03  0.12699999809E+01 0. -1.
</event>
<event>
 5   0  0.6146552E-04  0.1496437E+04  0.7818609E-02  0.8886826E-01
        1   -1    0    0  501    0  0.00000000000E+00  0.00000000000E+00  0.19828891739E+04  0.19828891739E+04  0.50400001928E-02 0.  1.
       -1   -1    0    0    0  501  0.00000000000E+00  0.00000000000E+00 -0.28233097565E+03  0.28233097570E+03  0.50400001928E-02 0. -1.
    10030    2    1    2    0    0  0.00000000000E+00  0.00000000000E+00  0.17005581983E+04  0.22652201496E+04  0.14964371489E+04 0.  0.
        5    1    3    3  502    0  0.31024486586E+03  0.23476658779E+03  0.18177033772E+04  0.18588800083E+04  0.46999998093E+01 0.  1.
       -5    1    3    3    0  502 -0.31024486586E+03 -0.23476658779E+03 -0.11714517895E+03  0.40634014136E+03  0.46999998093E+01 0. -1.
</event>
<event>
 5   0  0.1147755E-03  0.1492309E+04  0.7818609E-02  0.8889583E-01
       -2   -1    0    0    0  501  0.00000000000E+00  0.00000000000E+00  0.43285420936E+03  0.43285420937E+03  0.25500000920E-02 0.  1.
        2   -1    0    0  501    0  0.00000000000E+00  0.00000000000E+00 -0.12862222063E+04  0.12862222063E+04  0.25500000920E-02 0. -1.
    10030    2    1    2    0    0  0.00000000000E+00  0.00000000000E+00 -0.85336799697E+03  0.17190764157E+04  0.14923092122E+04 0.  0.
        4    1    3    3  502    0 -0.15755757184E+03  0.25387531368E+03 -0.12142959816E+04  0.12505172558E+04  0.12699999809E+01 0. -1.
       -4    1    3    3    0  502  0.15755757184E+03 -0.25387531368E+03  0.36092798461E+03  0.46855915988E+03  0.12699999809E+01 0.  1.
</event>
<event>
 5   0  0.5606965E-04  0.1488421E+04  0.7818609E-02  0.8892189E-01
       -1   -1    0    0    0  501  0.00000000000E+00  0.00000000000E+00  0.41718533419E+03  0.41718533422E+03  0.50400001928E-02 0.  1.
        1   -1    0    0  501    0  0.00000000000E+00  0.00000000000E+00 -0.13275863943E+04  0.13275863943E+04  0.50400001928E-02 0. -1.
    10030    2    1    2    0    0  0.00000000000E+00  0.00000000000E+00 -0.91040106010E+03  0.17447717285E+04  0.14884214102E+04 0.  0.
        4    1    3    3  502    0 -0.56664704676E+03 -0.23606329691E+03  0.38018781759E+02  0.61502991506E+03  0.12699999809E+01 0.  1.
       -4    1    3    3    0  502  0.56664704676E+03  0.23606329691E+03 -0.94841984186E+03  0.11297418135E+04  0.12699999809E+01 0. -1.
</event>
<event>
 5   0  0.5924403E-04  0.1492580E+04  0.7818609E-02  0.8889402E-01
        1   -1    0    0  501    0  0.00000000000E+00  0.00000000000E+00  0.23529462807E+04  0.23529462808E+04  0.50400001928E-02 0. -1.
       -1   -1    0    0    0  501  0.00000000000E+00  0.00000000000E+00 -0.23670269091E+03  0.23670269096E+03  0.50400001928E-02 0.  1.
    10030    2    1    2    0    0  0.00000000000E+00  0.00000000000E+00  0.21162435898E+04  0.25896489717E+04  0.14925799359E+04 0.  0.
        1    1    3    3  502    0 -0.52614343710E+03  0.36147675578E+03  0.17288715039E+04  0.18429566024E+04  0.50400001928E-02 0.  1.
       -1    1    3    3    0  502  0.52614343710E+03 -0.36147675578E+03  0.38737208593E+03  0.74669236929E+03  0.50400001928E-02 0. -1.
</event>
<event>
 5   0  0.1149716E-03  0.1509162E+04  0.7818609E-02  0.8878383E-01
       -2   -1    0    0    0  501  0.00000000000E+00  0.00000000000E+00  0.96119807351E+03  0.96119807351E+03  0.25500000920E-02 0.  1.
        2   -1    0    0  501    0  0.00000000000E+00  0.00000000000E+00 -0.59237753274E+03  0.59237753275E+03  0.25500000920E-02 0. -1.
    10030    2    1    2    0    0  0.00000000000E+00  0.00000000000E+00  0.36882054076E+03  0.15535756063E+04  0.15091615464E+04 0.  0.
        1    1    3    3  502    0  0.13885715333E+02  0.40398337719E+03  0.84034095402E+03  0.93250646173E+03  0.50400001928E-02 0.  1.
       -1    1    3    3    0  502 -0.13885715333E+02 -0.40398337719E+03 -0.47152041326E+03  0.62106914453E+03  0.50400001928E-02 0. -1.
</event>
<event>
 5   0  0.6146552E-04  0.1334316E+04  0.7818609E-02  0.9002786E-01
       -1   -1    0    0    0  501  0.00000000000E+00  0.00000000000E+00  0.36197822324E+03  0.36197822327E+03  0.50400001928E-02 0. -1.
        1   -1    0    0  501    0  0.00000000000E+00  0.00000000000E+00 -0.12296311985E+04  0.12296311985E+04  0.50400001928E-02 0.  1.
    10030    2    1    2    0    0  0.00000000000E+00  0.00000000000E+00 -0.86765297530E+03  0.15916094218E+04  0.13343158794E+04 0.  0.
        5    1    3    3  502    0  0.33042719538E+03  0.12521448292E+03  0.24116752830E+03  0.42783719437E+03  0.46999998093E+01 0. -1.
       -5    1    3    3    0  502 -0.33042719538E+03 -0.12521448292E+03 -0.11088205036E+04  0.11637722274E+04  0.46999998093E+01 0.  1.
</event>
<event>
 5   0  0.1147755E-03  0.1474323E+04  0.7818609E-02  0.8901710E-01
       -2   -1    0    0    0  501  0.00000000000E+00  0.00000000000E+00  0.54185230693E+03  0.54185230694E+03  0.25500000920E-02 0. -1.
        2   -1    0    0  501    0  0.00000000000E+00  0.00000000000E+00 -0.10028696257E+04  0.10028696257E+04  0.25500000920E-02 0.  1.
    10030    2    1    2    0    0  0.00000000000E+00  0.00000000000E+00 -0.46101731878E+03  0.15447219327E+04  0.14743231942E+04 0.  0.
        4    1    3    3  502    0 -0.72399720970E+03  0.10605027185E+02 -0.85626479281E+02  0.72912134320E+03  0.12699999809E+01 0. -1.
       -4    1    3    3    0  502  0.72399720970E+03 -0.10605027185E+02 -0.37539083950E+03  0.81560058946E+03  0.12699999809E+01 0.  1.
</event>
<event>
 5   0  0.1149716E-03  0.1503035E+04  0.7818609E-02  0.8882437E-01
       -2   -1    0    0    0  501  0.00000000000E+00  0.00000000000E+00  0.24748916808E+03  0.24748916809E+03  0.25500000920E-02 0. -1.
        2   -1    0    0  501    0  0.00000000000E+00  0.00000000000E+00 -0.22820339016E+04  0.22820339016E+04  0.25500000920E-02 0.  1.
    10030    2    1    2    0    0  0.00000000000E+00  0.00000000000E+00 -0.20345447335E+04  0.25295230697E+04  0.15030351584E+04 0.  0.
        1    1    3    3  502    0 -0.23390861597E+03  0.41118364783E+03 -0.34523579714E+02  0.47431752071E+03  0.50400001928E-02 0. -1.
       -1    1    3    3    0  502  0.23390861597E+03 -0.41118364783E+03 -0.20000211538E+04  0.20552055490E+04  0.50400001928E-02 0.  1.
</event>
<event>
 5   0  0.1126175E-03  0.1537194E+04  0.7818609E-02  0.8860089E-01
        2   -1    0    0  501    0  0.00000000000E+00  0.00000000000E+00  0.18760268300E+04  0.18760268300E+04  0.25500000920E-02 0.  1.
       -2   -1    0    0    0  501  0.00000000000E+00  0.00000000000E+00 -0.31488964804E+03  0.31488964806E+03  0.25500000920E-02 0. -1.
    10030    2    1    2    0    0  0.00000000000E+00  0.00000000000E+00  0.15611371819E+04  0.21909164780E+04  0.15371941039E+04 0.  0.
        3    1    3    3  502    0 -0.33652331899E+03 -0.10116691239E+02 -0.20420021414E+03  0.39376138628E+03  0.10100000352E+00 0. -1.
       -3    1    3    3    0  502  0.33652331899E+03  0.10116691239E+02  0.17653373961E+04  0.17971550918E+04  0.10100000352E+00 0.  1.
</event>
<event>
 5   0  0.1097156E-03  0.1507427E+04  0.7818609E-02  0.8879529E-01
       -2   -1    0    0    0  501  0.00000000000E+00  0.00000000000E+00  0.66465073414E+03  0.66465073415E+03  0.25500000920E-02 0.  1.
        2   -1    0    0  501    0  0.00000000000E+00  0.00000000000E+00 -0.85471068599E+03  0.85471068600E+03  0.25500000920E-02 0. -1.
    10030    2    1    2    0    0  0.00000000000E+00  0.00000000000E+00 -0.19005995185E+03  0.15193614201E+04  0.15074270595E+04 0.  0.
        2    1    3    3  502    0  0.80277123933E+02 -0.68207651858E+03 -0.40798990666E+03  0.79882949230E+03  0.25500000920E-02 0.  1.
       -2    1    3    3    0  502 -0.80277123933E+02  0.68207651858E+03  0.21792995480E+03  0.72053192784E+03  0.25500000920E-02 0. -1.
</event>
<event>
 5   0  0.1149716E-03  0.1515306E+04  0.7818609E-02  0.8874338E-01
        2   -1    0    0  501    0  0.00000000000E+00  0.00000000000E+00  0.18974520470E+04  0.18974520470E+04  0.25500000920E-02 0.  1.
       -2   -1    0    0    0  501  0.00000000000E+00  0.00000000000E+00 -0.30253097280E+03  0.30253097281E+03  0.25500000920E-02 0. -1.
    10030    2    1    2    0    0  0.00000000000E+00  0.00000000000E+00  0.15949210742E+04  0.21999830198E+04  0.15153059277E+04 0.  0.
        1    1    3    3  502    0  0.54037945242E+03 -0.53099653117E+03  0.80967196713E+03  0.11088444269E+04  0.50400001928E-02 0. -1.
       -1    1    3    3    0  502 -0.54037945242E+03  0.53099653117E+03  0.78524910705E+03  0.10911385929E+04  0.50400001928E-02 0.  1.
</event>
<event>
 5   0  0.1082667E-03  0.1494991E+04  0.7818609E-02  0.8887791E-01
       -2   -1    0    0    0  501  0.00000000000E+00  0.00000000000E+00  0.68999315472E+03  0.68999315473E+03  0.25500000920E-02 0.  1.
        2   -1    0    0  501    0  0.00000000000E+00  0.00000000000E+00 -0.80978951000E+03  0.80978951000E+03  0.25500000920E-02 0. -1.
    10030    2    1    2    0    0  0.00000000000E+00  0.00000000000E+00 -0.11979635528E+03  0.14997826647E+04  0.14949905935E+04 0.  0.
        5    1    3    3  502    0  0.60254219441E+03  0.34423237872E+03  0.21879456656E+03  0.72763052366E+03  0.46999998093E+01 0.  1.
       -5    1    3    3    0  502 -0.60254219441E+03 -0.34423237872E+03 -0.33859092183E+03  0.77215214107E+03  0.46999998093E+01 0. -1.
</event>
<event>
 5   0  0.1097156E-03  0.1499151E+04  0.7818609E-02  0.8885017E-01
        2   -1    0    0  501    0  0.00000000000E+00  0.00000000000E+00  0.51669734232E+03  0.51669734232E+03  0.25500000920E-02 0. -1.
       -2   -1    0    0    0  501  0.00000000000E+00  0.00000000000E+00 -0.10874135797E+04  0.10874135797E+04  0.25500000920E-02 0.  1.
    10030    2    1    2    0    0  0.00000000000E+00  0.00000000000E+00 -0.57071623734E+03  0.16041109220E+04  0.14991513688E+04 0.  0.
        2    1    3    3  502    0  0.36168816958E+03  0.15308003662E+03 -0.96850222390E+03  0.10451068784E+04  0.25500000920E-02 0.  1.
       -2    1    3    3    0  502 -0.36168816958E+03 -0.15308003662E+03  0.39778598655E+03  0.55900404357E+03  0.25500000920E-02 0. -1.
</event>
<event>
 5   0  0.5840834E-04  0.1338477E+04  0.7818609E-02  0.8999597E-01
        1   -1    0    0  501    0  0.00000000000E+00  0.00000000000E+00  0.40916646289E+03  0.40916646292E+03  0.50400001928E-02 0.  1.
       -1   -1    0    0    0  501  0.00000000000E+00  0.00000000000E+00 -0.10946166309E+04  0.10946166309E+04  0.50400001928E-02 0. -1.
    10030    2    1    2    0    0  0.00000000000E+00  0.00000000000E+00 -0.68545016800E+03  0.15037830938E+04  0.13384773664E+04 0.  0.
        3    1    3    3  502    0  0.32832323788E+03  0.11334509136E+03  0.29997072053E+03  0.45893975819E+03  0.10100000352E+00 0.  1.
       -3    1    3    3    0  502 -0.32832323788E+03 -0.11334509136E+03 -0.98542088853E+03  0.10448433356E+04  0.10100000352E+00 0. -1.
</event>
<event>
 5   0  0.5924403E-04  0.1483902E+04  0.7818609E-02  0.8895229E-01
       -1   -1    0    0    0  501  0.00000000000E+00  0.00000000000E+00  0.37400803126E+03  0.37400803130E+03  0.50400001928E-02 0.  1.
        1   -1    0    0  501    0  0.00000000000E+00  0.00000000000E+00 -0.14718702028E+04  0.14718702028E+04  0.50400001928E-02 0. -1.
    10030    2    1    2    0    0  0.00000000000E+00  0.00000000000E+00 -0.10978621715E+04  0.18458782341E+04  0.14839019871E+04 0.  0.
        1    1    3    3  502    0  0.60809659205E+03 -0.19203336194E+03 -0.10206975885E+04  0.12035289130E+04  0.50400001928E-02 0. -1.
       -1    1    3    3    0  502 -0.60809659205E+03  0.19203336194E+03 -0.77164583041E+02  0.64234932105E+03  0.50400001928E-02 0.  1.
</event>
<event>
 5   0  0.1097156E-03  0.1504328E+04  0.7818609E-02  0.8881580E-01
        2   -1    0    0  501    0  0.00000000000E+00  0.00000000000E+00  0.10646384069E+04  0.10646384069E+04  0.25500000920E-02 0. -1.
       -2   -1    0    0    0  501  0.00000000000E+00  0.00000000000E+00 -0.53140181000E+03  0.53140181001E+03  0.25500000920E-02 0.  1.
    10030    2    1    2    0    0  0.00000000000E+00  0.00000000000E+00  0.53323659694E+03  0.15960402170E+04  0.15043281244E+04 0.  0.
        2    1    3    3  502    0  0.17632149688E+03 -0.72782574689E+03  0.34112186292E+03  0.82291172884E+03  0.25500000920E-02 0. -1.
       -2    1    3    3    0  502 -0.17632149688E+03  0.72782574689E+03  0.19211473402E+03  0.77312848811E+03  0.25500000920E-02 0.  1.
</event>
<event>
 5   0  0.1082667E-03  0.1449345E+04  0.7818609E-02  0.8918855E-01
       -2   -1    0    0    0  501  0.00000000000E+00  0.00000000000E+00  0.43241802546E+03  0.43241802547E+03  0.25500000920E-02 0.  1.
        2   -1    0    0  501    0  0.00000000000E+00  0.00000000000E+00 -0.12144504033E+04  0.12144504033E+04  0.25500000920E-02 0. -1.
    10030    2    1    2    0    0  0.00000000000E+00  0.00000000000E+00 -0.78203237785E+03  0.16468684288E+04  0.14493450182E+04 0.  0.
        5    1    3    3  502    0  0.34831114571E+03  0.39386804086E+03 -0.95765144592E+03  0.10925067825E+04  0.46999998093E+01 0. -1.
       -5    1    3    3    0  502 -0.34831114571E+03 -0.39386804086E+03  0.17561906807E+03  0.55436164632E+03  0.46999998093E+01 0.  1.
</event>
<event>
 5   0  0.1082667E-03  0.1490751E+04  0.7818609E-02  0.8890627E-01
        2   -1    0    0  501    0  0.00000000000E+00  0.00000000000E+00  0.10666351651E+04  0.10666351651E+04  0.25500000920E-02 0.  1.
       -2   -1    0    0    0  501  0.00000000000E+00  0.00000000000E+00 -0.52087603801E+03  0.52087603801E+03  0.25500000920E-02 0. -1.
    10030    2    1    2    0    0  0.00000000000E+00  0.00000000000E+00  0.54575912709E+03  0.15875112031E+04  0.14907510843E+04 0.  0.
        5    1    3    3  502    0  0.27988875771E+03  0.43435004842E+03  0.84492883603E+03  0.99041633125E+03  0.46999998093E+01 0.  1.
       -5    1    3    3    0  502 -0.27988875771E+03 -0.43435004842E+03 -0.29916970894E+03  0.59709487186E+03  0.46999998093E+01 0. -1.
</event>
<event>
 5   0  0.5606965E-04  0.1472013E+04  0.7818609E-02  0.8903280E-01
        1   -1    0    0  501    0  0.00000000000E+00  0.00000000000E+00  0.20994651595E+04  0.20994651595E+04  0.50400001928E-02 0.  1.
       -1   -1    0    0    0  501  0.00000000000E+00  0.00000000000E+00 -0.25802069710E+03  0.25802069715E+03  0.50400001928E-02 0. -1.
    10030    2    1    2    0    0  0.00000000000E+00  0.00000000000E+00  0.18414444624E+04  0.23574858567E+04  0.14720128587E+04 0.  0.
        4    1    3    3  502    0 -0.44650517189E+03  0.58198824769E+03  0.82427471585E+03  0.11034072725E+04  0.12699999809E+01 0.  1.
       -4    1    3    3    0  502  0.44650517189E+03 -0.58198824769E+03  0.10171697465E+04  0.12540785841E+04  0.12699999809E+01 0. -1.
</event>
<event>
 5   0  0.6146552E-04  0.1511436E+04  0.7818609E-02  0.8876884E-01
        1   -1    0    0  501    0  0.00000000000E+00  0.00000000000E+00  0.20055506398E+04  0.20055506399E+04  0.50400001928E-02 0. -1.
       -1   -1    0    0    0  501  0.00000000000E+00  0.00000000000E+00 -0.28476438599E+03  0.28476438603E+03  0.50400001928E-02 0.  1.
    10030    2    1    2    0    0  0.00000000000E+00  0.00000000000E+00  0.17207862539E+04  0.22903150259E+04  0.15114356044E+04 0.  0.
        5    1    3    3  502    0  0.32744354846E+03  0.48055502923E+03  0.15917390565E+04  0.16946408845E+04  0.46999998093E+01 0. -1.
       -5    1    3    3    0  502 -0.32744354846E+03 -0.48055502923E+03  0.12904719738E+03  0.59567414137E+03  0.46999998093E+01 0.  1.
</event>
<event>
 5   0  0.1149716E-03  0.1506328E+04  0.7818609E-02  0.8880256E-01
        2   -1    0    0  501    0  0.00000000000E+00  0.00000000000E+00  0.14407004524E+04  0.14407004524E+04  0.25500000920E-02 0. -1.
       -2   -1    0    0    0  501  0.00000000000E+00  0.00000000000E+00 -0.39373601294E+03  0.39373601295E+03  0.25500000920E-02 0.  1.
    10030    2    1    2    0    0  0.00000000000E+00  0.00000000000E+00  0.10469644395E+04  0.18344364653E+04  0.15063275235E+04 0.  0.
        1    1    3    3  502    0  0.22005505883E+03 -0.25019937109E+03 -0.29909369874E+03  0.44775104116E+03  0.50400001928E-02 0.  1.
       -1    1    3    3    0  502 -0.22005505883E+03  0.25019937109E+03  0.13460581382E+04  0.13866854242E+04  0.50400001928E-02 0. -1.
</event>
<event>
 5   0  0.1147755E-03  0.1538253E+04  0.7818609E-02  0.8859406E-01
       -2   -1    0    0    0  501  0.00000000000E+00  0.00000000000E+00  0.12315859599E+04  0.12315859599E+04  0.25500000920E-02 0. -1.
        2   -1    0    0  501    0  0.00000000000E+00  0.00000000000E+00 -0.48032020627E+03  0.48032020628E+03  0.25500000920E-02 0.  1.
    10030    2    1    2    0    0  0.00000000000E+00  0.00000000000E+00  0.75126575365E+03  0.17119061662E+04  0.15382530641E+04 0.  0.
        4    1    3    3  502    0  0.27519542750E+02  0.33838745617E+03  0.11436805519E+04  0.11930088907E+04  0.12699999809E+01 0. -1.
       -4    1    3    3    0  502 -0.27519542750E+02 -0.33838745617E+03 -0.39241479822E+03  0.51889727547E+03  0.12699999809E+01 0.  1.
</event>
<event>
 5   0  0.1097156E-03  0.1493940E+04  0.7818609E-02  0.8888493E-01
        2   -1    0    0  501    0  0.00000000000E+00  0.00000000000E+00  0.42811026869E+03  0.42811026870E+03  0.25500000920E-02 0.  1.
       -2   -1    0    0    0  501  0.00000000000E+00  0.00000000000E+00 -0.13033183867E+04  0.13033183867E+04  0.25500000920E-02 0. -1.
    10030    2    1    2    0    0  0.00000000000E+00  0.00000000000E+00 -0.87520811803E+03  0.17314286554E+04  0.14939397374E+04 0.  0.
        2    1    3    3  502    0 -0.65021890591E+02 -0.41790859041E+03 -0.11511827201E+04  0.12264163613E+04  0.25500000920E-02 0. -1.
       -2    1    3    3    0  502  0.65021890591E+02  0.41790859041E+03  0.27597460209E+03  0.50501229410E+03  0.25500000920E-02 0.  1.
</event>
<event>
 5   0  0.1097156E-03  0.1499112E+04  0.7818609E-02  0.8885044E-01
        2   -1    0    0  501    0  0.00000000000E+00  0.00000000000E+00  0.66498560437E+03  0.66498560438E+03  0.25500000920E-02 0. -1.
       -2   -1    0    0    0  501  0.00000000000E+00  0.00000000000E+00 -0.84488128570E+03  0.84488128570E+03  0.25500000920E-02 0.  1.
    10030    2    1    2    0    0  0.00000000000E+00  0.00000000000E+00 -0.17989568133E+03  0.15098668901E+04  0.14991115934E+04 0.  0.
        2    1    3    3  502    0 -0.66735816440E+03 -0.30973292592E+03 -0.23426749540E+03  0.77212865793E+03  0.25500000920E-02 0. -1.
       -2    1    3    3    0  502  0.66735816440E+03  0.30973292592E+03  0.54371814070E+02  0.73773823215E+03  0.25500000920E-02 0.  1.
</event>
<event>
 5   0  0.5914645E-04  0.1511419E+04  0.7818609E-02  0.8876895E-01
       -1   -1    0    0    0  501  0.00000000000E+00  0.00000000000E+00  0.13287646848E+04  0.13287646848E+04  0.50400001928E-02 0.  1.
        1   -1    0    0  501    0  0.00000000000E+00  0.00000000000E+00 -0.42979551184E+03  0.42979551187E+03  0.50400001928E-02 0. -1.
    10030    2    1    2    0    0  0.00000000000E+00  0.00000000000E+00  0.89896917300E+03  0.17585601967E+04  0.15114193301E+04 0.  0.
        2    1    3    3  502    0  0.42344593375E+03  0.39080789530E+03  0.10183710084E+04  0.11700926376E+04  0.25500000920E-02 0.  1.
       -2    1    3    3    0  502 -0.42344593375E+03 -0.39080789530E+03 -0.11940183537E+03  0.58846755912E+03  0.25500000920E-02 0. -1.
</event>
<event>
 5   0  0.5840834E-04  0.1561658E+04  0.7818609E-02  0.8844455E-01
        1   -1    0    0  501    0  0.00000000000E+00  0.00000000000E+00  0.14658806807E+04  0.14658806807E+04  0.50400001928E-02 0. -1.
       -1   -1    0    0    0  501  0.00000000000E+00  0.00000000000E+00 -0.41592353340E+03  0.41592353343E+03  0.50400001928E-02 0.  1.
    10030    2    1    2    0    0  0.00000000000E+00  0.00000000000E+00  0.10499571473E+04  0.18818042142E+04  0.15616584419E+04 0.  0.
        3    1    3    3  502    0 -0.77815707861E+03 -0.27122283147E+02  0.59555317176E+03  0.98027937233E+03  0.10100000352E+00 0.  1.
       -3    1    3    3    0  502  0.77815707861E+03  0.27122283147E+02  0.45440397557E+03  0.90152484183E+03  0.10100000352E+00 0. -1.
</event>
<event>
 5   0  0.1082667E-03  0.1633957E+04  0.7818609E-02  0.8799954E-01
       -2   -1    0    0    0  501  0.00000000000E+00  0.00000000000E+00  0.30113092155E+03  0.30113092156E+03  0.25500000920E-02 0. -1.
        2   -1    0    0  501    0  0.00000000000E+00  0.00000000000E+00 -0.22164897580E+04  0.22164897581E+04  0.25500000920E-02 0.  1.
    10030    2    1    2    0    0  0.00000000000E+00  0.00000000000E+00 -0.19153588365E+04  0.25176206796E+04  0.16339566744E+04 0.  0.
        5    1    3    3  502    0 -0.69382243582E+03 -0.35827538245E+02 -0.16199748703E+04  0.17626723619E+04  0.46999998093E+01 0. -1.
       -5    1    3    3    0  502  0.69382243582E+03  0.35827538245E+02 -0.29538396618E+03  0.75494831771E+03  0.46999998093E+01 0.  1.
</event>
<event>
 5   0  0.1149716E-03  0.1449050E+04  0.7818609E-02  0.8919059E-01
        2   -1    0    0  501    0  0.00000000000E+00  0.00000000000E+00  0.54517840872E+03  0.54517840873E+03  0.25500000920E-02 0.  1.
       -2   -1    0    0    0  501  0.00000000000E+00  0.00000000000E+00 -0.96287106267E+03  0.96287106267E+03  0.25500000920E-02 0. -1.
    10030    2    1    2    0    0  0.00000000000E+00  0.00000000000E+00 -0.41769265395E+03  0.15080494714E+04  0.14490500526E+04 0.  0.
        1    1    3    3  502    0 -0.14239747504E+03 -0.57252199884E+03 -0.64653887501E+03  0.87525481831E+03  0.50400001928E-02 0. -1.
       -1    1    3    3    0  502  0.14239747504E+03  0.57252199884E+03  0.22884622106E+03  0.63279465309E+03  0.50400001928E-02 0.  1.
</event>
<event>
 5   0  0.5606965E-04  0.1497209E+04  0.7818609E-02  0.8886311E-01
        1   -1    0    0  501    0  0.00000000000E+00  0.00000000000E+00  0.67758848694E+03  0.67758848695E+03  0.50400001928E-02 0. -1.
       -1   -1    0    0    0  501  0.00000000000E+00  0.00000000000E+00 -0.82706328766E+03  0.82706328768E+03  0.50400001928E-02 0.  1.
    10030    2    1    2    0    0  0.00000000000E+00  0.00000000000E+00 -0.14947480073E+03  0.15046517746E+04  0.14972088187E+04 0.  0.
        4    1    3    3  502    0  0.18538917307E+03 -0.11021426862E+03  0.64568792247E+03  0.68075754613E+03  0.12699999809E+01 0. -1.
       -4    1    3    3    0  502 -0.18538917307E+03  0.11021426862E+03 -0.79516272319E+03  0.82389422850E+03  0.12699999809E+01 0.  1.
</event>
<event>
 5   0  0.5840834E-04  0.1499390E+04  0.7818609E-02  0.8884859E-01
        1   -1    0    0  501    0  0.00000000000E+00  0.00000000000E+00  0.53339869484E+03  0.53339869486E+03  0.50400001928E-02 0.  1.
       -1   -1    0    0    0  501  0.00000000000E+00  0.00000000000E+00 -0.10537008077E+04  0.10537008077E+04  0.50400001928E-02 0. -1.
    10030    2    1    2    0    0  0.00000000000E+00  0.00000000000E+00 -0.52030211289E+03  0.15870995026E+04  0.14993900568E+04 0.  0.
        3    1    3    3  502    0 -0.56817893576E+03 -0.18767558423E+03 -0.73822752932E+03  0.95027855032E+03  0.10100000352E+00 0.  1.
       -3    1    3    3    0  502  0.56817893576E+03  0.18767558423E+03  0.21792541642E+03  0.63682095229E+03  0.10100000352E+00 0. -1.
</event>
<event>
 5   0  0.1082667E-03  0.1515965E+04  0.7818609E-02  0.8873905E-01
        2   -1    0    0  501    0  0.00000000000E+00  0.00000000000E+00  0.67080695078E+03  0.67080695078E+03  0.25500000920E-02 0. -1.
       -2   -1    0    0    0  501  0.00000000000E+00  0.00000000000E+00 -0.85648693447E+03  0.85648693447E+03  0.25500000920E-02 0.  1.
    10030    2    1    2    0    0  0.00000000000E+00  0.00000000000E+00 -0.18567998369E+03  0.15272938853E+04  0.15159648926E+04 0.  0.
        5    1    3    3  502    0  0.20649927979E+03  0.45821723665E+02  0.64045492238E+03  0.67449698332E+03  0.46999998093E+01 0. -1.
       -5    1    3    3    0  502 -0.20649927979E+03 -0.45821723665E+02 -0.82613490607E+03  0.85279690193E+03  0.46999998093E+01 0.  1.
</event>
<event>
 5   0  0.4070625E-04  0.1463472E+04  0.7818609E-02  0.8909114E-01
        4   -1    0    0  501    0  0.00000000000E+00  0.00000000000E+00  0.39934942670E+03  0.39935144611E+03  0.12699999809E+01 0.  1.
       -4   -1    0    0    0  501  0.00000000000E+00  0.00000000000E+00 -0.13407685604E+04  0.13407691619E+04  0.12699999809E+01 0. -1.
    10030    2    1    2    0    0  0.00000000000E+00  0.00000000000E+00 -0.94141913373E+03  0.17401206080E+04  0.14634718122E+04 0.  0.
        3    1    3    3  502    0  0.54264177717E+03 -0.49002721490E+03 -0.50538900705E+03  0.88882215787E+03  0.10100000352E+00 0.  1.
       -3    1    3    3    0  502 -0.54264177717E+03  0.49002721490E+03 -0.43603012668E+03  0.85129845016E+03  0.10100000352E+00 0. -1.
</event>
<event>
 5   0  0.1097156E-03  0.1541832E+04  0.7818609E-02  0.8857102E-01
        2   -1    0    0  501    0  0.00000000000E+00  0.00000000000E+00  0.24841111085E+04  0.24841111085E+04  0.25500000920E-02 0. -1.
       -2   -1    0    0    0  501  0.00000000000E+00  0.00000000000E+00 -0.23924514824E+03  0.23924514826E+03  0.25500000920E-02 0.  1.
    10030    2    1    2    0    0  0.00000000000E+00  0.00000000000E+00  0.22448659602E+04  0.27233562567E+04  0.15418320666E+04 0.  0.
        2    1    3    3  502    0  0.47982917511E+03  0.28754724585E+03  0.20593978636E+04  0.21340194509E+04  0.25500000920E-02 0. -1.
       -2    1    3    3    0  502 -0.47982917511E+03 -0.28754724585E+03  0.18546809658E+03  0.58933680586E+03  0.25500000920E-02 0.  1.
</event>
<event>
 5   0  0.1147755E-03  0.1497243E+04  0.7818609E-02  0.8886288E-01
       -2   -1    0    0    0  501  0.00000000000E+00  0.00000000000E+00  0.53436693936E+03  0.53436693937E+03  0.25500000920E-02 0. -1.
        2   -1    0    0  501    0  0.00000000000E+00  0.00000000000E+00 -0.10487814017E+04  0.10487814017E+04  0.25500000920E-02 0.  1.
    10030    2    1    2    0    0  0.00000000000E+00  0.00000000000E+00 -0.51441446234E+03  0.15831483411E+04  0.14972429431E+04 0.  0.
        4    1    3    3  502    0 -0.57121980922E+03  0.48374804579E+03 -0.24523259501E+03  0.78768323634E+03  0.12699999809E+01 0. -1.
       -4    1    3    3    0  502  0.57121980922E+03 -0.48374804579E+03 -0.26918186733E+03  0.79546510474E+03  0.12699999809E+01 0.  1.
</event>
<event>
 5   0  0.5924403E-04  0.1493636E+04  0.7818609E-02  0.8888696E-01
        1   -1    0    0  501    0  0.00000000000E+00  0.00000000000E+00  0.83775167144E+03  0.83775167145E+03  0.50400001928E-02 0. -1.
       -1   -1    0    0    0  501  0.00000000000E+00  0.00000000000E+00 -0.66575495438E+03  0.66575495440E+03  0.50400001928E-02 0.  1.
    10030    2    1    2    0    0  0.00000000000E+00  0.00000000000E+00  0.17199671706E+03  0.15035066259E+04  0.14936362687E+04 0.  0.
        1    1    3    3  502    0  0.54141510950E+03 -0.45851515205E+03  0.32071484649E+03  0.77860418586E+03  0.50400001928E-02 0. -1.
       -1    1    3    3    0  502 -0.54141510950E+03  0.45851515205E+03 -0.14871812943E+03  0.72490243999E+03  0.50400001928E-02 0.  1.
</event>
<event>
 5   0  0.5924403E-04  0.1495934E+04  0.7818609E-02  0.8887162E-01
        1   -1    0    0  501    0  0.00000000000E+00  0.00000000000E+00  0.22631815355E+04  0.22631815355E+04  0.50400001928E-02 0. -1.
       -1   -1    0    0    0  501  0.00000000000E+00  0.00000000000E+00 -0.24719813746E+03  0.24719813751E+03  0.50400001928E-02 0.  1.
    10030    2    1    2    0    0  0.00000000000E+00  0.00000000000E+00  0.20159833981E+04  0.25103796731E+04  0.14959335017E+04 0.  0.
        1    1    3    3  502    0 -0.23197056829E+03  0.56722811757E+03  0.17276286808E+04  0.18331009085E+04  0.50400001928E-02 0. -1.
       -1    1    3    3    0  502  0.23197056829E+03 -0.56722811757E+03  0.28835471723E+03  0.67727876453E+03  0.50400001928E-02 0.  1.
</event>
<event>
 5   0  0.6146552E-04  0.1376958E+04  0.7818609E-02  0.8970669E-01
       -1   -1    0    0    0  501  0.00000000000E+00  0.00000000000E+00  0.60781341210E+03  0.60781341212E+03  0.50400001928E-02 0. -1.
        1   -1    0    0  501    0  0.00000000000E+00  0.00000000000E+00 -0.77984994649E+03  0.77984994650E+03  0.50400001928E-02 0.  1.
    10030    2    1    2    0    0  0.00000000000E+00  0.00000000000E+00 -0.17203653439E+03  0.13876633586E+04  0.13769578889E+04 0.  0.
        5    1    3    3  502    0  0.83843344030E+02 -0.37601628158E+03  0.48899931953E+03  0.62254347226E+03  0.46999998093E+01 0. -1.
       -5    1    3    3    0  502 -0.83843344030E+02  0.37601628158E+03 -0.66103585392E+03  0.76511988637E+03  0.46999998093E+01 0.  1.
</event>
<event>
 5   0  0.1149716E-03  0.1504930E+04  0.7818609E-02  0.8881181E-01
       -2   -1    0    0    0  501  0.00000000000E+00  0.00000000000E+00  0.29841371107E+03  0.29841371108E+03  0.25500000920E-02 0.  1.
        2   -1    0    0  501    0  0.00000000000E+00  0.00000000000E+00 -0.18973783567E+04  0.18973783567E+04  0.25500000920E-02 0. -1.
    10030    2    1    2    0    0  0.00000000000E+00  0.00000000000E+00 -0.15989646457E+04  0.21957920678E+04  0.15049301867E+04 0.  0.
        1    1    3    3  502    0  0.43932562563E+03 -0.34524301581E+03 -0.15348340414E+04  0.16333754253E+04  0.50400001928E-02 0. -1.
       -1    1    3    3    0  502 -0.43932562563E+03  0.34524301581E+03 -0.64130604224E+02  0.56241664247E+03  0.50400001928E-02 0.  1.
</event>
<event>
 5   0  0.1147755E-03  0.1483255E+04  0.7818609E-02  0.8895665E-01
       -2   -1    0    0    0  501  0.00000000000E+00  0.00000000000E+00  0.29416812807E+03  0.29416812808E+03  0.25500000920E-02 0. -1.
        2   -1    0    0  501    0  0.00000000000E+00  0.00000000000E+00 -0.18697167885E+04  0.18697167885E+04  0.25500000920E-02 0.  1.
    10030    2    1    2    0    0  0.00000000000E+00  0.00000000000E+00 -0.15755486605E+04  0.21638849166E+04  0.14832546480E+04 0.  0.
        4    1    3    3  502    0 -0.54248433245E+03  0.47756555642E+03 -0.54518219615E+03  0.90530842895E+03  0.12699999809E+01 0. -1.
       -4    1    3    3    0  502  0.54248433245E+03 -0.47756555642E+03 -0.10303664643E+04  0.12585764877E+04  0.12699999809E+01 0.  1.
</event>
<event>
 5   0  0.5606965E-04  0.1513481E+04  0.7818609E-02  0.8875537E-01
       -1   -1    0    0    0  501  0.00000000000E+00  0.00000000000E+00  0.40624861663E+03  0.40624861666E+03  0.50400001928E-02 0. -1.
        1   -1    0    0  501    0  0.00000000000E+00  0.00000000000E+00 -0.14096200039E+04  0.14096200039E+04  0.50400001928E-02 0.  1.
    10030    2    1    2    0    0  0.00000000000E+00  0.00000000000E+00 -0.10033713873E+04  0.18158686206E+04  0.15134809898E+04 0.  0.
        4    1    3    3  502    0  0.47636706948E+02 -0.74200701716E+03 -0.33281297530E+03  0.81462246396E+03  0.12699999809E+01 0. -1.
       -4    1    3    3    0  502 -0.47636706948E+02  0.74200701716E+03 -0.67055841200E+03  0.10012461566E+04  0.12699999809E+01 0.  1.
</event>
<event>
 5   0  0.6146552E-04  0.1500754E+04  0.7818609E-02  0.8883951E-01
       -1   -1    0    0    0  501  0.00000000000E+00  0.00000000000E+00  0.10817912983E+04  0.10817912984E+04  0.50400001928E-02 0. -1.
        1   -1    0    0  501    0  0.00000000000E+00  0.00000000000E+00 -0.52049406050E+03  0.52049406053E+03  0.50400001928E-02 0.  1.
    10030    2    1    2    0    0  0.00000000000E+00  0.00000000000E+00  0.56129723784E+03  0.16022853589E+04  0.15007544043E+04 0.  0.
        5    1    3    3  502    0 -0.43112868922E+03  0.38229889213E+03  0.79381066190E+03  0.98090868410E+03  0.46999998093E+01 0. -1.
       -5    1    3    3    0  502  0.43112868922E+03 -0.38229889213E+03 -0.23251342407E+03  0.62137667478E+03  0.46999998093E+01 0.  1.
</event>
<event>
 5   0  0.1149716E-03  0.1511356E+04  0.7818609E-02  0.8876936E-01
       -2   -1    0    0    0  501  0.00000000000E+00  0.00000000000E+00  0.90002162137E+03  0.90002162138E+03  0.25500000920E-02 0.  1.
        2   -1    0    0  501    0  0.00000000000E+00  0.00000000000E+00 -0.63448415625E+03  0.63448415626E+03  0.25500000920E-02 0. -1.
    10030    2    1    2    0    0  0.00000000000E+00  0.00000000000E+00  0.26553746512E+03  0.15345057776E+04  0.15113562903E+04 0.  0.
        1    1    3    3  502    0 -0.63338188351E+03 -0.29337110384E+03  0.42670300196E+03  0.81811653622E+03  0.50400001928E-02 0.  1.
       -1    1    3    3    0  502  0.63338188351E+03  0.29337110384E+03 -0.16116553684E+03  0.71638924142E+03  0.50400001928E-02 0. -1.
</event>
<event>
 5   0  0.5840834E-04  0.1453157E+04  0.7818609E-02  0.8916215E-01
        1   -1    0    0  501    0  0.00000000000E+00  0.00000000000E+00  0.63046845317E+03  0.63046845319E+03  0.50400001928E-02 0.  1.
       -1   -1    0    0    0  501  0.00000000000E+00  0.00000000000E+00 -0.83733934420E+03  0.83733934422E+03  0.50400001928E-02 0. -1.
    10030    2    1    2    0    0  0.00000000000E+00  0.00000000000E+00 -0.20687089103E+03  0.14678077974E+04  0.14531566208E+04 0.  0.
        3    1    3    3  502    0 -0.23706976084E+03 -0.11210556696E+02 -0.79708205614E+03  0.83166553524E+03  0.10100000352E+00 0. -1.
       -3    1    3    3    0  502  0.23706976084E+03  0.11210556696E+02  0.59021116511E+03  0.63614226216E+03  0.10100000352E+00 0.  1.
</event>
<event>
 5   0  0.1097156E-03  0.1514676E+04  0.7818609E-02  0.8874752E-01
        2   -1    0    0  501    0  0.00000000000E+00  0.00000000000E+00  0.14493611810E+04  0.14493611810E+04  0.25500000920E-02 0. -1.
       -2   -1    0    0    0  501  0.00000000000E+00  0.00000000000E+00 -0.39573344444E+03  0.39573344445E+03  0.25500000920E-02 0.  1.
    10030    2    1    2    0    0  0.00000000000E+00  0.00000000000E+00  0.10536277365E+04  0.18450946254E+04  0.15146757969E+04 0.  0.
        2    1    3    3  502    0 -0.43555773361E+03 -0.17902963479E+03 -0.19569964831E+03  0.50996127480E+03  0.25500000920E-02 0.  1.
       -2    1    3    3    0  502  0.43555773361E+03  0.17902963479E+03  0.12493273849E+04  0.13351333506E+04  0.25500000920E-02 0. -1.
</event>
<event>
 5   0  0.1097156E-03  0.1522784E+04  0.7818609E-02  0.8869441E-01
       -2   -1    0    0    0  501  0.00000000000E+00  0.00000000000E+00  0.46394299170E+03  0.46394299171E+03  0.25500000920E-02 0.  1.
        2   -1    0    0  501    0  0.00000000000E+00  0.00000000000E+00 -0.12495456714E+04  0.12495456714E+04  0.25500000920E-02 0. -1.
    10030    2    1    2    0    0  0.00000000000E+00  0.00000000000E+00 -0.78560267967E+03  0.17134886631E+04  0.15227842356E+04 0.  0.
        2    1    3    3  502    0 -0.15924745455E+03  0.29372598052E+03 -0.11626483281E+04  0.12097048559E+04  0.25500000920E-02 0. -1.
       -2    1    3    3    0  502  0.15924745455E+03 -0.29372598052E+03  0.37704564844E+03  0.50378380723E+03  0.25500000920E-02 0.  1.
</event>
<event>
 5   0  0.1147755E-03  0.1493635E+04  0.7818609E-02  0.8888696E-01
       -2   -1    0    0    0  501  0.00000000000E+00  0.00000000000E+00  0.41075889863E+03  0.41075889864E+03  0.25500000920E-02 0.  1.
        2   -1    0    0  501    0  0.00000000000E+00  0.00000000000E+00 -0.13578197095E+04  0.13578197095E+04  0.25500000920E-02 0. -1.
    10030    2    1    2    0    0  0.00000000000E+00  0.00000000000E+00 -0.94706081091E+03  0.17685786082E+04  0.14936352010E+04 0.  0.
        4    1    3    3  502    0 -0.67330186407E+03 -0.32222350163E+03 -0.50183777324E+03  0.89944769092E+03  0.12699999809E+01 0. -1.
       -4    1    3    3    0  502  0.67330186407E+03  0.32222350163E+03 -0.44522303768E+03  0.86913091726E+03  0.12699999809E+01 0.  1.
</event>
<event>
 5   0  0.1082667E-03  0.1509107E+04  0.7818609E-02  0.8878419E-01
       -2   -1    0    0    0  501  0.00000000000E+00  0.00000000000E+00  0.34341336919E+03  0.34341336920E+03  0.25500000920E-02 0.  1.
        2   -1    0    0  501    0  0.00000000000E+00  0.00000000000E+00 -0.16579182069E+04  0.16579182069E+04  0.25500000920E-02 0. -1.
    10030    2    1    2    0    0  0.00000000000E+00  0.00000000000E+00 -0.13145048377E+04  0.20013315761E+04  0.15091073882E+04 0.  0.
        5    1    3    3  502    0 -0.52722215346E+03 -0.27019419482E+03 -0.37545244113E+02  0.59363274620E+03  0.46999998093E+01 0.  1.
       -5    1    3    3    0  502  0.52722215346E+03  0.27019419482E+03 -0.12769595936E+04  0.14076988299E+04  0.46999998093E+01 0. -1.
</event>
<event>
 5   0  0.1149716E-03  0.1527860E+04  0.7818609E-02  0.8866135E-01
       -2   -1    0    0    0  501  0.00000000000E+00  0.00000000000E+00  0.58757253922E+03  0.58757253923E+03  0.25500000920E-02 0.  1.
        2   -1    0    0  501    0  0.00000000000E+00  0.00000000000E+00 -0.99322020882E+03  0.99322020882E+03  0.25500000920E-02 0. -1.
    10030    2    1    2    0    0  0.00000000000E+00  0.00000000000E+00 -0.40564766960E+03  0.15807927480E+04  0.15278598366E+04 0.  0.
        1    1    3    3  502    0 -0.50999835326E+03 -0.56790912221E+03 -0.17060284127E+03  0.78212813586E+03  0.50400001928E-02 0.  1.
       -1    1    3    3    0  502  0.50999835326E+03  0.56790912221E+03 -0.23504482832E+03  0.79866461219E+03  0.50400001928E-02 0. -1.
</event>
<event>
 5   0  0.1082667E-03  0.1496418E+04  0.7818609E-02  0.8886839E-01
       -2   -1    0    0    0  501  0.00000000000E+00  0.00000000000E+00  0.80263849034E+03  0.80263849035E+03  0.25500000920E-02 0. -1.
        2   -1    0    0  501    0  0.00000000000E+00  0.00000000000E+00 -0.69747031603E+03  0.69747031603E+03  0.25500000920E-02 0.  1.
    10030    2    1    2    0    0  0.00000000000E+00  0.00000000000E+00  0.10516817432E+03  0.15001088064E+04  0.14964177512E+04 0.  0.
        5    1    3    3  502    0  0.43058254743E+03  0.57079991162E+03 -0.16836956156E+03  0.73456399893E+03  0.46999998093E+01 0.  1.
       -5    1    3    3    0  502 -0.43058254743E+03 -0.57079991162E+03  0.27353773588E+03  0.76554480745E+03  0.46999998093E+01 0. -1.
</event>
<event>
 5   0  0.5606965E-04  0.1507711E+04  0.7818609E-02  0.8879341E-01
        1   -1    0    0  501    0  0.00000000000E+00  0.00000000000E+00  0.22439530648E+04  0.22439530648E+04  0.50400001928E-02 0. -1.
       -1   -1    0    0    0  501  0.00000000000E+00  0.00000000000E+00 -0.25325757886E+03  0.25325757891E+03  0.50400001928E-02 0.  1.
    10030    2    1    2    0    0  0.00000000000E+00  0.00000000000E+00  0.19906954860E+04  0.24972106437E+04  0.15077110072E+04 0.  0.
        4    1    3    3  502    0  0.15791238801E+03  0.39209228612E+03  0.20292031996E+04  0.20727614241E+04  0.12699999809E+01 0. -1.
       -4    1    3    3    0  502 -0.15791238801E+03 -0.39209228612E+03 -0.38507713651E+02  0.42444921961E+03  0.12699999809E+01 0.  1.
</event>
<event>
 5   0  0.6146552E-04  0.1545075E+04  0.7818609E-02  0.8855020E-01
        1   -1    0    0  501    0  0.00000000000E+00  0.00000000000E+00  0.51560888592E+03  0.51560888594E+03  0.50400001928E-02 0.  1.
       -1   -1    0    0    0  501  0.00000000000E+00  0.00000000000E+00 -0.11574938501E+04  0.11574938502E+04  0.50400001928E-02 0. -1.
    10030    2    1    2    0    0  0.00000000000E+00  0.00000000000E+00 -0.64188496422E+03  0.16731027361E+04  0.15450749038E+04 0.  0.
        5    1    3    3  502    0  0.23285964830E+03  0.33296118101E+03 -0.10324291089E+04  0.11095128295E+04  0.46999998093E+01 0. -1.
       -5    1    3    3    0  502 -0.23285964830E+03 -0.33296118101E+03  0.39054414470E+03  0.56358990660E+03  0.46999998093E+01 0.  1.
</event>
<event>
 5   0  0.1147755E-03  0.1515449E+04  0.7818609E-02  0.8874244E-01
       -2   -1    0    0    0  501  0.00000000000E+00  0.00000000000E+00  0.77900482133E+03  0.77900482133E+03  0.25500000920E-02 0.  1.
        2   -1    0    0  501    0  0.00000000000E+00  0.00000000000E+00 -0.73702564230E+03  0.73702564230E+03  0.25500000920E-02 0. -1.
    10030    2    1    2    0    0  0.00000000000E+00  0.00000000000E+00  0.41979179027E+02  0.15160304636E+04  0.15154491464E+04 0.  0.
        4    1    3    3  502    0 -0.65595454951E+03  0.15507268978E+03 -0.32529490138E+03  0.74842654677E+03  0.12699999809E+01 0. -1.
       -4    1    3    3    0  502  0.65595454951E+03 -0.15507268978E+03  0.36727408041E+03  0.76760391686E+03  0.12699999809E+01 0.  1.
</event>
<event>
 5   0  0.1097156E-03  0.1493965E+04  0.7818609E-02  0.8888476E-01
       -2   -1    0    0    0  501  0.00000000000E+00  0.00000000000E+00  0.39382974145E+03  0.39382974146E+03  0.25500000920E-02 0. -1.
        2   -1    0    0  501    0  0.00000000000E+00  0.00000000000E+00 -0.14168116341E+04  0.14168116341E+04  0.25500000920E-02 0.  1.
    10030    2    1    2    0    0  0.00000000000E+00  0.00000000000E+00 -0.10229818927E+04  0.18106413756E+04  0.14939646041E+04 0.  0.
        2    1    3    3  502    0  0.42309322691E+03  0.13276289174E+03  0.21705236933E+03  0.49370598043E+03  0.25500000920E-02 0. -1.
       -2    1    3    3    0  502 -0.42309322691E+03 -0.13276289174E+03 -0.12400342620E+04  0.13169353952E+04  0.25500000920E-02 0.  1.
</event>
<event>
 5   0  0.6146552E-04  0.1520173E+04  0.7818609E-02  0.8871148E-01
       -1   -1    0    0    0  501  0.00000000000E+00  0.00000000000E+00  0.42277390062E+03  0.42277390065E+03  0.50400001928E-02 0.  1.
        1   -1    0    0  501    0  0.00000000000E+00  0.00000000000E+00 -0.13665264597E+04  0.13665264597E+04  0.50400001928E-02 0. -1.
    10030    2    1    2    0    0  0.00000000000E+00  0.00000000000E+00 -0.94375255910E+03  0.17893003604E+04  0.15201733082E+04 0.  0.
        5    1    3    3  502    0  0.33403758892E+03  0.17177400941E+03  0.30587916271E+03  0.48442912103E+03  0.46999998093E+01 0.  1.
       -5    1    3    3    0  502 -0.33403758892E+03 -0.17177400941E+03 -0.12496317218E+04  0.13048712393E+04  0.46999998093E+01 0. -1.
</event>
<event>
 5   0  0.5606965E-04  0.1442176E+04  0.7818609E-02  0.8923843E-01
       -1   -1    0    0    0  501  0.00000000000E+00  0.00000000000E+00  0.43668481694E+03  0.43668481697E+03  0.50400001928E-02 0. -1.
        1   -1    0    0  501    0  0.00000000000E+00  0.00000000000E+00 -0.11907163424E+04  0.11907163424E+04  0.50400001928E-02 0.  1.
    10030    2    1    2    0    0  0.00000000000E+00  0.00000000000E+00 -0.75403152545E+03  0.16274011594E+04  0.14421757841E+04 0.  0.
        4    1    3    3  502    0  0.65702452950E+03  0.15013058926E+03 -0.87674662537E+02  0.67963879050E+03  0.12699999809E+01 0. -1.
       -4    1    3    3    0  502 -0.65702452950E+03 -0.15013058926E+03 -0.66635686291E+03  0.94776236887E+03  0.12699999809E+01 0.  1.
</event>
<event>
 5   0  0.1082667E-03  0.1516330E+04  0.7818609E-02  0.8873665E-01
       -2   -1    0    0    0  501  0.00000000000E+00  0.00000000000E+00  0.69344703013E+03  0.69344703014E+03  0.25500000920E-02 0. -1.
        2   -1    0    0  501    0  0.00000000000E+00  0.00000000000E+00 -0.82892337980E+03  0.82892337981E+03  0.25500000920E-02 0.  1.
    10030    2    1    2    0    0  0.00000000000E+00  0.00000000000E+00 -0.13547634967E+03  0.15223704099E+04  0.15163303808E+04 0.  0.
        5    1    3    3  502    0  0.27163416231E+03  0.14400292904E+03  0.62803777044E+03  0.69926782623E+03  0.46999998093E+01 0. -1.
       -5    1    3    3    0  502 -0.27163416231E+03 -0.14400292904E+03 -0.76351412011E+03  0.82310258371E+03  0.46999998093E+01 0.  1.
</event>
<event>
 5   0  0.5914645E-04  0.1488417E+04  0.7818609E-02  0.8892192E-01
        1   -1    0    0  501    0  0.00000000000E+00  0.00000000000E+00  0.43375633965E+03  0.43375633968E+03  0.50400001928E-02 0. -1.
       -1   -1    0    0    0  501  0.00000000000E+00  0.00000000000E+00 -0.12768609174E+04  0.12768609174E+04  0.50400001928E-02 0.  1.
    10030    2    1    2    0    0  0.00000000000E+00  0.00000000000E+00 -0.84310457777E+03  0.17106172571E+04  0.14884173041E+04 0.  0.
        2    1    3    3  502    0 -0.17707304770E+03  0.60636929029E+03  0.30641664388E+02  0.63243773767E+03  0.25500000920E-02 0.  1.
       -2    1    3    3    0  502  0.17707304770E+03 -0.60636929029E+03 -0.87374624216E+03  0.10781795194E+04  0.25500000920E-02 0. -1.
</event>
<event>
 5   0  0.5840834E-04  0.1537597E+04  0.7818609E-02  0.8859829E-01
        1   -1    0    0  501    0  0.00000000000E+00  0.00000000000E+00  0.14197137058E+04  0.14197137058E+04  0.50400001928E-02 0.  1.
       -1   -1    0    0    0  501  0.00000000000E+00  0.00000000000E+00 -0.41631706511E+03  0.41631706514E+03  0.50400001928E-02 0. -1.
    10030    2    1    2    0    0  0.00000000000E+00  0.00000000000E+00  0.10033966407E+04  0.18360307710E+04  0.15375968826E+04 0.  0.
        3    1    3    3  502    0 -0.59461299620E+03 -0.36236848734E+03  0.89078791573E+03  0.11306540837E+04  0.10100000352E+00 0.  1.
       -3    1    3    3    0  502  0.59461299620E+03  0.36236848734E+03  0.11260872499E+03  0.70537668732E+03  0.10100000352E+00 0. -1.
</event>
<event>
 5   0  0.5924403E-04  0.1482605E+04  0.7818609E-02  0.8896104E-01
        1   -1    0    0  501    0  0.00000000000E+00  0.00000000000E+00  0.11435210675E+04  0.11435210675E+04  0.50400001928E-02 0. -1.
       -1   -1    0    0    0  501  0.00000000000E+00  0.00000000000E+00 -0.48055884164E+03  0.48055884166E+03  0.50400001928E-02 0.  1.
    10030    2    1    2    0    0  0.00000000000E+00  0.00000000000E+00  0.66296222583E+03  0.16240799091E+04  0.14826046804E+04 0.  0.
        1    1    3    3  502    0  0.96605735991E+02 -0.17961602693E+03  0.11121842327E+04  0.11307291244E+04  0.50400001928E-02 0. -1.
       -1    1    3    3    0  502 -0.96605735991E+02  0.17961602693E+03 -0.44922200683E+03  0.49335078474E+03  0.50400001928E-02 0.  1.
</event>
<event>
 5   0  0.1149716E-03  0.1503206E+04  0.7818609E-02  0.8882324E-01
        2   -1    0    0  501    0  0.00000000000E+00  0.00000000000E+00  0.73547967593E+03  0.73547967594E+03  0.25500000920E-02 0.  1.
       -2   -1    0    0    0  501  0.00000000000E+00  0.00000000000E+00 -0.76808016563E+03  0.76808016563E+03  0.25500000920E-02 0. -1.
    10030    2    1    2    0    0  0.00000000000E+00  0.00000000000E+00 -0.32600489695E+02  0.15035598416E+04  0.15032063748E+04 0.  0.
        1    1    3    3  502    0 -0.25344847570E+03 -0.25762066001E+03  0.64287127044E+03  0.73748763019E+03  0.50400001928E-02 0.  1.
       -1    1    3    3    0  502  0.25344847570E+03  0.25762066001E+03 -0.67547176013E+03  0.76607221139E+03  0.50400001928E-02 0. -1.
</event>
<event>
 5   0  0.1126175E-03  0.1479558E+04  0.7818609E-02  0.8898161E-01
       -2   -1    0    0    0  501  0.00000000000E+00  0.00000000000E+00  0.77646104615E+03  0.77646104616E+03  0.25500000920E-02 0.  1.
        2   -1    0    0  501    0  0.00000000000E+00  0.00000000000E+00 -0.70483035728E+03  0.70483035729E+03  0.25500000920E-02 0. -1.
    10030    2    1    2    0    0  0.00000000000E+00  0.00000000000E+00  0.71630688872E+02  0.14812914034E+04  0.14795584701E+04 0.  0.
        3    1    3    3  502    0 -0.48876756118E+02  0.14248302958E+03 -0.68931396193E+03  0.70558068236E+03  0.10100000352E+00 0. -1.
       -3    1    3    3    0  502  0.48876756118E+02 -0.14248302958E+03  0.76094465081E+03  0.77571072108E+03  0.10100000352E+00 0.  1.
</event>
<event>
 5   0  0.1082667E-03  0.1488009E+04  0.7818609E-02  0.8892466E-01
        2   -1    0    0  501    0  0.00000000000E+00  0.00000000000E+00  0.20006540749E+04  0.20006540749E+04  0.25500000920E-02 0. -1.
       -2   -1    0    0    0  501  0.00000000000E+00  0.00000000000E+00 -0.27668097740E+03  0.27668097741E+03  0.25500000920E-02 0.  1.
    10030    2    1    2    0    0  0.00000000000E+00  0.00000000000E+00  0.17239730975E+04  0.22773350523E+04  0.14880093076E+04 0.  0.
        5    1    3    3  502    0  0.71093682687E+03  0.10524870660E+03  0.56754794655E+03  0.91577356572E+03  0.46999998093E+01 0. -1.
       -5    1    3    3    0  502 -0.71093682687E+03 -0.10524870660E+03  0.11564251510E+04  0.13615614866E+04  0.46999998093E+01 0.  1.
</event>
<event>
 5   0  0.1147755E-03  0.1401844E+04  0.7818609E-02  0.8952485E-01
       -2   -1    0    0    0  501  0.00000000000E+00  0.00000000000E+00  0.33369473234E+03  0.33369473235E+03  0.25500000920E-02 0.  1.
        2   -1    0    0  501    0  0.00000000000E+00  0.00000000000E+00 -0.14722791295E+04  0.14722791295E+04  0.25500000920E-02 0. -1.
    10030    2    1    2    0    0  0.00000000000E+00  0.00000000000E+00 -0.11385843971E+04  0.18059738618E+04  0.14018441997E+04 0.  0.
        4    1    3    3  502    0  0.21906713873E+02 -0.64636766854E+03 -0.22117139344E+03  0.68351259332E+03  0.12699999809E+01 0. -1.
       -4    1    3    3    0  502 -0.21906713873E+02  0.64636766854E+03 -0.91741300368E+03  0.11224612685E+04  0.12699999809E+01 0.  1.
</event>
<event>
 5   0  0.1149716E-03  0.1489984E+04  0.7818609E-02  0.8891141E-01
       -2   -1    0    0    0  501  0.00000000000E+00  0.00000000000E+00  0.28773010821E+03  0.28773010822E+03  0.25500000920E-02 0.  1.
        2   -1    0    0  501    0  0.00000000000E+00  0.00000000000E+00 -0.19289372407E+04  0.19289372407E+04  0.25500000920E-02 0. -1.
    10030    2    1    2    0    0  0.00000000000E+00  0.00000000000E+00 -0.16412071325E+04  0.22166673489E+04  0.14899843234E+04 0.  0.
        1    1    3    3  502    0  0.66616861709E+03 -0.27604238679E+03 -0.10990613229E+04  0.13145021176E+04  0.50400001928E-02 0.  1.
       -1    1    3    3    0  502 -0.66616861709E+03  0.27604238679E+03 -0.54214580964E+03  0.90216523134E+03  0.50400001928E-02 0. -1.
</event>
<event>
 5   0  0.5914645E-04  0.1517533E+04  0.7818609E-02  0.8872876E-01
       -1   -1    0    0    0  501  0.00000000000E+00  0.00000000000E+00  0.53043723153E+03  0.53043723156E+03  0.50400001928E-02 0. -1.
        1   -1    0    0  501    0  0.00000000000E+00  0.00000000000E+00 -0.10853816526E+04  0.10853816526E+04  0.50400001928E-02 0.  1.
    10030    2    1    2    0    0  0.00000000000E+00  0.00000000000E+00 -0.55494442105E+03  0.16158188841E+04  0.15175333130E+04 0.  0.
        2    1    3    3  502    0  0.62296263236E+03 -0.43090691326E+03 -0.23028935197E+03  0.79170473969E+03  0.25500000920E-02 0.  1.
       -2    1    3    3    0  502 -0.62296263236E+03  0.43090691326E+03 -0.32465506908E+03  0.82411414446E+03  0.25500000920E-02 0. -1.
</event>
<event>
 5   0  0.5840834E-04  0.1416847E+04  0.7818609E-02  0.8941714E-01
        1   -1    0    0  501    0  0.00000000000E+00  0.00000000000E+00  0.22932786905E+04  0.22932786905E+04  0.50400001928E-02 0.  1.
       -1   -1    0    0    0  501  0.00000000000E+00  0.00000000000E+00 -0.21884110019E+03  0.21884110025E+03  0.50400001928E-02 0. -1.
    10030    2    1    2    0    0  0.00000000000E+00  0.00000000000E+00  0.20744375903E+04  0.25121197907E+04  0.14168466844E+04 0.  0.
        3    1    3    3  502    0  0.10500340851E+03 -0.44972792632E+03  0.19896917030E+04  0.20425851284E+04  0.10100000352E+00 0. -1.
       -3    1    3    3    0  502 -0.10500340851E+03  0.44972792632E+03  0.84745887263E+02  0.46953466232E+03  0.10100000352E+00 0.  1.
</event>
<event>
 5   0  0.1082667E-03  0.1500420E+04  0.7818609E-02  0.8884173E-01
        2   -1    0    0  501    0  0.00000000000E+00  0.00000000000E+00  0.12067827540E+04  0.12067827540E+04  0.25500000920E-02 0.  1.
       -2   -1    0    0    0  501  0.00000000000E+00  0.00000000000E+00 -0.46637663209E+03  0.46637663209E+03  0.25500000920E-02 0. -1.
    10030    2    1    2    0    0  0.00000000000E+00  0.00000000000E+00  0.74040612195E+03  0.16731593861E+04  0.15004203098E+04 0.  0.
        5    1    3    3  502    0 -0.59156016004E+02 -0.67701384319E+03  0.15904853330E+02  0.67979572848E+03  0.46999998093E+01 0. -1.
       -5    1    3    3    0  502  0.59156016004E+02  0.67701384319E+03  0.72450126862E+03  0.99336365765E+03  0.46999998093E+01 0.  1.
</event>
<event>
 5   0  0.1126175E-03  0.1524635E+04  0.7818609E-02  0.8868235E-01
        2   -1    0    0  501    0  0.00000000000E+00  0.00000000000E+00  0.88931788214E+03  0.88931788214E+03  0.25500000920E-02 0.  1.
       -2   -1    0    0    0  501  0.00000000000E+00  0.00000000000E+00 -0.65345318368E+03  0.65345318369E+03  0.25500000920E-02 0. -1.
    10030    2    1    2    0    0  0.00000000000E+00  0.00000000000E+00  0.23586469846E+03  0.15427710658E+04  0.15246345154E+04 0.  0.
        3    1    3    3  502    0 -0.37035447116E+03 -0.53589546404E+03 -0.28273388276E+03  0.71013015804E+03  0.10100000352E+00 0. -1.
       -3    1    3    3    0  502  0.37035447116E+03  0.53589546404E+03  0.51859858122E+03  0.83264090779E+03  0.10100000352E+00 0.  1.
</event>
<event>
 5   0  0.5606965E-04  0.1449334E+04  0.7818609E-02  0.8918862E-01
        1   -1    0    0  501    0  0.00000000000E+00  0.00000000000E+00  0.16333580935E+04  0.16333580935E+04  0.50400001928E-02 0.  1.
       -1   -1    0    0    0  501  0.00000000000E+00  0.00000000000E+00 -0.32151098935E+03  0.32151098939E+03  0.50400001928E-02 0. -1.
    10030    2    1    2    0    0  0.00000000000E+00  0.00000000000E+00  0.13118471042E+04  0.19548690829E+04  0.14493344357E+04 0.  0.
        4    1    3    3  502    0  0.38208902672E+03 -0.17886925558E+03  0.14506370873E+04  0.15107401520E+04  0.12699999809E+01 0.  1.
       -4    1    3    3    0  502 -0.38208902672E+03  0.17886925558E+03 -0.13878998315E+03  0.44412893089E+03  0.12699999809E+01 0. -1.
</event>
<event>
 5   0  0.5924403E-04  0.1487900E+04  0.7818609E-02  0.8892540E-01
        1   -1    0    0  501    0  0.00000000000E+00  0.00000000000E+00  0.10843653324E+04  0.10843653324E+04  0.50400001928E-02 0. -1.
       -1   -1    0    0    0  501  0.00000000000E+00  0.00000000000E+00 -0.51040112310E+03  0.51040112313E+03  0.50400001928E-02 0.  1.
    10030    2    1    2    0    0  0.00000000000E+00  0.00000000000E+00  0.57396420930E+03  0.15947664555E+04  0.14878995713E+04 0.  0.
        1    1    3    3  502    0  0.22624032362E+02 -0.72735993231E+03  0.45267155310E+03  0.85701566671E+03  0.50400001928E-02 0. -1.
       -1    1    3    3    0  502 -0.22624032362E+02  0.72735993231E+03  0.12129265620E+03  0.73775078884E+03  0.50400001928E-02 0.  1.
</event>
<event>
 5   0  0.1082667E-03  0.1490169E+04  0.7818609E-02  0.8891017E-01
       -2   -1    0    0    0  501  0.00000000000E+00  0.00000000000E+00  0.50612088210E+03  0.50612088211E+03  0.25500000920E-02 0.  1.
        2   -1    0    0  501    0  0.00000000000E+00  0.00000000000E+00 -0.10968740293E+04  0.10968740293E+04  0.25500000920E-02 0. -1.
    10030    2    1    2    0    0  0.00000000000E+00  0.00000000000E+00 -0.59075314717E+03  0.16029949114E+04  0.14901689183E+04 0.  0.
        5    1    3    3  502    0 -0.50750158165E+03 -0.72913533281E+01 -0.88212654578E+03  0.10177329473E+04  0.46999998093E+01 0. -1.
       -5    1    3    3    0  502  0.50750158165E+03  0.72913533281E+01  0.29137339861E+03  0.58526196410E+03  0.46999998093E+01 0.  1.
</event>
<event>
 5   0  0.5606965E-04  0.1480739E+04  0.7818609E-02  0.8897363E-01
       -1   -1    0    0    0  501  0.00000000000E+00  0.00000000000E+00  0.49656615314E+03  0.49656615317E+03  0.50400001928E-02 0. -1.
        1   -1    0    0  501    0  0.00000000000E+00  0.00000000000E+00 -0.11038753283E+04  0.11038753283E+04  0.50400001928E-02 0.  1.
    10030    2    1    2    0    0  0.00000000000E+00  0.00000000000E+00 -0.60730917518E+03  0.16004414815E+04  0.14807391740E+04 0.  0.
        4    1    3    3  502    0  0.31575950431E+03  0.46612417602E+03 -0.82332344132E+03  0.99741611876E+03  0.12699999809E+01 0.  1.
       -4    1    3    3    0  502 -0.31575950431E+03 -0.46612417602E+03  0.21601426614E+03  0.60302536274E+03  0.12699999809E+01 0. -1.
</event>
<event>
 5   0  0.5924403E-04  0.1519509E+04  0.7818609E-02  0.8871582E-01
       -1   -1    0    0    0  501  0.00000000000E+00  0.00000000000E+00  0.27316178053E+03  0.27316178058E+03  0.50400001928E-02 0.  1.
        1   -1    0    0  501    0  0.00000000000E+00  0.00000000000E+00 -0.21131331165E+04  0.21131331165E+04  0.50400001928E-02 0. -1.
    10030    2    1    2    0    0  0.00000000000E+00  0.00000000000E+00 -0.18399713360E+04  0.23862948971E+04  0.15195094007E+04 0.  0.
        1    1    3    3  502    0 -0.49318887844E+03  0.57776699234E+03 -0.94089298947E+03  0.12092682022E+04  0.50400001928E-02 0. -1.
       -1    1    3    3    0  502  0.49318887844E+03 -0.57776699234E+03 -0.89907834653E+03  0.11770266949E+04  0.50400001928E-02 0.  1.
</event>
<event>
 5   0  0.1147755E-03  0.1509482E+04  0.7818609E-02  0.8878172E-01
       -2   -1    0    0    0  501  0.00000000000E+00  0.00000000000E+00  0.69611036649E+03  0.69611036649E+03  0.25500000920E-02 0. -1.
        2   -1    0    0  501    0  0.00000000000E+00  0.00000000000E+00 -0.81831017494E+03  0.81831017494E+03  0.25500000920E-02 0.  1.
    10030    2    1    2    0    0  0.00000000000E+00  0.00000000000E+00 -0.12219980845E+03  0.15144205414E+04  0.15094822898E+04 0.  0.
        4    1    3    3  502    0  0.58215510657E+03  0.17708953556E+03 -0.50906630928E+03  0.79335703933E+03  0.12699999809E+01 0.  1.
       -4    1    3    3    0  502 -0.58215510657E+03 -0.17708953556E+03  0.38686650083E+03  0.72106350211E+03  0.12699999809E+01 0. -1.
</event>
<event>
 5   0  0.5840834E-04  0.1511099E+04  0.7818609E-02  0.8877105E-01
       -1   -1    0    0    0  501  0.00000000000E+00  0.00000000000E+00  0.53943940897E+03  0.53943940899E+03  0.50400001928E-02 0.  1.
        1   -1    0    0  501    0  0.00000000000E+00  0.00000000000E+00 -0.10582381056E+04  0.10582381057E+04  0.50400001928E-02 0. -1.
    10030    2    1    2    0    0  0.00000000000E+00  0.00000000000E+00 -0.51879869668E+03  0.15976775147E+04  0.15110993856E+04 0.  0.
        3    1    3    3  502    0 -0.39562742050E+03  0.39051210620E+02 -0.93871374304E+03  0.10194260907E+04  0.10100000352E+00 0. -1.
       -3    1    3    3    0  502  0.39562742050E+03 -0.39051210620E+02  0.41991504636E+03  0.57825142392E+03  0.10100000352E+00 0.  1.
</event>
<event>
 5   0  0.5840834E-04  0.1502287E+04  0.7818609E-02  0.8882933E-01
       -1   -1    0    0    0  501  0.00000000000E+00  0.00000000000E+00  0.68697471646E+03  0.68697471648E+03  0.50400001928E-02 0. -1.
        1   -1    0    0  501    0  0.00000000000E+00  0.00000000000E+00 -0.82130668660E+03  0.82130668662E+03  0.50400001928E-02 0.  1.
    10030    2    1    2    0    0  0.00000000000E+00  0.00000000000E+00 -0.13433197014E+03  0.15082814031E+04  0.15022874934E+04 0.  0.
        3    1    3    3  502    0 -0.36664929442E+03 -0.36430127693E+03 -0.61438171266E+03  0.80287734090E+03  0.10100000352E+00 0.  1.
       -3    1    3    3    0  502  0.36664929442E+03  0.36430127693E+03  0.48004974253E+03  0.70540406220E+03  0.10100000352E+00 0. -1.
</event>
<event>
 5   0  0.5924403E-04  0.1475400E+04  0.7818609E-02  0.8900978E-01
       -1   -1    0    0    0  501  0.00000000000E+00  0.00000000000E+00  0.45895075331E+03  0.45895075334E+03  0.50400001928E-02 0.  1.
        1   -1    0    0  501    0  0.00000000000E+00  0.00000000000E+00 -0.11857511518E+04  0.11857511518E+04  0.50400001928E-02 0. -1.
    10030    2    1    2    0    0  0.00000000000E+00  0.00000000000E+00 -0.72680039846E+03  0.16447019051E+04  0.14754001279E+04 0.  0.
        1    1    3    3  502    0 -0.70165694384E+03 -0.98973065704E+02 -0.59208221596E+03  0.92340645713E+03  0.50400001928E-02 0.  1.
       -1    1    3    3    0  502  0.70165694384E+03  0.98973065704E+02 -0.13471818250E+03  0.72129544799E+03  0.50400001928E-02 0. -1.
</event>
<event>
 5   0  0.6146552E-04  0.1493798E+04  0.7818609E-02  0.8888588E-01
       -1   -1    0    0    0  501  0.00000000000E+00  0.00000000000E+00  0.49556815511E+03  0.49556815513E+03  0.50400001928E-02 0.  1.
        1   -1    0    0  501    0  0.00000000000E+00  0.00000000000E+00 -0.11256935348E+04  0.11256935348E+04  0.50400001928E-02 0. -1.
    10030    2    1    2    0    0  0.00000000000E+00  0.00000000000E+00 -0.63012537972E+03  0.16212616900E+04  0.14937976681E+04 0.  0.
        5    1    3    3  502    0  0.17416118142E+03 -0.16457651689E+03 -0.10828269740E+04  0.11090328637E+04  0.46999998093E+01 0. -1.
       -5    1    3    3    0  502 -0.17416118142E+03  0.16457651689E+03  0.45270159430E+03  0.51222882631E+03  0.46999998093E+01 0.  1.
</event>
<event>
 5   0  0.6146552E-04  0.1504559E+04  0.7818609E-02  0.8881427E-01
        1   -1    0    0  501    0  0.00000000000E+00  0.00000000000E+00  0.12287590224E+04  0.12287590224E+04  0.50400001928E-02 0.  1.
       -1   -1    0    0    0  501  0.00000000000E+00  0.00000000000E+00 -0.46056574289E+03  0.46056574292E+03  0.50400001928E-02 0. -1.
    10030    2    1    2    0    0  0.00000000000E+00  0.00000000000E+00  0.76819327951E+03  0.16893247653E+04  0.15045588217E+04 0.  0.
        5    1    3    3  502    0 -0.62782468382E+03  0.39799111486E+03  0.51378639516E+03  0.90363671405E+03  0.46999998093E+01 0.  1.
       -5    1    3    3    0  502  0.62782468382E+03 -0.39799111486E+03  0.25440688435E+03  0.78568805128E+03  0.46999998093E+01 0. -1.
</event>
<event>
 5   0  0.5914645E-04  0.1366838E+04  0.7818609E-02  0.8978179E-01
        1   -1    0    0  501    0  0.00000000000E+00  0.00000000000E+00  0.57989344619E+03  0.57989344622E+03  0.50400001928E-02 0. -1.
       -1   -1    0    0    0  501  0.00000000000E+00  0.00000000000E+00 -0.80542667247E+03  0.80542667248E+03  0.50400001928E-02 0.  1.
    10030    2    1    2    0    0  0.00000000000E+00  0.00000000000E+00 -0.22553322628E+03  0.13853201187E+04  0.13668381744E+04 0.  0.
        2    1    3    3  502    0 -0.39925696716E+03  0.32607891708E+03  0.34199646673E+03  0.61862360871E+03  0.25500000920E-02 0. -1.
       -2    1    3    3    0  502  0.39925696716E+03 -0.32607891708E+03 -0.56752969300E+03  0.76669650999E+03  0.25500000920E-02 0.  1.
</event>
<event>
 5   0  0.5914645E-04  0.1548919E+04  0.7818609E-02  0.8852559E-01
        1   -1    0    0  501    0  0.00000000000E+00  0.00000000000E+00  0.23634315234E+04  0.23634315234E+04  0.50400001928E-02 0.  1.
       -1   -1    0    0    0  501  0.00000000000E+00  0.00000000000E+00 -0.25377816871E+03  0.25377816876E+03  0.50400001928E-02 0. -1.
    10030    2    1    2    0    0  0.00000000000E+00  0.00000000000E+00  0.21096533547E+04  0.26172096921E+04  0.15489187505E+04 0.  0.
        2    1    3    3  502    0 -0.68809508196E+02 -0.66963840252E+03  0.17018674446E+04  0.18301647843E+04  0.25500000920E-02 0.  1.
       -2    1    3    3    0  502  0.68809508196E+02  0.66963840252E+03  0.40778591004E+03  0.78704490785E+03  0.25500000920E-02 0. -1.
</event>
<event>
 5   0  0.5914645E-04  0.1487632E+04  0.7818609E-02  0.8892719E-01
        1   -1    0    0  501    0  0.00000000000E+00  0.00000000000E+00  0.62720646514E+03  0.62720646516E+03  0.50400001928E-02 0.  1.
       -1   -1    0    0    0  501  0.00000000000E+00  0.00000000000E+00 -0.88210570998E+03  0.88210571000E+03  0.50400001928E-02 0. -1.
    10030    2    1    2    0    0  0.00000000000E+00  0.00000000000E+00 -0.25489924484E+03  0.15093121752E+04  0.14876322183E+04 0.  0.
        2    1    3    3  502    0  0.52284028900E+03  0.46164883301E+03 -0.38963549133E+03  0.79893518443E+03  0.25500000920E-02 0. -1.
       -2    1    3    3    0  502 -0.52284028900E+03 -0.46164883301E+03  0.13473624649E+03  0.71037699072E+03  0.25500000920E-02 0.  1.
</event>
<event>
 5   0  0.1082667E-03  0.1493116E+04  0.7818609E-02  0.8889044E-01
        2   -1    0    0  501    0  0.00000000000E+00  0.00000000000E+00  0.18565304229E+04  0.18565304229E+04  0.25500000920E-02 0.  1.
       -2   -1    0    0    0  501  0.00000000000E+00  0.00000000000E+00 -0.30020985708E+03  0.30020985709E+03  0.25500000920E-02 0. -1.
    10030    2    1    2    0    0  0.00000000000E+00  0.00000000000E+00  0.15563205658E+04  0.21567402800E+04  0.14931158467E+04 0.  0.
        5    1    3    3  502    0 -0.81757800795E+02 -0.31216568935E+02  0.18490740583E+04  0.18511498522E+04  0.46999998093E+01 0.  1.
       -5    1    3    3    0  502  0.81757800795E+02  0.31216568935E+02 -0.29275349251E+03  0.30559042777E+03  0.46999998093E+01 0. -1.
</event>
<event>
 5   0  0.5924403E-04  0.1503287E+04  0.7818609E-02  0.8882270E-01
        1   -1    0    0  501    0  0.00000000000E+00  0.00000000000E+00  0.14047361884E+04  0.14047361884E+04  0.50400001928E-02 0. -1.
       -1   -1    0    0    0  501  0.00000000000E+00  0.00000000000E+00 -0.40218802885E+03  0.40218802889E+03  0.50400001928E-02 0.  1.
    10030    2    1    2    0    0  0.00000000000E+00  0.00000000000E+00  0.10025481596E+04  0.18069242173E+04  0.15032871698E+04 0.  0.
        1    1    3    3  502    0  0.14634743042E+03 -0.68228984591E+03  0.16551189569E+03  0.71716887262E+03  0.50400001928E-02 0. -1.
       -1    1    3    3    0  502 -0.14634743042E+03  0.68228984591E+03  0.83703626386E+03  0.10897553447E+04  0.50400001928E-02 0.  1.
</event>
<event>
 5   0  0.4070625E-04  0.1509551E+04  0.7818609E-02  0.8878126E-01
       -3   -1    0    0    0  501  0.00000000000E+00  0.00000000000E+00  0.11130605842E+04  0.11130605888E+04  0.10100000352E+00 0. -1.
        3   -1    0    0  501    0  0.00000000000E+00  0.00000000000E+00 -0.51181968648E+03  0.51181969645E+03  0.10100000352E+00 0.  1.
    10030    2    1    2    0    0  0.00000000000E+00  0.00000000000E+00  0.60124089772E+03  0.16248802852E+04  0.15095513652E+04 0.  0.
        3    1    3    3  502    0  0.56971662323E+03  0.44959211227E+03  0.77475225566E+02  0.72987157705E+03  0.10100000352E+00 0. -1.
       -3    1    3    3    0  502 -0.56971662323E+03 -0.44959211227E+03  0.52376567216E+03  0.89500870819E+03  0.10100000352E+00 0.  1.
</event>
<event>
 5   0  0.1082667E-03  0.1488688E+04  0.7818609E-02  0.8892010E-01
        2   -1    0    0  501    0  0.00000000000E+00  0.00000000000E+00  0.73732071034E+03  0.73732071034E+03  0.25500000920E-02 0. -1.
       -2   -1    0    0    0  501  0.00000000000E+00  0.00000000000E+00 -0.75143413734E+03  0.75143413735E+03  0.25500000920E-02 0.  1.
    10030    2    1    2    0    0  0.00000000000E+00  0.00000000000E+00 -0.14113427007E+02  0.14887548477E+04  0.14886879484E+04 0.  0.
        5    1    3    3  502    0  0.19761743126E+03 -0.57484515894E+03  0.42252778463E+03  0.74030495384E+03  0.46999998093E+01 0. -1.
       -5    1    3    3    0  502 -0.19761743126E+03  0.57484515894E+03 -0.43664121164E+03  0.74844989385E+03  0.46999998093E+01 0.  1.
</event>
<event>
 5   0  0.5606965E-04  0.1535330E+04  0.7818609E-02  0.8861293E-01
       -1   -1    0    0    0  501  0.00000000000E+00  0.00000000000E+00  0.54402797170E+03  0.54402797172E+03  0.50400001928E-02 0.  1.
        1   -1    0    0  501    0  0.00000000000E+00  0.00000000000E+00 -0.10832332331E+04  0.10832332331E+04  0.50400001928E-02 0. -1.
    10030    2    1    2    0    0  0.00000000000E+00  0.00000000000E+00 -0.53920526142E+03  0.16272612049E+04  0.15353295135E+04 0.  0.
        4    1    3    3  502    0  0.73964861525E+02 -0.48287472280E+03 -0.89723338411E+03  0.10216007817E+04  0.12699999809E+01 0. -1.
       -4    1    3    3    0  502 -0.73964861525E+02  0.48287472280E+03  0.35802812269E+03  0.60566042317E+03  0.12699999809E+01 0.  1.
</event>
<event>
 5   0  0.1147755E-03  0.1478252E+04  0.7818609E-02  0.8899045E-01
       -2   -1    0    0    0  501  0.00000000000E+00  0.00000000000E+00  0.49281448093E+03  0.49281448094E+03  0.25500000920E-02 0. -1.
        2   -1    0    0  501    0  0.00000000000E+00  0.00000000000E+00 -0.11085451166E+04  0.11085451166E+04  0.25500000920E-02 0.  1.
    10030    2    1    2    0    0  0.00000000000E+00  0.00000000000E+00 -0.61573063568E+03  0.16013595976E+04  0.14782517867E+04 0.  0.
        4    1    3    3  502    0 -0.63230532099E+03  0.36678862878E+03 -0.18938825019E+03  0.75512478397E+03  0.12699999809E+01 0. -1.
       -4    1    3    3    0  502  0.63230532099E+03 -0.36678862878E+03 -0.42634238549E+03  0.84623481358E+03  0.12699999809E+01 0.  1.
</event>
<event>
 5   0  0.1149716E-03  0.1512400E+04  0.7818609E-02  0.8876249E-01
       -2   -1    0    0    0  501  0.00000000000E+00  0.00000000000E+00  0.23209827484E+03  0.23209827486E+03  0.25500000920E-02 0. -1.
        2   -1    0    0  501    0  0.00000000000E+00  0.00000000000E+00 -0.24637774636E+04  0.24637774636E+04  0.25500000920E-02 0.  1.
    10030    2    1    2    0    0  0.00000000000E+00  0.00000000000E+00 -0.22316791888E+04  0.26958757385E+04  0.15124000779E+04 0.  0.
        1    1    3    3  502    0  0.25081907895E+03  0.41284841238E+03 -0.21528964278E+04  0.22064263075E+04  0.50400001928E-02 0.  1.
       -1    1    3    3    0  502 -0.25081907895E+03 -0.41284841238E+03 -0.78782761022E+02  0.48944943093E+03  0.50400001928E-02 0. -1.
</event>
<event>
 5   0  0.5840834E-04  0.1489403E+04  0.7818609E-02  0.8891530E-01
        1   -1    0    0  501    0  0.00000000000E+00  0.00000000000E+00  0.89161730664E+03  0.89161730666E+03  0.50400001928E-02 0. -1.
       -1   -1    0    0    0  501  0.00000000000E+00  0.00000000000E+00 -0.62199373557E+03  0.62199373559E+03  0.50400001928E-02 0.  1.
    10030    2    1    2    0    0  0.00000000000E+00  0.00000000000E+00  0.26962357108E+03  0.15136110422E+04  0.14894030741E+04 0.  0.
        3    1    3    3  502    0  0.22268655191E+03  0.18746353971E+03  0.83140775809E+03  0.88089201922E+03  0.10100000352E+00 0. -1.
       -3    1    3    3    0  502 -0.22268655191E+03 -0.18746353971E+03 -0.56178418701E+03  0.63271902303E+03  0.10100000352E+00 0.  1.
</event>
<event>
 5   0  0.1126175E-03  0.1486857E+04  0.7818609E-02  0.8893240E-01
        2   -1    0    0  501    0  0.00000000000E+00  0.00000000000E+00  0.21358613729E+04  0.21358613729E+04  0.25500000920E-02 0.  1.
       -2   -1    0    0    0  501  0.00000000000E+00  0.00000000000E+00 -0.25876495328E+03  0.25876495330E+03  0.25500000920E-02 0. -1.
    10030    2    1    2    0    0  0.00000000000E+00  0.00000000000E+00  0.18770964196E+04  0.23946263261E+04  0.14868571799E+04 0.  0.
        3    1    3    3  502    0  0.27322656184E+03 -0.65750676690E+03  0.12829083286E+04  0.14672497035E+04  0.10100000352E+00 0.  1.
       -3    1    3    3    0  502 -0.27322656184E+03  0.65750676690E+03  0.59418809102E+03  0.92737662270E+03  0.10100000352E+00 0. -1.
</event>
<event>
 5   0  0.5606965E-04  0.1496765E+04  0.7818609E-02  0.8886607E-01
       -1   -1    0    0    0  501  0.00000000000E+00  0.00000000000E+00  0.74003222618E+03  0.74003222620E+03  0.50400001928E-02 0.  1.
        1   -1    0    0  501    0  0.00000000000E+00  0.00000000000E+00 -0.75682717077E+03  0.75682717079E+03  0.50400001928E-02 0. -1.
    10030    2    1    2    0    0  0.00000000000E+00  0.00000000000E+00 -0.16794944594E+02  0.14968593970E+04  0.14967651734E+04 0.  0.
        4    1    3    3  502    0 -0.46780944842E+03  0.19824711075E+03  0.54111622266E+03  0.74226408796E+03  0.12699999809E+01 0.  1.
       -4    1    3    3    0  502  0.46780944842E+03 -0.19824711075E+03 -0.55791116726E+03  0.75459530902E+03  0.12699999809E+01 0. -1.
</event>
<event>
 5   0  0.1097156E-03  0.1490546E+04  0.7818609E-02  0.8890764E-01
       -2   -1    0    0    0  501  0.00000000000E+00  0.00000000000E+00  0.51140084133E+03  0.51140084134E+03  0.25500000920E-02 0.  1.
        2   -1    0    0  501    0  0.00000000000E+00  0.00000000000E+00 -0.10860992916E+04  0.10860992916E+04  0.25500000920E-02 0. -1.
    10030    2    1    2    0    0  0.00000000000E+00  0.00000000000E+00 -0.57469845031E+03  0.15975001330E+04  0.14905463314E+04 0.  0.
        2    1    3    3  502    0 -0.45027952564E+03  0.12757374226E+03  0.33427350973E+03  0.57512215245E+03  0.25500000920E-02 0.  1.
       -2    1    3    3    0  502  0.45027952564E+03 -0.12757374226E+03 -0.90897196005E+03  0.10223779805E+04  0.25500000920E-02 0. -1.
</event>
<event>
 5   0  0.5606965E-04  0.1494690E+04  0.7818609E-02  0.8887992E-01
        1   -1    0    0  501    0  0.00000000000E+00  0.00000000000E+00  0.11875143044E+04  0.11875143045E+04  0.50400001928E-02 0.  1.
       -1   -1    0    0    0  501  0.00000000000E+00  0.00000000000E+00 -0.47033083129E+03  0.47033083131E+03  0.50400001928E-02 0. -1.
    10030    2    1    2    0    0  0.00000000000E+00  0.00000000000E+00  0.71718347315E+03  0.16578451358E+04  0.14946900548E+04 0.  0.
        4    1    3    3  502    0 -0.24183475073E+03  0.47918821669E+03 -0.21818837699E+03  0.57940760646E+03  0.12699999809E+01 0. -1.
       -4    1    3    3    0  502  0.24183475073E+03 -0.47918821669E+03  0.93537185014E+03  0.10784375293E+04  0.12699999809E+01 0.  1.
</event>
<event>
 5   0  0.5606965E-04  0.1484352E+04  0.7818609E-02  0.8894926E-01
        1   -1    0    0  501    0  0.00000000000E+00  0.00000000000E+00  0.79505509125E+03  0.79505509126E+03  0.50400001928E-02 0.  1.
       -1   -1    0    0    0  501  0.00000000000E+00  0.00000000000E+00 -0.69281429721E+03  0.69281429722E+03  0.50400001928E-02 0. -1.
    10030    2    1    2    0    0  0.00000000000E+00  0.00000000000E+00  0.10224079404E+03  0.14878693885E+04  0.14843524303E+04 0.  0.
        4    1    3    3  502    0 -0.53215180772E+03  0.12177142100E+03 -0.45287316352E+03  0.70930215041E+03  0.12699999809E+01 0. -1.
       -4    1    3    3    0  502  0.53215180772E+03 -0.12177142100E+03  0.55511395756E+03  0.77856723808E+03  0.12699999809E+01 0.  1.
</event>
<event>
 5   0  0.5914645E-04  0.1505848E+04  0.7818609E-02  0.8880573E-01
        1   -1    0    0  501    0  0.00000000000E+00  0.00000000000E+00  0.83474638596E+03  0.83474638598E+03  0.50400001928E-02 0.  1.
       -1   -1    0    0    0  501  0.00000000000E+00  0.00000000000E+00 -0.67912220930E+03  0.67912220932E+03  0.50400001928E-02 0. -1.
    10030    2    1    2    0    0  0.00000000000E+00  0.00000000000E+00  0.15562417666E+03  0.15138685953E+04  0.15058483454E+04 0.  0.
        2    1    3    3  502    0  0.70766763883E+03  0.25566864271E+03  0.10506491755E+03  0.75973586122E+03  0.25500000920E-02 0.  1.
       -2    1    3    3    0  502 -0.70766763883E+03 -0.25566864271E+03  0.50559259111E+02  0.75413273407E+03  0.25500000920E-02 0. -1.
</event>
<event>
 5   0  0.1097156E-03  0.1532945E+04  0.7818609E-02  0.8862836E-01
       -2   -1    0    0    0  501  0.00000000000E+00  0.00000000000E+00  0.12433859962E+04  0.12433859963E+04  0.25500000920E-02 0. -1.
        2   -1    0    0  501    0  0.00000000000E+00  0.00000000000E+00 -0.47248381619E+03  0.47248381620E+03  0.25500000920E-02 0.  1.
    10030    2    1    2    0    0  0.00000000000E+00  0.00000000000E+00  0.77090218006E+03  0.17158698125E+04  0.15329445659E+04 0.  0.
        2    1    3    3  502    0 -0.49240035852E+03 -0.76719318424E+01 -0.27197056993E+03  0.56256996234E+03  0.25500000920E-02 0.  1.
       -2    1    3    3    0  502  0.49240035852E+03  0.76719318424E+01  0.10428727500E+04  0.11532998501E+04  0.25500000920E-02 0. -1.
</event>
<event>
 5   0  0.1149716E-03  0.1492946E+04  0.7818609E-02  0.8889157E-01
        2   -1    0    0  501    0  0.00000000000E+00  0.00000000000E+00  0.73715327281E+03  0.73715327282E+03  0.25500000920E-02 0.  1.
       -2   -1    0    0    0  501  0.00000000000E+00  0.00000000000E+00 -0.75591068880E+03  0.75591068881E+03  0.25500000920E-02 0. -1.
    10030    2    1    2    0    0  0.00000000000E+00  0.00000000000E+00 -0.18757415989E+02  0.14930639616E+04  0.14929461319E+04 0.  0.
        1    1    3    3  502    0 -0.37640361729E+02  0.10699917559E+02  0.73612680611E+03  0.73716616835E+03  0.50400001928E-02 0.  1.
       -1    1    3    3    0  502  0.37640361729E+02 -0.10699917559E+02 -0.75488422210E+03  0.75589779327E+03  0.50400001928E-02 0. -1.
</event>
<event>
 5   0  0.4070625E-04  0.1518137E+04  0.7818609E-02  0.8872481E-01
       -4   -1    0    0    0  501  0.00000000000E+00  0.00000000000E+00  0.10032309682E+04  0.10032317720E+04  0.12699999809E+01 0. -1.
        4   -1    0    0  501    0  0.00000000000E+00  0.00000000000E+00 -0.57432785915E+03  0.57432926331E+03  0.12699999809E+01 0.  1.
    10030    2    1    2    0    0  0.00000000000E+00  0.00000000000E+00  0.42890310901E+03  0.15775610353E+04  0.15181373269E+04 0.  0.
        5    1    3    3  502    0  0.48041516871E+03  0.20716893374E+03 -0.35702528741E+03  0.63340891001E+03  0.46999998093E+01 0.  1.
       -5    1    3    3    0  502 -0.48041516871E+03 -0.20716893374E+03  0.78592839642E+03  0.94415212531E+03  0.46999998093E+01 0. -1.
</event>
<event>
 5   0  0.1149716E-03  0.1492851E+04  0.7818609E-02  0.8889221E-01
        2   -1    0    0  501    0  0.00000000000E+00  0.00000000000E+00  0.16751554875E+04  0.16751554875E+04  0.25500000920E-02 0.  1.
       -2   -1    0    0    0  501  0.00000000000E+00  0.00000000000E+00 -0.33259669338E+03  0.33259669339E+03  0.25500000920E-02 0. -1.
    10030    2    1    2    0    0  0.00000000000E+00  0.00000000000E+00  0.13425587941E+04  0.20077521808E+04  0.14928511996E+04 0.  0.
        1    1    3    3  502    0  0.66130585095E+03  0.75791116040E+02  0.11255358539E+04  0.13076317067E+04  0.50400001928E-02 0.  1.
       -1    1    3    3    0  502 -0.66130585095E+03 -0.75791116040E+02  0.21702294014E+03  0.70012047417E+03  0.50400001928E-02 0. -1.
</event>
<event>
 5   0  0.5924403E-04  0.1496846E+04  0.7818609E-02  0.8886553E-01
        1   -1    0    0  501    0  0.00000000000E+00  0.00000000000E+00  0.60138919406E+03  0.60138919408E+03  0.50400001928E-02 0.  1.
       -1   -1    0    0    0  501  0.00000000000E+00  0.00000000000E+00 -0.93140558411E+03  0.93140558412E+03  0.50400001928E-02 0. -1.
    10030    2    1    2    0    0  0.00000000000E+00  0.00000000000E+00 -0.33001639005E+03  0.15327947782E+04  0.14968463563E+04 0.  0.
        1    1    3    3  502    0 -0.29027291190E+03 -0.68830620867E+03 -0.21208458097E+03  0.77653310927E+03  0.50400001928E-02 0.  1.
       -1    1    3    3    0  502  0.29027291190E+03  0.68830620867E+03 -0.11793180908E+03  0.75626166893E+03  0.50400001928E-02 0. -1.
</event>
<event>
 5   0  0.1082667E-03  0.1494932E+04  0.7818609E-02  0.8887830E-01
       -2   -1    0    0    0  501  0.00000000000E+00  0.00000000000E+00  0.21308073960E+03  0.21308073962E+03  0.25500000920E-02 0.  1.
        2   -1    0    0  501    0  0.00000000000E+00  0.00000000000E+00 -0.26220372014E+04  0.26220372014E+04  0.25500000920E-02 0. -1.
    10030    2    1    2    0    0  0.00000000000E+00  0.00000000000E+00 -0.24089564618E+04  0.28351179410E+04  0.14949322743E+04 0.  0.
        5    1    3    3  502    0  0.84098726262E+02 -0.99159181697E+01  0.20392605367E+03  0.22085933659E+03  0.46999998093E+01 0.  1.
       -5    1    3    3    0  502 -0.84098726262E+02  0.99159181697E+01 -0.26128825154E+04  0.26142586044E+04  0.46999998093E+01 0. -1.
</event>
<event>
 5   0  0.1147755E-03  0.1521347E+04  0.7818609E-02  0.8870380E-01
        2   -1    0    0  501    0  0.00000000000E+00  0.00000000000E+00  0.10121224823E+04  0.10121224823E+04  0.25500000920E-02 0.  1.
       -2   -1    0    0    0  501  0.00000000000E+00  0.00000000000E+00 -0.57169402806E+03  0.57169402807E+03  0.25500000920E-02 0. -1.
    10030    2    1    2    0    0  0.00000000000E+00  0.00000000000E+00  0.44042845425E+03  0.15838165104E+04  0.15213472698E+04 0.  0.
        4    1    3    3  502    0  0.51478650882E+03  0.21579566795E+03  0.75820233078E+03  0.94151224489E+03  0.12699999809E+01 0.  1.
       -4    1    3    3    0  502 -0.51478650882E+03 -0.21579566795E+03 -0.31777387653E+03  0.64230426550E+03  0.12699999809E+01 0. -1.
</event>
<event>
 5   0  0.1147755E-03  0.1499341E+04  0.7818609E-02  0.8884891E-01
       -2   -1    0    0    0  501  0.00000000000E+00  0.00000000000E+00  0.22402742961E+03  0.22402742962E+03  0.25500000920E-02 0.  1.
        2   -1    0    0  501    0  0.00000000000E+00  0.00000000000E+00 -0.25086483616E+04  0.25086483616E+04  0.25500000920E-02 0. -1.
    10030    2    1    2    0    0  0.00000000000E+00  0.00000000000E+00 -0.22846209320E+04  0.27326757912E+04  0.14993412477E+04 0.  0.
        4    1    3    3  502    0  0.72468268509E+03 -0.16677503690E+03 -0.96915992937E+03  0.12215774591E+04  0.12699999809E+01 0.  1.
       -4    1    3    3    0  502 -0.72468268509E+03  0.16677503690E+03 -0.13154610026E+04  0.15110983321E+04  0.12699999809E+01 0. -1.
</event>
<event>
 5   0  0.5914645E-04  0.1499121E+04  0.7818609E-02  0.8885037E-01
        1   -1    0    0  501    0  0.00000000000E+00  0.00000000000E+00  0.83060636920E+03  0.83060636921E+03  0.50400001928E-02 0.  1.
       -1   -1    0    0    0  501  0.00000000000E+00  0.00000000000E+00 -0.67642307513E+03  0.67642307515E+03  0.50400001928E-02 0. -1.
    10030    2    1    2    0    0  0.00000000000E+00  0.00000000000E+00  0.15418329406E+03  0.15070294444E+04  0.14991214954E+04 0.  0.
        2    1    3    3  502    0  0.73522824939E+03  0.41736651251E+02 -0.63426920424E+02  0.73913835038E+03  0.25500000920E-02 0.  1.
       -2    1    3    3    0  502 -0.73522824939E+03 -0.41736651251E+02  0.21761021449E+03  0.76789109398E+03  0.25500000920E-02 0. -1.
</event>
<event>
 5   0  0.5840834E-04  0.1493085E+04  0.7818609E-02  0.8889064E-01
       -1   -1    0    0    0  501  0.00000000000E+00  0.00000000000E+00  0.66580069403E+03  0.66580069405E+03  0.50400001928E-02 0.  1.
        1   -1    0    0  501    0  0.00000000000E+00  0.00000000000E+00 -0.83707568926E+03  0.83707568927E+03  0.50400001928E-02 0. -1.
    10030    2    1    2    0    0  0.00000000000E+00  0.00000000000E+00 -0.17127499523E+03  0.15028763833E+04  0.14930848266E+04 0.  0.
        3    1    3    3  502    0 -0.31730348394E+03  0.15089689225E+03  0.57737343035E+03  0.67587828881E+03  0.10100000352E+00 0.  1.
       -3    1    3    3    0  502  0.31730348394E+03 -0.15089689225E+03 -0.74864842558E+03  0.82699809451E+03  0.10100000352E+00 0. -1.
</event>
<event>
 5   0  0.6146552E-04  0.1504749E+04  0.7818609E-02  0.8881301E-01
       -1   -1    0    0    0  501  0.00000000000E+00  0.00000000000E+00  0.51003826548E+03  0.51003826550E+03  0.50400001928E-02 0.  1.
        1   -1    0    0  501    0  0.00000000000E+00  0.00000000000E+00 -0.11098522778E+04  0.11098522779E+04  0.50400001928E-02 0. -1.
    10030    2    1    2    0    0  0.00000000000E+00  0.00000000000E+00 -0.59981401236E+03  0.16198905434E+04  0.15047486578E+04 0.  0.
        5    1    3    3  502    0 -0.19736078457E+03 -0.67948606703E+03 -0.24620136557E+02  0.70801188951E+03  0.46999998093E+01 0.  1.
       -5    1    3    3    0  502  0.19736078457E+03  0.67948606703E+03 -0.57519387580E+03  0.91187865384E+03  0.46999998093E+01 0. -1.
</event>
<event>
 5   0  0.1147755E-03  0.1489184E+04  0.7818609E-02  0.8891677E-01
       -2   -1    0    0    0  501  0.00000000000E+00  0.00000000000E+00  0.59978207660E+03  0.59978207661E+03  0.25500000920E-02 0.  1.
        2   -1    0    0  501    0  0.00000000000E+00  0.00000000000E+00 -0.92436495823E+03  0.92436495823E+03  0.25500000920E-02 0. -1.
    10030    2    1    2    0    0  0.00000000000E+00  0.00000000000E+00 -0.32458288163E+03  0.15241470348E+04  0.14891843864E+04 0.  0.
        4    1    3    3  502    0  0.41943624460E+02  0.31944411663E+03 -0.84932795754E+03  0.90838505252E+03  0.12699999809E+01 0. -1.
       -4    1    3    3    0  502 -0.41943624460E+02 -0.31944411663E+03  0.52474507591E+03  0.61576198232E+03  0.12699999809E+01 0.  1.
</event>
<event>
 5   0  0.1082667E-03  0.1503625E+04  0.7818609E-02  0.8882046E-01
       -2   -1    0    0    0  501  0.00000000000E+00  0.00000000000E+00  0.29268293977E+03  0.29268293978E+03  0.25500000920E-02 0.  1.
        2   -1    0    0  501    0  0.00000000000E+00  0.00000000000E+00 -0.19311763818E+04  0.19311763818E+04  0.25500000920E-02 0. -1.
    10030    2    1    2    0    0  0.00000000000E+00  0.00000000000E+00 -0.16384934420E+04  0.22238593216E+04  0.15036254596E+04 0.  0.
        5    1    3    3  502    0 -0.38667957369E+03 -0.17404481796E+03 -0.17374027881E+04  0.17884080154E+04  0.46999998093E+01 0. -1.
       -5    1    3    3    0  502  0.38667957369E+03  0.17404481796E+03  0.98909346037E+02  0.43545130623E+03  0.46999998093E+01 0.  1.
</event>
<event>
 5   0  0.1149716E-03  0.1269540E+04  0.7818609E-02  0.9054076E-01
        2   -1    0    0  501    0  0.00000000000E+00  0.00000000000E+00  0.61968333246E+03  0.61968333247E+03  0.25500000920E-02 0. -1.
       -2   -1    0    0    0  501  0.00000000000E+00  0.00000000000E+00 -0.65022346708E+03  0.65022346708E+03  0.25500000920E-02 0.  1.
    10030    2    1    2    0    0  0.00000000000E+00  0.00000000000E+00 -0.30540134616E+02  0.12699067995E+04  0.12695395148E+04 0.  0.
        1    1    3    3  502    0 -0.57247149159E+03  0.71488246385E+02  0.24956768010E+03  0.62858428634E+03  0.50400001928E-02 0.  1.
       -1    1    3    3    0  502  0.57247149159E+03 -0.71488246385E+02 -0.28010781471E+03  0.64132251321E+03  0.50400001928E-02 0. -1.
</event>
<event>
 5   0  0.1149716E-03  0.1494661E+04  0.7818609E-02  0.8888011E-01
       -2   -1    0    0    0  501  0.00000000000E+00  0.00000000000E+00  0.45783750507E+03  0.45783750507E+03  0.25500000920E-02 0.  1.
        2   -1    0    0  501    0  0.00000000000E+00  0.00000000000E+00 -0.12198716561E+04  0.12198716561E+04  0.25500000920E-02 0. -1.
    10030    2    1    2    0    0  0.00000000000E+00  0.00000000000E+00 -0.76203415103E+03  0.16777091612E+04  0.14946611596E+04 0.  0.
        1    1    3    3  502    0 -0.50576802193E+03 -0.48471428582E+03 -0.67319045402E+03  0.97156297701E+03  0.50400001928E-02 0. -1.
       -1    1    3    3    0  502  0.50576802193E+03  0.48471428582E+03 -0.88843697012E+02  0.70614618417E+03  0.50400001928E-02 0.  1.
</event>
<event>
 5   0  0.4070625E-04  0.1586699E+04  0.7818609E-02  0.8828761E-01
        3   -1    0    0  501    0  0.00000000000E+00  0.00000000000E+00  0.57150290343E+03  0.57150291235E+03  0.10100000352E+00 0. -1.
       -3   -1    0    0    0  501  0.00000000000E+00  0.00000000000E+00 -0.11013123674E+04  0.11013123720E+04  0.10100000352E+00 0.  1.
    10030    2    1    2    0    0  0.00000000000E+00  0.00000000000E+00 -0.52980946397E+03  0.16728152844E+04  0.15866987451E+04 0.  0.
        4    1    3    3  502    0 -0.32254136938E+03  0.33589410705E+03 -0.94206046030E+03  0.10508745453E+04  0.12699999809E+01 0.  1.
       -4    1    3    3    0  502  0.32254136938E+03 -0.33589410705E+03  0.41225099633E+03  0.62194073913E+03  0.12699999809E+01 0. -1.
</event>
<event>
 5   0  0.4070625E-04  0.1532933E+04  0.7818609E-02  0.8862843E-01
       -3   -1    0    0    0  501  0.00000000000E+00  0.00000000000E+00  0.74018224631E+03  0.74018225320E+03  0.10100000352E+00 0.  1.
        3   -1    0    0  501    0  0.00000000000E+00  0.00000000000E+00 -0.79368421761E+03  0.79368422403E+03  0.10100000352E+00 0. -1.
    10030    2    1    2    0    0  0.00000000000E+00  0.00000000000E+00 -0.53501971297E+02  0.15338664772E+04  0.15329331065E+04 0.  0.
        4    1    3    3  502    0  0.38176138375E+03  0.42530221433E+03 -0.53779245194E+03  0.78475860104E+03  0.12699999809E+01 0. -1.
       -4    1    3    3    0  502 -0.38176138375E+03 -0.42530221433E+03  0.48429048064E+03  0.74910787620E+03  0.12699999809E+01 0.  1.
</event>
<event>
 5   0  0.1147755E-03  0.1454248E+04  0.7818609E-02  0.8915461E-01
        2   -1    0    0  501    0  0.00000000000E+00  0.00000000000E+00  0.98373206296E+03  0.98373206296E+03  0.25500000920E-02 0. -1.
       -2   -1    0    0    0  501  0.00000000000E+00  0.00000000000E+00 -0.53745226028E+03  0.53745226028E+03  0.25500000920E-02 0.  1.
    10030    2    1    2    0    0  0.00000000000E+00  0.00000000000E+00  0.44627980268E+03  0.15211843232E+04  0.14542476003E+04 0.  0.
        4    1    3    3  502    0 -0.18976892120E+02 -0.15732071826E+03 -0.51917000793E+03  0.54281584433E+03  0.12699999809E+01 0.  1.
       -4    1    3    3    0  502  0.18976892120E+02  0.15732071826E+03  0.96544981060E+03  0.97836847891E+03  0.12699999809E+01 0. -1.
</event>
<event>
 5   0  0.5606965E-04  0.1079400E+04  0.7818609E-02  0.9225506E-01
       -1   -1    0    0    0  501  0.00000000000E+00  0.00000000000E+00  0.23155924488E+03  0.23155924493E+03  0.50400001928E-02 0.  1.
        1   -1    0    0  501    0  0.00000000000E+00  0.00000000000E+00 -0.12578904397E+04  0.12578904397E+04  0.50400001928E-02 0. -1.
    10030    2    1    2    0    0  0.00000000000E+00  0.00000000000E+00 -0.10263311948E+04  0.14894496847E+04  0.10794001305E+04 0.  0.
        4    1    3    3  502    0  0.31300228358E+03  0.15464248375E+03  0.54754220756E+02  0.35338982003E+03  0.12699999809E+01 0.  1.
       -4    1    3    3    0  502 -0.31300228358E+03 -0.15464248375E+03 -0.10810854156E+04  0.11360598646E+04  0.12699999809E+01 0. -1.
</event>
<event>
 5   0  0.1147755E-03  0.1472997E+04  0.7818609E-02  0.8902611E-01
        2   -1    0    0  501    0  0.00000000000E+00  0.00000000000E+00  0.16793706741E+04  0.16793706741E+04  0.25500000920E-02 0. -1.
       -2   -1    0    0    0  501  0.00000000000E+00  0.00000000000E+00 -0.32299618549E+03  0.32299618550E+03  0.25500000920E-02 0.  1.
    10030    2    1    2    0    0  0.00000000000E+00  0.00000000000E+00  0.13563744886E+04  0.20023668596E+04  0.14729973819E+04 0.  0.
        4    1    3    3  502    0 -0.59776644093E+03 -0.22710038179E+03  0.18144609824E+03  0.66469812756E+03  0.12699999809E+01 0.  1.
       -4    1    3    3    0  502  0.59776644093E+03  0.22710038179E+03  0.11749283904E+04  0.13376687321E+04  0.12699999809E+01 0. -1.
</event>
<event>
 5   0  0.5840834E-04  0.1484542E+04  0.7818609E-02  0.8894798E-01
       -1   -1    0    0    0  501  0.00000000000E+00  0.00000000000E+00  0.53186788809E+03  0.53186788811E+03  0.50400001928E-02 0. -1.
        1   -1    0    0  501    0  0.00000000000E+00  0.00000000000E+00 -0.10359074571E+04  0.10359074571E+04  0.50400001928E-02 0.  1.
    10030    2    1    2    0    0  0.00000000000E+00  0.00000000000E+00 -0.50403956905E+03  0.15677753453E+04  0.14845415609E+04 0.  0.
        3    1    3    3  502    0  0.40079895924E+03  0.10604538483E+03  0.39819550313E+03  0.57484354244E+03  0.10100000352E+00 0. -1.
       -3    1    3    3    0  502 -0.40079895924E+03 -0.10604538483E+03 -0.90223507218E+03  0.99293180281E+03  0.10100000352E+00 0.  1.
</event>
<event>
 5   0  0.5606965E-04  0.1501588E+04  0.7818609E-02  0.8883398E-01
        1   -1    0    0  501    0  0.00000000000E+00  0.00000000000E+00  0.16467265020E+04  0.16467265020E+04  0.50400001928E-02 0.  1.
       -1   -1    0    0    0  501  0.00000000000E+00  0.00000000000E+00 -0.34231030355E+03  0.34231030359E+03  0.50400001928E-02 0. -1.
    10030    2    1    2    0    0  0.00000000000E+00  0.00000000000E+00  0.13044161985E+04  0.19890368056E+04  0.15015877581E+04 0.  0.
        4    1    3    3  502    0 -0.33787070755E+03  0.13383538374E+03  0.15224571139E+04  0.15652302711E+04  0.12699999809E+01 0.  1.
       -4    1    3    3    0  502  0.33787070755E+03 -0.13383538374E+03 -0.21804091547E+03  0.42380653449E+03  0.12699999809E+01 0. -1.
</event>
<event>
 5   0  0.5914645E-04  0.1509572E+04  0.7818609E-02  0.8878113E-01
       -1   -1    0    0    0  501  0.00000000000E+00  0.00000000000E+00  0.30512640877E+03  0.30512640881E+03  0.50400001928E-02 0. -1.
        1   -1    0    0  501    0  0.00000000000E+00  0.00000000000E+00 -0.18671000890E+04  0.18671000890E+04  0.50400001928E-02 0.  1.
    10030    2    1    2    0    0  0.00000000000E+00  0.00000000000E+00 -0.15619736803E+04  0.21722264978E+04  0.15095715220E+04 0.  0.
        2    1    3    3  502    0  0.73458994519E+03 -0.76873447017E+02 -0.55727631401E+03  0.92525067122E+03  0.25500000920E-02 0. -1.
       -2    1    3    3    0  502 -0.73458994519E+03  0.76873447017E+02 -0.10046973662E+04  0.12469758266E+04  0.25500000920E-02 0.  1.
</event>
<event>
 5   0  0.1149716E-03  0.1505033E+04  0.7818609E-02  0.8881113E-01
        2   -1    0    0  501    0  0.00000000000E+00  0.00000000000E+00  0.44438073300E+03  0.44438073301E+03  0.25500000920E-02 0.  1.
       -2   -1    0    0    0  501  0.00000000000E+00  0.00000000000E+00 -0.12743143228E+04  0.12743143228E+04  0.25500000920E-02 0. -1.
    10030    2    1    2    0    0  0.00000000000E+00  0.00000000000E+00 -0.82993358979E+03  0.17186950558E+04  0.15050325350E+04 0.  0.
        1    1    3    3  502    0 -0.23292834081E+03 -0.55993685440E+03  0.93811580139E+02  0.61366563001E+03  0.50400001928E-02 0.  1.
       -1    1    3    3    0  502  0.23292834081E+03  0.55993685440E+03 -0.92374516993E+03  0.11050294258E+04  0.50400001928E-02 0. -1.
</event>
<event>
 5   0  0.5840834E-04  0.1542117E+04  0.7818609E-02  0.8856919E-01
       -1   -1    0    0    0  501  0.00000000000E+00  0.00000000000E+00  0.40213318051E+03  0.40213318054E+03  0.50400001928E-02 0. -1.
        1   -1    0    0  501    0  0.00000000000E+00  0.00000000000E+00 -0.14784429021E+04  0.14784429021E+04  0.50400001928E-02 0.  1.
    10030    2    1    2    0    0  0.00000000000E+00  0.00000000000E+00 -0.10763097216E+04  0.18805760826E+04  0.15421166576E+04 0.  0.
        3    1    3    3  502    0  0.27935668100E+02  0.61604051935E+03  0.26299244006E+02  0.61723413991E+03  0.10100000352E+00 0. -1.
       -3    1    3    3    0  502 -0.27935668100E+02 -0.61604051935E+03 -0.11026089656E+04  0.12633419427E+04  0.10100000352E+00 0.  1.
</event>
<event>
 5   0  0.1126175E-03  0.1511951E+04  0.7818609E-02  0.8876544E-01
       -2   -1    0    0    0  501  0.00000000000E+00  0.00000000000E+00  0.75007968459E+03  0.75007968459E+03  0.25500000920E-02 0.  1.
        2   -1    0    0  501    0  0.00000000000E+00  0.00000000000E+00 -0.76191776104E+03  0.76191776105E+03  0.25500000920E-02 0. -1.
    10030    2    1    2    0    0  0.00000000000E+00  0.00000000000E+00 -0.11838076454E+02  0.15119974456E+04  0.15119511022E+04 0.  0.
        3    1    3    3  502    0 -0.43997985879E+03  0.11507426371E+03  0.59798245812E+03  0.75127051901E+03  0.10100000352E+00 0.  1.
       -3    1    3    3    0  502  0.43997985879E+03 -0.11507426371E+03 -0.60982053457E+03  0.76072692663E+03  0.10100000352E+00 0. -1.
</event>
<event>
 5   0  0.1097156E-03  0.1488498E+04  0.7818609E-02  0.8892138E-01
        2   -1    0    0  501    0  0.00000000000E+00  0.00000000000E+00  0.16127813394E+04  0.16127813394E+04  0.25500000920E-02 0. -1.
       -2   -1    0    0    0  501  0.00000000000E+00  0.00000000000E+00 -0.34344820683E+03  0.34344820684E+03  0.25500000920E-02 0.  1.
    10030    2    1    2    0    0  0.00000000000E+00  0.00000000000E+00  0.12693331325E+04  0.19562295462E+04  0.14884983830E+04 0.  0.
        2    1    3    3  502    0 -0.35933903898E+03 -0.22228147797E+03  0.14398653536E+04  0.15005818327E+04  0.25500000920E-02 0. -1.
       -2    1    3    3    0  502  0.35933903898E+03  0.22228147797E+03 -0.17053222102E+03  0.45564771347E+03  0.25500000920E-02 0.  1.
</event>
<event>
 5   0  0.1147755E-03  0.1481543E+04  0.7818609E-02  0.8896820E-01
       -2   -1    0    0    0  501  0.00000000000E+00  0.00000000000E+00  0.35038273747E+03  0.35038273748E+03  0.25500000920E-02 0. -1.
        2   -1    0    0  501    0  0.00000000000E+00  0.00000000000E+00 -0.15661220324E+04  0.15661220324E+04  0.25500000920E-02 0.  1.
    10030    2    1    2    0    0  0.00000000000E+00  0.00000000000E+00 -0.12157392950E+04  0.19165047699E+04  0.14815426082E+04 0.  0.
        4    1    3    3  502    0  0.42536599321E+02  0.73925403210E+03 -0.63483794340E+03  0.97535978672E+03  0.12699999809E+01 0. -1.
       -4    1    3    3    0  502 -0.42536599321E+02 -0.73925403210E+03 -0.58090135156E+03  0.94114498320E+03  0.12699999809E+01 0.  1.
</event>
<event>
 5   0  0.5606965E-04  0.1268760E+04  0.7818609E-02  0.9054712E-01
       -1   -1    0    0    0  501  0.00000000000E+00  0.00000000000E+00  0.66750103814E+03  0.66750103816E+03  0.50400001928E-02 0. -1.
        1   -1    0    0  501    0  0.00000000000E+00  0.00000000000E+00 -0.60290254909E+03  0.60290254911E+03  0.50400001928E-02 0.  1.
    10030    2    1    2    0    0  0.00000000000E+00  0.00000000000E+00  0.64598489049E+02  0.12704035873E+04  0.12687601467E+04 0.  0.
        4    1    3    3  502    0  0.11576153564E+03  0.38538157161E+03  0.52335959508E+03  0.66017161976E+03  0.12699999809E+01 0. -1.
       -4    1    3    3    0  502 -0.11576153564E+03 -0.38538157161E+03 -0.45876110603E+03  0.61023196751E+03  0.12699999809E+01 0.  1.
</event>
<event>
 5   0  0.5924403E-04  0.1328030E+04  0.7818609E-02  0.9007628E-01
        1   -1    0    0  501    0  0.00000000000E+00  0.00000000000E+00  0.60502179374E+03  0.60502179376E+03  0.50400001928E-02 0.  1.
       -1   -1    0    0    0  501  0.00000000000E+00  0.00000000000E+00 -0.72876033672E+03  0.72876033674E+03  0.50400001928E-02 0. -1.
    10030    2    1    2    0    0  0.00000000000E+00  0.00000000000E+00 -0.12373854298E+03  0.13337821305E+04  0.13280299487E+04 0.  0.
        1    1    3    3  502    0  0.52822114072E+03  0.39038057536E+03 -0.15976617954E+03  0.67597322378E+03  0.50400001928E-02 0. -1.
       -1    1    3    3    0  502 -0.52822114072E+03 -0.39038057536E+03  0.36027636561E+02  0.65780890671E+03  0.50400001928E-02 0.  1.
</event>
<event>
 5   0  0.1147755E-03  0.1398900E+04  0.7818609E-02  0.8954615E-01
        2   -1    0    0  501    0  0.00000000000E+00  0.00000000000E+00  0.12511821275E+04  0.12511821275E+04  0.25500000920E-02 0. -1.
       -2   -1    0    0    0  501  0.00000000000E+00  0.00000000000E+00 -0.39101426751E+03  0.39101426752E+03  0.25500000920E-02 0.  1.
    10030    2    1    2    0    0  0.00000000000E+00  0.00000000000E+00  0.86016785998E+03  0.16421963950E+04  0.13988996578E+04 0.  0.
        4    1    3    3  502    0  0.59787979571E+03  0.32194870744E+03  0.62692911507E+03  0.92420395399E+03  0.12699999809E+01 0.  1.
       -4    1    3    3    0  502 -0.59787979571E+03 -0.32194870744E+03  0.23323874491E+03  0.71799244103E+03  0.12699999809E+01 0. -1.
</event>
<event>
 5   0  0.1082667E-03  0.1544547E+04  0.7818609E-02  0.8855358E-01
       -2   -1    0    0    0  501  0.00000000000E+00  0.00000000000E+00  0.56640371204E+03  0.56640371204E+03  0.25500000920E-02 0.  1.
        2   -1    0    0  501    0  0.00000000000E+00  0.00000000000E+00 -0.10529710753E+04  0.10529710753E+04  0.25500000920E-02 0. -1.
    10030    2    1    2    0    0  0.00000000000E+00  0.00000000000E+00 -0.48656736325E+03  0.16193747873E+04  0.15445474751E+04 0.  0.
        5    1    3    3  502    0  0.57505265094E+03  0.38633294861E+03  0.11448991075E+03  0.70218852753E+03  0.46999998093E+01 0.  1.
       -5    1    3    3    0  502 -0.57505265094E+03 -0.38633294861E+03 -0.60105727400E+03  0.91718625980E+03  0.46999998093E+01 0. -1.
</event>
<event>
 5   0  0.5914645E-04  0.1497873E+04  0.7818609E-02  0.8885869E-01
       -1   -1    0    0    0  501  0.00000000000E+00  0.00000000000E+00  0.88221857839E+03  0.88221857841E+03  0.50400001928E-02 0. -1.
        1   -1    0    0  501    0  0.00000000000E+00  0.00000000000E+00 -0.63579024424E+03  0.63579024426E+03  0.50400001928E-02 0.  1.
    10030    2    1    2    0    0  0.00000000000E+00  0.00000000000E+00  0.24642833415E+03  0.15180088227E+04  0.14978731127E+04 0.  0.
        2    1    3    3  502    0  0.64192235823E+03  0.26057698865E+03 -0.16511217117E+03  0.71219850469E+03  0.25500000920E-02 0.  1.
       -2    1    3    3    0  502 -0.64192235823E+03 -0.26057698865E+03  0.41154050533E+03  0.80581031797E+03  0.25500000920E-02 0. -1.
</event>
<event>
 5   0  0.5840834E-04  0.1480420E+04  0.7818609E-02  0.8897579E-01
        1   -1    0    0  501    0  0.00000000000E+00  0.00000000000E+00  0.58509877075E+03  0.58509877078E+03  0.50400001928E-02 0. -1.
       -1   -1    0    0    0  501  0.00000000000E+00  0.00000000000E+00 -0.93644206702E+03  0.93644206703E+03  0.50400001928E-02 0.  1.
    10030    2    1    2    0    0  0.00000000000E+00  0.00000000000E+00 -0.35134329627E+03  0.15215408378E+04  0.14804203489E+04 0.  0.
        3    1    3    3  502    0  0.50299925496E+03 -0.48925933933E+03  0.66517752490E+02  0.70484577974E+03  0.10100000352E+00 0. -1.
       -3    1    3    3    0  502 -0.50299925496E+03  0.48925933933E+03 -0.41786104876E+03  0.81669505807E+03  0.10100000352E+00 0.  1.
</event>
<event>
 5   0  0.1097156E-03  0.1507773E+04  0.7818609E-02  0.8879300E-01
        2   -1    0    0  501    0  0.00000000000E+00  0.00000000000E+00  0.82666892718E+03  0.82666892718E+03  0.25500000920E-02 0. -1.
       -2   -1    0    0    0  501  0.00000000000E+00  0.00000000000E+00 -0.68751221820E+03  0.68751221820E+03  0.25500000920E-02 0.  1.
    10030    2    1    2    0    0  0.00000000000E+00  0.00000000000E+00  0.13915670898E+03  0.15141811454E+04  0.15077731764E+04 0.  0.
        2    1    3    3  502    0 -0.21448229600E+03  0.65160416034E+03 -0.24440734536E+03  0.72823456904E+03  0.25500000920E-02 0.  1.
       -2    1    3    3    0  502  0.21448229600E+03 -0.65160416034E+03  0.38356405434E+03  0.78594657634E+03  0.25500000920E-02 0. -1.
</event>
<event>
 5   0  0.1147755E-03  0.1476220E+04  0.7818609E-02  0.8900422E-01
        2   -1    0    0  501    0  0.00000000000E+00  0.00000000000E+00  0.18350719196E+04  0.18350719196E+04  0.25500000920E-02 0. -1.
       -2   -1    0    0    0  501  0.00000000000E+00  0.00000000000E+00 -0.29688545550E+03  0.29688545551E+03  0.25500000920E-02 0.  1.
    10030    2    1    2    0    0  0.00000000000E+00  0.00000000000E+00  0.15381864641E+04  0.21319573751E+04  0.14762197164E+04 0.  0.
        4    1    3    3  502    0  0.53875667393E+02  0.20451011687E+03  0.17903764739E+04  0.18028245912E+04  0.12699999809E+01 0. -1.
       -4    1    3    3    0  502 -0.53875667393E+02 -0.20451011687E+03 -0.25219000986E+03  0.32913278386E+03  0.12699999809E+01 0.  1.
</event>
<event>
 5   0  0.5924403E-04  0.1489213E+04  0.7818609E-02  0.8891658E-01
       -1   -1    0    0    0  501  0.00000000000E+00  0.00000000000E+00  0.72488182233E+03  0.72488182235E+03  0.50400001928E-02 0. -1.
        1   -1    0    0  501    0  0.00000000000E+00  0.00000000000E+00 -0.76486828344E+03  0.76486828346E+03  0.50400001928E-02 0.  1.
    10030    2    1    2    0    0  0.00000000000E+00  0.00000000000E+00 -0.39986461108E+02  0.14897501058E+04  0.14892133698E+04 0.  0.
        1    1    3    3  502    0 -0.71916637721E+03  0.98811315871E+02 -0.18580930163E+03  0.74932573081E+03  0.50400001928E-02 0.  1.
       -1    1    3    3    0  502  0.71916637721E+03 -0.98811315871E+02  0.14582284052E+03  0.74042437500E+03  0.50400001928E-02 0. -1.
</event>
<event>
 5   0  0.5924403E-04  0.1703370E+04  0.7818609E-02  0.8759444E-01
        1   -1    0    0  501    0  0.00000000000E+00  0.00000000000E+00  0.14609219139E+04  0.14609219139E+04  0.50400001928E-02 0. -1.
       -1   -1    0    0    0  501  0.00000000000E+00  0.00000000000E+00 -0.49651358434E+03  0.49651358436E+03  0.50400001928E-02 0.  1.
    10030    2    1    2    0    0  0.00000000000E+00  0.00000000000E+00  0.96440832960E+03  0.19574354983E+04  0.17033702780E+04 0.  0.
        1    1    3    3  502    0 -0.36874327302E+02  0.78502111427E+03  0.10499133970E+03  0.79286887144E+03  0.50400001928E-02 0. -1.
       -1    1    3    3    0  502  0.36874327302E+02 -0.78502111427E+03  0.85941698990E+03  0.11645666269E+04  0.50400001928E-02 0.  1.
</event>
<event>
 5   0  0.1126175E-03  0.1497308E+04  0.7818609E-02  0.8886245E-01
        2   -1    0    0  501    0  0.00000000000E+00  0.00000000000E+00  0.61227892629E+03  0.61227892629E+03  0.25500000920E-02 0.  1.
       -2   -1    0    0    0  501  0.00000000000E+00  0.00000000000E+00 -0.91540418717E+03  0.91540418718E+03  0.25500000920E-02 0. -1.
    10030    2    1    2    0    0  0.00000000000E+00  0.00000000000E+00 -0.30312526089E+03  0.15276831135E+04  0.14973078412E+04 0.  0.
        3    1    3    3  502    0  0.34059952156E+03  0.38076229527E+03 -0.70992580343E+03  0.87463284649E+03  0.10100000352E+00 0. -1.
       -3    1    3    3    0  502 -0.34059952156E+03 -0.38076229527E+03  0.40680054255E+03  0.65305026698E+03  0.10100000352E+00 0.  1.
</event>
<event>
 5   0  0.5606965E-04  0.1515645E+04  0.7818609E-02  0.8874115E-01
        1   -1    0    0  501    0  0.00000000000E+00  0.00000000000E+00  0.56843349796E+03  0.56843349798E+03  0.50400001928E-02 0.  1.
       -1   -1    0    0    0  501  0.00000000000E+00  0.00000000000E+00 -0.10103113020E+04  0.10103113021E+04  0.50400001928E-02 0. -1.
    10030    2    1    2    0    0  0.00000000000E+00  0.00000000000E+00 -0.44187780409E+03  0.15787448000E+04  0.15156447967E+04 0.  0.
        4    1    3    3  502    0  0.12362664991E+03  0.18318683028E+03  0.53412048681E+03  0.57803743018E+03  0.12699999809E+01 0.  1.
       -4    1    3    3    0  502 -0.12362664991E+03 -0.18318683028E+03 -0.97599829089E+03  0.10007073699E+04  0.12699999809E+01 0. -1.
</event>
<event>
 5   0  0.5840834E-04  0.1490061E+04  0.7818609E-02  0.8891089E-01
       -1   -1    0    0    0  501  0.00000000000E+00  0.00000000000E+00  0.11161268228E+04  0.11161268228E+04  0.50400001928E-02 0. -1.
        1   -1    0    0  501    0  0.00000000000E+00  0.00000000000E+00 -0.49731872867E+03  0.49731872869E+03  0.50400001928E-02 0.  1.
    10030    2    1    2    0    0  0.00000000000E+00  0.00000000000E+00  0.61880809412E+03  0.16134455515E+04  0.14900614384E+04 0.  0.
        3    1    3    3  502    0  0.19774879636E+02  0.60291929320E+03 -0.16402814428E+03  0.62514635270E+03  0.10100000352E+00 0.  1.
       -3    1    3    3    0  502 -0.19774879636E+02 -0.60291929320E+03  0.78283623840E+03  0.98829919879E+03  0.10100000352E+00 0. -1.
</event>
<event>
 5   0  0.5924403E-04  0.1420469E+04  0.7818609E-02  0.8939134E-01
       -1   -1    0    0    0  501  0.00000000000E+00  0.00000000000E+00  0.37319697543E+03  0.37319697547E+03  0.50400001928E-02 0. -1.
        1   -1    0    0  501    0  0.00000000000E+00  0.00000000000E+00 -0.13516537722E+04  0.13516537722E+04  0.50400001928E-02 0.  1.
    10030    2    1    2    0    0  0.00000000000E+00  0.00000000000E+00 -0.97845679680E+03  0.17248507477E+04  0.14204690770E+04 0.  0.
        1    1    3    3  502    0 -0.10613463436E+03 -0.34384367908E+03  0.25430530924E+03  0.44064070010E+03  0.50400001928E-02 0. -1.
       -1    1    3    3    0  502  0.10613463436E+03  0.34384367908E+03 -0.12327621060E+04  0.12842100476E+04  0.50400001928E-02 0.  1.
</event>
<event>
 5   0  0.5840834E-04  0.1497279E+04  0.7818609E-02  0.8886264E-01
       -1   -1    0    0    0  501  0.00000000000E+00  0.00000000000E+00  0.57767834675E+03  0.57767834677E+03  0.50400001928E-02 0.  1.
        1   -1    0    0  501    0  0.00000000000E+00  0.00000000000E+00 -0.97019620798E+03  0.97019620799E+03  0.50400001928E-02 0. -1.
    10030    2    1    2    0    0  0.00000000000E+00  0.00000000000E+00 -0.39251786123E+03  0.15478745548E+04  0.14972793213E+04 0.  0.
        3    1    3    3  502    0 -0.38020330795E+03  0.40075811947E+03  0.32608685051E+03  0.64147819134E+03  0.10100000352E+00 0.  1.
       -3    1    3    3    0  502  0.38020330795E+03 -0.40075811947E+03 -0.71860471174E+03  0.90639636342E+03  0.10100000352E+00 0. -1.
</event>
<event>
 5   0  0.4070625E-04  0.1492821E+04  0.7818609E-02  0.8889241E-01
       -4   -1    0    0    0  501  0.00000000000E+00  0.00000000000E+00  0.58355060016E+03  0.58355198213E+03  0.12699999809E+01 0.  1.
        4   -1    0    0  501    0  0.00000000000E+00  0.00000000000E+00 -0.95471965639E+03  0.95472050109E+03  0.12699999809E+01 0. -1.
    10030    2    1    2    0    0  0.00000000000E+00  0.00000000000E+00 -0.37116905622E+03  0.15382724832E+04  0.14928214107E+04 0.  0.
        3    1    3    3  502    0 -0.32697783137E+03 -0.45346044018E+03 -0.69520051128E+03  0.89210124656E+03  0.10100000352E+00 0. -1.
       -3    1    3    3    0  502  0.32697783137E+03  0.45346044018E+03  0.32403145506E+03  0.64617123666E+03  0.10100000352E+00 0.  1.
</event>
<event>
 5   0  0.5606965E-04  0.1512522E+04  0.7818609E-02  0.8876168E-01
       -1   -1    0    0    0  501  0.00000000000E+00  0.00000000000E+00  0.13897943230E+04  0.13897943230E+04  0.50400001928E-02 0.  1.
        1   -1    0    0  501    0  0.00000000000E+00  0.00000000000E+00 -0.41152185899E+03  0.41152185902E+03  0.50400001928E-02 0. -1.
    10030    2    1    2    0    0  0.00000000000E+00  0.00000000000E+00  0.97827246398E+03  0.18013161820E+04  0.15125220573E+04 0.  0.
        4    1    3    3  502    0 -0.64779775081E+03 -0.29958141463E+03  0.19131143468E+03  0.73891313961E+03  0.12699999809E+01 0. -1.
       -4    1    3    3    0  502  0.64779775081E+03  0.29958141463E+03  0.78696102929E+03  0.10624030424E+04  0.12699999809E+01 0.  1.
</event>
<event>
 5   0  0.5924403E-04  0.1533489E+04  0.7818609E-02  0.8862484E-01
        1   -1    0    0  501    0  0.00000000000E+00  0.00000000000E+00  0.84010909788E+03  0.84010909789E+03  0.50400001928E-02 0.  1.
       -1   -1    0    0    0  501  0.00000000000E+00  0.00000000000E+00 -0.69978620033E+03  0.69978620035E+03  0.50400001928E-02 0. -1.
    10030    2    1    2    0    0  0.00000000000E+00  0.00000000000E+00  0.14032289755E+03  0.15398952982E+04  0.15334885112E+04 0.  0.
        1    1    3    3  502    0 -0.65885909913E+03 -0.62117274923E+02 -0.31868093586E+03  0.73451440235E+03  0.50400001928E-02 0.  1.
       -1    1    3    3    0  502  0.65885909913E+03  0.62117274923E+02  0.45900383341E+03  0.80538089589E+03  0.50400001928E-02 0. -1.
</event>
<event>
 5   0  0.5840834E-04  0.1484929E+04  0.7818609E-02  0.8894537E-01
        1   -1    0    0  501    0  0.00000000000E+00  0.00000000000E+00  0.98356902455E+03  0.98356902456E+03  0.50400001928E-02 0. -1.
       -1   -1    0    0    0  501  0.00000000000E+00  0.00000000000E+00 -0.56046267758E+03  0.56046267761E+03  0.50400001928E-02 0.  1.
    10030    2    1    2    0    0  0.00000000000E+00  0.00000000000E+00  0.42310634697E+03  0.15440317022E+04  0.14849292631E+04 0.  0.
        3    1    3    3  502    0 -0.73103371133E+03 -0.56244025104E+02  0.89936210547E+02  0.73868952181E+03  0.10100000352E+00 0. -1.
       -3    1    3    3    0  502  0.73103371133E+03  0.56244025104E+02  0.33317013642E+03  0.80534218036E+03  0.10100000352E+00 0.  1.
</event>
<event>
 5   0  0.1082667E-03  0.1632038E+04  0.7818609E-02  0.8801104E-01
        2   -1    0    0  501    0  0.00000000000E+00  0.00000000000E+00  0.12967606572E+04  0.12967606572E+04  0.25500000920E-02 0. -1.
       -2   -1    0    0    0  501  0.00000000000E+00  0.00000000000E+00 -0.51350052175E+03  0.51350052175E+03  0.25500000920E-02 0.  1.
    10030    2    1    2    0    0  0.00000000000E+00  0.00000000000E+00  0.78326013541E+03  0.18102611789E+04  0.16320383256E+04 0.  0.
        5    1    3    3  502    0  0.15856122154E+03 -0.78467269243E+03  0.21620663612E+03  0.82922873486E+03  0.46999998093E+01 0.  1.
       -5    1    3    3    0  502 -0.15856122154E+03  0.78467269243E+03  0.56705349928E+03  0.98103244404E+03  0.46999998093E+01 0. -1.
</event>
<event>
 5   0  0.1147755E-03  0.1428963E+04  0.7818609E-02  0.8933116E-01
        2   -1    0    0  501    0  0.00000000000E+00  0.00000000000E+00  0.15927219687E+04  0.15927219687E+04  0.25500000920E-02 0. -1.
       -2   -1    0    0    0  501  0.00000000000E+00  0.00000000000E+00 -0.32051038740E+03  0.32051038741E+03  0.25500000920E-02 0.  1.
    10030    2    1    2    0    0  0.00000000000E+00  0.00000000000E+00  0.12722115813E+04  0.19132323561E+04  0.14289631699E+04 0.  0.
        4    1    3    3  502    0 -0.19103950114E+03  0.28611349075E+01 -0.28567105396E+03  0.34367694287E+03  0.12699999809E+01 0.  1.
       -4    1    3    3    0  502  0.19103950114E+03 -0.28611349075E+01  0.15578826352E+04  0.15695554132E+04  0.12699999809E+01 0. -1.
</event>
<event>
 5   0  0.6146552E-04  0.1508909E+04  0.7818609E-02  0.8878550E-01
        1   -1    0    0  501    0  0.00000000000E+00  0.00000000000E+00  0.74066727541E+03  0.74066727543E+03  0.50400001928E-02 0. -1.
       -1   -1    0    0    0  501  0.00000000000E+00  0.00000000000E+00 -0.76849786937E+03  0.76849786939E+03  0.50400001928E-02 0.  1.
    10030    2    1    2    0    0  0.00000000000E+00  0.00000000000E+00 -0.27830593956E+02  0.15091651448E+04  0.15089085103E+04 0.  0.
        5    1    3    3  502    0 -0.32309322149E+03 -0.53251557009E+03 -0.43968368334E+03  0.76243418966E+03  0.46999998093E+01 0.  1.
       -5    1    3    3    0  502  0.32309322149E+03  0.53251557009E+03  0.41185308938E+03  0.74673095516E+03  0.46999998093E+01 0. -1.
</event>
<event>
 5   0  0.1147755E-03  0.1189799E+04  0.7818609E-02  0.9121832E-01
       -2   -1    0    0    0  501  0.00000000000E+00  0.00000000000E+00  0.81373687386E+03  0.81373687386E+03  0.25500000920E-02 0. -1.
        2   -1    0    0  501    0  0.00000000000E+00  0.00000000000E+00 -0.43491394724E+03  0.43491394725E+03  0.25500000920E-02 0.  1.
    10030    2    1    2    0    0  0.00000000000E+00  0.00000000000E+00  0.37882292661E+03  0.12486508211E+04  0.11897991693E+04 0.  0.
        4    1    3    3  502    0  0.21949393085E+03  0.38733800638E+03 -0.22468878986E+03  0.49869327452E+03  0.12699999809E+01 0.  1.
       -4    1    3    3    0  502 -0.21949393085E+03 -0.38733800638E+03  0.60351171647E+03  0.74995754659E+03  0.12699999809E+01 0. -1.
</event>
<event>
 5   0  0.5840834E-04  0.1501486E+04  0.7818609E-02  0.8883465E-01
        1   -1    0    0  501    0  0.00000000000E+00  0.00000000000E+00  0.62879580140E+03  0.62879580142E+03  0.50400001928E-02 0.  1.
       -1   -1    0    0    0  501  0.00000000000E+00  0.00000000000E+00 -0.89634021504E+03  0.89634021506E+03  0.50400001928E-02 0. -1.
    10030    2    1    2    0    0  0.00000000000E+00  0.00000000000E+00 -0.26754441365E+03  0.15251360165E+04  0.15014858825E+04 0.  0.
        3    1    3    3  502    0 -0.31005618574E+03 -0.68336771839E+03 -0.11131797543E+03  0.75862901256E+03  0.10100000352E+00 0. -1.
       -3    1    3    3    0  502  0.31005618574E+03  0.68336771839E+03 -0.15622643822E+03  0.76650700391E+03  0.10100000352E+00 0.  1.
</event>
<event>
 5   0  0.1097156E-03  0.1481454E+04  0.7818609E-02  0.8896880E-01
       -2   -1    0    0    0  501  0.00000000000E+00  0.00000000000E+00  0.36138380393E+03  0.36138380393E+03  0.25500000920E-02 0.  1.
        2   -1    0    0  501    0  0.00000000000E+00  0.00000000000E+00 -0.15182648488E+04  0.15182648488E+04  0.25500000920E-02 0. -1.
    10030    2    1    2    0    0  0.00000000000E+00  0.00000000000E+00 -0.11568810449E+04  0.18796486527E+04  0.14814537812E+04 0.  0.
        2    1    3    3  502    0 -0.52239991526E+03 -0.44918275777E+03 -0.92360994897E+03  0.11522682670E+04  0.25500000920E-02 0. -1.
       -2    1    3    3    0  502  0.52239991526E+03  0.44918275777E+03 -0.23327109591E+03  0.72738038572E+03  0.25500000920E-02 0.  1.
</event>
<event>
 5   0  0.1149716E-03  0.1493205E+04  0.7818609E-02  0.8888984E-01
        2   -1    0    0  501    0  0.00000000000E+00  0.00000000000E+00  0.99153212022E+03  0.99153212023E+03  0.25500000920E-02 0. -1.
       -2   -1    0    0    0  501  0.00000000000E+00  0.00000000000E+00 -0.56217562729E+03  0.56217562730E+03  0.25500000920E-02 0.  1.
    10030    2    1    2    0    0  0.00000000000E+00  0.00000000000E+00  0.42935649293E+03  0.15537077475E+04  0.14932048643E+04 0.  0.
        1    1    3    3  502    0 -0.57415216241E+03 -0.21730502060E+03 -0.22744187389E+03  0.65467700708E+03  0.50400001928E-02 0.  1.
       -1    1    3    3    0  502  0.57415216241E+03  0.21730502060E+03  0.65679836682E+03  0.89903074044E+03  0.50400001928E-02 0. -1.
</event>
<event>
 5   0  0.5606965E-04  0.1509180E+04  0.7818609E-02  0.8878371E-01
        1   -1    0    0  501    0  0.00000000000E+00  0.00000000000E+00  0.13246704278E+04  0.13246704278E+04  0.50400001928E-02 0. -1.
       -1   -1    0    0    0  501  0.00000000000E+00  0.00000000000E+00 -0.42984731969E+03  0.42984731972E+03  0.50400001928E-02 0.  1.
    10030    2    1    2    0    0  0.00000000000E+00  0.00000000000E+00  0.89482310809E+03  0.17545177475E+04  0.15091799533E+04 0.  0.
        4    1    3    3  502    0 -0.74206175868E+03 -0.74945151219E+02  0.58063541618E+03  0.94520449047E+03  0.12699999809E+01 0. -1.
       -4    1    3    3    0  502  0.74206175868E+03  0.74945151219E+02  0.31418769191E+03  0.80931325705E+03  0.12699999809E+01 0.  1.
</event>
<event>
 5   0  0.1149716E-03  0.1464252E+04  0.7818609E-02  0.8908579E-01
        2   -1    0    0  501    0  0.00000000000E+00  0.00000000000E+00  0.10915032470E+04  0.10915032470E+04  0.25500000920E-02 0. -1.
       -2   -1    0    0    0  501  0.00000000000E+00  0.00000000000E+00 -0.49107368206E+03  0.49107368207E+03  0.25500000920E-02 0.  1.
    10030    2    1    2    0    0  0.00000000000E+00  0.00000000000E+00  0.60042956493E+03  0.15825769291E+04  0.14642520527E+04 0.  0.
        1    1    3    3  502    0 -0.35020605759E+03 -0.63333960982E+03  0.41981486372E+03  0.83666472614E+03  0.50400001928E-02 0. -1.
       -1    1    3    3    0  502  0.35020605759E+03  0.63333960982E+03  0.18061470121E+03  0.74591220292E+03  0.50400001928E-02 0.  1.
</event>
<event>
 5   0  0.5914645E-04  0.1493047E+04  0.7818609E-02  0.8889090E-01
       -1   -1    0    0    0  501  0.00000000000E+00  0.00000000000E+00  0.30697541921E+03  0.30697541925E+03  0.50400001928E-02 0.  1.
        1   -1    0    0  501    0  0.00000000000E+00  0.00000000000E+00 -0.18154453186E+04  0.18154453187E+04  0.50400001928E-02 0. -1.
    10030    2    1    2    0    0  0.00000000000E+00  0.00000000000E+00 -0.15084698994E+04  0.21224207379E+04  0.14930466675E+04 0.  0.
        2    1    3    3  502    0 -0.50433891902E+03 -0.16651160714E+03 -0.14999840696E+04  0.15912372763E+04  0.25500000920E-02 0. -1.
       -2    1    3    3    0  502  0.50433891902E+03  0.16651160714E+03 -0.84858298497E+01  0.53118346158E+03  0.25500000920E-02 0.  1.
</event>
<event>
 5   0  0.1147755E-03  0.1460104E+04  0.7818609E-02  0.8911425E-01
       -2   -1    0    0    0  501  0.00000000000E+00  0.00000000000E+00  0.76350269687E+03  0.76350269687E+03  0.25500000920E-02 0.  1.
        2   -1    0    0  501    0  0.00000000000E+00  0.00000000000E+00 -0.69806717265E+03  0.69806717266E+03  0.25500000920E-02 0. -1.
    10030    2    1    2    0    0  0.00000000000E+00  0.00000000000E+00  0.65435524216E+02  0.14615698695E+04  0.14601043373E+04 0.  0.
        4    1    3    3  502    0  0.18809617414E+02  0.72674256322E+03 -0.34177460667E+02  0.72778998799E+03  0.12699999809E+01 0.  1.
       -4    1    3    3    0  502 -0.18809617414E+02 -0.72674256322E+03  0.99612984883E+02  0.73377988154E+03  0.12699999809E+01 0. -1.
</event>
<event>
 5   0  0.1126175E-03  0.1482802E+04  0.7818609E-02  0.8895971E-01
        2   -1    0    0  501    0  0.00000000000E+00  0.00000000000E+00  0.44251298305E+03  0.44251298305E+03  0.25500000920E-02 0.  1.
       -2   -1    0    0    0  501  0.00000000000E+00  0.00000000000E+00 -0.12421681654E+04  0.12421681654E+04  0.25500000920E-02 0. -1.
    10030    2    1    2    0    0  0.00000000000E+00  0.00000000000E+00 -0.79965518239E+03  0.16846811485E+04  0.14828021316E+04 0.  0.
        3    1    3    3  502    0 -0.63521796106E+03 -0.10891596657E+03  0.16552811084E+02  0.64470035798E+03  0.10100000352E+00 0.  1.
       -3    1    3    3    0  502  0.63521796106E+03  0.10891596657E+03 -0.81620799348E+03  0.10399807905E+04  0.10100000352E+00 0. -1.
</event>
<event>
 5   0  0.5914645E-04  0.1498268E+04  0.7818609E-02  0.8885605E-01
       -1   -1    0    0    0  501  0.00000000000E+00  0.00000000000E+00  0.56496064938E+03  0.56496064941E+03  0.50400001928E-02 0.  1.
        1   -1    0    0  501    0  0.00000000000E+00  0.00000000000E+00 -0.99334665121E+03  0.99334665122E+03  0.50400001928E-02 0. -1.
    10030    2    1    2    0    0  0.00000000000E+00  0.00000000000E+00 -0.42838600182E+03  0.15583073006E+04  0.14982680256E+04 0.  0.
        2    1    3    3  502    0  0.22647637062E+03  0.69020637558E+03 -0.40462961894E+03  0.83150557176E+03  0.25500000920E-02 0. -1.
       -2    1    3    3    0  502 -0.22647637062E+03 -0.69020637558E+03 -0.23756382882E+02  0.72680172886E+03  0.25500000920E-02 0.  1.
</event>
<event>
 5   0  0.5606965E-04  0.1418077E+04  0.7818609E-02  0.8940836E-01
        1   -1    0    0  501    0  0.00000000000E+00  0.00000000000E+00  0.94056637511E+03  0.94056637512E+03  0.50400001928E-02 0. -1.
       -1   -1    0    0    0  501  0.00000000000E+00  0.00000000000E+00 -0.53450303599E+03  0.53450303601E+03  0.50400001928E-02 0.  1.
    10030    2    1    2    0    0  0.00000000000E+00  0.00000000000E+00  0.40606333912E+03  0.14750694111E+04  0.14180769839E+04 0.  0.
        4    1    3    3  502    0 -0.23327427365E+03 -0.30327317579E+03  0.82396709567E+03  0.90846843289E+03  0.12699999809E+01 0. -1.
       -4    1    3    3    0  502  0.23327427365E+03  0.30327317579E+03 -0.41790375656E+03  0.56660097825E+03  0.12699999809E+01 0.  1.
</event>
<event>
 5   0  0.5840834E-04  0.1500583E+04  0.7818609E-02  0.8884065E-01
       -1   -1    0    0    0  501  0.00000000000E+00  0.00000000000E+00  0.44047348015E+03  0.44047348018E+03  0.50400001928E-02 0.  1.
        1   -1    0    0  501    0  0.00000000000E+00  0.00000000000E+00 -0.12780284749E+04  0.12780284749E+04  0.50400001928E-02 0. -1.
    10030    2    1    2    0    0  0.00000000000E+00  0.00000000000E+00 -0.83755499472E+03  0.17185019551E+04  0.15005834200E+04 0.  0.
        3    1    3    3  502    0  0.28004816043E+03  0.58955029886E+03 -0.84257345836E+03  0.10657985598E+04  0.10100000352E+00 0. -1.
       -3    1    3    3    0  502 -0.28004816043E+03 -0.58955029886E+03  0.50184636477E+01  0.65270339529E+03  0.10100000352E+00 0.  1.
</event>
<event>
 5   0  0.5840834E-04  0.1505624E+04  0.7818609E-02  0.8880722E-01
       -1   -1    0    0    0  501  0.00000000000E+00  0.00000000000E+00  0.33621339585E+03  0.33621339588E+03  0.50400001928E-02 0.  1.
        1   -1    0    0  501    0  0.00000000000E+00  0.00000000000E+00 -0.16856138842E+04  0.16856138842E+04  0.50400001928E-02 0. -1.
    10030    2    1    2    0    0  0.00000000000E+00  0.00000000000E+00 -0.13494004883E+04  0.20218272801E+04  0.15056240807E+04 0.  0.
        3    1    3    3  502    0  0.12974775913E+03 -0.47445395984E+02 -0.16684459017E+04  0.16741556928E+04  0.10100000352E+00 0. -1.
       -3    1    3    3    0  502 -0.12974775913E+03  0.47445395984E+02  0.31904541338E+03  0.34767158727E+03  0.10100000352E+00 0.  1.
</event>
<event>
 5   0  0.1126175E-03  0.1483702E+04  0.7818609E-02  0.8895364E-01
        2   -1    0    0  501    0  0.00000000000E+00  0.00000000000E+00  0.13395390972E+04  0.13395390972E+04  0.25500000920E-02 0. -1.
       -2   -1    0    0    0  501  0.00000000000E+00  0.00000000000E+00 -0.41084514226E+03  0.41084514226E+03  0.25500000920E-02 0.  1.
    10030    2    1    2    0    0  0.00000000000E+00  0.00000000000E+00  0.92869395491E+03  0.17503842394E+04  0.14837023029E+04 0.  0.
        3    1    3    3  502    0 -0.19289267111E+02 -0.29775145510E+03 -0.33693516884E+03  0.45005924393E+03  0.10100000352E+00 0.  1.
       -3    1    3    3    0  502  0.19289267111E+02  0.29775145510E+03  0.12656291238E+04  0.13003249955E+04  0.10100000352E+00 0. -1.
</event>
<event>
 5   0  0.1082667E-03  0.1505722E+04  0.7818609E-02  0.8880657E-01
        2   -1    0    0  501    0  0.00000000000E+00  0.00000000000E+00  0.83539903597E+03  0.83539903597E+03  0.25500000920E-02 0. -1.
       -2   -1    0    0    0  501  0.00000000000E+00  0.00000000000E+00 -0.67847810745E+03  0.67847810745E+03  0.25500000920E-02 0.  1.
    10030    2    1    2    0    0  0.00000000000E+00  0.00000000000E+00  0.15692092852E+03  0.15138771434E+04  0.15057223607E+04 0.  0.
        5    1    3    3  502    0  0.25683060979E+02  0.31648596886E+03  0.76476625579E+03  0.82807759546E+03  0.46999998093E+01 0. -1.
       -5    1    3    3    0  502 -0.25683060979E+02 -0.31648596886E+03 -0.60784532727E+03  0.68579954797E+03  0.46999998093E+01 0.  1.
</event>
<event>
 5   0  0.1097156E-03  0.1528660E+04  0.7818609E-02  0.8865615E-01
        2   -1    0    0  501    0  0.00000000000E+00  0.00000000000E+00  0.51177649658E+03  0.51177649659E+03  0.25500000920E-02 0.  1.
       -2   -1    0    0    0  501  0.00000000000E+00  0.00000000000E+00 -0.11415152142E+04  0.11415152142E+04  0.25500000920E-02 0. -1.
    10030    2    1    2    0    0  0.00000000000E+00  0.00000000000E+00 -0.62973871759E+03  0.16532917108E+04  0.15286604032E+04 0.  0.
        2    1    3    3  502    0  0.62236754451E+03  0.39993969742E+03 -0.10709306628E+03  0.74750387751E+03  0.25500000920E-02 0.  1.
       -2    1    3    3    0  502 -0.62236754451E+03 -0.39993969742E+03 -0.52264565131E+03  0.90578783325E+03  0.25500000920E-02 0. -1.
</event>
<event>
 5   0  0.5924403E-04  0.1448322E+04  0.7818609E-02  0.8919565E-01
        1   -1    0    0  501    0  0.00000000000E+00  0.00000000000E+00  0.40485320273E+03  0.40485320276E+03  0.50400001928E-02 0. -1.
       -1   -1    0    0    0  501  0.00000000000E+00  0.00000000000E+00 -0.12953068890E+04  0.12953068890E+04  0.50400001928E-02 0.  1.
    10030    2    1    2    0    0  0.00000000000E+00  0.00000000000E+00 -0.89045368622E+03  0.17001600917E+04  0.14483219843E+04 0.  0.
        1    1    3    3  502    0  0.31324310217E+03  0.36814435963E+03  0.18775354785E+03  0.51855848787E+03  0.50400001928E-02 0. -1.
       -1    1    3    3    0  502 -0.31324310217E+03 -0.36814435963E+03 -0.10782072341E+04  0.11816016038E+04  0.50400001928E-02 0.  1.
</event>
<event>
 5   0  0.1097156E-03  0.1757219E+04  0.7818609E-02  0.8729387E-01
        2   -1    0    0  501    0  0.00000000000E+00  0.00000000000E+00  0.12369716468E+04  0.12369716468E+04  0.25500000920E-02 0.  1.
       -2   -1    0    0    0  501  0.00000000000E+00  0.00000000000E+00 -0.62406790168E+03  0.62406790169E+03  0.25500000920E-02 0. -1.
    10030    2    1    2    0    0  0.00000000000E+00  0.00000000000E+00  0.61290374511E+03  0.18610395485E+04  0.17572185977E+04 0.  0.
        2    1    3    3  502    0 -0.31423048716E+03  0.70527976642E+03 -0.13759802700E+03  0.78427900968E+03  0.25500000920E-02 0. -1.
       -2    1    3    3    0  502  0.31423048716E+03 -0.70527976642E+03  0.75050177210E+03  0.10767605388E+04  0.25500000920E-02 0.  1.
</event>
<event>
 5   0  0.5924403E-04  0.1358658E+04  0.7818609E-02  0.8984300E-01
        1   -1    0    0  501    0  0.00000000000E+00  0.00000000000E+00  0.19894626668E+04  0.19894626668E+04  0.50400001928E-02 0. -1.
       -1   -1    0    0    0  501  0.00000000000E+00  0.00000000000E+00 -0.23196598957E+03  0.23196598962E+03  0.50400001928E-02 0.  1.
    10030    2    1    2    0    0  0.00000000000E+00  0.00000000000E+00  0.17574966772E+04  0.22214286564E+04  0.13586576850E+04 0.  0.
        1    1    3    3  502    0 -0.60264615729E+03  0.31352357475E+03  0.88344554277E+03  0.11144305496E+04  0.50400001928E-02 0. -1.
       -1    1    3    3    0  502  0.60264615729E+03 -0.31352357475E+03  0.87405113442E+03  0.11069981068E+04  0.50400001928E-02 0.  1.
</event>
<event>
 5   0  0.6146552E-04  0.1454477E+04  0.7818609E-02  0.8915303E-01
        1   -1    0    0  501    0  0.00000000000E+00  0.00000000000E+00  0.11949740464E+04  0.11949740465E+04  0.50400001928E-02 0. -1.
       -1   -1    0    0    0  501  0.00000000000E+00  0.00000000000E+00 -0.44258345251E+03  0.44258345254E+03  0.50400001928E-02 0.  1.
    10030    2    1    2    0    0  0.00000000000E+00  0.00000000000E+00  0.75239059394E+03  0.16375574990E+04  0.14544768670E+04 0.  0.
        5    1    3    3  502    0  0.72434989882E+03 -0.27480136806E+02  0.31039458776E+03  0.78854601891E+03  0.46999998093E+01 0. -1.
       -5    1    3    3    0  502 -0.72434989882E+03  0.27480136806E+02  0.44199600617E+03  0.84901148008E+03  0.46999998093E+01 0.  1.
</event>
<event>
 5   0  0.1147755E-03  0.1516917E+04  0.7818609E-02  0.8873281E-01
       -2   -1    0    0    0  501  0.00000000000E+00  0.00000000000E+00  0.37855981154E+03  0.37855981155E+03  0.25500000920E-02 0. -1.
        2   -1    0    0  501    0  0.00000000000E+00  0.00000000000E+00 -0.15195996690E+04  0.15195996690E+04  0.25500000920E-02 0.  1.
    10030    2    1    2    0    0  0.00000000000E+00  0.00000000000E+00 -0.11410398575E+04  0.18981594806E+04  0.15169170898E+04 0.  0.
        4    1    3    3  502    0  0.17982396308E+03 -0.19963204798E+03 -0.14580524196E+04  0.14826017953E+04  0.12699999809E+01 0.  1.
       -4    1    3    3    0  502 -0.17982396308E+03  0.19963204798E+03  0.31701256215E+03  0.41555768521E+03  0.12699999809E+01 0. -1.
</event>
<event>
 5   0  0.5840834E-04  0.1489884E+04  0.7818609E-02  0.8891208E-01
       -1   -1    0    0    0  501  0.00000000000E+00  0.00000000000E+00  0.43689832721E+03  0.43689832724E+03  0.50400001928E-02 0.  1.
        1   -1    0    0  501    0  0.00000000000E+00  0.00000000000E+00 -0.12701773816E+04  0.12701773816E+04  0.50400001928E-02 0. -1.
    10030    2    1    2    0    0  0.00000000000E+00  0.00000000000E+00 -0.83327905438E+03  0.17070757088E+04  0.14898837180E+04 0.  0.
        3    1    3    3  502    0 -0.71556203858E+03 -0.20702789078E+03 -0.42464231466E+03  0.85744427470E+03  0.10100000352E+00 0.  1.
       -3    1    3    3    0  502  0.71556203858E+03  0.20702789078E+03 -0.40863673972E+03  0.84963143413E+03  0.10100000352E+00 0. -1.
</event>
<event>
 5   0  0.4070625E-04  0.1483334E+04  0.7818609E-02  0.8895612E-01
       -3   -1    0    0    0  501  0.00000000000E+00  0.00000000000E+00  0.41296024081E+03  0.41296025316E+03  0.10100000352E+00 0.  1.
        3   -1    0    0  501    0  0.00000000000E+00  0.00000000000E+00 -0.13320174586E+04  0.13320174624E+04  0.10100000352E+00 0. -1.
    10030    2    1    2    0    0  0.00000000000E+00  0.00000000000E+00 -0.91905721779E+03  0.17449777156E+04  0.14833344391E+04 0.  0.
        3    1    3    3  502    0  0.13311386833E+02  0.39750074671E+03  0.27690025167E+03  0.48462129155E+03  0.10100000352E+00 0.  1.
       -3    1    3    3    0  502 -0.13311386833E+02 -0.39750074671E+03 -0.11959574695E+04  0.12603564240E+04  0.10100000352E+00 0. -1.
</event>
<event>
 5   0  0.5924403E-04  0.1605602E+04  0.7818609E-02  0.8817114E-01
       -1   -1    0    0    0  501  0.00000000000E+00  0.00000000000E+00  0.63419160607E+03  0.63419160609E+03  0.50400001928E-02 0. -1.
        1   -1    0    0  501    0  0.00000000000E+00  0.00000000000E+00 -0.10162382394E+04  0.10162382394E+04  0.50400001928E-02 0.  1.
    10030    2    1    2    0    0  0.00000000000E+00  0.00000000000E+00 -0.38204663329E+03  0.16504298455E+04  0.16056023931E+04 0.  0.
        1    1    3    3  502    0  0.51449971229E+02  0.18024774330E+03  0.61138179316E+03  0.63947169252E+03  0.50400001928E-02 0. -1.
       -1    1    3    3    0  502 -0.51449971229E+02 -0.18024774330E+03 -0.99342842646E+03  0.10109581530E+04  0.50400001928E-02 0.  1.
</event>
<event>
 5   0  0.5914645E-04  0.1250922E+04  0.7818609E-02  0.9069416E-01
       -1   -1    0    0    0  501  0.00000000000E+00  0.00000000000E+00  0.61713806382E+03  0.61713806385E+03  0.50400001928E-02 0. -1.
        1   -1    0    0  501    0  0.00000000000E+00  0.00000000000E+00 -0.63389637563E+03  0.63389637565E+03  0.50400001928E-02 0.  1.
    10030    2    1    2    0    0  0.00000000000E+00  0.00000000000E+00 -0.16758311807E+02  0.12510344395E+04  0.12509221909E+04 0.  0.
        2    1    3    3  502    0  0.17979793024E+03  0.40910929063E+03 -0.44602998063E+03  0.63137979935E+03  0.25500000920E-02 0.  1.
       -2    1    3    3    0  502 -0.17979793024E+03 -0.40910929063E+03  0.42927166882E+03  0.61965464015E+03  0.25500000920E-02 0. -1.
</event>
<event>
 5   0  0.5606965E-04  0.1550852E+04  0.7818609E-02  0.8851324E-01
       -1   -1    0    0    0  501  0.00000000000E+00  0.00000000000E+00  0.55082781601E+03  0.55082781603E+03  0.50400001928E-02 0.  1.
        1   -1    0    0  501    0  0.00000000000E+00  0.00000000000E+00 -0.10916033191E+04  0.10916033191E+04  0.50400001928E-02 0. -1.
    10030    2    1    2    0    0  0.00000000000E+00  0.00000000000E+00 -0.54077550307E+03  0.16424311351E+04  0.15508519881E+04 0.  0.
        4    1    3    3  502    0  0.37087093525E+03 -0.31233671736E+03 -0.91125300835E+03  0.10322224246E+04  0.12699999809E+01 0. -1.
       -4    1    3    3    0  502 -0.37087093525E+03  0.31233671736E+03  0.37047750528E+03  0.61020871056E+03  0.12699999809E+01 0.  1.
</event>
<event>
 5   0  0.4070625E-04  0.1512247E+04  0.7818609E-02  0.8876349E-01
        3   -1    0    0  501    0  0.00000000000E+00  0.00000000000E+00  0.16755186346E+04  0.16755186377E+04  0.10100000352E+00 0. -1.
       -3   -1    0    0    0  501  0.00000000000E+00  0.00000000000E+00 -0.34122140819E+03  0.34122142313E+03  0.10100000352E+00 0.  1.
    10030    2    1    2    0    0  0.00000000000E+00  0.00000000000E+00  0.13342972264E+04  0.20167400608E+04  0.15122471307E+04 0.  0.
        4    1    3    3  502    0  0.10199456099E+03  0.74917675689E+03  0.65748299962E+03  0.10019751550E+04  0.12699999809E+01 0. -1.
       -4    1    3    3    0  502 -0.10199456099E+03 -0.74917675689E+03  0.67681422682E+03  0.10147649058E+04  0.12699999809E+01 0.  1.
</event>
<event>
 5   0  0.1149716E-03  0.1517571E+04  0.7818609E-02  0.8872852E-01
        2   -1    0    0  501    0  0.00000000000E+00  0.00000000000E+00  0.10776006043E+04  0.10776006043E+04  0.25500000920E-02 0. -1.
       -2   -1    0    0    0  501  0.00000000000E+00  0.00000000000E+00 -0.53429413189E+03  0.53429413190E+03  0.25500000920E-02 0.  1.
    10030    2    1    2    0    0  0.00000000000E+00  0.00000000000E+00  0.54330647243E+03  0.16118947362E+04  0.15175713221E+04 0.  0.
        1    1    3    3  502    0  0.49149170011E+03 -0.31735344104E+03 -0.24157542696E+03  0.63295812243E+03  0.50400001928E-02 0.  1.
       -1    1    3    3    0  502 -0.49149170011E+03  0.31735344104E+03  0.78488189939E+03  0.97893661379E+03  0.50400001928E-02 0. -1.
</event>
<event>
 5   0  0.5914645E-04  0.1643577E+04  0.7818609E-02  0.8794215E-01
        1   -1    0    0  501    0  0.00000000000E+00  0.00000000000E+00  0.81445886204E+03  0.81445886205E+03  0.50400001928E-02 0. -1.
       -1   -1    0    0    0  501  0.00000000000E+00  0.00000000000E+00 -0.82918453315E+03  0.82918453316E+03  0.50400001928E-02 0.  1.
    10030    2    1    2    0    0  0.00000000000E+00  0.00000000000E+00 -0.14725671114E+02  0.16436433952E+04  0.16435774290E+04 0.  0.
        2    1    3    3  502    0 -0.17893527004E+03 -0.11163963597E+02  0.79466325973E+03  0.81463621410E+03  0.25500000920E-02 0. -1.
       -2    1    3    3    0  502  0.17893527004E+03  0.11163963597E+02 -0.80938893085E+03  0.82900718111E+03  0.25500000920E-02 0.  1.
</event>
<event>
 5   0  0.1126175E-03  0.1500981E+04  0.7818609E-02  0.8883801E-01
        2   -1    0    0  501    0  0.00000000000E+00  0.00000000000E+00  0.19939790150E+04  0.19939790150E+04  0.25500000920E-02 0. -1.
       -2   -1    0    0    0  501  0.00000000000E+00  0.00000000000E+00 -0.28246828275E+03  0.28246828277E+03  0.25500000920E-02 0.  1.
    10030    2    1    2    0    0  0.00000000000E+00  0.00000000000E+00  0.17115107323E+04  0.22764472978E+04  0.15009807837E+04 0.  0.
        3    1    3    3  502    0  0.18804795742E+03  0.33721152511E+03  0.18317955149E+04  0.18720439273E+04  0.10100000352E+00 0. -1.
       -3    1    3    3    0  502 -0.18804795742E+03 -0.33721152511E+03 -0.12028478264E+03  0.40440337053E+03  0.10100000352E+00 0.  1.
</event>
<event>
 5   0  0.5606965E-04  0.1467120E+04  0.7818609E-02  0.8906617E-01
        1   -1    0    0  501    0  0.00000000000E+00  0.00000000000E+00  0.10240854916E+04  0.10240854917E+04  0.50400001928E-02 0.  1.
       -1   -1    0    0    0  501  0.00000000000E+00  0.00000000000E+00 -0.52545463911E+03  0.52545463913E+03  0.50400001928E-02 0. -1.
    10030    2    1    2    0    0  0.00000000000E+00  0.00000000000E+00  0.49863085254E+03  0.15495401308E+04  0.14671202711E+04 0.  0.
        4    1    3    3  502    0 -0.95019360476E+02  0.60014972487E+03  0.68337822198E+03  0.91444834644E+03  0.12699999809E+01 0.  1.
       -4    1    3    3    0  502  0.95019360476E+02 -0.60014972487E+03 -0.18474736945E+03  0.63509178435E+03  0.12699999809E+01 0. -1.
</event>
<event>
 5   0  0.1149716E-03  0.1300897E+04  0.7818609E-02  0.9028854E-01
       -2   -1    0    0    0  501  0.00000000000E+00  0.00000000000E+00  0.35883637068E+03  0.35883637069E+03  0.25500000920E-02 0. -1.
        2   -1    0    0  501    0  0.00000000000E+00  0.00000000000E+00 -0.11790427114E+04  0.11790427114E+04  0.25500000920E-02 0.  1.
    10030    2    1    2    0    0  0.00000000000E+00  0.00000000000E+00 -0.82020634069E+03  0.15378790821E+04  0.13008972403E+04 0.  0.
        1    1    3    3  502    0  0.16332560077E+03  0.63029453238E+02  0.33046204589E+03  0.37396942073E+03  0.50400001928E-02 0. -1.
       -1    1    3    3    0  502 -0.16332560077E+03 -0.63029453238E+02 -0.11506683866E+04  0.11639096613E+04  0.50400001928E-02 0.  1.
</event>
<event>
 5   0  0.5840834E-04  0.1475930E+04  0.7818609E-02  0.8900619E-01
       -1   -1    0    0    0  501  0.00000000000E+00  0.00000000000E+00  0.36553038073E+03  0.36553038076E+03  0.50400001928E-02 0. -1.
        1   -1    0    0  501    0  0.00000000000E+00  0.00000000000E+00 -0.14898682860E+04  0.14898682860E+04  0.50400001928E-02 0.  1.
    10030    2    1    2    0    0  0.00000000000E+00  0.00000000000E+00 -0.11243379053E+04  0.18553986667E+04  0.14759297027E+04 0.  0.
        3    1    3    3  502    0 -0.68368084728E+03  0.52715824968E+02 -0.90504686397E+03  0.11354771223E+04  0.10100000352E+00 0.  1.
       -3    1    3    3    0  502  0.68368084728E+03 -0.52715824968E+02 -0.21929104128E+03  0.71992154442E+03  0.10100000352E+00 0. -1.
</event>
<event>
 5   0  0.1147755E-03  0.1604939E+04  0.7818609E-02  0.8817519E-01
       -2   -1    0    0    0  501  0.00000000000E+00  0.00000000000E+00  0.58181104036E+03  0.58181104037E+03  0.25500000920E-02 0.  1.
        2   -1    0    0  501    0  0.00000000000E+00  0.00000000000E+00 -0.11068153255E+04  0.11068153255E+04  0.25500000920E-02 0. -1.
    10030    2    1    2    0    0  0.00000000000E+00  0.00000000000E+00 -0.52500428515E+03  0.16886263659E+04  0.16049390967E+04 0.  0.
        4    1    3    3  502    0 -0.86199692143E+02 -0.46675870924E+03 -0.94328187376E+03  0.10559717732E+04  0.12699999809E+01 0. -1.
       -4    1    3    3    0  502  0.86199692143E+02  0.46675870924E+03  0.41827758861E+03  0.63265459266E+03  0.12699999809E+01 0.  1.
</event>
<event>
 5   0  0.1147755E-03  0.1520737E+04  0.7818609E-02  0.8870779E-01
        2   -1    0    0  501    0  0.00000000000E+00  0.00000000000E+00  0.10388410873E+04  0.10388410873E+04  0.25500000920E-02 0. -1.
       -2   -1    0    0    0  501  0.00000000000E+00  0.00000000000E+00 -0.55654375506E+03  0.55654375507E+03  0.25500000920E-02 0.  1.
    10030    2    1    2    0    0  0.00000000000E+00  0.00000000000E+00  0.48229733223E+03  0.15953848424E+04  0.15207373470E+04 0.  0.
        4    1    3    3  502    0 -0.60761566711E+03 -0.20681071672E+03 -0.18652801295E+03  0.66840241172E+03  0.12699999809E+01 0.  1.
       -4    1    3    3    0  502  0.60761566711E+03  0.20681071672E+03  0.66882534518E+03  0.92698243065E+03  0.12699999809E+01 0. -1.
</event>
<event>
 5   0  0.1082667E-03  0.1494578E+04  0.7818609E-02  0.8888066E-01
       -2   -1    0    0    0  501  0.00000000000E+00  0.00000000000E+00  0.40255530590E+03  0.40255530591E+03  0.25500000920E-02 0. -1.
        2   -1    0    0  501    0  0.00000000000E+00  0.00000000000E+00 -0.13872409740E+04  0.13872409740E+04  0.25500000920E-02 0.  1.
    10030    2    1    2    0    0  0.00000000000E+00  0.00000000000E+00 -0.98468566805E+03  0.17897962799E+04  0.14945784886E+04 0.  0.
        5    1    3    3  502    0  0.66792388424E+03 -0.18047374632E+03 -0.83047381203E+03  0.10809264224E+04  0.46999998093E+01 0. -1.
       -5    1    3    3    0  502 -0.66792388424E+03  0.18047374632E+03 -0.15421185602E+03  0.70886985744E+03  0.46999998093E+01 0.  1.
</event>
<event>
 5   0  0.1097156E-03  0.1487628E+04  0.7818609E-02  0.8892722E-01
       -2   -1    0    0    0  501  0.00000000000E+00  0.00000000000E+00  0.14740362649E+04  0.14740362649E+04  0.25500000920E-02 0.  1.
        2   -1    0    0  501    0  0.00000000000E+00  0.00000000000E+00 -0.37533608272E+03  0.37533608273E+03  0.25500000920E-02 0. -1.
    10030    2    1    2    0    0  0.00000000000E+00  0.00000000000E+00  0.10987001822E+04  0.18493723476E+04  0.14876276382E+04 0.  0.
        2    1    3    3  502    0  0.36327407113E+03 -0.64695530063E+03  0.48427895074E+03  0.88602782908E+03  0.25500000920E-02 0. -1.
       -2    1    3    3    0  502 -0.36327407113E+03  0.64695530063E+03  0.61442123146E+03  0.96334451856E+03  0.25500000920E-02 0.  1.
</event>
<event>
 5   0  0.1126175E-03  0.1512829E+04  0.7818609E-02  0.8875966E-01
        2   -1    0    0  501    0  0.00000000000E+00  0.00000000000E+00  0.18693015366E+04  0.18693015366E+04  0.25500000920E-02 0.  1.
       -2   -1    0    0    0  501  0.00000000000E+00  0.00000000000E+00 -0.30608388434E+03  0.30608388435E+03  0.25500000920E-02 0. -1.
    10030    2    1    2    0    0  0.00000000000E+00  0.00000000000E+00  0.15632176523E+04  0.21753854210E+04  0.15128292374E+04 0.  0.
        3    1    3    3  502    0  0.70269472603E+03 -0.58950143454E+02  0.11751685088E+04  0.13705021094E+04  0.10100000352E+00 0.  1.
       -3    1    3    3    0  502 -0.70269472603E+03  0.58950143454E+02  0.38804914346E+03  0.80488331163E+03  0.10100000352E+00 0. -1.
</event>
<event>
 5   0  0.1082667E-03  0.1497219E+04  0.7818609E-02  0.8886305E-01
       -2   -1    0    0    0  501  0.00000000000E+00  0.00000000000E+00  0.90578684508E+03  0.90578684509E+03  0.25500000920E-02 0.  1.
        2   -1    0    0  501    0  0.00000000000E+00  0.00000000000E+00 -0.61870616879E+03  0.61870616879E+03  0.25500000920E-02 0. -1.
    10030    2    1    2    0    0  0.00000000000E+00  0.00000000000E+00  0.28708067630E+03  0.15244930139E+04  0.14972186329E+04 0.  0.
        5    1    3    3  502    0  0.22343651057E+03  0.54017363975E+03  0.61969398449E+03  0.85191206104E+03  0.46999998093E+01 0.  1.
       -5    1    3    3    0  502 -0.22343651057E+03 -0.54017363975E+03 -0.33261330819E+03  0.67258095284E+03  0.46999998093E+01 0. -1.
</event>
<event>
 5   0  0.1097156E-03  0.1502643E+04  0.7818609E-02  0.8882697E-01
        2   -1    0    0  501    0  0.00000000000E+00  0.00000000000E+00  0.64192613001E+03  0.64192613002E+03  0.25500000920E-02 0.  1.
       -2   -1    0    0    0  501  0.00000000000E+00  0.00000000000E+00 -0.87935987733E+03  0.87935987733E+03  0.25500000920E-02 0. -1.
    10030    2    1    2    0    0  0.00000000000E+00  0.00000000000E+00 -0.23743374732E+03  0.15212860073E+04  0.15026431152E+04 0.  0.
        2    1    3    3  502    0  0.54099485523E+02 -0.69028378390E+03 -0.41399554412E+03  0.80672843461E+03  0.25500000920E-02 0.  1.
       -2    1    3    3    0  502 -0.54099485523E+02  0.69028378390E+03  0.17656179681E+03  0.71455757273E+03  0.25500000920E-02 0. -1.
</event>
<event>
 5   0  0.4070625E-04  0.1543930E+04  0.7818609E-02  0.8855754E-01
        3   -1    0    0  501    0  0.00000000000E+00  0.00000000000E+00  0.35907365494E+03  0.35907366914E+03  0.10100000352E+00 0. -1.
       -3   -1    0    0    0  501  0.00000000000E+00  0.00000000000E+00 -0.16596309523E+04  0.16596309554E+04  0.10100000352E+00 0.  1.
    10030    2    1    2    0    0  0.00000000000E+00  0.00000000000E+00 -0.13005572974E+04  0.20187046245E+04  0.15439297514E+04 0.  0.
        5    1    3    3  502    0  0.36094428223E+02 -0.75599031290E+03 -0.84893215924E+03  0.11373355098E+04  0.46999998093E+01 0.  1.
       -5    1    3    3    0  502 -0.36094428223E+02  0.75599031290E+03 -0.45162513814E+03  0.88136911470E+03  0.46999998093E+01 0. -1.
</event>
<event>
 5   0  0.4070625E-04  0.1510353E+04  0.7818609E-02  0.8877597E-01
        4   -1    0    0  501    0  0.00000000000E+00  0.00000000000E+00  0.10330832067E+04  0.10330839873E+04  0.12699999809E+01 0.  1.
       -4   -1    0    0    0  501  0.00000000000E+00  0.00000000000E+00 -0.55202701878E+03  0.55202847967E+03  0.12699999809E+01 0. -1.
    10030    2    1    2    0    0  0.00000000000E+00  0.00000000000E+00  0.48105618790E+03  0.15851124670E+04  0.15103530968E+04 0.  0.
        5    1    3    3  502    0 -0.26722285788E+03 -0.29261603328E+03 -0.43412631838E+03  0.58780944958E+03  0.46999998093E+01 0. -1.
       -5    1    3    3    0  502  0.26722285788E+03  0.29261603328E+03  0.91518250628E+03  0.99730301739E+03  0.46999998093E+01 0.  1.
</event>
<event>
 5   0  0.1126175E-03  0.1504257E+04  0.7818609E-02  0.8881627E-01
       -2   -1    0    0    0  501  0.00000000000E+00  0.00000000000E+00  0.13463805087E+04  0.13463805087E+04  0.25500000920E-02 0. -1.
        2   -1    0    0  501    0  0.00000000000E+00  0.00000000000E+00 -0.42016154049E+03  0.42016154050E+03  0.25500000920E-02 0.  1.
    10030    2    1    2    0    0  0.00000000000E+00  0.00000000000E+00  0.92621896823E+03  0.17665420492E+04  0.15042570374E+04 0.  0.
        3    1    3    3  502    0 -0.34106509897E+03 -0.17177383897E+03  0.12240611948E+04  0.12822470403E+04  0.10100000352E+00 0. -1.
       -3    1    3    3    0  502  0.34106509897E+03  0.17177383897E+03 -0.29784222661E+03  0.48429500890E+03  0.10100000352E+00 0.  1.
</event>
<event>
 5   0  0.5924403E-04  0.1512612E+04  0.7818609E-02  0.8876109E-01
        1   -1    0    0  501    0  0.00000000000E+00  0.00000000000E+00  0.87747654436E+03  0.87747654438E+03  0.50400001928E-02 0. -1.
       -1   -1    0    0    0  501  0.00000000000E+00  0.00000000000E+00 -0.65186799181E+03  0.65186799183E+03  0.50400001928E-02 0.  1.
    10030    2    1    2    0    0  0.00000000000E+00  0.00000000000E+00  0.22560855255E+03  0.15293445362E+04  0.15126121418E+04 0.  0.
        1    1    3    3  502    0  0.66660683982E+03  0.27890066408E+03 -0.11293352748E+03  0.73137147946E+03  0.50400001928E-02 0.  1.
       -1    1    3    3    0  502 -0.66660683982E+03 -0.27890066408E+03  0.33854208003E+03  0.79797305674E+03  0.50400001928E-02 0. -1.
</event>
<event>
 5   0  0.1149716E-03  0.1501682E+04  0.7818609E-02  0.8883335E-01
        2   -1    0    0  501    0  0.00000000000E+00  0.00000000000E+00  0.12274956143E+04  0.12274956143E+04  0.25500000920E-02 0.  1.
       -2   -1    0    0    0  501  0.00000000000E+00  0.00000000000E+00 -0.45927858753E+03  0.45927858754E+03  0.25500000920E-02 0. -1.
    10030    2    1    2    0    0  0.00000000000E+00  0.00000000000E+00  0.76821702676E+03  0.16867742018E+04  0.15016823259E+04 0.  0.
        1    1    3    3  502    0  0.37081379069E+03  0.92308869343E+02  0.11100994751E+04  0.11740292328E+04  0.50400001928E-02 0.  1.
       -1    1    3    3    0  502 -0.37081379069E+03 -0.92308869343E+02 -0.34188244839E+03  0.51274496903E+03  0.50400001928E-02 0. -1.
</event>
<event>
 5   0  0.1097156E-03  0.1495340E+04  0.7818609E-02  0.8887558E-01
        2   -1    0    0  501    0  0.00000000000E+00  0.00000000000E+00  0.10039307405E+04  0.10039307405E+04  0.25500000920E-02 0. -1.
       -2   -1    0    0    0  501  0.00000000000E+00  0.00000000000E+00 -0.55682190296E+03  0.55682190297E+03  0.25500000920E-02 0.  1.
    10030    2    1    2    0    0  0.00000000000E+00  0.00000000000E+00  0.44710883751E+03  0.15607526434E+04  0.14953402628E+04 0.  0.
        2    1    3    3  502    0  0.55875045097E+02  0.38152954604E+03 -0.44503178628E+03  0.58884641968E+03  0.25500000920E-02 0. -1.
       -2    1    3    3    0  502 -0.55875045097E+02 -0.38152954604E+03  0.89214062379E+03  0.97190622376E+03  0.25500000920E-02 0.  1.
</event>
<event>
 5   0  0.5914645E-04  0.1482971E+04  0.7818609E-02  0.8895856E-01
        1   -1    0    0  501    0  0.00000000000E+00  0.00000000000E+00  0.83539985671E+03  0.83539985672E+03  0.50400001928E-02 0.  1.
       -1   -1    0    0    0  501  0.00000000000E+00  0.00000000000E+00 -0.65812927564E+03  0.65812927566E+03  0.50400001928E-02 0. -1.
    10030    2    1    2    0    0  0.00000000000E+00  0.00000000000E+00  0.17727058106E+03  0.14935291324E+04  0.14829714800E+04 0.  0.
        2    1    3    3  502    0  0.23818981581E+03 -0.64851157461E+03  0.35980942384E+03  0.77895087923E+03  0.25500000920E-02 0. -1.
       -2    1    3    3    0  502 -0.23818981581E+03  0.64851157461E+03 -0.18253884278E+03  0.71457825316E+03  0.25500000920E-02 0.  1.
</event>
<event>
 5   0  0.1082667E-03  0.1114556E+04  0.7818609E-02  0.9191120E-01
       -2   -1    0    0    0  501  0.00000000000E+00  0.00000000000E+00  0.37885326596E+03  0.37885326597E+03  0.25500000920E-02 0. -1.
        2   -1    0    0  501    0  0.00000000000E+00  0.00000000000E+00 -0.81973359006E+03  0.81973359006E+03  0.25500000920E-02 0.  1.
    10030    2    1    2    0    0  0.00000000000E+00  0.00000000000E+00 -0.44088032409E+03  0.11985868560E+04  0.11145559615E+04 0.  0.
        5    1    3    3  502    0 -0.10578808240E+03  0.50782950337E+03 -0.14852447328E+01  0.51875448800E+03  0.46999998093E+01 0. -1.
       -5    1    3    3    0  502  0.10578808240E+03 -0.50782950337E+03 -0.43939507936E+03  0.67983236804E+03  0.46999998093E+01 0.  1.
</event>
<event>
 5   0  0.5840834E-04  0.1504877E+04  0.7818609E-02  0.8881216E-01
       -1   -1    0    0    0  501  0.00000000000E+00  0.00000000000E+00  0.44607304857E+03  0.44607304860E+03  0.50400001928E-02 0. -1.
        1   -1    0    0  501    0  0.00000000000E+00  0.00000000000E+00 -0.12692167960E+04  0.12692167960E+04  0.50400001928E-02 0.  1.
    10030    2    1    2    0    0  0.00000000000E+00  0.00000000000E+00 -0.82314374739E+03  0.17152898446E+04  0.15048766136E+04 0.  0.
        3    1    3    3  502    0  0.68792232628E+03  0.13723839904E+03 -0.72182913910E+03  0.10065330702E+04  0.10100000352E+00 0.  1.
       -3    1    3    3    0  502 -0.68792232628E+03 -0.13723839904E+03 -0.10131460829E+03  0.70875677437E+03  0.10100000352E+00 0. -1.
</event>
<event>
 5   0  0.5840834E-04  0.1761412E+04  0.7818609E-02  0.8727094E-01
        1   -1    0    0  501    0  0.00000000000E+00  0.00000000000E+00  0.72379622704E+03  0.72379622705E+03  0.50400001928E-02 0.  1.
       -1   -1    0    0    0  501  0.00000000000E+00  0.00000000000E+00 -0.10716318879E+04  0.10716318879E+04  0.50400001928E-02 0. -1.
    10030    2    1    2    0    0  0.00000000000E+00  0.00000000000E+00 -0.34783566083E+03  0.17954281149E+04  0.17614120668E+04 0.  0.
        3    1    3    3  502    0 -0.32318863169E+03  0.78051558956E+03 -0.42769910243E+03  0.94688014533E+03  0.10100000352E+00 0. -1.
       -3    1    3    3    0  502  0.32318863169E+03 -0.78051558956E+03  0.79863441598E+02  0.84854796960E+03  0.10100000352E+00 0.  1.
</event>
<event>
 5   0  0.5606965E-04  0.1379469E+04  0.7818609E-02  0.8968816E-01
        1   -1    0    0  501    0  0.00000000000E+00  0.00000000000E+00  0.15307486726E+04  0.15307486726E+04  0.50400001928E-02 0.  1.
       -1   -1    0    0    0  501  0.00000000000E+00  0.00000000000E+00 -0.31078481969E+03  0.31078481973E+03  0.50400001928E-02 0. -1.
    10030    2    1    2    0    0  0.00000000000E+00  0.00000000000E+00  0.12199638529E+04  0.18415334924E+04  0.13794686662E+04 0.  0.
        4    1    3    3  502    0 -0.49410583767E+03  0.46622087720E+03  0.76922492482E+03  0.10262607286E+04  0.12699999809E+01 0.  1.
       -4    1    3    3    0  502  0.49410583767E+03 -0.46622087720E+03  0.45073892811E+03  0.81527276379E+03  0.12699999809E+01 0. -1.
</event>
<event>
 5   0  0.1147755E-03  0.1536990E+04  0.7818609E-02  0.8860221E-01
        2   -1    0    0  501    0  0.00000000000E+00  0.00000000000E+00  0.13339738782E+04  0.13339738782E+04  0.25500000920E-02 0. -1.
       -2   -1    0    0    0  501  0.00000000000E+00  0.00000000000E+00 -0.44272548585E+03  0.44272548586E+03  0.25500000920E-02 0.  1.
    10030    2    1    2    0    0  0.00000000000E+00  0.00000000000E+00  0.89124839231E+03  0.17766993640E+04  0.15369895684E+04 0.  0.
        4    1    3    3  502    0  0.69980590020E+03  0.31029970307E+03  0.52375564623E+03  0.92754287962E+03  0.12699999809E+01 0.  1.
       -4    1    3    3    0  502 -0.69980590020E+03 -0.31029970307E+03  0.36749274608E+03  0.84915648440E+03  0.12699999809E+01 0. -1.
</event>
<event>
 5   0  0.1097156E-03  0.1502887E+04  0.7818609E-02  0.8882535E-01
       -2   -1    0    0    0  501  0.00000000000E+00  0.00000000000E+00  0.58834318940E+03  0.58834318941E+03  0.25500000920E-02 0. -1.
        2   -1    0    0  501    0  0.00000000000E+00  0.00000000000E+00 -0.95975857312E+03  0.95975857312E+03  0.25500000920E-02 0.  1.
    10030    2    1    2    0    0  0.00000000000E+00  0.00000000000E+00 -0.37141538371E+03  0.15481017625E+04  0.15028871148E+04 0.  0.
        2    1    3    3  502    0  0.34374590030E+03  0.19391884813E+03 -0.84439998022E+03  0.93208212634E+03  0.25500000920E-02 0.  1.
       -2    1    3    3    0  502 -0.34374590030E+03 -0.19391884813E+03  0.47298459651E+03  0.61601963619E+03  0.25500000920E-02 0. -1.
</event>
<event>
 5   0  0.1147755E-03  0.1474814E+04  0.7818609E-02  0.8901376E-01
       -2   -1    0    0    0  501  0.00000000000E+00  0.00000000000E+00  0.63721301883E+03  0.63721301884E+03  0.25500000920E-02 0. -1.
        2   -1    0    0  501    0  0.00000000000E+00  0.00000000000E+00 -0.85335580371E+03  0.85335580371E+03  0.25500000920E-02 0.  1.
    10030    2    1    2    0    0  0.00000000000E+00  0.00000000000E+00 -0.21614278488E+03  0.14905688225E+04  0.14748144667E+04 0.  0.
        4    1    3    3  502    0  0.30965580235E+03 -0.64399918012E+03  0.75934284683E+02  0.71860231590E+03  0.12699999809E+01 0. -1.
       -4    1    3    3    0  502 -0.30965580235E+03  0.64399918012E+03 -0.29207706956E+03  0.77196650665E+03  0.12699999809E+01 0.  1.
</event>
<event>
 5   0  0.1149716E-03  0.1497219E+04  0.7818609E-02  0.8886305E-01
       -2   -1    0    0    0  501  0.00000000000E+00  0.00000000000E+00  0.32290829529E+03  0.32290829530E+03  0.25500000920E-02 0.  1.
        2   -1    0    0  501    0  0.00000000000E+00  0.00000000000E+00 -0.17355267638E+04  0.17355267638E+04  0.25500000920E-02 0. -1.
    10030    2    1    2    0    0  0.00000000000E+00  0.00000000000E+00 -0.14126184685E+04  0.20584350591E+04  0.14972187398E+04 0.  0.
        1    1    3    3  502    0  0.14788168682E+03 -0.10315314849E+03  0.29261003093E+03  0.34370073547E+03  0.50400001928E-02 0.  1.
       -1    1    3    3    0  502 -0.14788168682E+03  0.10315314849E+03 -0.17052284994E+04  0.17147343236E+04  0.50400001928E-02 0. -1.
</event>
<event>
 5   0  0.1126175E-03  0.1495376E+04  0.7818609E-02  0.8887534E-01
       -2   -1    0    0    0  501  0.00000000000E+00  0.00000000000E+00  0.43568671058E+03  0.43568671059E+03  0.25500000920E-02 0.  1.
        2   -1    0    0  501    0  0.00000000000E+00  0.00000000000E+00 -0.12831173842E+04  0.12831173842E+04  0.25500000920E-02 0. -1.
    10030    2    1    2    0    0  0.00000000000E+00  0.00000000000E+00 -0.84743067358E+03  0.17188040948E+04  0.14953757955E+04 0.  0.
        3    1    3    3  502    0  0.31324931172E+03 -0.58659302209E+03 -0.30857073070E+02  0.66570915122E+03  0.10100000352E+00 0.  1.
       -3    1    3    3    0  502 -0.31324931172E+03  0.58659302209E+03 -0.81657360051E+03  0.10530949435E+04  0.10100000352E+00 0. -1.
</event>
<event>
 5   0  0.5924403E-04  0.1496707E+04  0.7818609E-02  0.8886645E-01
        1   -1    0    0  501    0  0.00000000000E+00  0.00000000000E+00  0.17049722744E+04  0.17049722744E+04  0.50400001928E-02 0. -1.
       -1   -1    0    0    0  501  0.00000000000E+00  0.00000000000E+00 -0.32847056440E+03  0.32847056444E+03  0.50400001928E-02 0.  1.
    10030    2    1    2    0    0  0.00000000000E+00  0.00000000000E+00  0.13765017100E+04  0.20334428388E+04  0.14967073265E+04 0.  0.
        1    1    3    3  502    0  0.15086412935E+03 -0.23434907073E+02 -0.30708718406E+03  0.34294565026E+03  0.50400001928E-02 0.  1.
       -1    1    3    3    0  502 -0.15086412935E+03  0.23434907073E+02  0.16835888940E+04  0.16904971886E+04  0.50400001928E-02 0. -1.
</event>
<event>
 5   0  0.1097156E-03  0.1513383E+04  0.7818609E-02  0.8875602E-01
       -2   -1    0    0    0  501  0.00000000000E+00  0.00000000000E+00  0.11171297558E+04  0.11171297558E+04  0.25500000920E-02 0.  1.
        2   -1    0    0  501    0  0.00000000000E+00  0.00000000000E+00 -0.51254741584E+03  0.51254741584E+03  0.25500000920E-02 0. -1.
    10030    2    1    2    0    0  0.00000000000E+00  0.00000000000E+00  0.60458234001E+03  0.16296771717E+04  0.15133829251E+04 0.  0.
        2    1    3    3  502    0  0.27967831941E+03  0.64551011476E+02 -0.45164966811E+03  0.53513943803E+03  0.25500000920E-02 0. -1.
       -2    1    3    3    0  502 -0.27967831941E+03 -0.64551011476E+02  0.10562320081E+04  0.10945377337E+04  0.25500000920E-02 0.  1.
</event>
<event>
 5   0  0.5606965E-04  0.1538837E+04  0.7818609E-02  0.8859030E-01
        1   -1    0    0  501    0  0.00000000000E+00  0.00000000000E+00  0.15194900215E+04  0.15194900215E+04  0.50400001928E-02 0. -1.
       -1   -1    0    0    0  501  0.00000000000E+00  0.00000000000E+00 -0.38960770951E+03  0.38960770954E+03  0.50400001928E-02 0.  1.
    10030    2    1    2    0    0  0.00000000000E+00  0.00000000000E+00  0.11298823120E+04  0.19090977310E+04  0.15388372583E+04 0.  0.
        4    1    3    3  502    0 -0.62583723394E+03  0.33339599183E+03  0.19446093894E+03  0.73528348304E+03  0.12699999809E+01 0. -1.
       -4    1    3    3    0  502  0.62583723394E+03 -0.33339599183E+03  0.93542137301E+03  0.11738142480E+04  0.12699999809E+01 0.  1.
</event>
<event>
 5   0  0.1147755E-03  0.1531052E+04  0.7818609E-02  0.8864062E-01
        2   -1    0    0  501    0  0.00000000000E+00  0.00000000000E+00  0.22586708327E+04  0.22586708327E+04  0.25500000920E-02 0.  1.
       -2   -1    0    0    0  501  0.00000000000E+00  0.00000000000E+00 -0.25945807828E+03  0.25945807829E+03  0.25500000920E-02 0. -1.
    10030    2    1    2    0    0  0.00000000000E+00  0.00000000000E+00  0.19992127544E+04  0.25181289110E+04  0.15310524403E+04 0.  0.
        4    1    3    3  502    0  0.25137364107E+02  0.43362719545E+03  0.20363761896E+04  0.20821849174E+04  0.12699999809E+01 0.  1.
       -4    1    3    3    0  502 -0.25137364107E+02 -0.43362719545E+03 -0.37163435226E+02  0.43594399356E+03  0.12699999809E+01 0. -1.
</event>
<event>
 5   0  0.1147755E-03  0.1501231E+04  0.7818609E-02  0.8883635E-01
        2   -1    0    0  501    0  0.00000000000E+00  0.00000000000E+00  0.15553091602E+04  0.15553091602E+04  0.25500000920E-02 0. -1.
       -2   -1    0    0    0  501  0.00000000000E+00  0.00000000000E+00 -0.36225835279E+03  0.36225835280E+03  0.25500000920E-02 0.  1.
    10030    2    1    2    0    0  0.00000000000E+00  0.00000000000E+00  0.11930508074E+04  0.19175675130E+04  0.15012311407E+04 0.  0.
        4    1    3    3  502    0 -0.24269445577E+03  0.64883959286E+02  0.15000154714E+04  0.15209071485E+04  0.12699999809E+01 0. -1.
       -4    1    3    3    0  502  0.24269445577E+03 -0.64883959286E+02 -0.30696466391E+03  0.39666036457E+03  0.12699999809E+01 0.  1.
</event>
<event>
 5   0  0.5924403E-04  0.1509080E+04  0.7818609E-02  0.8878437E-01
       -1   -1    0    0    0  501  0.00000000000E+00  0.00000000000E+00  0.30256967621E+03  0.30256967625E+03  0.50400001928E-02 0. -1.
        1   -1    0    0  501    0  0.00000000000E+00  0.00000000000E+00 -0.18816513781E+04  0.18816513781E+04  0.50400001928E-02 0.  1.
    10030    2    1    2    0    0  0.00000000000E+00  0.00000000000E+00 -0.15790817019E+04  0.21842210544E+04  0.15090800486E+04 0.  0.
        1    1    3    3  502    0  0.59315839869E+03  0.16347563118E+03 -0.15736375077E+03  0.63507835580E+03  0.50400001928E-02 0. -1.
       -1    1    3    3    0  502 -0.59315839869E+03 -0.16347563118E+03 -0.14217179511E+04  0.15491426986E+04  0.50400001928E-02 0.  1.
</event>
<event>
 5   0  0.5840834E-04  0.1595972E+04  0.7818609E-02  0.8823027E-01
       -1   -1    0    0    0  501  0.00000000000E+00  0.00000000000E+00  0.28767402204E+03  0.28767402209E+03  0.50400001928E-02 0. -1.
        1   -1    0    0  501    0  0.00000000000E+00  0.00000000000E+00 -0.22135521774E+04  0.22135521774E+04  0.50400001928E-02 0.  1.
    10030    2    1    2    0    0  0.00000000000E+00  0.00000000000E+00 -0.19258781554E+04  0.25012261995E+04  0.15959717516E+04 0.  0.
        3    1    3    3  502    0  0.53088943108E+03 -0.48617765199E+03 -0.15025908690E+04  0.16661307353E+04  0.10100000352E+00 0.  1.
       -3    1    3    3    0  502 -0.53088943108E+03  0.48617765199E+03 -0.42328728638E+03  0.83509546421E+03  0.10100000352E+00 0. -1.
</event>
<event>
 5   0  0.1126175E-03  0.1477674E+04  0.7818609E-02  0.8899437E-01
        2   -1    0    0  501    0  0.00000000000E+00  0.00000000000E+00  0.13601695782E+04  0.13601695782E+04  0.25500000920E-02 0. -1.
       -2   -1    0    0    0  501  0.00000000000E+00  0.00000000000E+00 -0.40133251843E+03  0.40133251844E+03  0.25500000920E-02 0.  1.
    10030    2    1    2    0    0  0.00000000000E+00  0.00000000000E+00  0.95883705979E+03  0.17615020967E+04  0.14776742298E+04 0.  0.
        3    1    3    3  502    0 -0.29374908710E+03 -0.66682280699E+03  0.62512087344E+03  0.96006109113E+03  0.10100000352E+00 0.  1.
       -3    1    3    3    0  502  0.29374908710E+03  0.66682280699E+03  0.33371618635E+03  0.80144100552E+03  0.10100000352E+00 0. -1.
</event>
<event>
 5   0  0.6146552E-04  0.1486745E+04  0.7818609E-02  0.8893316E-01
        1   -1    0    0  501    0  0.00000000000E+00  0.00000000000E+00  0.10365591186E+04  0.10365591186E+04  0.50400001928E-02 0. -1.
       -1   -1    0    0    0  501  0.00000000000E+00  0.00000000000E+00 -0.53311252697E+03  0.53311252700E+03  0.50400001928E-02 0.  1.
    10030    2    1    2    0    0  0.00000000000E+00  0.00000000000E+00  0.50344659158E+03  0.15696716456E+04  0.14867449695E+04 0.  0.
        5    1    3    3  502    0 -0.58114383228E+03 -0.18817575349E+03  0.69895722201E+03  0.92827881382E+03  0.46999998093E+01 0. -1.
       -5    1    3    3    0  502  0.58114383228E+03  0.18817575349E+03 -0.19551063043E+03  0.64139283174E+03  0.46999998093E+01 0.  1.
</event>
<event>
 5   0  0.5606965E-04  0.1485772E+04  0.7818609E-02  0.8893970E-01
        1   -1    0    0  501    0  0.00000000000E+00  0.00000000000E+00  0.95353254986E+03  0.95353254988E+03  0.50400001928E-02 0.  1.
       -1   -1    0    0    0  501  0.00000000000E+00  0.00000000000E+00 -0.57877340731E+03  0.57877340733E+03  0.50400001928E-02 0. -1.
    10030    2    1    2    0    0  0.00000000000E+00  0.00000000000E+00  0.37475914255E+03  0.15323059572E+04  0.14857715610E+04 0.  0.
        4    1    3    3  502    0  0.73572799579E+03 -0.22299694174E+02  0.29094746695E+03  0.79148278666E+03  0.12699999809E+01 0. -1.
       -4    1    3    3    0  502 -0.73572799579E+03  0.22299694174E+02  0.83811675605E+02  0.74082317055E+03  0.12699999809E+01 0.  1.
</event>
<event>
 5   0  0.1147755E-03  0.1472597E+04  0.7818609E-02  0.8902883E-01
        2   -1    0    0  501    0  0.00000000000E+00  0.00000000000E+00  0.10600060707E+04  0.10600060707E+04  0.25500000920E-02 0.  1.
       -2   -1    0    0    0  501  0.00000000000E+00  0.00000000000E+00 -0.51144550751E+03  0.51144550752E+03  0.25500000920E-02 0. -1.
    10030    2    1    2    0    0  0.00000000000E+00  0.00000000000E+00  0.54856056322E+03  0.15714515782E+04  0.14725968122E+04 0.  0.
        4    1    3    3  502    0  0.28682839477E+02  0.70039860201E+03  0.33873204052E+02  0.70180475478E+03  0.12699999809E+01 0. -1.
       -4    1    3    3    0  502 -0.28682839477E+02 -0.70039860201E+03  0.51468735916E+03  0.86964682347E+03  0.12699999809E+01 0.  1.
</event>
<event>
 5   0  0.1149716E-03  0.1499847E+04  0.7818609E-02  0.8884555E-01
       -2   -1    0    0    0  501  0.00000000000E+00  0.00000000000E+00  0.75545554353E+03  0.75545554353E+03  0.25500000920E-02 0. -1.
        2   -1    0    0  501    0  0.00000000000E+00  0.00000000000E+00 -0.74443177582E+03  0.74443177583E+03  0.25500000920E-02 0.  1.
    10030    2    1    2    0    0  0.00000000000E+00  0.00000000000E+00  0.11023767704E+02  0.14998873194E+04  0.14998468080E+04 0.  0.
        1    1    3    3  502    0  0.22175989561E+02  0.57593273679E+03  0.48531106626E+03  0.75347005441E+03  0.50400001928E-02 0. -1.
       -1    1    3    3    0  502 -0.22175989561E+02 -0.57593273679E+03 -0.47428729856E+03  0.74641726496E+03  0.50400001928E-02 0.  1.
</event>
<event>
 5   0  0.5914645E-04  0.1494794E+04  0.7818609E-02  0.8887922E-01
        1   -1    0    0  501    0  0.00000000000E+00  0.00000000000E+00  0.13250622482E+04  0.13250622482E+04  0.50400001928E-02 0.  1.
       -1   -1    0    0    0  501  0.00000000000E+00  0.00000000000E+00 -0.42156701486E+03  0.42156701489E+03  0.50400001928E-02 0. -1.
    10030    2    1    2    0    0  0.00000000000E+00  0.00000000000E+00  0.90349523336E+03  0.17466292631E+04  0.14947943491E+04 0.  0.
        2    1    3    3  502    0  0.53727812470E+02 -0.50973278856E+03 -0.18385139399E+03  0.54453239449E+03  0.25500000920E-02 0. -1.
       -2    1    3    3    0  502 -0.53727812470E+02  0.50973278856E+03  0.10873466274E+04  0.12020968686E+04  0.25500000920E-02 0.  1.
</event>
<event>
 5   0  0.1097156E-03  0.1503404E+04  0.7818609E-02  0.8882192E-01
       -2   -1    0    0    0  501  0.00000000000E+00  0.00000000000E+00  0.51029933032E+03  0.51029933033E+03  0.25500000920E-02 0.  1.
        2   -1    0    0  501    0  0.00000000000E+00  0.00000000000E+00 -0.11073029453E+04  0.11073029453E+04  0.25500000920E-02 0. -1.
    10030    2    1    2    0    0  0.00000000000E+00  0.00000000000E+00 -0.59700361494E+03  0.16176022756E+04  0.15034040727E+04 0.  0.
        2    1    3    3  502    0  0.67466938696E+02  0.46393197280E+03 -0.93073349563E+03  0.10421369886E+04  0.25500000920E-02 0. -1.
       -2    1    3    3    0  502 -0.67466938696E+02 -0.46393197280E+03  0.33372988069E+03  0.57546528695E+03  0.25500000920E-02 0.  1.
</event>
<event>
 5   0  0.1149716E-03  0.1463719E+04  0.7818609E-02  0.8908945E-01
       -2   -1    0    0    0  501  0.00000000000E+00  0.00000000000E+00  0.54033965070E+03  0.54033965070E+03  0.25500000920E-02 0. -1.
        2   -1    0    0  501    0  0.00000000000E+00  0.00000000000E+00 -0.99126181315E+03  0.99126181315E+03  0.25500000920E-02 0.  1.
    10030    2    1    2    0    0  0.00000000000E+00  0.00000000000E+00 -0.45092216245E+03  0.15316014639E+04  0.14637186367E+04 0.  0.
        1    1    3    3  502    0 -0.86283438497E+02 -0.16950166855E+03  0.51402649322E+03  0.54808656539E+03  0.50400001928E-02 0. -1.
       -1    1    3    3    0  502  0.86283438497E+02  0.16950166855E+03 -0.96494865567E+03  0.98351489847E+03  0.50400001928E-02 0.  1.
</event>
<event>
 5   0  0.1126175E-03  0.1398123E+04  0.7818609E-02  0.8955179E-01
       -2   -1    0    0    0  501  0.00000000000E+00  0.00000000000E+00  0.34135580818E+03  0.34135580819E+03  0.25500000920E-02 0.  1.
        2   -1    0    0  501    0  0.00000000000E+00  0.00000000000E+00 -0.14316049145E+04  0.14316049145E+04  0.25500000920E-02 0. -1.
    10030    2    1    2    0    0  0.00000000000E+00  0.00000000000E+00 -0.10902491064E+04  0.17729607227E+04  0.13981225306E+04 0.  0.
        3    1    3    3  502    0  0.13688801133E+03  0.50664824497E+03  0.40479909901E+02  0.52637382637E+03  0.10100000352E+00 0. -1.
       -3    1    3    3    0  502 -0.13688801133E+03 -0.50664824497E+03 -0.11307290163E+04  0.12465868964E+04  0.10100000352E+00 0.  1.
</event>
<event>
 5   0  0.1097156E-03  0.1506534E+04  0.7818609E-02  0.8880120E-01
        2   -1    0    0  501    0  0.00000000000E+00  0.00000000000E+00  0.74359707577E+03  0.74359707577E+03  0.25500000920E-02 0.  1.
       -2   -1    0    0    0  501  0.00000000000E+00  0.00000000000E+00 -0.76306228329E+03  0.76306228329E+03  0.25500000920E-02 0. -1.
    10030    2    1    2    0    0  0.00000000000E+00  0.00000000000E+00 -0.19465207520E+02  0.15066593591E+04  0.15065336139E+04 0.  0.
        2    1    3    3  502    0 -0.38213861235E+02 -0.16170967772E+03 -0.74450513845E+03  0.76282253522E+03  0.25500000920E-02 0. -1.
       -2    1    3    3    0  502  0.38213861235E+02  0.16170967772E+03  0.72503993093E+03  0.74383682384E+03  0.25500000920E-02 0.  1.
</event>
<event>
 5   0  0.6146552E-04  0.1503859E+04  0.7818609E-02  0.8881891E-01
        1   -1    0    0  501    0  0.00000000000E+00  0.00000000000E+00  0.34632435854E+03  0.34632435858E+03  0.50400001928E-02 0.  1.
       -1   -1    0    0    0  501  0.00000000000E+00  0.00000000000E+00 -0.16325678808E+04  0.16325678808E+04  0.50400001928E-02 0. -1.
    10030    2    1    2    0    0  0.00000000000E+00  0.00000000000E+00 -0.12862435223E+04  0.19788922394E+04  0.15038590681E+04 0.  0.
        5    1    3    3  502    0  0.59099570968E+03 -0.26257396782E+03 -0.13834146385E+03  0.66134821997E+03  0.46999998093E+01 0.  1.
       -5    1    3    3    0  502 -0.59099570968E+03  0.26257396782E+03 -0.11479020584E+04  0.13175440194E+04  0.46999998093E+01 0. -1.
</event>
<event>
 5   0  0.1147755E-03  0.1517265E+04  0.7818609E-02  0.8873052E-01
        2   -1    0    0  501    0  0.00000000000E+00  0.00000000000E+00  0.61329567099E+03  0.61329567100E+03  0.25500000920E-02 0.  1.
       -2   -1    0    0    0  501  0.00000000000E+00  0.00000000000E+00 -0.93841114008E+03  0.93841114008E+03  0.25500000920E-02 0. -1.
    10030    2    1    2    0    0  0.00000000000E+00  0.00000000000E+00 -0.32511546909E+03  0.15517068111E+04  0.15172652897E+04 0.  0.
        4    1    3    3  502    0  0.67637832773E+03 -0.32673429652E+03 -0.27117082593E+03  0.79861015050E+03  0.12699999809E+01 0. -1.
       -4    1    3    3    0  502 -0.67637832773E+03  0.32673429652E+03 -0.53944643155E+02  0.75309666058E+03  0.12699999809E+01 0.  1.
</event>
<event>
 5   0  0.5840834E-04  0.1493301E+04  0.7818609E-02  0.8888920E-01
       -1   -1    0    0    0  501  0.00000000000E+00  0.00000000000E+00  0.71082107472E+03  0.71082107474E+03  0.50400001928E-02 0.  1.
        1   -1    0    0  501    0  0.00000000000E+00  0.00000000000E+00 -0.78428571882E+03  0.78428571884E+03  0.50400001928E-02 0. -1.
    10030    2    1    2    0    0  0.00000000000E+00  0.00000000000E+00 -0.73464644100E+02  0.14951067936E+04  0.14933007970E+04 0.  0.
        3    1    3    3  502    0 -0.73825314697E+03 -0.29871777930E+02  0.70993227599E+02  0.74226011660E+03  0.10100000352E+00 0.  1.
       -3    1    3    3    0  502  0.73825314697E+03  0.29871777930E+02 -0.14445787170E+03  0.75284667697E+03  0.10100000352E+00 0. -1.
</event>
<event>
 5   0  0.5840834E-04  0.1504070E+04  0.7818609E-02  0.8881751E-01
        1   -1    0    0  501    0  0.00000000000E+00  0.00000000000E+00  0.11898251515E+04  0.11898251515E+04  0.50400001928E-02 0. -1.
       -1   -1    0    0    0  501  0.00000000000E+00  0.00000000000E+00 -0.47532747708E+03  0.47532747710E+03  0.50400001928E-02 0.  1.
    10030    2    1    2    0    0  0.00000000000E+00  0.00000000000E+00  0.71449767445E+03  0.16651526286E+04  0.15040699285E+04 0.  0.
        3    1    3    3  502    0  0.59157880441E+03 -0.32132043994E+02  0.87006181797E+03  0.10526184149E+04  0.10100000352E+00 0. -1.
       -3    1    3    3    0  502 -0.59157880441E+03  0.32132043994E+02 -0.15556414351E+03  0.61253421376E+03  0.10100000352E+00 0.  1.
</event>
<event>
 5   0  0.1126175E-03  0.1511780E+04  0.7818609E-02  0.8876657E-01
       -2   -1    0    0    0  501  0.00000000000E+00  0.00000000000E+00  0.39560630352E+03  0.39560630353E+03  0.25500000920E-02 0.  1.
        2   -1    0    0  501    0  0.00000000000E+00  0.00000000000E+00 -0.14442890480E+04  0.14442890480E+04  0.25500000920E-02 0. -1.
    10030    2    1    2    0    0  0.00000000000E+00  0.00000000000E+00 -0.10486827445E+04  0.18398953515E+04  0.15117802109E+04 0.  0.
        3    1    3    3  502    0 -0.71449060798E+02 -0.22402460908E+03 -0.13986445860E+04  0.14182731338E+04  0.10100000352E+00 0. -1.
       -3    1    3    3    0  502  0.71449060798E+02  0.22402460908E+03  0.34996184155E+03  0.42162221776E+03  0.10100000352E+00 0.  1.
</event>
<event>
 5   0  0.4070625E-04  0.1478940E+04  0.7818609E-02  0.8898580E-01
        3   -1    0    0  501    0  0.00000000000E+00  0.00000000000E+00  0.40904307809E+03  0.40904309056E+03  0.10100000352E+00 0. -1.
       -3   -1    0    0    0  501  0.00000000000E+00  0.00000000000E+00 -0.13368166373E+04  0.13368166412E+04  0.10100000352E+00 0.  1.
    10030    2    1    2    0    0  0.00000000000E+00  0.00000000000E+00 -0.92777355924E+03  0.17458597317E+04  0.14789396288E+04 0.  0.
        3    1    3    3  502    0 -0.63527893271E+03 -0.10059353599E+02 -0.17273173899E+02  0.63559333357E+03  0.10100000352E+00 0. -1.
       -3    1    3    3    0  502  0.63527893271E+03  0.10059353599E+02 -0.91050038535E+03  0.11102663981E+04  0.10100000352E+00 0.  1.
</event>
<event>
 5   0  0.5840834E-04  0.1484587E+04  0.7818609E-02  0.8894768E-01
        1   -1    0    0  501    0  0.00000000000E+00  0.00000000000E+00  0.12107945810E+04  0.12107945810E+04  0.50400001928E-02 0.  1.
       -1   -1    0    0    0  501  0.00000000000E+00  0.00000000000E+00 -0.45507248520E+03  0.45507248523E+03  0.50400001928E-02 0. -1.
    10030    2    1    2    0    0  0.00000000000E+00  0.00000000000E+00  0.75572209575E+03  0.16658670662E+04  0.14845865405E+04 0.  0.
        3    1    3    3  502    0 -0.39604041548E+03 -0.16153375231E+03  0.10586194782E+04  0.11417602085E+04  0.10100000352E+00 0.  1.
       -3    1    3    3    0  502  0.39604041548E+03  0.16153375231E+03 -0.30289738243E+03  0.52410685772E+03  0.10100000352E+00 0. -1.
</event>
<event>
 5   0  0.5606965E-04  0.1483317E+04  0.7818609E-02  0.8895623E-01
        1   -1    0    0  501    0  0.00000000000E+00  0.00000000000E+00  0.50720288007E+03  0.50720288010E+03  0.50400001928E-02 0. -1.
       -1   -1    0    0    0  501  0.00000000000E+00  0.00000000000E+00 -0.10844916103E+04  0.10844916103E+04  0.50400001928E-02 0.  1.
    10030    2    1    2    0    0  0.00000000000E+00  0.00000000000E+00 -0.57728873020E+03  0.15916944904E+04  0.14833169158E+04 0.  0.
        4    1    3    3  502    0  0.45942401629E+03  0.55932506256E+03 -0.46213833882E+03  0.85877145357E+03  0.12699999809E+01 0. -1.
       -4    1    3    3    0  502 -0.45942401629E+03 -0.55932506256E+03 -0.11515039138E+03  0.73292303681E+03  0.12699999809E+01 0.  1.
</event>
<event>
 5   0  0.6146552E-04  0.1485279E+04  0.7818609E-02  0.8894302E-01
        1   -1    0    0  501    0  0.00000000000E+00  0.00000000000E+00  0.37912040417E+03  0.37912040420E+03  0.50400001928E-02 0. -1.
       -1   -1    0    0    0  501  0.00000000000E+00  0.00000000000E+00 -0.14547183330E+04  0.14547183330E+04  0.50400001928E-02 0.  1.
    10030    2    1    2    0    0  0.00000000000E+00  0.00000000000E+00 -0.10755979288E+04  0.18338387372E+04  0.14852789669E+04 0.  0.
        5    1    3    3  502    0  0.55354470627E+03 -0.49467588235E+03 -0.56171926739E+03  0.93094929818E+03  0.46999998093E+01 0. -1.
       -5    1    3    3    0  502 -0.55354470627E+03  0.49467588235E+03 -0.51387866141E+03  0.90288943901E+03  0.46999998093E+01 0.  1.
</event>
<event>
 5   0  0.5606965E-04  0.1517819E+04  0.7818609E-02  0.8872689E-01
       -1   -1    0    0    0  501  0.00000000000E+00  0.00000000000E+00  0.74382295630E+03  0.74382295632E+03  0.50400001928E-02 0. -1.
        1   -1    0    0  501    0  0.00000000000E+00  0.00000000000E+00 -0.77430211941E+03  0.77430211943E+03  0.50400001928E-02 0.  1.
    10030    2    1    2    0    0  0.00000000000E+00  0.00000000000E+00 -0.30479163112E+02  0.15181250758E+04  0.15178190822E+04 0.  0.
        4    1    3    3  502    0 -0.54343814241E+03 -0.19007240217E+03 -0.50979810639E+03  0.76899171314E+03  0.12699999809E+01 0.  1.
       -4    1    3    3    0  502  0.54343814241E+03  0.19007240217E+03  0.47931894328E+03  0.74913336261E+03  0.12699999809E+01 0. -1.
</event>
<event>
 5   0  0.1126175E-03  0.1502330E+04  0.7818609E-02  0.8882905E-01
        2   -1    0    0  501    0  0.00000000000E+00  0.00000000000E+00  0.16253244241E+03  0.16253244243E+03  0.25500000920E-02 0. -1.
       -2   -1    0    0    0  501  0.00000000000E+00  0.00000000000E+00 -0.34716092395E+04  0.34716092395E+04  0.25500000920E-02 0.  1.
    10030    2    1    2    0    0  0.00000000000E+00  0.00000000000E+00 -0.33090767971E+04  0.36341416820E+04  0.15023303616E+04 0.  0.
        3    1    3    3  502    0 -0.29049716172E+03  0.66000727105E+03 -0.11456792794E+04  0.13537278974E+04  0.10100000352E+00 0. -1.
       -3    1    3    3    0  502  0.29049716172E+03 -0.66000727105E+03 -0.21633975178E+04  0.22804137846E+04  0.10100000352E+00 0.  1.
</event>
<event>
 5   0  0.5924403E-04  0.1495791E+04  0.7818609E-02  0.8887257E-01
        1   -1    0    0  501    0  0.00000000000E+00  0.00000000000E+00  0.65058940921E+03  0.65058940923E+03  0.50400001928E-02 0. -1.
       -1   -1    0    0    0  501  0.00000000000E+00  0.00000000000E+00 -0.85975495172E+03  0.85975495173E+03  0.50400001928E-02 0.  1.
    10030    2    1    2    0    0  0.00000000000E+00  0.00000000000E+00 -0.20916554250E+03  0.15103443610E+04  0.14957907155E+04 0.  0.
        1    1    3    3  502    0 -0.12630987377E+03  0.59427399727E+03 -0.54498203832E+03  0.81616247779E+03  0.50400001928E-02 0.  1.
       -1    1    3    3    0  502  0.12630987377E+03 -0.59427399727E+03  0.33581649582E+03  0.69418188317E+03  0.50400001928E-02 0. -1.
</event>
<event>
 5   0  0.1126175E-03  0.1469143E+04  0.7818609E-02  0.8905236E-01
       -2   -1    0    0    0  501  0.00000000000E+00  0.00000000000E+00  0.76646932560E+03  0.76646932560E+03  0.25500000920E-02 0. -1.
        2   -1    0    0  501    0  0.00000000000E+00  0.00000000000E+00 -0.70400116109E+03  0.70400116109E+03  0.25500000920E-02 0.  1.
    10030    2    1    2    0    0  0.00000000000E+00  0.00000000000E+00  0.62468164508E+02  0.14704704867E+04  0.14691430089E+04 0.  0.
        3    1    3    3  502    0  0.62794920018E+03 -0.27103028915E+03  0.29946441787E+03  0.74663013830E+03  0.10100000352E+00 0. -1.
       -3    1    3    3    0  502 -0.62794920018E+03  0.27103028915E+03 -0.23699625336E+03  0.72384034839E+03  0.10100000352E+00 0.  1.
</event>
<event>
 5   0  0.1147755E-03  0.1511405E+04  0.7818609E-02  0.8876904E-01
        2   -1    0    0  501    0  0.00000000000E+00  0.00000000000E+00  0.11836896605E+04  0.11836896605E+04  0.25500000920E-02 0. -1.
       -2   -1    0    0    0  501  0.00000000000E+00  0.00000000000E+00 -0.48246313689E+03  0.48246313690E+03  0.25500000920E-02 0.  1.
    10030    2    1    2    0    0  0.00000000000E+00  0.00000000000E+00  0.70122652362E+03  0.16661527974E+04  0.15114054740E+04 0.  0.
        4    1    3    3  502    0  0.58914938676E+03 -0.27808170108E+03  0.77278346330E+03  0.10107533460E+04  0.12699999809E+01 0. -1.
       -4    1    3    3    0  502 -0.58914938676E+03  0.27808170108E+03 -0.71556939680E+02  0.65539945141E+03  0.12699999809E+01 0.  1.
</event>
<event>
 5   0  0.5606965E-04  0.1493749E+04  0.7818609E-02  0.8888621E-01
       -1   -1    0    0    0  501  0.00000000000E+00  0.00000000000E+00  0.24450792431E+03  0.24450792436E+03  0.50400001928E-02 0. -1.
        1   -1    0    0  501    0  0.00000000000E+00  0.00000000000E+00 -0.22814039365E+04  0.22814039365E+04  0.50400001928E-02 0.  1.
    10030    2    1    2    0    0  0.00000000000E+00  0.00000000000E+00 -0.20368960122E+04  0.25259118609E+04  0.14937487622E+04 0.  0.
        4    1    3    3  502    0  0.46489574627E+03  0.58438911713E+03 -0.99569600392E+03  0.12446087097E+04  0.12699999809E+01 0.  1.
       -4    1    3    3    0  502 -0.46489574627E+03 -0.58438911713E+03 -0.10412000083E+04  0.12813031512E+04  0.12699999809E+01 0. -1.
</event>
<event>
 5   0  0.5924403E-04  0.1493929E+04  0.7818609E-02  0.8888500E-01
        1   -1    0    0  501    0  0.00000000000E+00  0.00000000000E+00  0.95407916155E+03  0.95407916156E+03  0.50400001928E-02 0. -1.
       -1   -1    0    0    0  501  0.00000000000E+00  0.00000000000E+00 -0.58481133748E+03  0.58481133750E+03  0.50400001928E-02 0.  1.
    10030    2    1    2    0    0  0.00000000000E+00  0.00000000000E+00  0.36926782407E+03  0.15388904991E+04  0.14939294636E+04 0.  0.
        1    1    3    3  502    0 -0.19573652275E+03 -0.52503546862E+03 -0.32417637037E+03  0.64735256915E+03  0.50400001928E-02 0.  1.
       -1    1    3    3    0  502  0.19573652275E+03  0.52503546862E+03  0.69344419444E+03  0.89153792992E+03  0.50400001928E-02 0. -1.
</event>
<event>
 5   0  0.1097156E-03  0.1522781E+04  0.7818609E-02  0.8869443E-01
       -2   -1    0    0    0  501  0.00000000000E+00  0.00000000000E+00  0.32316360769E+03  0.32316360770E+03  0.25500000920E-02 0.  1.
        2   -1    0    0  501    0  0.00000000000E+00  0.00000000000E+00 -0.17938767658E+04  0.17938767658E+04  0.25500000920E-02 0. -1.
    10030    2    1    2    0    0  0.00000000000E+00  0.00000000000E+00 -0.14707131581E+04  0.21170403735E+04  0.15227812547E+04 0.  0.
        2    1    3    3  502    0 -0.33690344808E+03 -0.37966235075E+02  0.21243055974E+03  0.40009012866E+03  0.25500000920E-02 0.  1.
       -2    1    3    3    0  502  0.33690344808E+03  0.37966235075E+02 -0.16831437179E+04  0.17169502448E+04  0.25500000920E-02 0. -1.
</event>
<event>
 5   0  0.1126175E-03  0.1511234E+04  0.7818609E-02  0.8877017E-01
        2   -1    0    0  501    0  0.00000000000E+00  0.00000000000E+00  0.51503063289E+03  0.51503063290E+03  0.25500000920E-02 0.  1.
       -2   -1    0    0    0  501  0.00000000000E+00  0.00000000000E+00 -0.11085887211E+04  0.11085887211E+04  0.25500000920E-02 0. -1.
    10030    2    1    2    0    0  0.00000000000E+00  0.00000000000E+00 -0.59355808822E+03  0.16236193540E+04  0.15112341323E+04 0.  0.
        3    1    3    3  502    0 -0.55479248033E+03  0.16107211001E+03 -0.82004982748E+03  0.10031055032E+04  0.10100000352E+00 0. -1.
       -3    1    3    3    0  502  0.55479248033E+03 -0.16107211001E+03  0.22649173927E+03  0.62051385078E+03  0.10100000352E+00 0.  1.
</event>
<event>
 5   0  0.5606965E-04  0.1471212E+04  0.7818609E-02  0.8903826E-01
        1   -1    0    0  501    0  0.00000000000E+00  0.00000000000E+00  0.19046012486E+04  0.19046012486E+04  0.50400001928E-02 0.  1.
       -1   -1    0    0    0  501  0.00000000000E+00  0.00000000000E+00 -0.28410983060E+03  0.28410983064E+03  0.50400001928E-02 0. -1.
    10030    2    1    2    0    0  0.00000000000E+00  0.00000000000E+00  0.16204914180E+04  0.21887110792E+04  0.14712116614E+04 0.  0.
        4    1    3    3  502    0 -0.17586169522E+03  0.70208883252E+03  0.61480645804E+03  0.94965502070E+03  0.12699999809E+01 0. -1.
       -4    1    3    3    0  502  0.17586169522E+03 -0.70208883252E+03  0.10056849599E+04  0.12390560585E+04  0.12699999809E+01 0.  1.
</event>
<event>
 5   0  0.5914645E-04  0.1500488E+04  0.7818609E-02  0.8884129E-01
        1   -1    0    0  501    0  0.00000000000E+00  0.00000000000E+00  0.77428449619E+03  0.77428449621E+03  0.50400001928E-02 0. -1.
       -1   -1    0    0    0  501  0.00000000000E+00  0.00000000000E+00 -0.72694984858E+03  0.72694984860E+03  0.50400001928E-02 0.  1.
    10030    2    1    2    0    0  0.00000000000E+00  0.00000000000E+00  0.47334647607E+02  0.15012343448E+04  0.15004879170E+04 0.  0.
        2    1    3    3  502    0  0.18453118139E+03 -0.49851501801E+03 -0.50602688782E+03  0.73391565679E+03  0.25500000920E-02 0.  1.
       -2    1    3    3    0  502 -0.18453118139E+03  0.49851501801E+03  0.55336153542E+03  0.76731868801E+03  0.25500000920E-02 0. -1.
</event>
<event>
 5   0  0.5924403E-04  0.1515709E+04  0.7818609E-02  0.8874073E-01
        1   -1    0    0  501    0  0.00000000000E+00  0.00000000000E+00  0.10246920717E+04  0.10246920717E+04  0.50400001928E-02 0.  1.
       -1   -1    0    0    0  501  0.00000000000E+00  0.00000000000E+00 -0.56050367122E+03  0.56050367124E+03  0.50400001928E-02 0. -1.
    10030    2    1    2    0    0  0.00000000000E+00  0.00000000000E+00  0.46418840047E+03  0.15851957429E+04  0.15157092968E+04 0.  0.
        1    1    3    3  502    0 -0.67399113221E+03 -0.11918000272E+03  0.57239677121E+03  0.89224771396E+03  0.50400001928E-02 0.  1.
       -1    1    3    3    0  502  0.67399113221E+03  0.11918000272E+03 -0.10820837074E+03  0.69294802898E+03  0.50400001928E-02 0. -1.
</event>
<event>
 5   0  0.1097156E-03  0.1471440E+04  0.7818609E-02  0.8903670E-01
        2   -1    0    0  501    0  0.00000000000E+00  0.00000000000E+00  0.57944086869E+03  0.57944086869E+03  0.25500000920E-02 0.  1.
       -2   -1    0    0    0  501  0.00000000000E+00  0.00000000000E+00 -0.93414853451E+03  0.93414853451E+03  0.25500000920E-02 0. -1.
    10030    2    1    2    0    0  0.00000000000E+00  0.00000000000E+00 -0.35470766582E+03  0.15135894032E+04  0.14714398912E+04 0.  0.
        2    1    3    3  502    0  0.39867913206E+03 -0.43335414882E+03  0.27635091423E+03  0.65046959686E+03  0.25500000920E-02 0.  1.
       -2    1    3    3    0  502 -0.39867913206E+03  0.43335414882E+03 -0.63105858005E+03  0.86311980634E+03  0.25500000920E-02 0. -1.
</event>
<event>
 5   0  0.6146552E-04  0.1501808E+04  0.7818609E-02  0.8883252E-01
       -1   -1    0    0    0  501  0.00000000000E+00  0.00000000000E+00  0.65596804345E+03  0.65596804347E+03  0.50400001928E-02 0.  1.
        1   -1    0    0  501    0  0.00000000000E+00  0.00000000000E+00 -0.85957966066E+03  0.85957966067E+03  0.50400001928E-02 0. -1.
    10030    2    1    2    0    0  0.00000000000E+00  0.00000000000E+00 -0.20361161721E+03  0.15155477041E+04  0.15018079614E+04 0.  0.
        5    1    3    3  502    0  0.51349840937E+03 -0.54785538633E+03 -0.98853729862E+02  0.75737724461E+03  0.46999998093E+01 0. -1.
       -5    1    3    3    0  502 -0.51349840937E+03  0.54785538633E+03 -0.10475788735E+03  0.75817045953E+03  0.46999998093E+01 0.  1.
</event>
<event>
 5   0  0.5840834E-04  0.1508800E+04  0.7818609E-02  0.8878622E-01
        1   -1    0    0  501    0  0.00000000000E+00  0.00000000000E+00  0.50498981600E+03  0.50498981603E+03  0.50400001928E-02 0.  1.
       -1   -1    0    0    0  501  0.00000000000E+00  0.00000000000E+00 -0.11269921846E+04  0.11269921846E+04  0.50400001928E-02 0. -1.
    10030    2    1    2    0    0  0.00000000000E+00  0.00000000000E+00 -0.62200236864E+03  0.16319820007E+04  0.15088002863E+04 0.  0.
        3    1    3    3  502    0 -0.30435430823E+03  0.60953781753E+03  0.39410261241E+02  0.68243759776E+03  0.10100000352E+00 0.  1.
       -3    1    3    3    0  502  0.30435430823E+03 -0.60953781753E+03 -0.66141262988E+03  0.94954440291E+03  0.10100000352E+00 0. -1.
</event>
<event>
 5   0  0.1126175E-03  0.1379546E+04  0.7818609E-02  0.8968759E-01
        2   -1    0    0  501    0  0.00000000000E+00  0.00000000000E+00  0.91604695679E+03  0.91604695679E+03  0.25500000920E-02 0. -1.
       -2   -1    0    0    0  501  0.00000000000E+00  0.00000000000E+00 -0.51939103239E+03  0.51939103240E+03  0.25500000920E-02 0.  1.
    10030    2    1    2    0    0  0.00000000000E+00  0.00000000000E+00  0.39665592439E+03  0.14354379892E+04  0.13795456855E+04 0.  0.
        3    1    3    3  502    0 -0.27283832953E+02 -0.42456621224E+03 -0.36661102355E+03  0.56160887538E+03  0.10100000352E+00 0.  1.
       -3    1    3    3    0  502  0.27283832953E+02  0.42456621224E+03  0.76326694794E+03  0.87382911381E+03  0.10100000352E+00 0. -1.
</event>
<event>
 5   0  0.1126175E-03  0.1492491E+04  0.7818609E-02  0.8889462E-01
        2   -1    0    0  501    0  0.00000000000E+00  0.00000000000E+00  0.15135161648E+04  0.15135161648E+04  0.25500000920E-02 0. -1.
       -2   -1    0    0    0  501  0.00000000000E+00  0.00000000000E+00 -0.36793923501E+03  0.36793923502E+03  0.25500000920E-02 0.  1.
    10030    2    1    2    0    0  0.00000000000E+00  0.00000000000E+00  0.11455769298E+04  0.18814553998E+04  0.14924905090E+04 0.  0.
        3    1    3    3  502    0 -0.53649917123E+01  0.24117845695E+02 -0.36742347251E+03  0.36825327149E+03  0.10100000352E+00 0.  1.
       -3    1    3    3    0  502  0.53649917123E+01 -0.24117845695E+02  0.15130004023E+04  0.15132021283E+04  0.10100000352E+00 0. -1.
</event>
<event>
 5   0  0.5924403E-04  0.1531890E+04  0.7818609E-02  0.8863519E-01
        1   -1    0    0  501    0  0.00000000000E+00  0.00000000000E+00  0.10930518529E+04  0.10930518529E+04  0.50400001928E-02 0.  1.
       -1   -1    0    0    0  501  0.00000000000E+00  0.00000000000E+00 -0.53672820880E+03  0.53672820882E+03  0.50400001928E-02 0. -1.
    10030    2    1    2    0    0  0.00000000000E+00  0.00000000000E+00  0.55632364408E+03  0.16297800617E+04  0.15318900263E+04 0.  0.
        1    1    3    3  502    0  0.11245660822E+02  0.73566693891E+03  0.50469903391E+03  0.89221826071E+03  0.50400001928E-02 0.  1.
       -1    1    3    3    0  502 -0.11245660822E+02 -0.73566693891E+03  0.51624610165E+02  0.73756180100E+03  0.50400001928E-02 0. -1.
</event>
<event>
 5   0  0.1149716E-03  0.1515817E+04  0.7818609E-02  0.8874002E-01
        2   -1    0    0  501    0  0.00000000000E+00  0.00000000000E+00  0.14114897151E+04  0.14114897151E+04  0.25500000920E-02 0. -1.
       -2   -1    0    0    0  501  0.00000000000E+00  0.00000000000E+00 -0.40696390793E+03  0.40696390793E+03  0.25500000920E-02 0.  1.
    10030    2    1    2    0    0  0.00000000000E+00  0.00000000000E+00  0.10045258072E+04  0.18184536230E+04  0.15158171004E+04 0.  0.
        1    1    3    3  502    0  0.36716870646E+03 -0.46282304702E+03 -0.67297059180E+02  0.59459812147E+03  0.50400001928E-02 0.  1.
       -1    1    3    3    0  502 -0.36716870646E+03  0.46282304702E+03  0.10718228663E+04  0.12238555016E+04  0.50400001928E-02 0. -1.
</event>
<event>
 5   0  0.5606965E-04  0.1514046E+04  0.7818609E-02  0.8875166E-01
       -1   -1    0    0    0  501  0.00000000000E+00  0.00000000000E+00  0.11548265775E+04  0.11548265775E+04  0.50400001928E-02 0. -1.
        1   -1    0    0  501    0  0.00000000000E+00  0.00000000000E+00 -0.49625128888E+03  0.49625128891E+03  0.50400001928E-02 0.  1.
    10030    2    1    2    0    0  0.00000000000E+00  0.00000000000E+00  0.65857528860E+03  0.16510778664E+04  0.15140464690E+04 0.  0.
        4    1    3    3  502    0  0.44366258114E+03 -0.61222585421E+03  0.37046177876E+03  0.84196230610E+03  0.12699999809E+01 0. -1.
       -4    1    3    3    0  502 -0.44366258114E+03  0.61222585421E+03  0.28811350984E+03  0.80911556030E+03  0.12699999809E+01 0.  1.
</event>
<event>
 5   0  0.5924403E-04  0.1486654E+04  0.7818609E-02  0.8893376E-01
       -1   -1    0    0    0  501  0.00000000000E+00  0.00000000000E+00  0.64276501862E+03  0.64276501864E+03  0.50400001928E-02 0. -1.
        1   -1    0    0  501    0  0.00000000000E+00  0.00000000000E+00 -0.85962256474E+03  0.85962256475E+03  0.50400001928E-02 0.  1.
    10030    2    1    2    0    0  0.00000000000E+00  0.00000000000E+00 -0.21685754612E+03  0.15023875834E+04  0.14866543833E+04 0.  0.
        1    1    3    3  502    0 -0.76875604601E+02 -0.64622453888E+03 -0.47142266029E+03  0.80358903545E+03  0.50400001928E-02 0.  1.
       -1    1    3    3    0  502  0.76875604601E+02  0.64622453888E+03  0.25456511417E+03  0.69879854794E+03  0.50400001928E-02 0. -1.
</event>
<event>
 5   0  0.5914645E-04  0.1508761E+04  0.7818609E-02  0.8878648E-01
       -1   -1    0    0    0  501  0.00000000000E+00  0.00000000000E+00  0.47054135007E+03  0.47054135010E+03  0.50400001928E-02 0.  1.
        1   -1    0    0  501    0  0.00000000000E+00  0.00000000000E+00 -0.12094358750E+04  0.12094358750E+04  0.50400001928E-02 0. -1.
    10030    2    1    2    0    0  0.00000000000E+00  0.00000000000E+00 -0.73889452494E+03  0.16799772251E+04  0.15087605370E+04 0.  0.
        2    1    3    3  502    0  0.41152485185E+03 -0.77502890680E+02 -0.10681338961E+04  0.11472878548E+04  0.25500000920E-02 0. -1.
       -2    1    3    3    0  502 -0.41152485185E+03  0.77502890680E+02  0.32923937114E+03  0.53268937034E+03  0.25500000920E-02 0.  1.
</event>
<event>
 5   0  0.1126175E-03  0.1501561E+04  0.7818609E-02  0.8883416E-01
        2   -1    0    0  501    0  0.00000000000E+00  0.00000000000E+00  0.14893778485E+04  0.14893778485E+04  0.25500000920E-02 0. -1.
       -2   -1    0    0    0  501  0.00000000000E+00  0.00000000000E+00 -0.37846085369E+03  0.37846085369E+03  0.25500000920E-02 0.  1.
    10030    2    1    2    0    0  0.00000000000E+00  0.00000000000E+00  0.11109169948E+04  0.18678387022E+04  0.15015608040E+04 0.  0.
        3    1    3    3  502    0  0.21905532499E+03 -0.30438628709E+03  0.13645256576E+04  0.14151206760E+04  0.10100000352E+00 0. -1.
       -3    1    3    3    0  502 -0.21905532499E+03  0.30438628709E+03 -0.25360866281E+03  0.45271802618E+03  0.10100000352E+00 0.  1.
</event>
<event>
 5   0  0.5606965E-04  0.1506936E+04  0.7818609E-02  0.8879854E-01
        1   -1    0    0  501    0  0.00000000000E+00  0.00000000000E+00  0.72556898031E+03  0.72556898033E+03  0.50400001928E-02 0. -1.
       -1   -1    0    0    0  501  0.00000000000E+00  0.00000000000E+00 -0.78243989882E+03  0.78243989883E+03  0.50400001928E-02 0.  1.
    10030    2    1    2    0    0  0.00000000000E+00  0.00000000000E+00 -0.56870918510E+02  0.15080088792E+04  0.15069361228E+04 0.  0.
        4    1    3    3  502    0 -0.25390826036E+03 -0.70695399223E+03 -0.87291908344E+02  0.75622406863E+03  0.12699999809E+01 0. -1.
       -4    1    3    3    0  502  0.25390826036E+03  0.70695399223E+03  0.30420989834E+02  0.75178481053E+03  0.12699999809E+01 0.  1.
</event>
<event>
 5   0  0.5914645E-04  0.1476693E+04  0.7818609E-02  0.8900101E-01
        1   -1    0    0  501    0  0.00000000000E+00  0.00000000000E+00  0.12724187903E+04  0.12724187904E+04  0.50400001928E-02 0. -1.
       -1   -1    0    0    0  501  0.00000000000E+00  0.00000000000E+00 -0.42844058171E+03  0.42844058174E+03  0.50400001928E-02 0.  1.
    10030    2    1    2    0    0  0.00000000000E+00  0.00000000000E+00  0.84397820863E+03  0.17008593721E+04  0.14766933964E+04 0.  0.
        2    1    3    3  502    0  0.33094547422E+03  0.45418576058E+03 -0.12961041863E+03  0.57672217978E+03  0.25500000920E-02 0.  1.
       -2    1    3    3    0  502 -0.33094547422E+03 -0.45418576058E+03  0.97358862726E+03  0.11241371923E+04  0.25500000920E-02 0. -1.
</event>
<event>
 5   0  0.1097156E-03  0.1495393E+04  0.7818609E-02  0.8887523E-01
       -2   -1    0    0    0  501  0.00000000000E+00  0.00000000000E+00  0.23158330158E+03  0.23158330160E+03  0.25500000920E-02 0.  1.
        2   -1    0    0  501    0  0.00000000000E+00  0.00000000000E+00 -0.24140333208E+04  0.24140333208E+04  0.25500000920E-02 0. -1.
    10030    2    1    2    0    0  0.00000000000E+00  0.00000000000E+00 -0.21824500193E+04  0.26456166224E+04  0.14953926663E+04 0.  0.
        2    1    3    3  502    0  0.17271187919E+03  0.10080733592E+02  0.19568523232E+03  0.26119671621E+03  0.25500000920E-02 0.  1.
       -2    1    3    3    0  502 -0.17271187919E+03 -0.10080733592E+02 -0.23781352516E+04  0.23844199062E+04  0.25500000920E-02 0. -1.
</event>
<event>
 5   0  0.5840834E-04  0.1446098E+04  0.7818609E-02  0.8921110E-01
       -1   -1    0    0    0  501  0.00000000000E+00  0.00000000000E+00  0.11255265046E+04  0.11255265046E+04  0.50400001928E-02 0.  1.
        1   -1    0    0  501    0  0.00000000000E+00  0.00000000000E+00 -0.46449379633E+03  0.46449379635E+03  0.50400001928E-02 0. -1.
    10030    2    1    2    0    0  0.00000000000E+00  0.00000000000E+00  0.66103270828E+03  0.15900203010E+04  0.14460983079E+04 0.  0.
        3    1    3    3  502    0  0.62457215235E+03 -0.52688800132E+02  0.72685421688E+03  0.95978307234E+03  0.10100000352E+00 0. -1.
       -3    1    3    3    0  502 -0.62457215235E+03  0.52688800132E+02 -0.65821508602E+02  0.63023722863E+03  0.10100000352E+00 0.  1.
</event>
<event>
 5   0  0.1082667E-03  0.1525215E+04  0.7818609E-02  0.8867856E-01
       -2   -1    0    0    0  501  0.00000000000E+00  0.00000000000E+00  0.79884726467E+03  0.79884726468E+03  0.25500000920E-02 0. -1.
        2   -1    0    0  501    0  0.00000000000E+00  0.00000000000E+00 -0.72801184672E+03  0.72801184673E+03  0.25500000920E-02 0.  1.
    10030    2    1    2    0    0  0.00000000000E+00  0.00000000000E+00  0.70835417947E+02  0.15268591114E+04  0.15252150962E+04 0.  0.
        5    1    3    3  502    0 -0.55652449645E+02  0.47822516873E+02  0.79529055835E+03  0.79868225876E+03  0.46999998093E+01 0. -1.
       -5    1    3    3    0  502  0.55652449645E+02 -0.47822516873E+02 -0.72445514040E+03  0.72817685264E+03  0.46999998093E+01 0.  1.
</event>
<event>
 5   0  0.5840834E-04  0.1568589E+04  0.7818609E-02  0.8840081E-01
       -1   -1    0    0    0  501  0.00000000000E+00  0.00000000000E+00  0.59451041984E+03  0.59451041986E+03  0.50400001928E-02 0. -1.
        1   -1    0    0  501    0  0.00000000000E+00  0.00000000000E+00 -0.10346632556E+04  0.10346632556E+04  0.50400001928E-02 0.  1.
    10030    2    1    2    0    0  0.00000000000E+00  0.00000000000E+00 -0.44015283580E+03  0.16291736755E+04  0.15685892853E+04 0.  0.
        3    1    3    3  502    0  0.62713284028E+03 -0.14696272580E+02 -0.70900945549E+03  0.94668157157E+03  0.10100000352E+00 0. -1.
       -3    1    3    3    0  502 -0.62713284028E+03  0.14696272580E+02  0.26885661969E+03  0.68249210393E+03  0.10100000352E+00 0.  1.
</event>
<event>
 5   0  0.1097156E-03  0.1501764E+04  0.7818609E-02  0.8883281E-01
       -2   -1    0    0    0  501  0.00000000000E+00  0.00000000000E+00  0.12711194311E+04  0.12711194311E+04  0.25500000920E-02 0.  1.
        2   -1    0    0  501    0  0.00000000000E+00  0.00000000000E+00 -0.44356462875E+03  0.44356462876E+03  0.25500000920E-02 0. -1.
    10030    2    1    2    0    0  0.00000000000E+00  0.00000000000E+00  0.82755480232E+03  0.17146840598E+04  0.15017637877E+04 0.  0.
        2    1    3    3  502    0 -0.49030602439E+03  0.36251697192E+00 -0.23555677562E+03  0.54395507491E+03  0.25500000920E-02 0. -1.
       -2    1    3    3    0  502  0.49030602439E+03 -0.36251697192E+00  0.10631115779E+04  0.11707289849E+04  0.25500000920E-02 0.  1.
</event>
<event>
 5   0  0.1097156E-03  0.1496729E+04  0.7818609E-02  0.8886631E-01
       -2   -1    0    0    0  501  0.00000000000E+00  0.00000000000E+00  0.35962158523E+03  0.35962158524E+03  0.25500000920E-02 0.  1.
        2   -1    0    0  501    0  0.00000000000E+00  0.00000000000E+00 -0.15573304881E+04  0.15573304881E+04  0.25500000920E-02 0. -1.
    10030    2    1    2    0    0  0.00000000000E+00  0.00000000000E+00 -0.11977089029E+04  0.19169520734E+04  0.14967293127E+04 0.  0.
        2    1    3    3  502    0 -0.33153452442E+03 -0.35186194324E+03  0.13278135998E+03  0.50135103226E+03  0.25500000920E-02 0.  1.
       -2    1    3    3    0  502  0.33153452442E+03  0.35186194324E+03 -0.13304902629E+04  0.14156010411E+04  0.25500000920E-02 0. -1.
</event>
<event>
 5   0  0.5924403E-04  0.1499947E+04  0.7818609E-02  0.8884488E-01
        1   -1    0    0  501    0  0.00000000000E+00  0.00000000000E+00  0.18372127721E+04  0.18372127721E+04  0.50400001928E-02 0. -1.
       -1   -1    0    0    0  501  0.00000000000E+00  0.00000000000E+00 -0.30614883187E+03  0.30614883191E+03  0.50400001928E-02 0.  1.
    10030    2    1    2    0    0  0.00000000000E+00  0.00000000000E+00  0.15310639403E+04  0.21433616040E+04  0.14999473912E+04 0.  0.
        1    1    3    3  502    0 -0.54374800156E+02 -0.41116718066E+03  0.16584253776E+04  0.17094998691E+04  0.50400001928E-02 0. -1.
       -1    1    3    3    0  502  0.54374800156E+02  0.41116718066E+03 -0.12736143730E+03  0.43386173498E+03  0.50400001928E-02 0.  1.
</event>
<event>
 5   0  0.1126175E-03  0.1516612E+04  0.7818609E-02  0.8873481E-01
        2   -1    0    0  501    0  0.00000000000E+00  0.00000000000E+00  0.30128479226E+03  0.30128479227E+03  0.25500000920E-02 0. -1.
       -2   -1    0    0    0  501  0.00000000000E+00  0.00000000000E+00 -0.19085852993E+04  0.19085852993E+04  0.25500000920E-02 0.  1.
    10030    2    1    2    0    0  0.00000000000E+00  0.00000000000E+00 -0.16073005071E+04  0.22098700916E+04  0.15166116516E+04 0.  0.
        3    1    3    3  502    0  0.55822650797E+03  0.35963956568E+03 -0.13371799384E+04  0.14929861518E+04  0.10100000352E+00 0.  1.
       -3    1    3    3    0  502 -0.55822650797E+03 -0.35963956568E+03 -0.27012056863E+03  0.71688393984E+03  0.10100000352E+00 0. -1.
</event>
<event>
 5   0  0.1097156E-03  0.1506057E+04  0.7818609E-02  0.8880435E-01
        2   -1    0    0  501    0  0.00000000000E+00  0.00000000000E+00  0.90180442826E+03  0.90180442827E+03  0.25500000920E-02 0.  1.
       -2   -1    0    0    0  501  0.00000000000E+00  0.00000000000E+00 -0.62879730445E+03  0.62879730446E+03  0.25500000920E-02 0. -1.
    10030    2    1    2    0    0  0.00000000000E+00  0.00000000000E+00  0.27300712381E+03  0.15306017327E+04  0.15060573610E+04 0.  0.
        2    1    3    3  502    0 -0.24857272059E+03  0.22839894313E+03 -0.54759176771E+03  0.64328160142E+03  0.25500000920E-02 0. -1.
       -2    1    3    3    0  502  0.24857272059E+03 -0.22839894313E+03  0.82059889152E+03  0.88732013131E+03  0.25500000920E-02 0.  1.
</event>
<event>
 5   0  0.5840834E-04  0.1518758E+04  0.7818609E-02  0.8872074E-01
       -1   -1    0    0    0  501  0.00000000000E+00  0.00000000000E+00  0.11290415066E+04  0.11290415066E+04  0.50400001928E-02 0. -1.
        1   -1    0    0  501    0  0.00000000000E+00  0.00000000000E+00 -0.51074890159E+03  0.51074890162E+03  0.50400001928E-02 0.  1.
    10030    2    1    2    0    0  0.00000000000E+00  0.00000000000E+00  0.61829260504E+03  0.16397904083E+04  0.15187583210E+04 0.  0.
        3    1    3    3  502    0  0.54778797669E+03 -0.45771926691E+02  0.87481598801E+03  0.10331842816E+04  0.10100000352E+00 0. -1.
       -3    1    3    3    0  502 -0.54778797669E+03  0.45771926691E+02 -0.25652338298E+03  0.60660612665E+03  0.10100000352E+00 0.  1.
</event>
<event>
 5   0  0.5840834E-04  0.1542626E+04  0.7818609E-02  0.8856591E-01
       -1   -1    0    0    0  501  0.00000000000E+00  0.00000000000E+00  0.32849366770E+03  0.32849366774E+03  0.50400001928E-02 0.  1.
        1   -1    0    0  501    0  0.00000000000E+00  0.00000000000E+00 -0.18110668520E+04  0.18110668520E+04  0.50400001928E-02 0. -1.
    10030    2    1    2    0    0  0.00000000000E+00  0.00000000000E+00 -0.14825731843E+04  0.21395605197E+04  0.15426263225E+04 0.  0.
        3    1    3    3  502    0 -0.25807854679E+03  0.52181232935E+03 -0.39491378883E+02  0.58348283830E+03  0.10100000352E+00 0.  1.
       -3    1    3    3    0  502  0.25807854679E+03 -0.52181232935E+03 -0.14430818054E+04  0.15560776814E+04  0.10100000352E+00 0. -1.
</event>
<event>
 5   0  0.5606965E-04  0.1523402E+04  0.7818609E-02  0.8869038E-01
        1   -1    0    0  501    0  0.00000000000E+00  0.00000000000E+00  0.87497398591E+03  0.87497398592E+03  0.50400001928E-02 0.  1.
       -1   -1    0    0    0  501  0.00000000000E+00  0.00000000000E+00 -0.66309198046E+03  0.66309198047E+03  0.50400001928E-02 0. -1.
    10030    2    1    2    0    0  0.00000000000E+00  0.00000000000E+00  0.21188200545E+03  0.15380659664E+04  0.15234017634E+04 0.  0.
        4    1    3    3  502    0 -0.18344542435E+03 -0.71566467020E+03 -0.81203664855E+02  0.74325217253E+03  0.12699999809E+01 0.  1.
       -4    1    3    3    0  502  0.18344542435E+03  0.71566467020E+03  0.29308567031E+03  0.79481379387E+03  0.12699999809E+01 0. -1.
</event>
<event>
 5   0  0.1126175E-03  0.1506844E+04  0.7818609E-02  0.8879914E-01
       -2   -1    0    0    0  501  0.00000000000E+00  0.00000000000E+00  0.86855666700E+03  0.86855666700E+03  0.25500000920E-02 0. -1.
        2   -1    0    0  501    0  0.00000000000E+00  0.00000000000E+00 -0.65354957077E+03  0.65354957078E+03  0.25500000920E-02 0.  1.
    10030    2    1    2    0    0  0.00000000000E+00  0.00000000000E+00  0.21500709622E+03  0.15221062378E+04  0.15068441683E+04 0.  0.
        3    1    3    3  502    0  0.34715977108E+03  0.15332180774E+02 -0.56776553582E+03  0.66566710620E+03  0.10100000352E+00 0.  1.
       -3    1    3    3    0  502 -0.34715977108E+03 -0.15332180774E+02  0.78277263204E+03  0.85643913158E+03  0.10100000352E+00 0. -1.
</event>
<event>
 5   0  0.1097156E-03  0.1472975E+04  0.7818609E-02  0.8902626E-01
       -2   -1    0    0    0  501  0.00000000000E+00  0.00000000000E+00  0.32134480543E+03  0.32134480544E+03  0.25500000920E-02 0. -1.
        2   -1    0    0  501    0  0.00000000000E+00  0.00000000000E+00 -0.16879492738E+04  0.16879492738E+04  0.25500000920E-02 0.  1.
    10030    2    1    2    0    0  0.00000000000E+00  0.00000000000E+00 -0.13666044684E+04  0.20092940793E+04  0.14729748552E+04 0.  0.
        2    1    3    3  502    0  0.41724968547E+03  0.27158976846E+03 -0.14236430394E+04  0.15081836115E+04  0.25500000920E-02 0.  1.
       -2    1    3    3    0  502 -0.41724968547E+03 -0.27158976846E+03  0.57038570956E+02  0.50111046781E+03  0.25500000920E-02 0. -1.
</event>
<event>
 5   0  0.1147755E-03  0.1494761E+04  0.7818609E-02  0.8887944E-01
        2   -1    0    0  501    0  0.00000000000E+00  0.00000000000E+00  0.15692950619E+04  0.15692950619E+04  0.25500000920E-02 0. -1.
       -2   -1    0    0    0  501  0.00000000000E+00  0.00000000000E+00 -0.35594185724E+03  0.35594185725E+03  0.25500000920E-02 0.  1.
    10030    2    1    2    0    0  0.00000000000E+00  0.00000000000E+00  0.12133532047E+04  0.19252369192E+04  0.14947612504E+04 0.  0.
        4    1    3    3  502    0  0.33813079447E+03 -0.46780490351E+03  0.12181696804E+04  0.13480032808E+04  0.12699999809E+01 0. -1.
       -4    1    3    3    0  502 -0.33813079447E+03  0.46780490351E+03 -0.48164757203E+01  0.57723363836E+03  0.12699999809E+01 0.  1.
</event>
<event>
 5   0  0.5914645E-04  0.1496951E+04  0.7818609E-02  0.8886483E-01
       -1   -1    0    0    0  501  0.00000000000E+00  0.00000000000E+00  0.92185429544E+03  0.92185429545E+03  0.50400001928E-02 0.  1.
        1   -1    0    0  501    0  0.00000000000E+00  0.00000000000E+00 -0.60770487003E+03  0.60770487005E+03  0.50400001928E-02 0. -1.
    10030    2    1    2    0    0  0.00000000000E+00  0.00000000000E+00  0.31414942540E+03  0.15295591655E+04  0.14969506937E+04 0.  0.
        2    1    3    3  502    0 -0.18201397028E+03  0.57035770183E+03  0.61605715188E+03  0.85904796595E+03  0.25500000920E-02 0.  1.
       -2    1    3    3    0  502  0.18201397028E+03 -0.57035770183E+03 -0.30190772648E+03  0.67051119955E+03  0.25500000920E-02 0. -1.
</event>
<event>
 5   0  0.4070625E-04  0.1510521E+04  0.7818609E-02  0.8877486E-01
       -3   -1    0    0    0  501  0.00000000000E+00  0.00000000000E+00  0.45666436921E+03  0.45666438038E+03  0.10100000352E+00 0. -1.
        3   -1    0    0  501    0  0.00000000000E+00  0.00000000000E+00 -0.12490982603E+04  0.12490982643E+04  0.10100000352E+00 0.  1.
    10030    2    1    2    0    0  0.00000000000E+00  0.00000000000E+00 -0.79243389104E+03  0.17057626447E+04  0.15105213433E+04 0.  0.
        5    1    3    3  502    0 -0.15084296151E+03 -0.45600758578E+03  0.26195528473E+03  0.54711898022E+03  0.46999998093E+01 0. -1.
       -5    1    3    3    0  502  0.15084296151E+03  0.45600758578E+03 -0.10543891758E+04  0.11586436645E+04  0.46999998093E+01 0.  1.
</event>
<event>
 5   0  0.1126175E-03  0.1441647E+04  0.7818609E-02  0.8924212E-01
        2   -1    0    0  501    0  0.00000000000E+00  0.00000000000E+00  0.66016525644E+03  0.66016525644E+03  0.25500000920E-02 0.  1.
       -2   -1    0    0    0  501  0.00000000000E+00  0.00000000000E+00 -0.78705553078E+03  0.78705553079E+03  0.25500000920E-02 0. -1.
    10030    2    1    2    0    0  0.00000000000E+00  0.00000000000E+00 -0.12689027435E+03  0.14472207872E+04  0.14416472749E+04 0.  0.
        3    1    3    3  502    0  0.36070993117E+03  0.23807450863E+03  0.51566951258E+03  0.67283443916E+03  0.10100000352E+00 0.  1.
       -3    1    3    3    0  502 -0.36070993117E+03 -0.23807450863E+03 -0.64255978693E+03  0.77438634807E+03  0.10100000352E+00 0. -1.
</event>
<event>
 5   0  0.1097156E-03  0.1514984E+04  0.7818609E-02  0.8874549E-01
       -2   -1    0    0    0  501  0.00000000000E+00  0.00000000000E+00  0.54542076258E+03  0.54542076259E+03  0.25500000920E-02 0. -1.
        2   -1    0    0  501    0  0.00000000000E+00  0.00000000000E+00 -0.10520214528E+04  0.10520214528E+04  0.25500000920E-02 0.  1.
    10030    2    1    2    0    0  0.00000000000E+00  0.00000000000E+00 -0.50660069021E+03  0.15974422154E+04  0.15149842812E+04 0.  0.
        2    1    3    3  502    0 -0.54819360619E+03  0.80698035065E+02 -0.79790609255E+03  0.97143323768E+03  0.25500000920E-02 0.  1.
       -2    1    3    3    0  502  0.54819360619E+03 -0.80698035065E+02  0.29130540234E+03  0.62600897770E+03  0.25500000920E-02 0. -1.
</event>
<event>
 5   0  0.5924403E-04  0.1478621E+04  0.7818609E-02  0.8898796E-01
        1   -1    0    0  501    0  0.00000000000E+00  0.00000000000E+00  0.11087792519E+04  0.11087792519E+04  0.50400001928E-02 0. -1.
       -1   -1    0    0    0  501  0.00000000000E+00  0.00000000000E+00 -0.49295629545E+03  0.49295629548E+03  0.50400001928E-02 0.  1.
    10030    2    1    2    0    0  0.00000000000E+00  0.00000000000E+00  0.61582295645E+03  0.16017355474E+04  0.14786205903E+04 0.  0.
        1    1    3    3  502    0 -0.66163740487E+03  0.31801238029E+03  0.21295565384E+03  0.76435988911E+03  0.50400001928E-02 0. -1.
       -1    1    3    3    0  502  0.66163740487E+03 -0.31801238029E+03  0.40286730261E+03  0.83737565828E+03  0.50400001928E-02 0.  1.
</event>
<event>
 5   0  0.5840834E-04  0.1559788E+04  0.7818609E-02  0.8845640E-01
       -1   -1    0    0    0  501  0.00000000000E+00  0.00000000000E+00  0.43277475434E+03  0.43277475437E+03  0.50400001928E-02 0.  1.
        1   -1    0    0  501    0  0.00000000000E+00  0.00000000000E+00 -0.14054303667E+04  0.14054303667E+04  0.50400001928E-02 0. -1.
    10030    2    1    2    0    0  0.00000000000E+00  0.00000000000E+00 -0.97265561231E+03  0.18382051210E+04  0.15597881673E+04 0.  0.
        3    1    3    3  502    0 -0.60918830247E+03 -0.11816412696E+03  0.70393837415E+02  0.62452257870E+03  0.10100000352E+00 0.  1.
       -3    1    3    3    0  502  0.60918830247E+03  0.11816412696E+03 -0.10430494497E+04  0.12136825423E+04  0.10100000352E+00 0. -1.
</event>
<event>
 5   0  0.5606965E-04  0.1497453E+04  0.7818609E-02  0.8886148E-01
       -1   -1    0    0    0  501  0.00000000000E+00  0.00000000000E+00  0.36238918026E+03  0.36238918029E+03  0.50400001928E-02 0.  1.
        1   -1    0    0  501    0  0.00000000000E+00  0.00000000000E+00 -0.15469323440E+04  0.15469323440E+04  0.50400001928E-02 0. -1.
    10030    2    1    2    0    0  0.00000000000E+00  0.00000000000E+00 -0.11845431637E+04  0.19093215243E+04  0.14974532301E+04 0.  0.
        4    1    3    3  502    0 -0.68714090567E+02  0.32404779141E+03  0.26387336413E+03  0.42350839727E+03  0.12699999809E+01 0.  1.
       -4    1    3    3    0  502  0.68714090567E+02 -0.32404779141E+03 -0.14484165279E+04  0.14858131270E+04  0.12699999809E+01 0. -1.
</event>
<event>
 5   0  0.5840834E-04  0.1460332E+04  0.7818609E-02  0.8911269E-01
        1   -1    0    0  501    0  0.00000000000E+00  0.00000000000E+00  0.10536221379E+04  0.10536221379E+04  0.50400001928E-02 0.  1.
       -1   -1    0    0    0  501  0.00000000000E+00  0.00000000000E+00 -0.50600920760E+03  0.50600920763E+03  0.50400001928E-02 0. -1.
    10030    2    1    2    0    0  0.00000000000E+00  0.00000000000E+00  0.54761293027E+03  0.15596313455E+04  0.14603321583E+04 0.  0.
        3    1    3    3  502    0 -0.33512111702E+03  0.59646635022E+03  0.13849339317E+01  0.68416386799E+03  0.10100000352E+00 0. -1.
       -3    1    3    3    0  502  0.33512111702E+03 -0.59646635022E+03  0.54622799634E+03  0.87546747752E+03  0.10100000352E+00 0.  1.
</event>
<event>
 5   0  0.1082667E-03  0.1492870E+04  0.7818609E-02  0.8889208E-01
        2   -1    0    0  501    0  0.00000000000E+00  0.00000000000E+00  0.16458788585E+04  0.16458788585E+04  0.25500000920E-02 0.  1.
       -2   -1    0    0    0  501  0.00000000000E+00  0.00000000000E+00 -0.33852127671E+03  0.33852127672E+03  0.25500000920E-02 0. -1.
    10030    2    1    2    0    0  0.00000000000E+00  0.00000000000E+00  0.13073575818E+04  0.19844001352E+04  0.14928697365E+04 0.  0.
        5    1    3    3  502    0  0.55405008930E+03  0.21062625107E+03  0.12567081596E+04  0.13894863826E+04  0.46999998093E+01 0.  1.
       -5    1    3    3    0  502 -0.55405008930E+03 -0.21062625107E+03  0.50649422217E+02  0.59491375263E+03  0.46999998093E+01 0. -1.
</event>
<event>
 5   0  0.5606965E-04  0.1499344E+04  0.7818609E-02  0.8884889E-01
        1   -1    0    0  501    0  0.00000000000E+00  0.00000000000E+00  0.96609582506E+03  0.96609582507E+03  0.50400001928E-02 0. -1.
       -1   -1    0    0    0  501  0.00000000000E+00  0.00000000000E+00 -0.58173096774E+03  0.58173096777E+03  0.50400001928E-02 0.  1.
    10030    2    1    2    0    0  0.00000000000E+00  0.00000000000E+00  0.38436485732E+03  0.15478267928E+04  0.14993436688E+04 0.  0.
        4    1    3    3  502    0 -0.82842410472E+02  0.51959684467E+03 -0.35909140231E+03  0.63701804846E+03  0.12699999809E+01 0.  1.
       -4    1    3    3    0  502  0.82842410472E+02 -0.51959684467E+03  0.74345625962E+03  0.91080874438E+03  0.12699999809E+01 0. -1.
</event>
<event>
 5   0  0.1149716E-03  0.1499132E+04  0.7818609E-02  0.8885030E-01
        2   -1    0    0  501    0  0.00000000000E+00  0.00000000000E+00  0.56011997821E+03  0.56011997822E+03  0.25500000920E-02 0.  1.
       -2   -1    0    0    0  501  0.00000000000E+00  0.00000000000E+00 -0.10030875642E+04  0.10030875642E+04  0.25500000920E-02 0. -1.
    10030    2    1    2    0    0  0.00000000000E+00  0.00000000000E+00 -0.44296758598E+03  0.15632075424E+04  0.14991322618E+04 0.  0.
        1    1    3    3  502    0  0.56654822068E+03 -0.34628503777E+03  0.14117322985E+03  0.67883731084E+03  0.50400001928E-02 0.  1.
       -1    1    3    3    0  502 -0.56654822068E+03  0.34628503777E+03 -0.58414081583E+03  0.88437023157E+03  0.50400001928E-02 0. -1.
</event>
<event>
 5   0  0.5914645E-04  0.1467001E+04  0.7818609E-02  0.8906698E-01
        1   -1    0    0  501    0  0.00000000000E+00  0.00000000000E+00  0.74878067984E+03  0.74878067985E+03  0.50400001928E-02 0.  1.
       -1   -1    0    0    0  501  0.00000000000E+00  0.00000000000E+00 -0.71853211214E+03  0.71853211215E+03  0.50400001928E-02 0. -1.
    10030    2    1    2    0    0  0.00000000000E+00  0.00000000000E+00  0.30248567702E+02  0.14673127920E+04  0.14670009726E+04 0.  0.
        2    1    3    3  502    0  0.10689182762E+03 -0.46020496333E+03  0.57632151765E+03  0.74522544428E+03  0.25500000920E-02 0.  1.
       -2    1    3    3    0  502 -0.10689182762E+03  0.46020496333E+03 -0.54607294995E+03  0.72208734773E+03  0.25500000920E-02 0. -1.
</event>
<event>
 5   0  0.5840834E-04  0.1522802E+04  0.7818609E-02  0.8869430E-01
       -1   -1    0    0    0  501  0.00000000000E+00  0.00000000000E+00  0.10505096241E+04  0.10505096242E+04  0.50400001928E-02 0.  1.
        1   -1    0    0  501    0  0.00000000000E+00  0.00000000000E+00 -0.55185764052E+03  0.55185764055E+03  0.50400001928E-02 0. -1.
    10030    2    1    2    0    0  0.00000000000E+00  0.00000000000E+00  0.49865198363E+03  0.16023672647E+04  0.15228023674E+04 0.  0.
        3    1    3    3  502    0 -0.21246207987E+03  0.16048084474E+03  0.99992516624E+03  0.10347678895E+04  0.10100000352E+00 0.  1.
       -3    1    3    3    0  502  0.21246207987E+03 -0.16048084474E+03 -0.50127318261E+03  0.56759937519E+03  0.10100000352E+00 0. -1.
</event>
<event>
 5   0  0.1149716E-03  0.1489855E+04  0.7818609E-02  0.8891228E-01
        2   -1    0    0  501    0  0.00000000000E+00  0.00000000000E+00  0.18039171331E+04  0.18039171331E+04  0.25500000920E-02 0.  1.
       -2   -1    0    0    0  501  0.00000000000E+00  0.00000000000E+00 -0.30761764647E+03  0.30761764648E+03  0.25500000920E-02 0. -1.
    10030    2    1    2    0    0  0.00000000000E+00  0.00000000000E+00  0.14962994866E+04  0.21115347796E+04  0.14898546814E+04 0.  0.
        1    1    3    3  502    0 -0.36947278857E+03 -0.27587461357E+03 -0.81047121412E+02  0.46817259619E+03  0.50400001928E-02 0. -1.
       -1    1    3    3    0  502  0.36947278857E+03  0.27587461357E+03  0.15773466080E+04  0.16433621834E+04  0.50400001928E-02 0.  1.
</event>
<event>
 5   0  0.5606965E-04  0.1422869E+04  0.7818609E-02  0.8937429E-01
        1   -1    0    0  501    0  0.00000000000E+00  0.00000000000E+00  0.65445023552E+03  0.65445023554E+03  0.50400001928E-02 0. -1.
       -1   -1    0    0    0  501  0.00000000000E+00  0.00000000000E+00 -0.77338047921E+03  0.77338047923E+03  0.50400001928E-02 0.  1.
    10030    2    1    2    0    0  0.00000000000E+00  0.00000000000E+00 -0.11893024369E+03  0.14278307148E+04  0.14228689845E+04 0.  0.
        4    1    3    3  502    0  0.27584008478E+03 -0.45592720269E+03  0.41353836750E+03  0.67451683509E+03  0.12699999809E+01 0. -1.
       -4    1    3    3    0  502 -0.27584008478E+03  0.45592720269E+03 -0.53246861119E+03  0.75331387968E+03  0.12699999809E+01 0.  1.
</event>
<event>
 5   0  0.1097156E-03  0.1530592E+04  0.7818609E-02  0.8864361E-01
       -2   -1    0    0    0  501  0.00000000000E+00  0.00000000000E+00  0.16222299557E+04  0.16222299557E+04  0.25500000920E-02 0.  1.
        2   -1    0    0  501    0  0.00000000000E+00  0.00000000000E+00 -0.36103246251E+03  0.36103246252E+03  0.25500000920E-02 0. -1.
    10030    2    1    2    0    0  0.00000000000E+00  0.00000000000E+00  0.12611974932E+04  0.19832624182E+04  0.15305916185E+04 0.  0.
        2    1    3    3  502    0 -0.44573560662E+03  0.31595134846E+03 -0.63773000274E+02  0.55006588803E+03  0.25500000920E-02 0. -1.
       -2    1    3    3    0  502  0.44573560662E+03 -0.31595134846E+03  0.13249704935E+04  0.14331965302E+04  0.25500000920E-02 0.  1.
</event>
<event>
 5   0  0.6146552E-04  0.1291461E+04  0.7818609E-02  0.9036364E-01
       -1   -1    0    0    0  501  0.00000000000E+00  0.00000000000E+00  0.80030726317E+03  0.80030726319E+03  0.50400001928E-02 0.  1.
        1   -1    0    0  501    0  0.00000000000E+00  0.00000000000E+00 -0.52100960162E+03  0.52100960165E+03  0.50400001928E-02 0. -1.
    10030    2    1    2    0    0  0.00000000000E+00  0.00000000000E+00  0.27929766155E+03  0.13213168648E+04  0.12914608293E+04 0.  0.
        5    1    3    3  502    0 -0.25644622438E+03  0.21506236065E+03  0.70461864224E+03  0.78008076887E+03  0.46999998093E+01 0.  1.
       -5    1    3    3    0  502  0.25644622438E+03 -0.21506236065E+03 -0.42532098069E+03  0.54123609597E+03  0.46999998093E+01 0. -1.
</event>
<event>
 5   0  0.1126175E-03  0.1500518E+04  0.7818609E-02  0.8884108E-01
       -2   -1    0    0    0  501  0.00000000000E+00  0.00000000000E+00  0.22731869215E+03  0.22731869217E+03  0.25500000920E-02 0.  1.
        2   -1    0    0  501    0  0.00000000000E+00  0.00000000000E+00 -0.24762104904E+04  0.24762104904E+04  0.25500000920E-02 0. -1.
    10030    2    1    2    0    0  0.00000000000E+00  0.00000000000E+00 -0.22488917982E+04  0.27035291826E+04  0.15005184840E+04 0.  0.
        3    1    3    3  502    0  0.53005426276E+03  0.43913454657E+03 -0.16622321220E+04  0.17991143124E+04  0.10100000352E+00 0. -1.
       -3    1    3    3    0  502 -0.53005426276E+03 -0.43913454657E+03 -0.58665967624E+03  0.90441487017E+03  0.10100000352E+00 0.  1.
</event>
<event>
 5   0  0.5914645E-04  0.1447318E+04  0.7818609E-02  0.8920262E-01
       -1   -1    0    0    0  501  0.00000000000E+00  0.00000000000E+00  0.84843905079E+03  0.84843905080E+03  0.50400001928E-02 0. -1.
        1   -1    0    0  501    0  0.00000000000E+00  0.00000000000E+00 -0.61723053060E+03  0.61723053063E+03  0.50400001928E-02 0.  1.
    10030    2    1    2    0    0  0.00000000000E+00  0.00000000000E+00  0.23120852018E+03  0.14656695814E+04  0.14473181897E+04 0.  0.
        2    1    3    3  502    0 -0.66991145259E+03  0.15668693925E+03 -0.11162969804E+03  0.69698876657E+03  0.25500000920E-02 0.  1.
       -2    1    3    3    0  502  0.66991145259E+03 -0.15668693925E+03  0.34283821822E+03  0.76868081485E+03  0.25500000920E-02 0. -1.
</event>
<event>
 5   0  0.1097156E-03  0.1515889E+04  0.7818609E-02  0.8873955E-01
       -2   -1    0    0    0  501  0.00000000000E+00  0.00000000000E+00  0.53230944060E+03  0.53230944061E+03  0.25500000920E-02 0. -1.
        2   -1    0    0  501    0  0.00000000000E+00  0.00000000000E+00 -0.10792220644E+04  0.10792220644E+04  0.25500000920E-02 0.  1.
    10030    2    1    2    0    0  0.00000000000E+00  0.00000000000E+00 -0.54691262381E+03  0.16115315050E+04  0.15158893012E+04 0.  0.
        2    1    3    3  502    0 -0.46365689226E+03  0.59657771502E+03 -0.33721894700E+03  0.82740516195E+03  0.25500000920E-02 0. -1.
       -2    1    3    3    0  502  0.46365689226E+03 -0.59657771502E+03 -0.20969367681E+03  0.78412634307E+03  0.25500000920E-02 0.  1.
</event>
<event>
 5   0  0.1126175E-03  0.1497019E+04  0.7818609E-02  0.8886438E-01
        2   -1    0    0  501    0  0.00000000000E+00  0.00000000000E+00  0.13290396402E+04  0.13290396402E+04  0.25500000920E-02 0.  1.
       -2   -1    0    0    0  501  0.00000000000E+00  0.00000000000E+00 -0.42155743322E+03  0.42155743323E+03  0.25500000920E-02 0. -1.
    10030    2    1    2    0    0  0.00000000000E+00  0.00000000000E+00  0.90748220699E+03  0.17505970734E+04  0.14970190906E+04 0.  0.
        3    1    3    3  502    0 -0.97301766796E+02 -0.11627946637E+02  0.13215060011E+04  0.13251343192E+04  0.10100000352E+00 0.  1.
       -3    1    3    3    0  502  0.97301766796E+02  0.11627946637E+02 -0.41402379407E+03  0.42546275421E+03  0.10100000352E+00 0. -1.
</event>
<event>
 5   0  0.5840834E-04  0.1477389E+04  0.7818609E-02  0.8899630E-01
        1   -1    0    0  501    0  0.00000000000E+00  0.00000000000E+00  0.96925724194E+03  0.96925724195E+03  0.50400001928E-02 0. -1.
       -1   -1    0    0    0  501  0.00000000000E+00  0.00000000000E+00 -0.56297712072E+03  0.56297712074E+03  0.50400001928E-02 0.  1.
    10030    2    1    2    0    0  0.00000000000E+00  0.00000000000E+00  0.40628012122E+03  0.15322343627E+04  0.14773891178E+04 0.  0.
        3    1    3    3  502    0 -0.21334898417E+03  0.28900544979E+03 -0.46628871044E+03  0.58861456891E+03  0.10100000352E+00 0.  1.
       -3    1    3    3    0  502  0.21334898417E+03 -0.28900544979E+03  0.87256883165E+03  0.94361979379E+03  0.10100000352E+00 0. -1.
</event>
<event>
 5   0  0.5606965E-04  0.1485248E+04  0.7818609E-02  0.8894322E-01
       -1   -1    0    0    0  501  0.00000000000E+00  0.00000000000E+00  0.31423873177E+03  0.31423873181E+03  0.50400001928E-02 0.  1.
        1   -1    0    0  501    0  0.00000000000E+00  0.00000000000E+00 -0.17550051236E+04  0.17550051236E+04  0.50400001928E-02 0. -1.
    10030    2    1    2    0    0  0.00000000000E+00  0.00000000000E+00 -0.14407663918E+04  0.20692438554E+04  0.14852482410E+04 0.  0.
        4    1    3    3  502    0 -0.14430079135E+03  0.21422435281E+03 -0.16904069458E+04  0.17100269142E+04  0.12699999809E+01 0. -1.
       -4    1    3    3    0  502  0.14430079135E+03 -0.21422435281E+03  0.24964055406E+03  0.35921694121E+03  0.12699999809E+01 0.  1.
</event>
<event>
 5   0  0.1097156E-03  0.1500561E+04  0.7818609E-02  0.8884080E-01
        2   -1    0    0  501    0  0.00000000000E+00  0.00000000000E+00  0.14237802580E+04  0.14237802580E+04  0.25500000920E-02 0. -1.
       -2   -1    0    0    0  501  0.00000000000E+00  0.00000000000E+00 -0.39537057752E+03  0.39537057753E+03  0.25500000920E-02 0.  1.
    10030    2    1    2    0    0  0.00000000000E+00  0.00000000000E+00  0.10284096805E+04  0.18191508355E+04  0.15005609923E+04 0.  0.
        2    1    3    3  502    0  0.35173964641E+03 -0.36926012256E+01 -0.28920935993E+03  0.45538606483E+03  0.25500000920E-02 0.  1.
       -2    1    3    3    0  502 -0.35173964641E+03  0.36926012256E+01  0.13176190404E+04  0.13637647707E+04  0.25500000920E-02 0. -1.
</event>
<event>
 5   0  0.1147755E-03  0.1494703E+04  0.7818609E-02  0.8887983E-01
       -2   -1    0    0    0  501  0.00000000000E+00  0.00000000000E+00  0.63135293117E+03  0.63135293118E+03  0.25500000920E-02 0.  1.
        2   -1    0    0  501    0  0.00000000000E+00  0.00000000000E+00 -0.88466304405E+03  0.88466304406E+03  0.25500000920E-02 0. -1.
    10030    2    1    2    0    0  0.00000000000E+00  0.00000000000E+00 -0.25331011288E+03  0.15160159752E+04  0.14947034568E+04 0.  0.
        4    1    3    3  502    0 -0.28926742349E+03  0.26635774711E+03 -0.77125687465E+03  0.86571408175E+03  0.12699999809E+01 0. -1.
       -4    1    3    3    0  502  0.28926742349E+03 -0.26635774711E+03  0.51794676177E+03  0.65030189348E+03  0.12699999809E+01 0.  1.
</event>
<event>
 5   0  0.1126175E-03  0.1484694E+04  0.7818609E-02  0.8894696E-01
        2   -1    0    0  501    0  0.00000000000E+00  0.00000000000E+00  0.22555217266E+04  0.22555217266E+04  0.25500000920E-02 0.  1.
       -2   -1    0    0    0  501  0.00000000000E+00  0.00000000000E+00 -0.24432441554E+03  0.24432441556E+03  0.25500000920E-02 0. -1.
    10030    2    1    2    0    0  0.00000000000E+00  0.00000000000E+00  0.20111973111E+04  0.24998461422E+04  0.14846939451E+04 0.  0.
        3    1    3    3  502    0 -0.28793411112E+03 -0.39565919723E+03  0.19455247745E+04  0.20061203631E+04  0.10100000352E+00 0.  1.
       -3    1    3    3    0  502  0.28793411112E+03  0.39565919723E+03  0.65672536568E+02  0.49372577911E+03  0.10100000352E+00 0. -1.
</event>
<event>
 5   0  0.1082667E-03  0.1493513E+04  0.7818609E-02  0.8888778E-01
       -2   -1    0    0    0  501  0.00000000000E+00  0.00000000000E+00  0.46168099978E+03  0.46168099979E+03  0.25500000920E-02 0. -1.
        2   -1    0    0  501    0  0.00000000000E+00  0.00000000000E+00 -0.12078581103E+04  0.12078581103E+04  0.25500000920E-02 0.  1.
    10030    2    1    2    0    0  0.00000000000E+00  0.00000000000E+00 -0.74617711054E+03  0.16695391101E+04  0.14935128255E+04 0.  0.
        5    1    3    3  502    0 -0.37099242379E+03 -0.70488973964E+02  0.34705921104E+03  0.51290960210E+03  0.46999998093E+01 0. -1.
       -5    1    3    3    0  502  0.37099242379E+03  0.70488973964E+02 -0.10932363216E+04  0.11566295080E+04  0.46999998093E+01 0.  1.
</event>
<event>
 5   0  0.5606965E-04  0.1501578E+04  0.7818609E-02  0.8883404E-01
        1   -1    0    0  501    0  0.00000000000E+00  0.00000000000E+00  0.47079124251E+03  0.47079124253E+03  0.50400001928E-02 0.  1.
       -1   -1    0    0    0  501  0.00000000000E+00  0.00000000000E+00 -0.11973125483E+04  0.11973125483E+04  0.50400001928E-02 0. -1.
    10030    2    1    2    0    0  0.00000000000E+00  0.00000000000E+00 -0.72652130574E+03  0.16681037908E+04  0.15015781862E+04 0.  0.
        4    1    3    3  502    0 -0.43390751998E+03 -0.61202879416E+03 -0.39522040210E+03  0.84797155608E+03  0.12699999809E+01 0. -1.
       -4    1    3    3    0  502  0.43390751998E+03  0.61202879416E+03 -0.33130090364E+03  0.82013223472E+03  0.12699999809E+01 0.  1.
</event>
<event>
 5   0  0.6146552E-04  0.1556102E+04  0.7818609E-02  0.8847979E-01
       -1   -1    0    0    0  501  0.00000000000E+00  0.00000000000E+00  0.92915440028E+03  0.92915440029E+03  0.50400001928E-02 0. -1.
        1   -1    0    0  501    0  0.00000000000E+00  0.00000000000E+00 -0.65152108452E+03  0.65152108454E+03  0.50400001928E-02 0.  1.
    10030    2    1    2    0    0  0.00000000000E+00  0.00000000000E+00  0.27763331576E+03  0.15806754848E+04  0.15561024164E+04 0.  0.
        5    1    3    3  502    0 -0.34532163818E+03 -0.63410567989E+03 -0.15559563118E+03  0.73862652098E+03  0.46999998093E+01 0.  1.
       -5    1    3    3    0  502  0.34532163818E+03  0.63410567989E+03  0.43322894693E+03  0.84204896385E+03  0.46999998093E+01 0. -1.
</event>
<event>
 5   0  0.5924403E-04  0.1185376E+04  0.7818609E-02  0.9125754E-01
       -1   -1    0    0    0  501  0.00000000000E+00  0.00000000000E+00  0.28853081481E+03  0.28853081485E+03  0.50400001928E-02 0.  1.
        1   -1    0    0  501    0  0.00000000000E+00  0.00000000000E+00 -0.12174753767E+04  0.12174753767E+04  0.50400001928E-02 0. -1.
    10030    2    1    2    0    0  0.00000000000E+00  0.00000000000E+00 -0.92894456193E+03  0.15060061916E+04  0.11853761639E+04 0.  0.
        1    1    3    3  502    0 -0.44563634080E+03  0.29524476645E+03 -0.13927216530E+03  0.55241103936E+03  0.50400001928E-02 0.  1.
       -1    1    3    3    0  502  0.44563634080E+03 -0.29524476645E+03 -0.78967239663E+03  0.95359515224E+03  0.50400001928E-02 0. -1.
</event>
<event>
 5   0  0.1147755E-03  0.1570321E+04  0.7818609E-02  0.8838991E-01
        2   -1    0    0  501    0  0.00000000000E+00  0.00000000000E+00  0.84322419153E+03  0.84322419153E+03  0.25500000920E-02 0. -1.
       -2   -1    0    0    0  501  0.00000000000E+00  0.00000000000E+00 -0.73109492996E+03  0.73109492996E+03  0.25500000920E-02 0.  1.
    10030    2    1    2    0    0  0.00000000000E+00  0.00000000000E+00  0.11212926157E+03  0.15743191215E+04  0.15703208987E+04 0.  0.
        4    1    3    3  502    0 -0.48180252866E+03 -0.47067785161E+03 -0.34845248088E+03  0.75834824517E+03  0.12699999809E+01 0.  1.
       -4    1    3    3    0  502  0.48180252866E+03  0.47067785161E+03  0.46058174245E+03  0.81597087632E+03  0.12699999809E+01 0. -1.
</event>
<event>
 5   0  0.1147755E-03  0.1508079E+04  0.7818609E-02  0.8879098E-01
       -2   -1    0    0    0  501  0.00000000000E+00  0.00000000000E+00  0.41719243411E+03  0.41719243411E+03  0.25500000920E-02 0.  1.
        2   -1    0    0  501    0  0.00000000000E+00  0.00000000000E+00 -0.13628624667E+04  0.13628624668E+04  0.25500000920E-02 0. -1.
    10030    2    1    2    0    0  0.00000000000E+00  0.00000000000E+00 -0.94567003264E+03  0.17800549009E+04  0.15080794540E+04 0.  0.
        4    1    3    3  502    0 -0.54805041445E+02 -0.21634964572E+03 -0.13229817578E+04  0.13416754846E+04  0.12699999809E+01 0. -1.
       -4    1    3    3    0  502  0.54805041445E+02  0.21634964572E+03  0.37731172512E+03  0.43837941624E+03  0.12699999809E+01 0.  1.
</event>
<event>
 5   0  0.4070625E-04  0.1526195E+04  0.7818609E-02  0.8867218E-01
       -3   -1    0    0    0  501  0.00000000000E+00  0.00000000000E+00  0.14670028252E+04  0.14670028286E+04  0.10100000352E+00 0. -1.
        3   -1    0    0  501    0  0.00000000000E+00  0.00000000000E+00 -0.39694365703E+03  0.39694366988E+03  0.10100000352E+00 0.  1.
    10030    2    1    2    0    0  0.00000000000E+00  0.00000000000E+00  0.10700591681E+04  0.18639464985E+04  0.15261945898E+04 0.  0.
        1    1    3    3  502    0 -0.72887033409E+03 -0.19928784206E+03  0.66514209107E+03  0.10066685697E+04  0.50400001928E-02 0. -1.
       -1    1    3    3    0  502  0.72887033409E+03  0.19928784206E+03  0.40491707707E+03  0.85727792882E+03  0.50400001928E-02 0.  1.
</event>
<event>
 5   0  0.1097156E-03  0.1478141E+04  0.7818609E-02  0.8899121E-01
        2   -1    0    0  501    0  0.00000000000E+00  0.00000000000E+00  0.91688818051E+03  0.91688818052E+03  0.25500000920E-02 0.  1.
       -2   -1    0    0    0  501  0.00000000000E+00  0.00000000000E+00 -0.59573790712E+03  0.59573790713E+03  0.25500000920E-02 0. -1.
    10030    2    1    2    0    0  0.00000000000E+00  0.00000000000E+00  0.32115027339E+03  0.15126260876E+04  0.14781407859E+04 0.  0.
        2    1    3    3  502    0 -0.71722664531E+02  0.48175733791E+03 -0.40826278466E+03  0.63554132406E+03  0.25500000920E-02 0. -1.
       -2    1    3    3    0  502  0.71722664531E+02 -0.48175733791E+03  0.72941305805E+03  0.87708476358E+03  0.25500000920E-02 0.  1.
</event>
<event>
 5   0  0.5914645E-04  0.1497735E+04  0.7818609E-02  0.8885961E-01
       -1   -1    0    0    0  501  0.00000000000E+00  0.00000000000E+00  0.75750330008E+03  0.75750330009E+03  0.50400001928E-02 0. -1.
        1   -1    0    0  501    0  0.00000000000E+00  0.00000000000E+00 -0.74032983925E+03  0.74032983926E+03  0.50400001928E-02 0.  1.
    10030    2    1    2    0    0  0.00000000000E+00  0.00000000000E+00  0.17173460833E+02  0.14978331394E+04  0.14977346846E+04 0.  0.
        2    1    3    3  502    0 -0.11504224261E+03 -0.61425581981E+03  0.42123640188E+03  0.75364781963E+03  0.25500000920E-02 0. -1.
       -2    1    3    3    0  502  0.11504224261E+03  0.61425581981E+03 -0.40406294105E+03  0.74418531973E+03  0.25500000920E-02 0.  1.
</event>
<event>
 5   0  0.5840834E-04  0.1109050E+04  0.7818609E-02  0.9196416E-01
       -1   -1    0    0    0  501  0.00000000000E+00  0.00000000000E+00  0.43661878647E+03  0.43661878650E+03  0.50400001928E-02 0. -1.
        1   -1    0    0  501    0  0.00000000000E+00  0.00000000000E+00 -0.70427102628E+03  0.70427102630E+03  0.50400001928E-02 0.  1.
    10030    2    1    2    0    0  0.00000000000E+00  0.00000000000E+00 -0.26765223981E+03  0.11408898128E+04  0.11090499734E+04 0.  0.
        3    1    3    3  502    0 -0.13384606635E+03  0.37900649618E+03 -0.52681085043E+03  0.66263894842E+03  0.10100000352E+00 0.  1.
       -3    1    3    3    0  502  0.13384606635E+03 -0.37900649618E+03  0.25915861063E+03  0.47825086439E+03  0.10100000352E+00 0. -1.
</event>
<event>
 5   0  0.1082667E-03  0.1499109E+04  0.7818609E-02  0.8885046E-01
        2   -1    0    0  501    0  0.00000000000E+00  0.00000000000E+00  0.14245773415E+04  0.14245773415E+04  0.25500000920E-02 0. -1.
       -2   -1    0    0    0  501  0.00000000000E+00  0.00000000000E+00 -0.39438493187E+03  0.39438493188E+03  0.25500000920E-02 0.  1.
    10030    2    1    2    0    0  0.00000000000E+00  0.00000000000E+00  0.10301924097E+04  0.18189622734E+04  0.14991088523E+04 0.  0.
        5    1    3    3  502    0  0.45643155130E+03  0.45892902070E+03  0.56477102870E+02  0.64973637747E+03  0.46999998093E+01 0.  1.
       -5    1    3    3    0  502 -0.45643155130E+03 -0.45892902070E+03  0.97371530678E+03  0.11692258959E+04  0.46999998093E+01 0. -1.
</event>
<event>
 5   0  0.1149716E-03  0.1485931E+04  0.7818609E-02  0.8893863E-01
       -2   -1    0    0    0  501  0.00000000000E+00  0.00000000000E+00  0.36002372140E+03  0.36002372140E+03  0.25500000920E-02 0. -1.
        2   -1    0    0  501    0  0.00000000000E+00  0.00000000000E+00 -0.15332250768E+04  0.15332250768E+04  0.25500000920E-02 0.  1.
    10030    2    1    2    0    0  0.00000000000E+00  0.00000000000E+00 -0.11732013554E+04  0.18932487982E+04  0.14859305474E+04 0.  0.
        1    1    3    3  502    0 -0.80535708959E+02 -0.32450817516E+03 -0.14319516951E+04  0.14704683653E+04  0.50400001928E-02 0.  1.
       -1    1    3    3    0  502  0.80535708959E+02  0.32450817516E+03  0.25875033968E+03  0.42278043294E+03  0.50400001928E-02 0. -1.
</event>
<event>
 5   0  0.5606965E-04  0.1517458E+04  0.7818609E-02  0.8872926E-01
        1   -1    0    0  501    0  0.00000000000E+00  0.00000000000E+00  0.13643960949E+04  0.13643960949E+04  0.50400001928E-02 0. -1.
       -1   -1    0    0    0  501  0.00000000000E+00  0.00000000000E+00 -0.42192294186E+03  0.42192294189E+03  0.50400001928E-02 0.  1.
    10030    2    1    2    0    0  0.00000000000E+00  0.00000000000E+00  0.94247315305E+03  0.17863190368E+04  0.15174584202E+04 0.  0.
        4    1    3    3  502    0 -0.26816422498E+03 -0.37976044677E+02  0.13055513645E+04  0.13333492452E+04  0.12699999809E+01 0. -1.
       -4    1    3    3    0  502  0.26816422498E+03  0.37976044677E+02 -0.36307821146E+03  0.45296979157E+03  0.12699999809E+01 0.  1.
</event>
<event>
 5   0  0.5606965E-04  0.1561086E+04  0.7818609E-02  0.8844817E-01
        1   -1    0    0  501    0  0.00000000000E+00  0.00000000000E+00  0.12635849604E+04  0.12635849604E+04  0.50400001928E-02 0.  1.
       -1   -1    0    0    0  501  0.00000000000E+00  0.00000000000E+00 -0.48215794166E+03  0.48215794169E+03  0.50400001928E-02 0. -1.
    10030    2    1    2    0    0  0.00000000000E+00  0.00000000000E+00  0.78142701872E+03  0.17457429021E+04  0.15610861906E+04 0.  0.
        4    1    3    3  502    0  0.61550822549E+03  0.46114228286E+03  0.53967395692E+03  0.93954892016E+03  0.12699999809E+01 0.  1.
       -4    1    3    3    0  502 -0.61550822549E+03 -0.46114228286E+03  0.24175306180E+03  0.80619398192E+03  0.12699999809E+01 0. -1.
</event>
<event>
 5   0  0.6146552E-04  0.1503379E+04  0.7818609E-02  0.8882209E-01
       -1   -1    0    0    0  501  0.00000000000E+00  0.00000000000E+00  0.53373133457E+03  0.53373133460E+03  0.50400001928E-02 0. -1.
        1   -1    0    0  501    0  0.00000000000E+00  0.00000000000E+00 -0.10586543311E+04  0.10586543311E+04  0.50400001928E-02 0.  1.
    10030    2    1    2    0    0  0.00000000000E+00  0.00000000000E+00 -0.52492299649E+03  0.15923856657E+04  0.15033788465E+04 0.  0.
        5    1    3    3  502    0  0.48750189366E+03 -0.13935773597E+03  0.32531228950E+03  0.60243576470E+03  0.46999998093E+01 0. -1.
       -5    1    3    3    0  502 -0.48750189366E+03  0.13935773597E+03 -0.85023528599E+03  0.98994990097E+03  0.46999998093E+01 0.  1.
</event>
<event>
 5   0  0.1147755E-03  0.1555418E+04  0.7818609E-02  0.8848415E-01
       -2   -1    0    0    0  501  0.00000000000E+00  0.00000000000E+00  0.44697726366E+03  0.44697726366E+03  0.25500000920E-02 0.  1.
        2   -1    0    0  501    0  0.00000000000E+00  0.00000000000E+00 -0.13531582178E+04  0.13531582178E+04  0.25500000920E-02 0. -1.
    10030    2    1    2    0    0  0.00000000000E+00  0.00000000000E+00 -0.90618095411E+03  0.18001354814E+04  0.15554175741E+04 0.  0.
        4    1    3    3  502    0 -0.96034731936E+02  0.74485049128E+03 -0.21930808521E+03  0.78238262586E+03  0.12699999809E+01 0.  1.
       -4    1    3    3    0  502  0.96034731936E+02 -0.74485049128E+03 -0.68687286890E+03  0.10177528556E+04  0.12699999809E+01 0. -1.
</event>
<event>
 5   0  0.6146552E-04  0.1509726E+04  0.7818609E-02  0.8878011E-01
       -1   -1    0    0    0  501  0.00000000000E+00  0.00000000000E+00  0.36919038538E+03  0.36919038541E+03  0.50400001928E-02 0.  1.
        1   -1    0    0  501    0  0.00000000000E+00  0.00000000000E+00 -0.15434269350E+04  0.15434269350E+04  0.50400001928E-02 0. -1.
    10030    2    1    2    0    0  0.00000000000E+00  0.00000000000E+00 -0.11742365497E+04  0.19126173204E+04  0.15097263129E+04 0.  0.
        5    1    3    3  502    0  0.75257704639E+03 -0.17557591814E+02 -0.65783395223E+03  0.99972400116E+03  0.46999998093E+01 0.  1.
       -5    1    3    3    0  502 -0.75257704639E+03  0.17557591814E+02 -0.51640259742E+03  0.91289331929E+03  0.46999998093E+01 0. -1.
</event>
<event>
 5   0  0.1126175E-03  0.1492885E+04  0.7818609E-02  0.8889198E-01
       -2   -1    0    0    0  501  0.00000000000E+00  0.00000000000E+00  0.34933315419E+03  0.34933315420E+03  0.25500000920E-02 0.  1.
        2   -1    0    0  501    0  0.00000000000E+00  0.00000000000E+00 -0.15949704391E+04  0.15949704391E+04  0.25500000920E-02 0. -1.
    10030    2    1    2    0    0  0.00000000000E+00  0.00000000000E+00 -0.12456372849E+04  0.19443035933E+04  0.14928845292E+04 0.  0.
        3    1    3    3  502    0 -0.25930026142E+03  0.17429332664E+03  0.26007738894E+03  0.40651574105E+03  0.10100000352E+00 0.  1.
       -3    1    3    3    0  502  0.25930026142E+03 -0.17429332664E+03 -0.15057146739E+04  0.15377878523E+04  0.10100000352E+00 0. -1.
</event>
<event>
 5   0  0.1126175E-03  0.1454762E+04  0.7818609E-02  0.8915105E-01
       -2   -1    0    0    0  501  0.00000000000E+00  0.00000000000E+00  0.32097135349E+03  0.32097135350E+03  0.25500000920E-02 0. -1.
        2   -1    0    0  501    0  0.00000000000E+00  0.00000000000E+00 -0.16483821203E+04  0.16483821203E+04  0.25500000920E-02 0.  1.
    10030    2    1    2    0    0  0.00000000000E+00  0.00000000000E+00 -0.13274107668E+04  0.19693534738E+04  0.14547624414E+04 0.  0.
        3    1    3    3  502    0 -0.12412713195E+03  0.41306336406E+03 -0.14565958216E+04  0.15191116764E+04  0.10100000352E+00 0.  1.
       -3    1    3    3    0  502  0.12412713195E+03 -0.41306336406E+03  0.12918505474E+03  0.45024179747E+03  0.10100000352E+00 0. -1.
</event>
<event>
 5   0  0.4070625E-04  0.1512020E+04  0.7818609E-02  0.8876499E-01
       -3   -1    0    0    0  501  0.00000000000E+00  0.00000000000E+00  0.11684899107E+04  0.11684899151E+04  0.10100000352E+00 0. -1.
        3   -1    0    0  501    0  0.00000000000E+00  0.00000000000E+00 -0.48913623343E+03  0.48913624386E+03  0.10100000352E+00 0.  1.
    10030    2    1    2    0    0  0.00000000000E+00  0.00000000000E+00  0.67935367727E+03  0.16576261589E+04  0.15120195316E+04 0.  0.
        3    1    3    3  502    0  0.62693512130E+02 -0.36859337794E+03 -0.38068382780E+03  0.53358386564E+03  0.10100000352E+00 0.  1.
       -3    1    3    3    0  502 -0.62693512130E+02  0.36859337794E+03  0.10600375051E+04  0.11240422933E+04  0.10100000352E+00 0. -1.
</event>
<event>
 5   0  0.6146552E-04  0.1250479E+04  0.7818609E-02  0.9069785E-01
       -1   -1    0    0    0  501  0.00000000000E+00  0.00000000000E+00  0.36035859674E+03  0.36035859678E+03  0.50400001928E-02 0.  1.
        1   -1    0    0  501    0  0.00000000000E+00  0.00000000000E+00 -0.10848207968E+04  0.10848207968E+04  0.50400001928E-02 0. -1.
    10030    2    1    2    0    0  0.00000000000E+00  0.00000000000E+00 -0.72446220007E+03  0.14451793936E+04  0.12504791083E+04 0.  0.
        5    1    3    3  502    0 -0.40457601793E+03 -0.21530166528E+03 -0.85373119424E+03  0.96897657525E+03  0.46999998093E+01 0. -1.
       -5    1    3    3    0  502  0.40457601793E+03  0.21530166528E+03  0.12926899417E+03  0.47620281835E+03  0.46999998093E+01 0.  1.
</event>
<event>
 5   0  0.1126175E-03  0.1482527E+04  0.7818609E-02  0.8896156E-01
       -2   -1    0    0    0  501  0.00000000000E+00  0.00000000000E+00  0.69241902677E+03  0.69241902678E+03  0.25500000920E-02 0.  1.
        2   -1    0    0  501    0  0.00000000000E+00  0.00000000000E+00 -0.79355336209E+03  0.79355336210E+03  0.25500000920E-02 0. -1.
    10030    2    1    2    0    0  0.00000000000E+00  0.00000000000E+00 -0.10113433532E+03  0.14859723889E+04  0.14825268250E+04 0.  0.
        3    1    3    3  502    0 -0.98051375177E+02 -0.73409360139E+03 -0.81686848976E+02  0.74510418015E+03  0.10100000352E+00 0.  1.
       -3    1    3    3    0  502  0.98051375177E+02  0.73409360139E+03 -0.19447486346E+02  0.74086820873E+03  0.10100000352E+00 0. -1.
</event>
<event>
 5   0  0.1097156E-03  0.1474455E+04  0.7818609E-02  0.8901620E-01
        2   -1    0    0  501    0  0.00000000000E+00  0.00000000000E+00  0.75467082014E+03  0.75467082015E+03  0.25500000920E-02 0. -1.
       -2   -1    0    0    0  501  0.00000000000E+00  0.00000000000E+00 -0.72018735235E+03  0.72018735236E+03  0.25500000920E-02 0.  1.
    10030    2    1    2    0    0  0.00000000000E+00  0.00000000000E+00  0.34483467789E+02  0.14748581725E+04  0.14744549907E+04 0.  0.
        2    1    3    3  502    0 -0.41318843188E+03 -0.15345298982E+03 -0.57387830200E+03  0.72360818530E+03  0.25500000920E-02 0.  1.
       -2    1    3    3    0  502  0.41318843188E+03  0.15345298982E+03  0.60836176979E+03  0.75124998720E+03  0.25500000920E-02 0. -1.
</event>
<event>
 5   0  0.1149716E-03  0.1424143E+04  0.7818609E-02  0.8936526E-01
        2   -1    0    0  501    0  0.00000000000E+00  0.00000000000E+00  0.19632473583E+04  0.19632473583E+04  0.25500000920E-02 0.  1.
       -2   -1    0    0    0  501  0.00000000000E+00  0.00000000000E+00 -0.25826887093E+03  0.25826887095E+03  0.25500000920E-02 0. -1.
    10030    2    1    2    0    0  0.00000000000E+00  0.00000000000E+00  0.17049784874E+04  0.22215162293E+04  0.14241427999E+04 0.  0.
        1    1    3    3  502    0 -0.49688709623E+03  0.78913917150E+02  0.16385311083E+04  0.17140327843E+04  0.50400001928E-02 0.  1.
       -1    1    3    3    0  502  0.49688709623E+03 -0.78913917150E+02  0.66447379089E+02  0.50748344498E+03  0.50400001928E-02 0. -1.
</event>
<event>
 5   0  0.5924403E-04  0.1499362E+04  0.7818609E-02  0.8884877E-01
        1   -1    0    0  501    0  0.00000000000E+00  0.00000000000E+00  0.18131514962E+04  0.18131514963E+04  0.50400001928E-02 0. -1.
       -1   -1    0    0    0  501  0.00000000000E+00  0.00000000000E+00 -0.30996951863E+03  0.30996951867E+03  0.50400001928E-02 0.  1.
    10030    2    1    2    0    0  0.00000000000E+00  0.00000000000E+00  0.15031819776E+04  0.21231210149E+04  0.14993621264E+04 0.  0.
        1    1    3    3  502    0  0.25974517639E+03 -0.19064880296E+03  0.17101065210E+04  0.17401950568E+04  0.50400001928E-02 0. -1.
       -1    1    3    3    0  502 -0.25974517639E+03  0.19064880296E+03 -0.20692454335E+03  0.38292595811E+03  0.50400001928E-02 0.  1.
</event>
<event>
 5   0  0.1147755E-03  0.1506009E+04  0.7818609E-02  0.8880467E-01
       -2   -1    0    0    0  501  0.00000000000E+00  0.00000000000E+00  0.53370748311E+03  0.53370748311E+03  0.25500000920E-02 0. -1.
        2   -1    0    0  501    0  0.00000000000E+00  0.00000000000E+00 -0.10624088052E+04  0.10624088052E+04  0.25500000920E-02 0.  1.
    10030    2    1    2    0    0  0.00000000000E+00  0.00000000000E+00 -0.52870132208E+03  0.15961162883E+04  0.15060086712E+04 0.  0.
        4    1    3    3  502    0  0.60048276314E+02  0.35679050981E+03 -0.96424810765E+03  0.10298938243E+04  0.12699999809E+01 0.  1.
       -4    1    3    3    0  502 -0.60048276314E+02 -0.35679050981E+03  0.43554678558E+03  0.56622246397E+03  0.12699999809E+01 0. -1.
</event>
<event>
 5   0  0.1147755E-03  0.1536790E+04  0.7818609E-02  0.8860350E-01
       -2   -1    0    0    0  501  0.00000000000E+00  0.00000000000E+00  0.53174348883E+03  0.53174348883E+03  0.25500000920E-02 0. -1.
        2   -1    0    0  501    0  0.00000000000E+00  0.00000000000E+00 -0.11103674086E+04  0.11103674086E+04  0.25500000920E-02 0.  1.
    10030    2    1    2    0    0  0.00000000000E+00  0.00000000000E+00 -0.57862391977E+03  0.16421108974E+04  0.15367896925E+04 0.  0.
        4    1    3    3  502    0  0.70277332233E+03 -0.12133319363E+03 -0.59495158726E+03  0.92875243770E+03  0.12699999809E+01 0.  1.
       -4    1    3    3    0  502 -0.70277332233E+03  0.12133319363E+03  0.16327667485E+02  0.71335845974E+03  0.12699999809E+01 0. -1.
</event>
<event>
 5   0  0.1082667E-03  0.1493877E+04  0.7818609E-02  0.8888535E-01
        2   -1    0    0  501    0  0.00000000000E+00  0.00000000000E+00  0.19435911627E+04  0.19435911627E+04  0.25500000920E-02 0.  1.
       -2   -1    0    0    0  501  0.00000000000E+00  0.00000000000E+00 -0.28705485272E+03  0.28705485274E+03  0.25500000920E-02 0. -1.
    10030    2    1    2    0    0  0.00000000000E+00  0.00000000000E+00  0.16565363100E+04  0.22306460155E+04  0.14938772038E+04 0.  0.
        5    1    3    3  502    0 -0.61416446719E+03  0.13730181523E+03  0.14289796493E+04  0.15614271387E+04  0.46999998093E+01 0.  1.
       -5    1    3    3    0  502  0.61416446719E+03 -0.13730181523E+03  0.22755666067E+03  0.66921887677E+03  0.46999998093E+01 0. -1.
</event>
<event>
 5   0  0.5606965E-04  0.1506395E+04  0.7818609E-02  0.8880212E-01
       -1   -1    0    0    0  501  0.00000000000E+00  0.00000000000E+00  0.67113205396E+03  0.67113205398E+03  0.50400001928E-02 0. -1.
        1   -1    0    0  501    0  0.00000000000E+00  0.00000000000E+00 -0.84529756080E+03  0.84529756081E+03  0.50400001928E-02 0.  1.
    10030    2    1    2    0    0  0.00000000000E+00  0.00000000000E+00 -0.17416550684E+03  0.15164296148E+04  0.15063947533E+04 0.  0.
        4    1    3    3  502    0  0.64342971855E+03  0.11206706544E+02  0.30690311335E+03  0.71296460422E+03  0.12699999809E+01 0. -1.
       -4    1    3    3    0  502 -0.64342971855E+03 -0.11206706544E+02 -0.48106862019E+03  0.80346501057E+03  0.12699999809E+01 0.  1.
</event>
<event>
 5   0  0.5914645E-04  0.1527933E+04  0.7818609E-02  0.8866087E-01
        1   -1    0    0  501    0  0.00000000000E+00  0.00000000000E+00  0.59674553176E+03  0.59674553178E+03  0.50400001928E-02 0. -1.
       -1   -1    0    0    0  501  0.00000000000E+00  0.00000000000E+00 -0.97804625901E+03  0.97804625902E+03  0.50400001928E-02 0.  1.
    10030    2    1    2    0    0  0.00000000000E+00  0.00000000000E+00 -0.38130072725E+03  0.15747917908E+04  0.15279328977E+04 0.  0.
        2    1    3    3  502    0  0.44355534289E+03 -0.91885737217E+02 -0.82470850720E+03  0.94091894059E+03  0.25500000920E-02 0.  1.
       -2    1    3    3    0  502 -0.44355534289E+03  0.91885737217E+02  0.44340777995E+03  0.63387285021E+03  0.25500000920E-02 0. -1.
</event>
<event>
 5   0  0.1126175E-03  0.1492265E+04  0.7818609E-02  0.8889613E-01
        2   -1    0    0  501    0  0.00000000000E+00  0.00000000000E+00  0.13687525595E+04  0.13687525595E+04  0.25500000920E-02 0.  1.
       -2   -1    0    0    0  501  0.00000000000E+00  0.00000000000E+00 -0.40673063686E+03  0.40673063687E+03  0.25500000920E-02 0. -1.
    10030    2    1    2    0    0  0.00000000000E+00  0.00000000000E+00  0.96202192267E+03  0.17754831964E+04  0.14922648562E+04 0.  0.
        3    1    3    3  502    0  0.46273135625E+03  0.35365028978E+03 -0.73902165961E+02  0.58706931095E+03  0.10100000352E+00 0. -1.
       -3    1    3    3    0  502 -0.46273135625E+03 -0.35365028978E+03  0.10359240886E+04  0.11884138854E+04  0.10100000352E+00 0.  1.
</event>
<event>
 5   0  0.1149716E-03  0.1502251E+04  0.7818609E-02  0.8882958E-01
       -2   -1    0    0    0  501  0.00000000000E+00  0.00000000000E+00  0.24143410793E+03  0.24143410794E+03  0.25500000920E-02 0.  1.
        2   -1    0    0  501    0  0.00000000000E+00  0.00000000000E+00 -0.23368255922E+04  0.23368255922E+04  0.25500000920E-02 0. -1.
    10030    2    1    2    0    0  0.00000000000E+00  0.00000000000E+00 -0.20953914842E+04  0.25782597001E+04  0.15022508476E+04 0.  0.
        1    1    3    3  502    0 -0.14826713844E+03 -0.51282734654E+03 -0.14080893102E+03  0.55208893014E+03  0.50400001928E-02 0.  1.
       -1    1    3    3    0  502  0.14826713844E+03  0.51282734654E+03 -0.19545825532E+04  0.20261707700E+04  0.50400001928E-02 0. -1.
</event>
<event>
 5   0  0.1147755E-03  0.1506259E+04  0.7818609E-02  0.8880302E-01
        2   -1    0    0  501    0  0.00000000000E+00  0.00000000000E+00  0.14120039532E+04  0.14120039532E+04  0.25500000920E-02 0. -1.
       -2   -1    0    0    0  501  0.00000000000E+00  0.00000000000E+00 -0.40170126137E+03  0.40170126138E+03  0.25500000920E-02 0.  1.
    10030    2    1    2    0    0  0.00000000000E+00  0.00000000000E+00  0.10103026918E+04  0.18137052146E+04  0.15062586353E+04 0.  0.
        4    1    3    3  502    0  0.71928446345E+03  0.11713814986E+03  0.27633611524E+03  0.77939383305E+03  0.12699999809E+01 0.  1.
       -4    1    3    3    0  502 -0.71928446345E+03 -0.11713814986E+03  0.73396657660E+03  0.10343113815E+04  0.12699999809E+01 0. -1.
</event>
<event>
 5   0  0.5840834E-04  0.1498884E+04  0.7818609E-02  0.8885195E-01
        1   -1    0    0  501    0  0.00000000000E+00  0.00000000000E+00  0.16038764375E+04  0.16038764375E+04  0.50400001928E-02 0.  1.
       -1   -1    0    0    0  501  0.00000000000E+00  0.00000000000E+00 -0.35019131479E+03  0.35019131482E+03  0.50400001928E-02 0. -1.
    10030    2    1    2    0    0  0.00000000000E+00  0.00000000000E+00  0.12536851227E+04  0.19540677523E+04  0.14988843831E+04 0.  0.
        3    1    3    3  502    0  0.72538869311E+03  0.18643590235E+03  0.66173854785E+03  0.99942234200E+03  0.10100000352E+00 0.  1.
       -3    1    3    3    0  502 -0.72538869311E+03 -0.18643590235E+03  0.59194657487E+03  0.95464541034E+03  0.10100000352E+00 0. -1.
</event>
<event>
 5   0  0.5924403E-04  0.1453882E+04  0.7818609E-02  0.8915714E-01
        1   -1    0    0  501    0  0.00000000000E+00  0.00000000000E+00  0.10539820186E+04  0.10539820186E+04  0.50400001928E-02 0.  1.
       -1   -1    0    0    0  501  0.00000000000E+00  0.00000000000E+00 -0.50137769035E+03  0.50137769038E+03  0.50400001928E-02 0. -1.
    10030    2    1    2    0    0  0.00000000000E+00  0.00000000000E+00  0.55260432828E+03  0.15553597090E+04  0.14538817974E+04 0.  0.
        1    1    3    3  502    0 -0.10334194873E+03 -0.58957097570E+03 -0.16500675432E+03  0.62088704508E+03  0.50400001928E-02 0. -1.
       -1    1    3    3    0  502  0.10334194873E+03  0.58957097570E+03  0.71761108260E+03  0.93447266394E+03  0.50400001928E-02 0.  1.
</event>
<event>
 5   0  0.5606965E-04  0.1494187E+04  0.7818609E-02  0.8888328E-01
       -1   -1    0    0    0  501  0.00000000000E+00  0.00000000000E+00  0.29902048240E+03  0.29902048244E+03  0.50400001928E-02 0. -1.
        1   -1    0    0  501    0  0.00000000000E+00  0.00000000000E+00 -0.18665908372E+04  0.18665908372E+04  0.50400001928E-02 0.  1.
    10030    2    1    2    0    0  0.00000000000E+00  0.00000000000E+00 -0.15675703548E+04  0.21656113196E+04  0.14941872609E+04 0.  0.
        4    1    3    3  502    0 -0.10765752478E+03  0.12559057304E+02 -0.18551332513E+04  0.18582973028E+04  0.12699999809E+01 0.  1.
       -4    1    3    3    0  502  0.10765752478E+03 -0.12559057304E+02  0.28756289655E+03  0.30731401682E+03  0.12699999809E+01 0. -1.
</event>
<event>
 5   0  0.1149716E-03  0.1490040E+04  0.7818609E-02  0.8891103E-01
       -2   -1    0    0    0  501  0.00000000000E+00  0.00000000000E+00  0.84407432324E+03  0.84407432324E+03  0.25500000920E-02 0. -1.
        2   -1    0    0  501    0  0.00000000000E+00  0.00000000000E+00 -0.65759011507E+03  0.65759011508E+03  0.25500000920E-02 0.  1.
    10030    2    1    2    0    0  0.00000000000E+00  0.00000000000E+00  0.18648420817E+03  0.15016644383E+04  0.14900401758E+04 0.  0.
        1    1    3    3  502    0 -0.31336066924E+03  0.62533233551E+03  0.35179665258E+03  0.78294081747E+03  0.50400001928E-02 0. -1.
       -1    1    3    3    0  502  0.31336066924E+03 -0.62533233551E+03 -0.16531244442E+03  0.71872362085E+03  0.50400001928E-02 0.  1.
</event>
<event>
 5   0  0.1147755E-03  0.1541508E+04  0.7818609E-02  0.8857310E-01
        2   -1    0    0  501    0  0.00000000000E+00  0.00000000000E+00  0.13810051609E+04  0.13810051609E+04  0.25500000920E-02 0. -1.
       -2   -1    0    0    0  501  0.00000000000E+00  0.00000000000E+00 -0.43016641883E+03  0.43016641884E+03  0.25500000920E-02 0.  1.
    10030    2    1    2    0    0  0.00000000000E+00  0.00000000000E+00  0.95083874211E+03  0.18111715798E+04  0.15415084099E+04 0.  0.
        4    1    3    3  502    0 -0.72537974292E+03 -0.11015581217E+03  0.75283921522E+03  0.10512271740E+04  0.12699999809E+01 0.  1.
       -4    1    3    3    0  502  0.72537974292E+03  0.11015581217E+03  0.19799952689E+03  0.75994440583E+03  0.12699999809E+01 0. -1.
</event>
<event>
 5   0  0.6146552E-04  0.1481493E+04  0.7818609E-02  0.8896854E-01
       -1   -1    0    0    0  501  0.00000000000E+00  0.00000000000E+00  0.27281778531E+03  0.27281778536E+03  0.50400001928E-02 0. -1.
        1   -1    0    0  501    0  0.00000000000E+00  0.00000000000E+00 -0.20112514350E+04  0.20112514350E+04  0.50400001928E-02 0.  1.
    10030    2    1    2    0    0  0.00000000000E+00  0.00000000000E+00 -0.17384336497E+04  0.22840692204E+04  0.14814927097E+04 0.  0.
        5    1    3    3  502    0  0.13179577060E+03  0.60128227421E+02  0.25074257426E+03  0.28961950457E+03  0.46999998093E+01 0. -1.
       -5    1    3    3    0  502 -0.13179577060E+03 -0.60128227421E+02 -0.19891762239E+04  0.19944497158E+04  0.46999998093E+01 0.  1.
</event>
<event>
 5   0  0.1149716E-03  0.1362408E+04  0.7818609E-02  0.8981488E-01
       -2   -1    0    0    0  501  0.00000000000E+00  0.00000000000E+00  0.36350125174E+03  0.36350125175E+03  0.25500000920E-02 0. -1.
        2   -1    0    0  501    0  0.00000000000E+00  0.00000000000E+00 -0.12765810581E+04  0.12765810581E+04  0.25500000920E-02 0.  1.
    10030    2    1    2    0    0  0.00000000000E+00  0.00000000000E+00 -0.91307980641E+03  0.16400823099E+04  0.13624078869E+04 0.  0.
        1    1    3    3  502    0  0.20433609362E+03 -0.57413642477E+03 -0.90112372839E+02  0.61604067493E+03  0.50400001928E-02 0. -1.
       -1    1    3    3    0  502 -0.20433609362E+03  0.57413642477E+03 -0.82296743357E+03  0.10240416350E+04  0.50400001928E-02 0.  1.
</event>
<event>
 5   0  0.5840834E-04  0.1508870E+04  0.7818609E-02  0.8878576E-01
       -1   -1    0    0    0  501  0.00000000000E+00  0.00000000000E+00  0.74375569536E+03  0.74375569538E+03  0.50400001928E-02 0. -1.
        1   -1    0    0  501    0  0.00000000000E+00  0.00000000000E+00 -0.76526749979E+03  0.76526749981E+03  0.50400001928E-02 0.  1.
    10030    2    1    2    0    0  0.00000000000E+00  0.00000000000E+00 -0.21511804431E+02  0.15090231952E+04  0.15088698572E+04 0.  0.
        3    1    3    3  502    0  0.12788486708E+03 -0.14904847725E+03  0.71774249394E+03  0.74412652527E+03  0.10100000352E+00 0. -1.
       -3    1    3    3    0  502 -0.12788486708E+03  0.14904847725E+03 -0.73925429837E+03  0.76489666992E+03  0.10100000352E+00 0.  1.
</event>
<event>
 5   0  0.4070625E-04  0.1505833E+04  0.7818609E-02  0.8880583E-01
       -3   -1    0    0    0  501  0.00000000000E+00  0.00000000000E+00  0.75825318477E+03  0.75825319150E+03  0.10100000352E+00 0. -1.
        3   -1    0    0  501    0  0.00000000000E+00  0.00000000000E+00 -0.74761775115E+03  0.74761775797E+03  0.10100000352E+00 0.  1.
    10030    2    1    2    0    0  0.00000000000E+00  0.00000000000E+00  0.10635433624E+02  0.15058709495E+04  0.15058333918E+04 0.  0.
        4    1    3    3  502    0  0.12853883777E+03 -0.60641048827E+03 -0.42204060475E+03  0.74991719414E+03  0.12699999809E+01 0.  1.
       -4    1    3    3    0  502 -0.12853883777E+03  0.60641048827E+03  0.43267603838E+03  0.75595375533E+03  0.12699999809E+01 0. -1.
</event>
<event>
 5   0  0.6146552E-04  0.1536198E+04  0.7818609E-02  0.8860732E-01
       -1   -1    0    0    0  501  0.00000000000E+00  0.00000000000E+00  0.52329163724E+03  0.52329163727E+03  0.50400001928E-02 0. -1.
        1   -1    0    0  501    0  0.00000000000E+00  0.00000000000E+00 -0.11274326700E+04  0.11274326700E+04  0.50400001928E-02 0.  1.
    10030    2    1    2    0    0  0.00000000000E+00  0.00000000000E+00 -0.60414103279E+03  0.16507243073E+04  0.15361980182E+04 0.  0.
        5    1    3    3  502    0  0.24429070340E+03  0.21302850702E+03  0.44618711770E+03  0.55151076742E+03  0.46999998093E+01 0. -1.
       -5    1    3    3    0  502 -0.24429070340E+03 -0.21302850702E+03 -0.10503281505E+04  0.10992135399E+04  0.46999998093E+01 0.  1.
</event>
<event>
 5   0  0.4070625E-04  0.1503202E+04  0.7818609E-02  0.8882326E-01
       -4   -1    0    0    0  501  0.00000000000E+00  0.00000000000E+00  0.11345176351E+04  0.11345183459E+04  0.12699999809E+01 0. -1.
        4   -1    0    0  501    0  0.00000000000E+00  0.00000000000E+00 -0.49792273038E+03  0.49792435001E+03  0.12699999809E+01 0.  1.
    10030    2    1    2    0    0  0.00000000000E+00  0.00000000000E+00  0.63659490468E+03  0.16324426959E+04  0.15032019434E+04 0.  0.
        5    1    3    3  502    0  0.57380163213E+03 -0.19601600061E+03  0.80056336256E+03  0.10042879931E+04  0.46999998093E+01 0. -1.
       -5    1    3    3    0  502 -0.57380163213E+03  0.19601600061E+03 -0.16396845787E+03  0.62815470284E+03  0.46999998093E+01 0.  1.
</event>
<event>
 5   0  0.1082667E-03  0.1532035E+04  0.7818609E-02  0.8863425E-01
        2   -1    0    0  501    0  0.00000000000E+00  0.00000000000E+00  0.11117914268E+04  0.11117914268E+04  0.25500000920E-02 0. -1.
       -2   -1    0    0    0  501  0.00000000000E+00  0.00000000000E+00 -0.52778108338E+03  0.52778108339E+03  0.25500000920E-02 0.  1.
    10030    2    1    2    0    0  0.00000000000E+00  0.00000000000E+00  0.58401034342E+03  0.16395725102E+04  0.15320345737E+04 0.  0.
        5    1    3    3  502    0  0.23848391076E+03  0.66687537254E+03  0.60431645831E+03  0.93103050969E+03  0.46999998093E+01 0.  1.
       -5    1    3    3    0  502 -0.23848391076E+03 -0.66687537254E+03 -0.20306114890E+02  0.70854200051E+03  0.46999998093E+01 0. -1.
</event>
<event>
 5   0  0.1147755E-03  0.1578256E+04  0.7818609E-02  0.8834018E-01
        2   -1    0    0  501    0  0.00000000000E+00  0.00000000000E+00  0.80092172187E+03  0.80092172187E+03  0.25500000920E-02 0.  1.
       -2   -1    0    0    0  501  0.00000000000E+00  0.00000000000E+00 -0.77750842467E+03  0.77750842467E+03  0.25500000920E-02 0. -1.
    10030    2    1    2    0    0  0.00000000000E+00  0.00000000000E+00  0.23413297201E+02  0.15784301465E+04  0.15782564890E+04 0.  0.
        4    1    3    3  502    0 -0.47355103310E+03  0.23888478240E+03 -0.57265658414E+03  0.78054704949E+03  0.12699999809E+01 0. -1.
       -4    1    3    3    0  502  0.47355103310E+03 -0.23888478240E+03  0.59606988134E+03  0.79788309705E+03  0.12699999809E+01 0.  1.
</event>
<event>
 5   0  0.5924403E-04  0.1481994E+04  0.7818609E-02  0.8896516E-01
       -1   -1    0    0    0  501  0.00000000000E+00  0.00000000000E+00  0.72619341913E+03  0.72619341915E+03  0.50400001928E-02 0. -1.
        1   -1    0    0  501    0  0.00000000000E+00  0.00000000000E+00 -0.75610217485E+03  0.75610217487E+03  0.50400001928E-02 0.  1.
    10030    2    1    2    0    0  0.00000000000E+00  0.00000000000E+00 -0.29908755722E+02  0.14822955940E+04  0.14819938240E+04 0.  0.
        1    1    3    3  502    0 -0.42967298904E+03  0.46925736163E+03 -0.39484097710E+03  0.74881289130E+03  0.50400001928E-02 0.  1.
       -1    1    3    3    0  502  0.42967298904E+03 -0.46925736163E+03  0.36493222138E+03  0.73348270272E+03  0.50400001928E-02 0. -1.
</event>
<event>
 5   0  0.1082667E-03  0.1463238E+04  0.7818609E-02  0.8909274E-01
        2   -1    0    0  501    0  0.00000000000E+00  0.00000000000E+00  0.18602817202E+04  0.18602817202E+04  0.25500000920E-02 0. -1.
       -2   -1    0    0    0  501  0.00000000000E+00  0.00000000000E+00 -0.28773391051E+03  0.28773391052E+03  0.25500000920E-02 0.  1.
    10030    2    1    2    0    0  0.00000000000E+00  0.00000000000E+00  0.15725478097E+04  0.21480156307E+04  0.14632376895E+04 0.  0.
        5    1    3    3  502    0  0.27746806071E+03  0.23219794233E+03  0.17197339113E+04  0.17573876137E+04  0.46999998093E+01 0. -1.
       -5    1    3    3    0  502 -0.27746806071E+03 -0.23219794233E+03 -0.14718610165E+03  0.39062801698E+03  0.46999998093E+01 0.  1.
</event>
<event>
 5   0  0.6146552E-04  0.1489373E+04  0.7818609E-02  0.8891551E-01
        1   -1    0    0  501    0  0.00000000000E+00  0.00000000000E+00  0.82180432880E+03  0.82180432882E+03  0.50400001928E-02 0.  1.
       -1   -1    0    0    0  501  0.00000000000E+00  0.00000000000E+00 -0.67480521877E+03  0.67480521879E+03  0.50400001928E-02 0. -1.
    10030    2    1    2    0    0  0.00000000000E+00  0.00000000000E+00  0.14699911003E+03  0.14966095476E+04  0.14893728209E+04 0.  0.
        5    1    3    3  502    0  0.24955086936E+02 -0.45102369285E+03 -0.52139952113E+03  0.68987294374E+03  0.46999998093E+01 0. -1.
       -5    1    3    3    0  502 -0.24955086936E+02  0.45102369285E+03  0.66839863116E+03  0.80673660386E+03  0.46999998093E+01 0.  1.
</event>
<event>
 5   0  0.1126175E-03  0.1502997E+04  0.7818609E-02  0.8882463E-01
       -2   -1    0    0    0  501  0.00000000000E+00  0.00000000000E+00  0.58902246919E+03  0.58902246920E+03  0.25500000920E-02 0.  1.
        2   -1    0    0  501    0  0.00000000000E+00  0.00000000000E+00 -0.95879160339E+03  0.95879160339E+03  0.25500000920E-02 0. -1.
    10030    2    1    2    0    0  0.00000000000E+00  0.00000000000E+00 -0.36976913419E+03  0.15478140726E+04  0.15029967368E+04 0.  0.
        3    1    3    3  502    0 -0.12861750491E+03  0.43307041985E+03 -0.80333961506E+03  0.92165448974E+03  0.10100000352E+00 0. -1.
       -3    1    3    3    0  502  0.12861750491E+03 -0.43307041985E+03  0.43357048087E+03  0.62615958286E+03  0.10100000352E+00 0.  1.
</event>
<event>
 5   0  0.1082667E-03  0.1586003E+04  0.7818609E-02  0.8829193E-01
        2   -1    0    0  501    0  0.00000000000E+00  0.00000000000E+00  0.79202794770E+03  0.79202794771E+03  0.25500000920E-02 0.  1.
       -2   -1    0    0    0  501  0.00000000000E+00  0.00000000000E+00 -0.79397642144E+03  0.79397642145E+03  0.25500000920E-02 0. -1.
    10030    2    1    2    0    0  0.00000000000E+00  0.00000000000E+00 -0.19484737400E+01  0.15860043692E+04  0.15860031723E+04 0.  0.
        5    1    3    3  502    0 -0.10376225866E+03  0.72875668123E+03  0.29394380279E+03  0.79263986524E+03  0.46999998093E+01 0.  1.
       -5    1    3    3    0  502  0.10376225866E+03 -0.72875668123E+03 -0.29589227653E+03  0.79336450392E+03  0.46999998093E+01 0. -1.
</event>
<event>
 5   0  0.5606965E-04  0.1504977E+04  0.7818609E-02  0.8881150E-01
        1   -1    0    0  501    0  0.00000000000E+00  0.00000000000E+00  0.15449308150E+04  0.15449308150E+04  0.50400001928E-02 0.  1.
       -1   -1    0    0    0  501  0.00000000000E+00  0.00000000000E+00 -0.36651414917E+03  0.36651414920E+03  0.50400001928E-02 0. -1.
    10030    2    1    2    0    0  0.00000000000E+00  0.00000000000E+00  0.11784166658E+04  0.19114449642E+04  0.15049770805E+04 0.  0.
        4    1    3    3  502    0  0.58772882785E+03 -0.62254649634E+02  0.11807676520E+04  0.13204221588E+04  0.12699999809E+01 0.  1.
       -4    1    3    3    0  502 -0.58772882785E+03  0.62254649634E+02 -0.23509861752E+01  0.59102280542E+03  0.12699999809E+01 0. -1.
</event>
<event>
 5   0  0.1126175E-03  0.1554057E+04  0.7818609E-02  0.8849281E-01
       -2   -1    0    0    0  501  0.00000000000E+00  0.00000000000E+00  0.32361030157E+03  0.32361030158E+03  0.25500000920E-02 0.  1.
        2   -1    0    0  501    0  0.00000000000E+00  0.00000000000E+00 -0.18657410075E+04  0.18657410075E+04  0.25500000920E-02 0. -1.
    10030    2    1    2    0    0  0.00000000000E+00  0.00000000000E+00 -0.15421307059E+04  0.21893513091E+04  0.15540566400E+04 0.  0.
        3    1    3    3  502    0 -0.49105200844E+03  0.53569354474E+03 -0.38352217615E+03  0.82169880045E+03  0.10100000352E+00 0.  1.
       -3    1    3    3    0  502  0.49105200844E+03 -0.53569354474E+03 -0.11586085298E+04  0.13676525086E+04  0.10100000352E+00 0. -1.
</event>
<event>
 5   0  0.1097156E-03  0.1463892E+04  0.7818609E-02  0.8908826E-01
       -2   -1    0    0    0  501  0.00000000000E+00  0.00000000000E+00  0.65281743101E+03  0.65281743102E+03  0.25500000920E-02 0.  1.
        2   -1    0    0  501    0  0.00000000000E+00  0.00000000000E+00 -0.82066595609E+03  0.82066595609E+03  0.25500000920E-02 0. -1.
    10030    2    1    2    0    0  0.00000000000E+00  0.00000000000E+00 -0.16784852507E+03  0.14734833871E+04  0.14638921288E+04 0.  0.
        2    1    3    3  502    0 -0.33079362751E+03  0.26331739509E+03 -0.68532075180E+03  0.80524841347E+03  0.25500000920E-02 0. -1.
       -2    1    3    3    0  502  0.33079362751E+03 -0.26331739509E+03  0.51747222672E+03  0.66823497364E+03  0.25500000920E-02 0.  1.
</event>
<event>
 5   0  0.1147755E-03  0.1404422E+04  0.7818609E-02  0.8950624E-01
        2   -1    0    0  501    0  0.00000000000E+00  0.00000000000E+00  0.95983128351E+03  0.95983128351E+03  0.25500000920E-02 0.  1.
       -2   -1    0    0    0  501  0.00000000000E+00  0.00000000000E+00 -0.51373676347E+03  0.51373676348E+03  0.25500000920E-02 0. -1.
    10030    2    1    2    0    0  0.00000000000E+00  0.00000000000E+00  0.44609452003E+03  0.14735680470E+04  0.14044224679E+04 0.  0.
        4    1    3    3  502    0 -0.45442959134E+03 -0.47893473069E+03 -0.27924365951E+02  0.66080716769E+03  0.12699999809E+01 0. -1.
       -4    1    3    3    0  502  0.45442959134E+03  0.47893473069E+03  0.47401888599E+03  0.81276087930E+03  0.12699999809E+01 0.  1.
</event>
<event>
 5   0  0.1082667E-03  0.1766194E+04  0.7818609E-02  0.8724487E-01
       -2   -1    0    0    0  501  0.00000000000E+00  0.00000000000E+00  0.92987656375E+03  0.92987656376E+03  0.25500000920E-02 0.  1.
        2   -1    0    0  501    0  0.00000000000E+00  0.00000000000E+00 -0.83867085542E+03  0.83867085542E+03  0.25500000920E-02 0. -1.
    10030    2    1    2    0    0  0.00000000000E+00  0.00000000000E+00  0.91205708339E+02  0.17685474192E+04  0.17661940699E+04 0.  0.
        5    1    3    3  502    0  0.41359609581E+03 -0.75540277313E+03 -0.14996022488E+03  0.87418833164E+03  0.46999998093E+01 0. -1.
       -5    1    3    3    0  502 -0.41359609581E+03  0.75540277313E+03  0.24116593322E+03  0.89435908754E+03  0.46999998093E+01 0.  1.
</event>
<event>
 5   0  0.1149716E-03  0.1494085E+04  0.7818609E-02  0.8888396E-01
        2   -1    0    0  501    0  0.00000000000E+00  0.00000000000E+00  0.96636421588E+03  0.96636421588E+03  0.25500000920E-02 0. -1.
       -2   -1    0    0    0  501  0.00000000000E+00  0.00000000000E+00 -0.57749688480E+03  0.57749688481E+03  0.25500000920E-02 0.  1.
    10030    2    1    2    0    0  0.00000000000E+00  0.00000000000E+00  0.38886733108E+03  0.15438611007E+04  0.14940847690E+04 0.  0.
        1    1    3    3  502    0  0.32301578272E+02  0.66438025691E+03  0.54580322151E+03  0.86043342239E+03  0.50400001928E-02 0. -1.
       -1    1    3    3    0  502 -0.32301578272E+02 -0.66438025691E+03 -0.15693589043E+03  0.68342767830E+03  0.50400001928E-02 0.  1.
</event>
<event>
 5   0  0.1149716E-03  0.1542705E+04  0.7818609E-02  0.8856541E-01
       -2   -1    0    0    0  501  0.00000000000E+00  0.00000000000E+00  0.30361763004E+03  0.30361763005E+03  0.25500000920E-02 0. -1.
        2   -1    0    0  501    0  0.00000000000E+00  0.00000000000E+00 -0.19596520718E+04  0.19596520718E+04  0.25500000920E-02 0.  1.
    10030    2    1    2    0    0  0.00000000000E+00  0.00000000000E+00 -0.16560344418E+04  0.22632697019E+04  0.15427053092E+04 0.  0.
        1    1    3    3  502    0  0.87313916660E+02  0.56901573919E+03 -0.15812191884E+04  0.16827527309E+04  0.50400001928E-02 0.  1.
       -1    1    3    3    0  502 -0.87313916660E+02 -0.56901573919E+03 -0.74815253423E+02  0.58051697103E+03  0.50400001928E-02 0. -1.
</event>
<event>
 5   0  0.5924403E-04  0.1516069E+04  0.7818609E-02  0.8873837E-01
       -1   -1    0    0    0  501  0.00000000000E+00  0.00000000000E+00  0.96714659068E+03  0.96714659069E+03  0.50400001928E-02 0. -1.
        1   -1    0    0  501    0  0.00000000000E+00  0.00000000000E+00 -0.59413574807E+03  0.59413574809E+03  0.50400001928E-02 0.  1.
    10030    2    1    2    0    0  0.00000000000E+00  0.00000000000E+00  0.37301084261E+03  0.15612823388E+04  0.15160690791E+04 0.  0.
        1    1    3    3  502    0 -0.40751130028E+03  0.60349846683E+03  0.40335709004E+03  0.83244987923E+03  0.50400001928E-02 0. -1.
       -1    1    3    3    0  502  0.40751130028E+03 -0.60349846683E+03 -0.30346247429E+02  0.72883245954E+03  0.50400001928E-02 0.  1.
</event>
<event>
 5   0  0.5914645E-04  0.1583399E+04  0.7818609E-02  0.8830812E-01
       -1   -1    0    0    0  501  0.00000000000E+00  0.00000000000E+00  0.36568364286E+03  0.36568364289E+03  0.50400001928E-02 0.  1.
        1   -1    0    0  501    0  0.00000000000E+00  0.00000000000E+00 -0.17140177754E+04  0.17140177754E+04  0.50400001928E-02 0. -1.
    10030    2    1    2    0    0  0.00000000000E+00  0.00000000000E+00 -0.13483341326E+04  0.20797014183E+04  0.15833992094E+04 0.  0.
        2    1    3    3  502    0 -0.53577715025E+03  0.49565962697E+03 -0.10769731931E+04  0.13010022595E+04  0.25500000920E-02 0. -1.
       -2    1    3    3    0  502  0.53577715025E+03 -0.49565962697E+03 -0.27136093951E+03  0.77869915888E+03  0.25500000920E-02 0.  1.
</event>
<event>
 5   0  0.1149716E-03  0.1184210E+04  0.7818609E-02  0.9126791E-01
       -2   -1    0    0    0  501  0.00000000000E+00  0.00000000000E+00  0.42041405160E+03  0.42041405161E+03  0.25500000920E-02 0.  1.
        2   -1    0    0  501    0  0.00000000000E+00  0.00000000000E+00 -0.83391217237E+03  0.83391217237E+03  0.25500000920E-02 0. -1.
    10030    2    1    2    0    0  0.00000000000E+00  0.00000000000E+00 -0.41349812076E+03  0.12543262240E+04  0.11842101082E+04 0.  0.
        1    1    3    3  502    0  0.58855017229E+03  0.46400996241E+02 -0.15886112139E+03  0.61137649093E+03  0.50400001928E-02 0. -1.
       -1    1    3    3    0  502 -0.58855017229E+03 -0.46400996241E+02 -0.25463699937E+03  0.64294973305E+03  0.50400001928E-02 0.  1.
</event>
<event>
 5   0  0.6146552E-04  0.1481569E+04  0.7818609E-02  0.8896803E-01
       -1   -1    0    0    0  501  0.00000000000E+00  0.00000000000E+00  0.14123241058E+04  0.14123241058E+04  0.50400001928E-02 0.  1.
        1   -1    0    0  501    0  0.00000000000E+00  0.00000000000E+00 -0.38855215231E+03  0.38855215234E+03  0.50400001928E-02 0. -1.
    10030    2    1    2    0    0  0.00000000000E+00  0.00000000000E+00  0.10237719535E+04  0.18008762582E+04  0.14815688592E+04 0.  0.
        5    1    3    3  502    0  0.26308511100E+03 -0.14448655877E+03 -0.31130844319E+03  0.43246407723E+03  0.46999998093E+01 0. -1.
       -5    1    3    3    0  502 -0.26308511100E+03  0.14448655877E+03  0.13350803967E+04  0.13684121809E+04  0.46999998093E+01 0.  1.
</event>
<event>
 5   0  0.1082667E-03  0.1482258E+04  0.7818609E-02  0.8896338E-01
       -2   -1    0    0    0  501  0.00000000000E+00  0.00000000000E+00  0.26776988154E+03  0.26776988155E+03  0.25500000920E-02 0.  1.
        2   -1    0    0  501    0  0.00000000000E+00  0.00000000000E+00 -0.20512846069E+04  0.20512846069E+04  0.25500000920E-02 0. -1.
    10030    2    1    2    0    0  0.00000000000E+00  0.00000000000E+00 -0.17835147253E+04  0.23190544884E+04  0.14822580561E+04 0.  0.
        5    1    3    3  502    0  0.13039303947E+03 -0.46606995102E+03 -0.13623452953E+02  0.48418099142E+03  0.46999998093E+01 0.  1.
       -5    1    3    3    0  502 -0.13039303947E+03  0.46606995102E+03 -0.17698912724E+04  0.18348734970E+04  0.46999998093E+01 0. -1.
</event>
<event>
 5   0  0.5840834E-04  0.1492937E+04  0.7818609E-02  0.8889163E-01
        1   -1    0    0  501    0  0.00000000000E+00  0.00000000000E+00  0.88091603426E+03  0.88091603428E+03  0.50400001928E-02 0.  1.
       -1   -1    0    0    0  501  0.00000000000E+00  0.00000000000E+00 -0.63254093272E+03  0.63254093274E+03  0.50400001928E-02 0. -1.
    10030    2    1    2    0    0  0.00000000000E+00  0.00000000000E+00  0.24837510154E+03  0.15134569670E+04  0.14929373061E+04 0.  0.
        3    1    3    3  502    0 -0.20131247975E+03 -0.70414708397E+03 -0.22247163210E+02  0.73269692018E+03  0.10100000352E+00 0.  1.
       -3    1    3    3    0  502  0.20131247975E+03  0.70414708397E+03  0.27062226475E+03  0.78076004684E+03  0.10100000352E+00 0. -1.
</event>
<event>
 5   0  0.1097156E-03  0.1086465E+04  0.7818609E-02  0.9218486E-01
       -2   -1    0    0    0  501  0.00000000000E+00  0.00000000000E+00  0.43151357722E+03  0.43151357723E+03  0.25500000920E-02 0. -1.
        2   -1    0    0  501    0  0.00000000000E+00  0.00000000000E+00 -0.68387491916E+03  0.68387491917E+03  0.25500000920E-02 0.  1.
    10030    2    1    2    0    0  0.00000000000E+00  0.00000000000E+00 -0.25236134194E+03  0.11153884964E+04  0.10864645650E+04 0.  0.
        2    1    3    3  502    0 -0.44430982354E+03  0.69944063638E+02  0.18655665535E+03  0.48693611182E+03  0.25500000920E-02 0. -1.
       -2    1    3    3    0  502  0.44430982354E+03 -0.69944063638E+02 -0.43891799730E+03  0.62845238458E+03  0.25500000920E-02 0.  1.
</event>
<event>
 5   0  0.5606965E-04  0.1514058E+04  0.7818609E-02  0.8875158E-01
       -1   -1    0    0    0  501  0.00000000000E+00  0.00000000000E+00  0.42122018060E+03  0.42122018063E+03  0.50400001928E-02 0. -1.
        1   -1    0    0  501    0  0.00000000000E+00  0.00000000000E+00 -0.13605537196E+04  0.13605537196E+04  0.50400001928E-02 0.  1.
    10030    2    1    2    0    0  0.00000000000E+00  0.00000000000E+00 -0.93933353901E+03  0.17817739002E+04  0.15140577050E+04 0.  0.
        4    1    3    3  502    0  0.22601888816E+03 -0.44799459699E+03  0.19740185115E+03  0.53921498539E+03  0.12699999809E+01 0. -1.
       -4    1    3    3    0  502 -0.22601888816E+03  0.44799459699E+03 -0.11367353902E+04  0.12425589148E+04  0.12699999809E+01 0.  1.
</event>
<event>
 5   0  0.6146552E-04  0.1517724E+04  0.7818609E-02  0.8872751E-01
        1   -1    0    0  501    0  0.00000000000E+00  0.00000000000E+00  0.15623002546E+04  0.15623002546E+04  0.50400001928E-02 0.  1.
       -1   -1    0    0    0  501  0.00000000000E+00  0.00000000000E+00 -0.36860508255E+03  0.36860508258E+03  0.50400001928E-02 0. -1.
    10030    2    1    2    0    0  0.00000000000E+00  0.00000000000E+00  0.11936951721E+04  0.19309053372E+04  0.15177243681E+04 0.  0.
        5    1    3    3  502    0  0.60940415392E+03  0.43721754421E+03  0.74366353679E+03  0.10562150111E+04  0.46999998093E+01 0.  1.
       -5    1    3    3    0  502 -0.60940415392E+03 -0.43721754421E+03  0.45003163527E+03  0.87469032607E+03  0.46999998093E+01 0. -1.
</event>
<event>
 5   0  0.5924403E-04  0.1501503E+04  0.7818609E-02  0.8883454E-01
       -1   -1    0    0    0  501  0.00000000000E+00  0.00000000000E+00  0.32595172559E+03  0.32595172563E+03  0.50400001928E-02 0. -1.
        1   -1    0    0  501    0  0.00000000000E+00  0.00000000000E+00 -0.17291763300E+04  0.17291763300E+04  0.50400001928E-02 0.  1.
    10030    2    1    2    0    0  0.00000000000E+00  0.00000000000E+00 -0.14032246044E+04  0.20551280556E+04  0.15015032583E+04 0.  0.
        1    1    3    3  502    0  0.41912150433E+03 -0.53677856488E+03 -0.26914654388E+03  0.73227995003E+03  0.50400001928E-02 0. -1.
       -1    1    3    3    0  502 -0.41912150433E+03  0.53677856488E+03 -0.11340780605E+04  0.13228481056E+04  0.50400001928E-02 0.  1.
</event>
<event>
 5   0  0.5914645E-04  0.1503177E+04  0.7818609E-02  0.8882343E-01
        1   -1    0    0  501    0  0.00000000000E+00  0.00000000000E+00  0.49853802302E+03  0.49853802305E+03  0.50400001928E-02 0. -1.
       -1   -1    0    0    0  501  0.00000000000E+00  0.00000000000E+00 -0.11330840102E+04  0.11330840102E+04  0.50400001928E-02 0.  1.
    10030    2    1    2    0    0  0.00000000000E+00  0.00000000000E+00 -0.63454598718E+03  0.16316220333E+04  0.15031772515E+04 0.  0.
        2    1    3    3  502    0 -0.46345575947E+03 -0.35326903303E+03 -0.83248425526E+03  0.10161792588E+04  0.25500000920E-02 0.  1.
       -2    1    3    3    0  502  0.46345575947E+03  0.35326903303E+03  0.19793826809E+03  0.61544277449E+03  0.25500000920E-02 0. -1.
</event>
<event>
 5   0  0.1126175E-03  0.1472027E+04  0.7818609E-02  0.8903271E-01
       -2   -1    0    0    0  501  0.00000000000E+00  0.00000000000E+00  0.41238282932E+03  0.41238282933E+03  0.25500000920E-02 0.  1.
        2   -1    0    0  501    0  0.00000000000E+00  0.00000000000E+00 -0.13136233628E+04  0.13136233628E+04  0.25500000920E-02 0. -1.
    10030    2    1    2    0    0  0.00000000000E+00  0.00000000000E+00 -0.90124053346E+03  0.17260061921E+04  0.14720267919E+04 0.  0.
        3    1    3    3  502    0 -0.27771936262E+03  0.41866966218E+03  0.18005149732E+03  0.53369549585E+03  0.10100000352E+00 0.  1.
       -3    1    3    3    0  502  0.27771936262E+03 -0.41866966218E+03 -0.10812920308E+04  0.11923106963E+04  0.10100000352E+00 0. -1.
</event>
<event>
 5   0  0.1149716E-03  0.1502443E+04  0.7818609E-02  0.8882830E-01
       -2   -1    0    0    0  501  0.00000000000E+00  0.00000000000E+00  0.27618963201E+03  0.27618963203E+03  0.25500000920E-02 0. -1.
        2   -1    0    0  501    0  0.00000000000E+00  0.00000000000E+00 -0.20432824102E+04  0.20432824102E+04  0.25500000920E-02 0.  1.
    10030    2    1    2    0    0  0.00000000000E+00  0.00000000000E+00 -0.17670927781E+04  0.23194720422E+04  0.15024425673E+04 0.  0.
        1    1    3    3  502    0  0.26203872608E+03  0.61957572554E+03 -0.13997280097E+04  0.15529896570E+04  0.50400001928E-02 0. -1.
       -1    1    3    3    0  502 -0.26203872608E+03 -0.61957572554E+03 -0.36736476841E+03  0.76648238514E+03  0.50400001928E-02 0.  1.
</event>
<event>
 5   0  0.5914645E-04  0.1511715E+04  0.7818609E-02  0.8876700E-01
        1   -1    0    0  501    0  0.00000000000E+00  0.00000000000E+00  0.83031745775E+03  0.83031745776E+03  0.50400001928E-02 0. -1.
       -1   -1    0    0    0  501  0.00000000000E+00  0.00000000000E+00 -0.68807478575E+03  0.68807478576E+03  0.50400001928E-02 0.  1.
    10030    2    1    2    0    0  0.00000000000E+00  0.00000000000E+00  0.14224267200E+03  0.15183922435E+04  0.15117149293E+04 0.  0.
        2    1    3    3  502    0  0.35509969231E+03 -0.66483310313E+03  0.14110953928E+02  0.75385540094E+03  0.25500000920E-02 0.  1.
       -2    1    3    3    0  502 -0.35509969231E+03  0.66483310313E+03  0.12813171807E+03  0.76453684259E+03  0.25500000920E-02 0. -1.
</event>
<event>
 5   0  0.5606965E-04  0.1442409E+04  0.7818609E-02  0.8923680E-01
        1   -1    0    0  501    0  0.00000000000E+00  0.00000000000E+00  0.16180709451E+04  0.16180709451E+04  0.50400001928E-02 0.  1.
       -1   -1    0    0    0  501  0.00000000000E+00  0.00000000000E+00 -0.32145433180E+03  0.32145433184E+03  0.50400001928E-02 0. -1.
    10030    2    1    2    0    0  0.00000000000E+00  0.00000000000E+00  0.12966166133E+04  0.19395252770E+04  0.14424089774E+04 0.  0.
        4    1    3    3  502    0 -0.56387468179E+03 -0.19991090082E+03  0.11898761919E+04  0.13318130461E+04  0.12699999809E+01 0.  1.
       -4    1    3    3    0  502  0.56387468179E+03  0.19991090082E+03  0.10674042149E+03  0.60771223084E+03  0.12699999809E+01 0. -1.
</event>
<event>
 5   0  0.5840834E-04  0.1531277E+04  0.7818609E-02  0.8863916E-01
       -1   -1    0    0    0  501  0.00000000000E+00  0.00000000000E+00  0.40278878492E+03  0.40278878496E+03  0.50400001928E-02 0.  1.
        1   -1    0    0  501    0  0.00000000000E+00  0.00000000000E+00 -0.14553587992E+04  0.14553587992E+04  0.50400001928E-02 0. -1.
    10030    2    1    2    0    0  0.00000000000E+00  0.00000000000E+00 -0.10525700143E+04  0.18581475842E+04  0.15312768560E+04 0.  0.
        3    1    3    3  502    0  0.54840236158E+03 -0.53305690898E+03 -0.48240907309E+03  0.90421974232E+03  0.10100000352E+00 0.  1.
       -3    1    3    3    0  502 -0.54840236158E+03  0.53305690898E+03 -0.57016094120E+03  0.95392784186E+03  0.10100000352E+00 0. -1.
</event>
<event>
 5   0  0.5606965E-04  0.1477959E+04  0.7818609E-02  0.8899244E-01
       -1   -1    0    0    0  501  0.00000000000E+00  0.00000000000E+00  0.30959056644E+03  0.30959056648E+03  0.50400001928E-02 0.  1.
        1   -1    0    0  501    0  0.00000000000E+00  0.00000000000E+00 -0.17639121165E+04  0.17639121165E+04  0.50400001928E-02 0. -1.
    10030    2    1    2    0    0  0.00000000000E+00  0.00000000000E+00 -0.14543215501E+04  0.20735026830E+04  0.14779587969E+04 0.  0.
        4    1    3    3  502    0 -0.18751669404E+02 -0.69483149107E+03 -0.10791489803E+04  0.12836302274E+04  0.12699999809E+01 0.  1.
       -4    1    3    3    0  502  0.18751669404E+02  0.69483149107E+03 -0.37517256973E+03  0.78987245557E+03  0.12699999809E+01 0. -1.
</event>
<event>
 5   0  0.1097156E-03  0.1629012E+04  0.7818609E-02  0.8802920E-01
        2   -1    0    0  501    0  0.00000000000E+00  0.00000000000E+00  0.96047830509E+03  0.96047830509E+03  0.25500000920E-02 0. -1.
       -2   -1    0    0    0  501  0.00000000000E+00  0.00000000000E+00 -0.69071836073E+03  0.69071836073E+03  0.25500000920E-02 0.  1.
    10030    2    1    2    0    0  0.00000000000E+00  0.00000000000E+00  0.26975994436E+03  0.16511966658E+04  0.16290119710E+04 0.  0.
        2    1    3    3  502    0 -0.46328587234E+03 -0.66204013129E+03  0.23869086472E+03  0.84255816646E+03  0.25500000920E-02 0. -1.
       -2    1    3    3    0  502  0.46328587234E+03  0.66204013129E+03  0.31069079639E+02  0.80863849937E+03  0.25500000920E-02 0.  1.
</event>
<event>
 5   0  0.1149716E-03  0.1505900E+04  0.7818609E-02  0.8880539E-01
        2   -1    0    0  501    0  0.00000000000E+00  0.00000000000E+00  0.11712089017E+04  0.11712089017E+04  0.25500000920E-02 0.  1.
       -2   -1    0    0    0  501  0.00000000000E+00  0.00000000000E+00 -0.48405842838E+03  0.48405842839E+03  0.25500000920E-02 0. -1.
    10030    2    1    2    0    0  0.00000000000E+00  0.00000000000E+00  0.68715047336E+03  0.16552673301E+04  0.15058997846E+04 0.  0.
        1    1    3    3  502    0 -0.11603596311E+03  0.71229243279E+03  0.57960319188E+03  0.92561585694E+03  0.50400001928E-02 0.  1.
       -1    1    3    3    0  502  0.11603596311E+03 -0.71229243279E+03  0.10754728148E+03  0.72965147319E+03  0.50400001928E-02 0. -1.
</event>
<event>
 5   0  0.5924403E-04  0.1496118E+04  0.7818609E-02  0.8887039E-01
        1   -1    0    0  501    0  0.00000000000E+00  0.00000000000E+00  0.19176192632E+04  0.19176192632E+04  0.50400001928E-02 0. -1.
       -1   -1    0    0    0  501  0.00000000000E+00  0.00000000000E+00 -0.29181612746E+03  0.29181612751E+03  0.50400001928E-02 0.  1.
    10030    2    1    2    0    0  0.00000000000E+00  0.00000000000E+00  0.16258031358E+04  0.22094353908E+04  0.14961179464E+04 0.  0.
        1    1    3    3  502    0  0.72869092225E+03 -0.16202126504E+03  0.88450443555E+03  0.11574063448E+04  0.50400001928E-02 0.  1.
       -1    1    3    3    0  502 -0.72869092225E+03  0.16202126504E+03  0.74129870023E+03  0.10520290459E+04  0.50400001928E-02 0. -1.
</event>
<event>
 5   0  0.1097156E-03  0.1576551E+04  0.7818609E-02  0.8835084E-01
       -2   -1    0    0    0  501  0.00000000000E+00  0.00000000000E+00  0.69867235712E+03  0.69867235713E+03  0.25500000920E-02 0. -1.
        2   -1    0    0  501    0  0.00000000000E+00  0.00000000000E+00 -0.88937057603E+03  0.88937057603E+03  0.25500000920E-02 0.  1.
    10030    2    1    2    0    0  0.00000000000E+00  0.00000000000E+00 -0.19069821891E+03  0.15880429332E+04  0.15765514729E+04 0.  0.
        2    1    3    3  502    0  0.32750187383E+03  0.69065611423E+03 -0.28940664922E+03  0.81732463202E+03  0.25500000920E-02 0.  1.
       -2    1    3    3    0  502 -0.32750187383E+03 -0.69065611423E+03  0.98708430309E+02  0.77071830114E+03  0.25500000920E-02 0. -1.
</event>
<event>
 5   0  0.5840834E-04  0.1500512E+04  0.7818609E-02  0.8884113E-01
       -1   -1    0    0    0  501  0.00000000000E+00  0.00000000000E+00  0.78194169868E+03  0.78194169870E+03  0.50400001928E-02 0.  1.
        1   -1    0    0  501    0  0.00000000000E+00  0.00000000000E+00 -0.71985406478E+03  0.71985406479E+03  0.50400001928E-02 0. -1.
    10030    2    1    2    0    0  0.00000000000E+00  0.00000000000E+00  0.62087633905E+02  0.15017957635E+04  0.15005117930E+04 0.  0.
        3    1    3    3  502    0 -0.25546669238E+03 -0.60011129649E+03  0.40215363067E+03  0.76624040089E+03  0.10100000352E+00 0. -1.
       -3    1    3    3    0  502  0.25546669238E+03  0.60011129649E+03 -0.34006599677E+03  0.73555536260E+03  0.10100000352E+00 0.  1.
</event>
<event>
 5   0  0.1149716E-03  0.1535662E+04  0.7818609E-02  0.8861078E-01
        2   -1    0    0  501    0  0.00000000000E+00  0.00000000000E+00  0.56369594630E+03  0.56369594631E+03  0.25500000920E-02 0. -1.
       -2   -1    0    0    0  501  0.00000000000E+00  0.00000000000E+00 -0.10458912555E+04  0.10458912555E+04  0.25500000920E-02 0.  1.
    10030    2    1    2    0    0  0.00000000000E+00  0.00000000000E+00 -0.48219530915E+03  0.16095872018E+04  0.15356622819E+04 0.  0.
        1    1    3    3  502    0 -0.11937192135E+03  0.70534470932E+03 -0.53345857909E+03  0.89237821030E+03  0.50400001928E-02 0. -1.
       -1    1    3    3    0  502  0.11937192135E+03 -0.70534470932E+03  0.51263269939E+02  0.71720899147E+03  0.50400001928E-02 0.  1.
</event>
<event>
 5   0  0.5840834E-04  0.1465957E+04  0.7818609E-02  0.8907412E-01
       -1   -1    0    0    0  501  0.00000000000E+00  0.00000000000E+00  0.63712128186E+03  0.63712128188E+03  0.50400001928E-02 0.  1.
        1   -1    0    0  501    0  0.00000000000E+00  0.00000000000E+00 -0.84325725255E+03  0.84325725257E+03  0.50400001928E-02 0. -1.
    10030    2    1    2    0    0  0.00000000000E+00  0.00000000000E+00 -0.20613597069E+03  0.14803785344E+04  0.14659565365E+04 0.  0.
        3    1    3    3  502    0 -0.46571428577E+02 -0.63485092354E+03 -0.47003333800E+03  0.79128752177E+03  0.10100000352E+00 0. -1.
       -3    1    3    3    0  502  0.46571428577E+02  0.63485092354E+03  0.26389736730E+03  0.68909101267E+03  0.10100000352E+00 0.  1.
</event>
<event>
 5   0  0.4070625E-04  0.1480699E+04  0.7818609E-02  0.8897390E-01
       -4   -1    0    0    0  501  0.00000000000E+00  0.00000000000E+00  0.40629175761E+03  0.40629374251E+03  0.12699999809E+01 0.  1.
        4   -1    0    0  501    0  0.00000000000E+00  0.00000000000E+00 -0.13490674767E+04  0.13490680745E+04  0.12699999809E+01 0. -1.
    10030    2    1    2    0    0  0.00000000000E+00  0.00000000000E+00 -0.94277571913E+03  0.17553618170E+04  0.14806988391E+04 0.  0.
        4    1    3    3  502    0  0.18956500048E+03 -0.68777516332E+03 -0.70594252793E+03  0.10036563308E+04  0.12699999809E+01 0.  1.
       -4    1    3    3    0  502 -0.18956500048E+03  0.68777516332E+03 -0.23683319120E+03  0.75170548624E+03  0.12699999809E+01 0. -1.
</event>
<event>
 5   0  0.1149716E-03  0.1520444E+04  0.7818609E-02  0.8870970E-01
        2   -1    0    0  501    0  0.00000000000E+00  0.00000000000E+00  0.21153775655E+04  0.21153775655E+04  0.25500000920E-02 0. -1.
       -2   -1    0    0    0  501  0.00000000000E+00  0.00000000000E+00 -0.27320783731E+03  0.27320783732E+03  0.25500000920E-02 0.  1.
    10030    2    1    2    0    0  0.00000000000E+00  0.00000000000E+00  0.18421697282E+04  0.23885854028E+04  0.15204443163E+04 0.  0.
        1    1    3    3  502    0  0.65116568211E+03  0.38642971915E+03  0.81461636285E+03  0.11121800628E+04  0.50400001928E-02 0. -1.
       -1    1    3    3    0  502 -0.65116568211E+03 -0.38642971915E+03  0.10275533653E+04  0.12764053400E+04  0.50400001928E-02 0.  1.
</event>
<event>
 5   0  0.5914645E-04  0.1398132E+04  0.7818609E-02  0.8955172E-01
       -1   -1    0    0    0  501  0.00000000000E+00  0.00000000000E+00  0.36386820216E+03  0.36386820220E+03  0.50400001928E-02 0. -1.
        1   -1    0    0  501    0  0.00000000000E+00  0.00000000000E+00 -0.13430497331E+04  0.13430497331E+04  0.50400001928E-02 0.  1.
    10030    2    1    2    0    0  0.00000000000E+00  0.00000000000E+00 -0.97918153091E+03  0.17069179353E+04  0.13981317418E+04 0.  0.
        2    1    3    3  502    0  0.28527246178E+03  0.37681143970E+03 -0.11184512861E+04  0.12142077738E+04  0.25500000920E-02 0.  1.
       -2    1    3    3    0  502 -0.28527246178E+03 -0.37681143970E+03  0.13926975518E+03  0.49271016150E+03  0.25500000920E-02 0. -1.
</event>
<event>
 5   0  0.1097156E-03  0.1481719E+04  0.7818609E-02  0.8896701E-01
        2   -1    0    0  501    0  0.00000000000E+00  0.00000000000E+00  0.98239593844E+03  0.98239593844E+03  0.25500000920E-02 0.  1.
       -2   -1    0    0    0  501  0.00000000000E+00  0.00000000000E+00 -0.55870860379E+03  0.55870860380E+03  0.25500000920E-02 0. -1.
    10030    2    1    2    0    0  0.00000000000E+00  0.00000000000E+00  0.42368733465E+03  0.15411045422E+04  0.14817193569E+04 0.  0.
        2    1    3    3  502    0  0.68646351627E+03 -0.21820308594E+03  0.31611774497E+02  0.72100211524E+03  0.25500000920E-02 0. -1.
       -2    1    3    3    0  502 -0.68646351627E+03  0.21820308594E+03  0.39207556015E+03  0.82010242699E+03  0.25500000920E-02 0.  1.
</event>
<event>
 5   0  0.1149716E-03  0.1508385E+04  0.7818609E-02  0.8878896E-01
        2   -1    0    0  501    0  0.00000000000E+00  0.00000000000E+00  0.50264683890E+03  0.50264683890E+03  0.25500000920E-02 0.  1.
       -2   -1    0    0    0  501  0.00000000000E+00  0.00000000000E+00 -0.11316215142E+04  0.11316215142E+04  0.25500000920E-02 0. -1.
    10030    2    1    2    0    0  0.00000000000E+00  0.00000000000E+00 -0.62897467532E+03  0.16342683531E+04  0.15083845358E+04 0.  0.
        1    1    3    3  502    0  0.69254765371E+03  0.29657487469E+03 -0.27653438143E+03  0.80252736595E+03  0.50400001928E-02 0. -1.
       -1    1    3    3    0  502 -0.69254765371E+03 -0.29657487469E+03 -0.35244029388E+03  0.83174098717E+03  0.50400001928E-02 0.  1.
</event>
<event>
 5   0  0.5914645E-04  0.1484324E+04  0.7818609E-02  0.8894945E-01
       -1   -1    0    0    0  501  0.00000000000E+00  0.00000000000E+00  0.72190015357E+03  0.72190015358E+03  0.50400001928E-02 0.  1.
        1   -1    0    0  501    0  0.00000000000E+00  0.00000000000E+00 -0.76299233645E+03  0.76299233647E+03  0.50400001928E-02 0. -1.
    10030    2    1    2    0    0  0.00000000000E+00  0.00000000000E+00 -0.41092182887E+02  0.14848924901E+04  0.14843237987E+04 0.  0.
        2    1    3    3  502    0  0.22109726291E+03  0.53450444679E+03 -0.48572455051E+03  0.75531936442E+03  0.25500000920E-02 0. -1.
       -2    1    3    3    0  502 -0.22109726291E+03 -0.53450444679E+03  0.44463236762E+03  0.72957312563E+03  0.25500000920E-02 0.  1.
</event>
<event>
 5   0  0.5606965E-04  0.1476756E+04  0.7818609E-02  0.8900059E-01
        1   -1    0    0  501    0  0.00000000000E+00  0.00000000000E+00  0.62810030449E+03  0.62810030451E+03  0.50400001928E-02 0.  1.
       -1   -1    0    0    0  501  0.00000000000E+00  0.00000000000E+00 -0.86801769337E+03  0.86801769339E+03  0.50400001928E-02 0. -1.
    10030    2    1    2    0    0  0.00000000000E+00  0.00000000000E+00 -0.23991738888E+03  0.14961179979E+04  0.14767561444E+04 0.  0.
        4    1    3    3  502    0 -0.67024264178E+03 -0.22574627595E+03  0.94988009666E+02  0.71359015888E+03  0.12699999809E+01 0.  1.
       -4    1    3    3    0  502  0.67024264178E+03  0.22574627595E+03 -0.33490539855E+03  0.78252783902E+03  0.12699999809E+01 0. -1.
</event>
<event>
 5   0  0.1082667E-03  0.1494391E+04  0.7818609E-02  0.8888191E-01
        2   -1    0    0  501    0  0.00000000000E+00  0.00000000000E+00  0.70765254388E+03  0.70765254389E+03  0.25500000920E-02 0.  1.
       -2   -1    0    0    0  501  0.00000000000E+00  0.00000000000E+00 -0.78894817986E+03  0.78894817987E+03  0.25500000920E-02 0. -1.
    10030    2    1    2    0    0  0.00000000000E+00  0.00000000000E+00 -0.81295635980E+02  0.14966007238E+04  0.14943910954E+04 0.  0.
        5    1    3    3  502    0 -0.12066435272E+03  0.68041008724E+03  0.24395775108E+03  0.73284053323E+03  0.46999998093E+01 0.  1.
       -5    1    3    3    0  502  0.12066435272E+03 -0.68041008724E+03 -0.32525338706E+03  0.76376019052E+03  0.46999998093E+01 0. -1.
</event>
<event>
 5   0  0.6146552E-04  0.1470611E+04  0.7818609E-02  0.8904235E-01
        1   -1    0    0  501    0  0.00000000000E+00  0.00000000000E+00  0.11775197302E+04  0.11775197302E+04  0.50400001928E-02 0. -1.
       -1   -1    0    0    0  501  0.00000000000E+00  0.00000000000E+00 -0.45916374726E+03  0.45916374729E+03  0.50400001928E-02 0.  1.
    10030    2    1    2    0    0  0.00000000000E+00  0.00000000000E+00  0.71835598290E+03  0.16366834775E+04  0.14706112631E+04 0.  0.
        5    1    3    3  502    0 -0.52786853367E+03  0.23269668928E+03  0.86657930395E+03  0.10410450125E+04  0.46999998093E+01 0. -1.
       -5    1    3    3    0  502  0.52786853367E+03 -0.23269668928E+03 -0.14822332105E+03  0.59563846496E+03  0.46999998093E+01 0.  1.
</event>
<event>
 5   0  0.5840834E-04  0.1565591E+04  0.7818609E-02  0.8841970E-01
       -1   -1    0    0    0  501  0.00000000000E+00  0.00000000000E+00  0.58239151625E+03  0.58239151627E+03  0.50400001928E-02 0. -1.
        1   -1    0    0  501    0  0.00000000000E+00  0.00000000000E+00 -0.10521592716E+04  0.10521592717E+04  0.50400001928E-02 0.  1.
    10030    2    1    2    0    0  0.00000000000E+00  0.00000000000E+00 -0.46976775539E+03  0.16345507879E+04  0.15655907940E+04 0.  0.
        3    1    3    3  502    0  0.43704695855E+02 -0.88138944139E+02  0.57591145844E+03  0.58425387639E+03  0.10100000352E+00 0. -1.
       -3    1    3    3    0  502 -0.43704695855E+02  0.88138944139E+02 -0.10456792138E+04  0.10502969115E+04  0.10100000352E+00 0.  1.
</event>
<event>
 5   0  0.1126175E-03  0.1485355E+04  0.7818609E-02  0.8894250E-01
       -2   -1    0    0    0  501  0.00000000000E+00  0.00000000000E+00  0.12973325378E+04  0.12973325378E+04  0.25500000920E-02 0. -1.
        2   -1    0    0  501    0  0.00000000000E+00  0.00000000000E+00 -0.42515709868E+03  0.42515709869E+03  0.25500000920E-02 0.  1.
    10030    2    1    2    0    0  0.00000000000E+00  0.00000000000E+00  0.87217543908E+03  0.17224896365E+04  0.14853553619E+04 0.  0.
        3    1    3    3  502    0 -0.12863165038E+03 -0.32291623762E+03  0.11971819918E+04  0.12466217267E+04  0.10100000352E+00 0. -1.
       -3    1    3    3    0  502  0.12863165038E+03  0.32291623762E+03 -0.32500655268E+03  0.47586790970E+03  0.10100000352E+00 0.  1.
</event>
<event>
 5   0  0.1082667E-03  0.1548624E+04  0.7818609E-02  0.8852747E-01
        2   -1    0    0  501    0  0.00000000000E+00  0.00000000000E+00  0.67811076607E+03  0.67811076608E+03  0.25500000920E-02 0. -1.
       -2   -1    0    0    0  501  0.00000000000E+00  0.00000000000E+00 -0.88416073374E+03  0.88416073375E+03  0.25500000920E-02 0.  1.
    10030    2    1    2    0    0  0.00000000000E+00  0.00000000000E+00 -0.20604996767E+03  0.15622714998E+04  0.15486237923E+04 0.  0.
        5    1    3    3  502    0  0.38959136661E+03  0.41980987964E+03  0.42263817458E+03  0.71180536988E+03  0.46999998093E+01 0. -1.
       -5    1    3    3    0  502 -0.38959136661E+03 -0.41980987964E+03 -0.62868814225E+03  0.85046612994E+03  0.46999998093E+01 0.  1.
</event>
<event>
 5   0  0.6146552E-04  0.1486797E+04  0.7818609E-02  0.8893281E-01
       -1   -1    0    0    0  501  0.00000000000E+00  0.00000000000E+00  0.13962932434E+04  0.13962932434E+04  0.50400001928E-02 0. -1.
        1   -1    0    0  501    0  0.00000000000E+00  0.00000000000E+00 -0.39579149857E+03  0.39579149861E+03  0.50400001928E-02 0.  1.
    10030    2    1    2    0    0  0.00000000000E+00  0.00000000000E+00  0.10005017448E+04  0.17920847420E+04  0.14867965500E+04 0.  0.
        5    1    3    3  502    0  0.71520609741E+02  0.73985080943E+03  0.51369924792E+03  0.90355045522E+03  0.46999998093E+01 0. -1.
       -5    1    3    3    0  502 -0.71520609741E+02 -0.73985080943E+03  0.48680249693E+03  0.88853428681E+03  0.46999998093E+01 0.  1.
</event>
<event>
 5   0  0.5914645E-04  0.1595505E+04  0.7818609E-02  0.8823314E-01
       -1   -1    0    0    0  501  0.00000000000E+00  0.00000000000E+00  0.42083070884E+03  0.42083070887E+03  0.50400001928E-02 0. -1.
        1   -1    0    0  501    0  0.00000000000E+00  0.00000000000E+00 -0.15122677273E+04  0.15122677273E+04  0.50400001928E-02 0.  1.
    10030    2    1    2    0    0  0.00000000000E+00  0.00000000000E+00 -0.10914370184E+04  0.19330984361E+04  0.15955045593E+04 0.  0.
        2    1    3    3  502    0 -0.60206976318E+03  0.10375034368E+03 -0.11672498391E+04  0.13174689068E+04  0.25500000920E-02 0.  1.
       -2    1    3    3    0  502  0.60206976318E+03 -0.10375034368E+03  0.75812820706E+02  0.61562952929E+03  0.25500000920E-02 0. -1.
</event>
<event>
 5   0  0.1147755E-03  0.1489301E+04  0.7818609E-02  0.8891599E-01
       -2   -1    0    0    0  501  0.00000000000E+00  0.00000000000E+00  0.38277970244E+03  0.38277970245E+03  0.25500000920E-02 0. -1.
        2   -1    0    0  501    0  0.00000000000E+00  0.00000000000E+00 -0.14486247426E+04  0.14486247426E+04  0.25500000920E-02 0.  1.
    10030    2    1    2    0    0  0.00000000000E+00  0.00000000000E+00 -0.10658450401E+04  0.18314044450E+04  0.14893007056E+04 0.  0.
        4    1    3    3  502    0 -0.27721239257E+03  0.10449393741E+03  0.30719087656E+03  0.42677106403E+03  0.12699999809E+01 0. -1.
       -4    1    3    3    0  502  0.27721239257E+03 -0.10449393741E+03 -0.13730359167E+04  0.14046333810E+04  0.12699999809E+01 0.  1.
</event>
<event>
 5   0  0.4070625E-04  0.1531949E+04  0.7818609E-02  0.8863481E-01
        4   -1    0    0  501    0  0.00000000000E+00  0.00000000000E+00  0.15858902546E+04  0.15858907631E+04  0.12699999809E+01 0. -1.
       -4   -1    0    0    0  501  0.00000000000E+00  0.00000000000E+00 -0.36995883778E+03  0.36996101761E+03  0.12699999809E+01 0.  1.
    10030    2    1    2    0    0  0.00000000000E+00  0.00000000000E+00  0.12159314168E+04  0.19558517807E+04  0.15319487517E+04 0.  0.
        4    1    3    3  502    0 -0.55326049166E+03 -0.52953633744E+03  0.62643289828E+03  0.98940673803E+03  0.12699999809E+01 0.  1.
       -4    1    3    3    0  502  0.55326049166E+03  0.52953633744E+03  0.58949851854E+03  0.96644504270E+03  0.12699999809E+01 0. -1.
</event>
<event>
 5   0  0.5924403E-04  0.1506058E+04  0.7818609E-02  0.8880434E-01
       -1   -1    0    0    0  501  0.00000000000E+00  0.00000000000E+00  0.91865414435E+03  0.91865414436E+03  0.50400001928E-02 0. -1.
        1   -1    0    0  501    0  0.00000000000E+00  0.00000000000E+00 -0.61726457924E+03  0.61726457926E+03  0.50400001928E-02 0.  1.
    10030    2    1    2    0    0  0.00000000000E+00  0.00000000000E+00  0.30138956511E+03  0.15359187236E+04  0.15060579855E+04 0.  0.
        1    1    3    3  502    0 -0.61503344938E+03 -0.20630861197E+03 -0.23927844900E+03  0.69143587078E+03  0.50400001928E-02 0. -1.
       -1    1    3    3    0  502  0.61503344938E+03  0.20630861197E+03  0.54066801411E+03  0.84448285283E+03  0.50400001928E-02 0.  1.
</event>
<event>
 5   0  0.1097156E-03  0.1823212E+04  0.7818609E-02  0.8694052E-01
       -2   -1    0    0    0  501  0.00000000000E+00  0.00000000000E+00  0.60734859860E+03  0.60734859860E+03  0.25500000920E-02 0.  1.
        2   -1    0    0  501    0  0.00000000000E+00  0.00000000000E+00 -0.13682846908E+04  0.13682846908E+04  0.25500000920E-02 0. -1.
    10030    2    1    2    0    0  0.00000000000E+00  0.00000000000E+00 -0.76093609217E+03  0.19756332894E+04  0.18232123183E+04 0.  0.
        2    1    3    3  502    0 -0.11118017681E+03  0.38192893369E+03 -0.12692812175E+04  0.13301524542E+04  0.25500000920E-02 0. -1.
       -2    1    3    3    0  502  0.11118017681E+03 -0.38192893369E+03  0.50834512538E+03  0.64548083520E+03  0.25500000920E-02 0.  1.
</event>
<event>
 5   0  0.5914645E-04  0.1430779E+04  0.7818609E-02  0.8931836E-01
        1   -1    0    0  501    0  0.00000000000E+00  0.00000000000E+00  0.32866199440E+03  0.32866199444E+03  0.50400001928E-02 0. -1.
       -1   -1    0    0    0  501  0.00000000000E+00  0.00000000000E+00 -0.15571676959E+04  0.15571676959E+04  0.50400001928E-02 0.  1.
    10030    2    1    2    0    0  0.00000000000E+00  0.00000000000E+00 -0.12285057015E+04  0.18858296904E+04  0.14307785861E+04 0.  0.
        2    1    3    3  502    0  0.14067647112E+03 -0.26408279759E+03  0.24222477485E+03  0.38497069377E+03  0.25500000920E-02 0. -1.
       -2    1    3    3    0  502 -0.14067647112E+03  0.26408279759E+03 -0.14707304764E+04  0.15008589966E+04  0.25500000920E-02 0.  1.
</event>
<event>
 5   0  0.1149716E-03  0.1472059E+04  0.7818609E-02  0.8903249E-01
        2   -1    0    0  501    0  0.00000000000E+00  0.00000000000E+00  0.19843902782E+04  0.19843902782E+04  0.25500000920E-02 0.  1.
       -2   -1    0    0    0  501  0.00000000000E+00  0.00000000000E+00 -0.27300042436E+03  0.27300042437E+03  0.25500000920E-02 0. -1.
    10030    2    1    2    0    0  0.00000000000E+00  0.00000000000E+00  0.17113898539E+04  0.22573907026E+04  0.14720589500E+04 0.  0.
        1    1    3    3  502    0  0.28216120008E+03  0.19529174943E+03 -0.14282577169E+03  0.37168940167E+03  0.50400001928E-02 0. -1.
       -1    1    3    3    0  502 -0.28216120008E+03 -0.19529174943E+03  0.18542156256E+04  0.18857013009E+04  0.50400001928E-02 0.  1.
</event>
<event>
 5   0  0.5840834E-04  0.1489716E+04  0.7818609E-02  0.8891321E-01
        1   -1    0    0  501    0  0.00000000000E+00  0.00000000000E+00  0.10026414991E+04  0.10026414991E+04  0.50400001928E-02 0.  1.
       -1   -1    0    0    0  501  0.00000000000E+00  0.00000000000E+00 -0.55335165847E+03  0.55335165849E+03  0.50400001928E-02 0. -1.
    10030    2    1    2    0    0  0.00000000000E+00  0.00000000000E+00  0.44928984060E+03  0.15559931576E+04  0.14897158607E+04 0.  0.
        3    1    3    3  502    0  0.34894405592E+03  0.28569127374E+02 -0.46205072848E+03  0.57971461522E+03  0.10100000352E+00 0. -1.
       -3    1    3    3    0  502 -0.34894405592E+03 -0.28569127374E+02  0.91134056908E+03  0.97627854235E+03  0.10100000352E+00 0.  1.
</event>
<event>
 5   0  0.5840834E-04  0.1488606E+04  0.7818609E-02  0.8892065E-01
       -1   -1    0    0    0  501  0.00000000000E+00  0.00000000000E+00  0.42011587349E+03  0.42011587352E+03  0.50400001928E-02 0. -1.
        1   -1    0    0  501    0  0.00000000000E+00  0.00000000000E+00 -0.13186527215E+04  0.13186527215E+04  0.50400001928E-02 0.  1.
    10030    2    1    2    0    0  0.00000000000E+00  0.00000000000E+00 -0.89853684797E+03  0.17387685950E+04  0.14886059787E+04 0.  0.
        3    1    3    3  502    0 -0.28314818110E+03  0.16895974591E+03  0.33015258627E+03  0.46660586003E+03  0.10100000352E+00 0. -1.
       -3    1    3    3    0  502  0.28314818110E+03 -0.16895974591E+03 -0.12286894342E+04  0.12721627350E+04  0.10100000352E+00 0.  1.
</event>
<event>
 5   0  0.1147755E-03  0.1529729E+04  0.7818609E-02  0.8864920E-01
        2   -1    0    0  501    0  0.00000000000E+00  0.00000000000E+00  0.11526601530E+04  0.11526601530E+04  0.25500000920E-02 0. -1.
       -2   -1    0    0    0  501  0.00000000000E+00  0.00000000000E+00 -0.50753722575E+03  0.50753722575E+03  0.25500000920E-02 0.  1.
    10030    2    1    2    0    0  0.00000000000E+00  0.00000000000E+00  0.64512292722E+03  0.16601973787E+04  0.15297293045E+04 0.  0.
        4    1    3    3  502    0  0.40426826498E+03 -0.12845593350E+03  0.10133051338E+04  0.10985092917E+04  0.12699999809E+01 0. -1.
       -4    1    3    3    0  502 -0.40426826498E+03  0.12845593350E+03 -0.36818220659E+03  0.56168808699E+03  0.12699999809E+01 0.  1.
</event>
<event>
 5   0  0.1149716E-03  0.1496671E+04  0.7818609E-02  0.8886670E-01
        2   -1    0    0  501    0  0.00000000000E+00  0.00000000000E+00  0.57465927459E+03  0.57465927460E+03  0.25500000920E-02 0.  1.
       -2   -1    0    0    0  501  0.00000000000E+00  0.00000000000E+00 -0.97450074063E+03  0.97450074063E+03  0.25500000920E-02 0. -1.
    10030    2    1    2    0    0  0.00000000000E+00  0.00000000000E+00 -0.39984146604E+03  0.15491600152E+04  0.14966708238E+04 0.  0.
        1    1    3    3  502    0  0.36240957454E+03 -0.65081104949E+03 -0.27391320306E+03  0.79367762013E+03  0.50400001928E-02 0. -1.
       -1    1    3    3    0  502 -0.36240957454E+03  0.65081104949E+03 -0.12592826297E+03  0.75548239509E+03  0.50400001928E-02 0.  1.
</event>
<event>
 5   0  0.5914645E-04  0.1510946E+04  0.7818609E-02  0.8877207E-01
       -1   -1    0    0    0  501  0.00000000000E+00  0.00000000000E+00  0.62869190555E+03  0.62869190557E+03  0.50400001928E-02 0.  1.
        1   -1    0    0  501    0  0.00000000000E+00  0.00000000000E+00 -0.90782005315E+03  0.90782005317E+03  0.50400001928E-02 0. -1.
    10030    2    1    2    0    0  0.00000000000E+00  0.00000000000E+00 -0.27912814760E+03  0.15365119587E+04  0.15109455571E+04 0.  0.
        2    1    3    3  502    0 -0.42193200020E+03 -0.33481594980E+03 -0.67825456423E+03  0.86611638187E+03  0.25500000920E-02 0. -1.
       -2    1    3    3    0  502  0.42193200020E+03  0.33481594980E+03  0.39912641663E+03  0.67039557687E+03  0.25500000920E-02 0.  1.
</event>
<event>
 5   0  0.5606965E-04  0.1521246E+04  0.7818609E-02  0.8870446E-01
        1   -1    0    0  501    0  0.00000000000E+00  0.00000000000E+00  0.67724530632E+03  0.67724530634E+03  0.50400001928E-02 0. -1.
       -1   -1    0    0    0  501  0.00000000000E+00  0.00000000000E+00 -0.85426596421E+03  0.85426596423E+03  0.50400001928E-02 0.  1.
    10030    2    1    2    0    0  0.00000000000E+00  0.00000000000E+00 -0.17702065789E+03  0.15315112706E+04  0.15212463504E+04 0.  0.
        4    1    3    3  502    0  0.32219800832E+03 -0.36890160295E+02  0.60415371954E+03  0.68569364167E+03  0.12699999809E+01 0. -1.
       -4    1    3    3    0  502 -0.32219800832E+03  0.36890160295E+02 -0.78117437743E+03  0.84581762890E+03  0.12699999809E+01 0.  1.
</event>
<event>
 5   0  0.6146552E-04  0.1469513E+04  0.7818609E-02  0.8904984E-01
        1   -1    0    0  501    0  0.00000000000E+00  0.00000000000E+00  0.12035170947E+04  0.12035170947E+04  0.50400001928E-02 0. -1.
       -1   -1    0    0    0  501  0.00000000000E+00  0.00000000000E+00 -0.44857422616E+03  0.44857422619E+03  0.50400001928E-02 0.  1.
    10030    2    1    2    0    0  0.00000000000E+00  0.00000000000E+00  0.75494286855E+03  0.16520913209E+04  0.14695125035E+04 0.  0.
        5    1    3    3  502    0 -0.72656239140E+03 -0.89880647024E+02  0.30750385375E+03  0.79407313855E+03  0.46999998093E+01 0.  1.
       -5    1    3    3    0  502  0.72656239140E+03  0.89880647024E+02  0.44743901480E+03  0.85801818236E+03  0.46999998093E+01 0. -1.
</event>
<event>
 5   0  0.1097156E-03  0.1515155E+04  0.7818609E-02  0.8874437E-01
        2   -1    0    0  501    0  0.00000000000E+00  0.00000000000E+00  0.15167486400E+04  0.15167486400E+04  0.25500000920E-02 0.  1.
       -2   -1    0    0    0  501  0.00000000000E+00  0.00000000000E+00 -0.37839055196E+03  0.37839055197E+03  0.25500000920E-02 0. -1.
    10030    2    1    2    0    0  0.00000000000E+00  0.00000000000E+00  0.11383580881E+04  0.18951391920E+04  0.15151545863E+04 0.  0.
        2    1    3    3  502    0 -0.36419828878E+03  0.64828741537E+03  0.75046320717E+03  0.10564620163E+04  0.25500000920E-02 0.  1.
       -2    1    3    3    0  502  0.36419828878E+03 -0.64828741537E+03  0.38789488091E+03  0.83867717574E+03  0.25500000920E-02 0. -1.
</event>
<event>
 5   0  0.5606965E-04  0.1510695E+04  0.7818609E-02  0.8877372E-01
        1   -1    0    0  501    0  0.00000000000E+00  0.00000000000E+00  0.51690020595E+03  0.51690020597E+03  0.50400001928E-02 0. -1.
       -1   -1    0    0    0  501  0.00000000000E+00  0.00000000000E+00 -0.11037909528E+04  0.11037909528E+04  0.50400001928E-02 0.  1.
    10030    2    1    2    0    0  0.00000000000E+00  0.00000000000E+00 -0.58689074681E+03  0.16206911587E+04  0.15106949008E+04 0.  0.
        4    1    3    3  502    0  0.34973554006E+03  0.60185654608E+03  0.21168263077E+02  0.69641651208E+03  0.12699999809E+01 0. -1.
       -4    1    3    3    0  502 -0.34973554006E+03 -0.60185654608E+03 -0.60805900989E+03  0.92427464666E+03  0.12699999809E+01 0.  1.
</event>
<event>
 5   0  0.1082667E-03  0.1500586E+04  0.7818609E-02  0.8884063E-01
       -2   -1    0    0    0  501  0.00000000000E+00  0.00000000000E+00  0.77937168121E+03  0.77937168122E+03  0.25500000920E-02 0.  1.
        2   -1    0    0  501    0  0.00000000000E+00  0.00000000000E+00 -0.72229947272E+03  0.72229947272E+03  0.25500000920E-02 0. -1.
    10030    2    1    2    0    0  0.00000000000E+00  0.00000000000E+00  0.57072208497E+02  0.15016711539E+04  0.15005862246E+04 0.  0.
        5    1    3    3  502    0  0.61766080567E+03 -0.37498163484E+03  0.23067612445E+03  0.75851806947E+03  0.46999998093E+01 0.  1.
       -5    1    3    3    0  502 -0.61766080567E+03  0.37498163484E+03 -0.17360391596E+03  0.74315308447E+03  0.46999998093E+01 0. -1.
</event>
<event>
 5   0  0.6146552E-04  0.1500791E+04  0.7818609E-02  0.8883927E-01
       -1   -1    0    0    0  501  0.00000000000E+00  0.00000000000E+00  0.68021432821E+03  0.68021432823E+03  0.50400001928E-02 0.  1.
        1   -1    0    0  501    0  0.00000000000E+00  0.00000000000E+00 -0.82781769742E+03  0.82781769744E+03  0.50400001928E-02 0. -1.
    10030    2    1    2    0    0  0.00000000000E+00  0.00000000000E+00 -0.14760336921E+03  0.15080320257E+04  0.15007910700E+04 0.  0.
        5    1    3    3  502    0 -0.30440581500E+03 -0.52077248040E+03 -0.52227839192E+03  0.79791207862E+03  0.46999998093E+01 0. -1.
       -5    1    3    3    0  502  0.30440581500E+03  0.52077248040E+03  0.37467502270E+03  0.71011994704E+03  0.46999998093E+01 0.  1.
</event>
<event>
 5   0  0.5924403E-04  0.1486564E+04  0.7818609E-02  0.8893437E-01
       -1   -1    0    0    0  501  0.00000000000E+00  0.00000000000E+00  0.67466882228E+03  0.67466882230E+03  0.50400001928E-02 0.  1.
        1   -1    0    0  501    0  0.00000000000E+00  0.00000000000E+00 -0.81887321998E+03  0.81887321999E+03  0.50400001928E-02 0. -1.
    10030    2    1    2    0    0  0.00000000000E+00  0.00000000000E+00 -0.14420439769E+03  0.14935420423E+04  0.14865641338E+04 0.  0.
        1    1    3    3  502    0 -0.65405948417E+02 -0.28282574238E+03  0.61536100317E+03  0.68039510793E+03  0.50400001928E-02 0.  1.
       -1    1    3    3    0  502  0.65405948417E+02  0.28282574238E+03 -0.75956540087E+03  0.81314693436E+03  0.50400001928E-02 0. -1.
</event>
<event>
 5   0  0.1097156E-03  0.1544891E+04  0.7818609E-02  0.8855137E-01
        2   -1    0    0  501    0  0.00000000000E+00  0.00000000000E+00  0.11233321786E+04  0.11233321786E+04  0.25500000920E-02 0. -1.
       -2   -1    0    0    0  501  0.00000000000E+00  0.00000000000E+00 -0.53116287803E+03  0.53116287804E+03  0.25500000920E-02 0.  1.
    10030    2    1    2    0    0  0.00000000000E+00  0.00000000000E+00  0.59216930060E+03  0.16544950567E+04  0.15448913916E+04 0.  0.
        2    1    3    3  502    0  0.19861128510E+03 -0.73595307794E+03  0.16232793767E+03  0.77937393775E+03  0.25500000920E-02 0. -1.
       -2    1    3    3    0  502 -0.19861128510E+03  0.73595307794E+03  0.42984136292E+03  0.87512111892E+03  0.25500000920E-02 0.  1.
</event>
<event>
 5   0  0.6146552E-04  0.1488962E+04  0.7818609E-02  0.8891827E-01
       -1   -1    0    0    0  501  0.00000000000E+00  0.00000000000E+00  0.83126328461E+03  0.83126328463E+03  0.50400001928E-02 0.  1.
        1   -1    0    0  501    0  0.00000000000E+00  0.00000000000E+00 -0.66675828428E+03  0.66675828430E+03  0.50400001928E-02 0. -1.
    10030    2    1    2    0    0  0.00000000000E+00  0.00000000000E+00  0.16450500034E+03  0.14980215689E+04  0.14889616267E+04 0.  0.
        5    1    3    3  502    0  0.68772176663E+02 -0.52454654965E+02 -0.66167113462E+03  0.66731692883E+03  0.46999998093E+01 0. -1.
       -5    1    3    3    0  502 -0.68772176663E+02  0.52454654965E+02  0.82617613496E+03  0.83070464010E+03  0.46999998093E+01 0.  1.
</event>
<event>
 5   0  0.1149716E-03  0.1515570E+04  0.7818609E-02  0.8874165E-01
        2   -1    0    0  501    0  0.00000000000E+00  0.00000000000E+00  0.17105696235E+04  0.17105696235E+04  0.25500000920E-02 0.  1.
       -2   -1    0    0    0  501  0.00000000000E+00  0.00000000000E+00 -0.33569984319E+03  0.33569984320E+03  0.25500000920E-02 0. -1.
    10030    2    1    2    0    0  0.00000000000E+00  0.00000000000E+00  0.13748697803E+04  0.20462694667E+04  0.15155697996E+04 0.  0.
        1    1    3    3  502    0 -0.39089888772E+03 -0.46269103764E+03  0.72623278208E+02  0.61004842209E+03  0.50400001928E-02 0. -1.
       -1    1    3    3    0  502  0.39089888772E+03  0.46269103764E+03  0.13022465021E+04  0.14362210446E+04  0.50400001928E-02 0.  1.
</event>
<event>
 5   0  0.5924403E-04  0.1440389E+04  0.7818609E-02  0.8925091E-01
        1   -1    0    0  501    0  0.00000000000E+00  0.00000000000E+00  0.12264336743E+04  0.12264336743E+04  0.50400001928E-02 0. -1.
       -1   -1    0    0    0  501  0.00000000000E+00  0.00000000000E+00 -0.42291733761E+03  0.42291733764E+03  0.50400001928E-02 0.  1.
    10030    2    1    2    0    0  0.00000000000E+00  0.00000000000E+00  0.80351633667E+03  0.16493510119E+04  0.14403889257E+04 0.  0.
        1    1    3    3  502    0  0.43231528370E+02  0.20269135864E+03  0.11915494957E+04  0.12094391066E+04  0.50400001928E-02 0. -1.
       -1    1    3    3    0  502 -0.43231528370E+02 -0.20269135864E+03 -0.38803315902E+03  0.43991190532E+03  0.50400001928E-02 0.  1.
</event>
<event>
 5   0  0.5914645E-04  0.1494232E+04  0.7818609E-02  0.8888297E-01
        1   -1    0    0  501    0  0.00000000000E+00  0.00000000000E+00  0.17070067891E+04  0.17070067891E+04  0.50400001928E-02 0.  1.
       -1   -1    0    0    0  501  0.00000000000E+00  0.00000000000E+00 -0.32699488506E+03  0.32699488510E+03  0.50400001928E-02 0. -1.
    10030    2    1    2    0    0  0.00000000000E+00  0.00000000000E+00  0.13800119040E+04  0.20340016742E+04  0.14942322294E+04 0.  0.
        2    1    3    3  502    0  0.48190708523E+02  0.14065811193E+03 -0.30665205887E+03  0.34079691028E+03  0.25500000920E-02 0. -1.
       -2    1    3    3    0  502 -0.48190708523E+02 -0.14065811193E+03  0.16866639629E+04  0.16932047639E+04  0.25500000920E-02 0.  1.
</event>
<event>
 5   0  0.1147755E-03  0.1494041E+04  0.7818609E-02  0.8888425E-01
       -2   -1    0    0    0  501  0.00000000000E+00  0.00000000000E+00  0.49916517703E+03  0.49916517704E+03  0.25500000920E-02 0. -1.
        2   -1    0    0  501    0  0.00000000000E+00  0.00000000000E+00 -0.11179462712E+04  0.11179462712E+04  0.25500000920E-02 0.  1.
    10030    2    1    2    0    0  0.00000000000E+00  0.00000000000E+00 -0.61878109416E+03  0.16171114482E+04  0.14940412958E+04 0.  0.
        4    1    3    3  502    0  0.65628376219E+03 -0.34739331060E+03 -0.39764052021E+03  0.84232421607E+03  0.12699999809E+01 0. -1.
       -4    1    3    3    0  502 -0.65628376219E+03  0.34739331060E+03 -0.22114057395E+03  0.77478723216E+03  0.12699999809E+01 0.  1.
</event>
<event>
 5   0  0.1097156E-03  0.1428259E+04  0.7818609E-02  0.8933613E-01
        2   -1    0    0  501    0  0.00000000000E+00  0.00000000000E+00  0.35819461166E+03  0.35819461167E+03  0.25500000920E-02 0.  1.
       -2   -1    0    0    0  501  0.00000000000E+00  0.00000000000E+00 -0.14237539191E+04  0.14237539191E+04  0.25500000920E-02 0. -1.
    10030    2    1    2    0    0  0.00000000000E+00  0.00000000000E+00 -0.10655593074E+04  0.17819485307E+04  0.14282590551E+04 0.  0.
        2    1    3    3  502    0 -0.11380048103E+03 -0.55117914094E+03 -0.10812178323E+04  0.12189261650E+04  0.25500000920E-02 0. -1.
       -2    1    3    3    0  502  0.11380048103E+03  0.55117914094E+03  0.15658524893E+02  0.56302236572E+03  0.25500000920E-02 0.  1.
</event>
<event>
 5   0  0.1147755E-03  0.1461084E+04  0.7818609E-02  0.8910752E-01
       -2   -1    0    0    0  501  0.00000000000E+00  0.00000000000E+00  0.89222475925E+03  0.89222475925E+03  0.25500000920E-02 0.  1.
        2   -1    0    0  501    0  0.00000000000E+00  0.00000000000E+00 -0.59815841317E+03  0.59815841318E+03  0.25500000920E-02 0. -1.
    10030    2    1    2    0    0  0.00000000000E+00  0.00000000000E+00  0.29406634607E+03  0.14903831724E+04  0.14610841813E+04 0.  0.
        4    1    3    3  502    0 -0.77517340046E+02 -0.72142592921E+03  0.60323731755E+02  0.72808301371E+03  0.12699999809E+01 0. -1.
       -4    1    3    3    0  502  0.77517340046E+02  0.72142592921E+03  0.23374261432E+03  0.76230015872E+03  0.12699999809E+01 0.  1.
</event>
<event>
 5   0  0.5914645E-04  0.1497170E+04  0.7818609E-02  0.8886337E-01
       -1   -1    0    0    0  501  0.00000000000E+00  0.00000000000E+00  0.38041194198E+03  0.38041194201E+03  0.50400001928E-02 0. -1.
        1   -1    0    0  501    0  0.00000000000E+00  0.00000000000E+00 -0.14730859506E+04  0.14730859506E+04  0.50400001928E-02 0.  1.
    10030    2    1    2    0    0  0.00000000000E+00  0.00000000000E+00 -0.10926740086E+04  0.18534978926E+04  0.14971699799E+04 0.  0.
        2    1    3    3  502    0  0.47860041659E+03  0.36611495924E+02 -0.12574936512E+04  0.13459899863E+04  0.25500000920E-02 0.  1.
       -2    1    3    3    0  502 -0.47860041659E+03 -0.36611495924E+02  0.16481964258E+03  0.50750790632E+03  0.25500000920E-02 0. -1.
</event>
<event>
 5   0  0.1149716E-03  0.1436536E+04  0.7818609E-02  0.8927789E-01
       -2   -1    0    0    0  501  0.00000000000E+00  0.00000000000E+00  0.51341242708E+03  0.51341242709E+03  0.25500000920E-02 0. -1.
        2   -1    0    0  501    0  0.00000000000E+00  0.00000000000E+00 -0.10048622495E+04  0.10048622495E+04  0.25500000920E-02 0.  1.
    10030    2    1    2    0    0  0.00000000000E+00  0.00000000000E+00 -0.49144982242E+03  0.15182746766E+04  0.14365357864E+04 0.  0.
        1    1    3    3  502    0  0.56039649355E+03  0.21354891129E+03 -0.66351655838E+03  0.89437217687E+03  0.50400001928E-02 0.  1.
       -1    1    3    3    0  502 -0.56039649355E+03 -0.21354891129E+03  0.17206673597E+03  0.62390249971E+03  0.50400001928E-02 0. -1.
</event>
<event>
 5   0  0.5606965E-04  0.1486584E+04  0.7818609E-02  0.8893424E-01
        1   -1    0    0  501    0  0.00000000000E+00  0.00000000000E+00  0.11617523509E+04  0.11617523509E+04  0.50400001928E-02 0. -1.
       -1   -1    0    0    0  501  0.00000000000E+00  0.00000000000E+00 -0.47556003740E+03  0.47556003743E+03  0.50400001928E-02 0.  1.
    10030    2    1    2    0    0  0.00000000000E+00  0.00000000000E+00  0.68619231350E+03  0.16373123883E+04  0.14865839922E+04 0.  0.
        4    1    3    3  502    0  0.28391215988E+03  0.68499858815E+03  0.28637499847E+03  0.79488454064E+03  0.12699999809E+01 0.  1.
       -4    1    3    3    0  502 -0.28391215988E+03 -0.68499858815E+03  0.39981731503E+03  0.84242784770E+03  0.12699999809E+01 0. -1.
</event>
<event>
 5   0  0.5914645E-04  0.1486784E+04  0.7818609E-02  0.8893289E-01
        1   -1    0    0  501    0  0.00000000000E+00  0.00000000000E+00  0.19969017936E+04  0.19969017936E+04  0.50400001928E-02 0. -1.
       -1   -1    0    0    0  501  0.00000000000E+00  0.00000000000E+00 -0.27674442078E+03  0.27674442083E+03  0.50400001928E-02 0.  1.
    10030    2    1    2    0    0  0.00000000000E+00  0.00000000000E+00  0.17201573728E+04  0.22736462144E+04  0.14867836834E+04 0.  0.
        2    1    3    3  502    0  0.69262158812E+03  0.26996816808E+03  0.86756323558E+03  0.11424856427E+04  0.25500000920E-02 0. -1.
       -2    1    3    3    0  502 -0.69262158812E+03 -0.26996816808E+03  0.85259413723E+03  0.11311605717E+04  0.25500000920E-02 0.  1.
</event>
<event>
 5   0  0.5924403E-04  0.1500567E+04  0.7818609E-02  0.8884076E-01
        1   -1    0    0  501    0  0.00000000000E+00  0.00000000000E+00  0.36430788852E+03  0.36430788855E+03  0.50400001928E-02 0. -1.
       -1   -1    0    0    0  501  0.00000000000E+00  0.00000000000E+00 -0.15451919150E+04  0.15451919150E+04  0.50400001928E-02 0.  1.
    10030    2    1    2    0    0  0.00000000000E+00  0.00000000000E+00 -0.11808840265E+04  0.19094998036E+04  0.15005673646E+04 0.  0.
        1    1    3    3  502    0  0.13509303192E+03  0.64153717799E+03 -0.10547029721E+04  0.12418608768E+04  0.50400001928E-02 0.  1.
       -1    1    3    3    0  502 -0.13509303192E+03 -0.64153717799E+03 -0.12618105442E+03  0.66763892677E+03  0.50400001928E-02 0. -1.
</event>
<event>
 5   0  0.1149716E-03  0.1495633E+04  0.7818609E-02  0.8887362E-01
       -2   -1    0    0    0  501  0.00000000000E+00  0.00000000000E+00  0.52207717392E+03  0.52207717393E+03  0.25500000920E-02 0. -1.
        2   -1    0    0  501    0  0.00000000000E+00  0.00000000000E+00 -0.10711618692E+04  0.10711618692E+04  0.25500000920E-02 0.  1.
    10030    2    1    2    0    0  0.00000000000E+00  0.00000000000E+00 -0.54908469531E+03  0.15932390432E+04  0.14956325237E+04 0.  0.
        1    1    3    3  502    0 -0.68142244425E+03 -0.77544684725E+02 -0.59212493634E+03  0.90606934940E+03  0.50400001928E-02 0.  1.
       -1    1    3    3    0  502  0.68142244425E+03  0.77544684725E+02  0.43040241032E+02  0.68716969376E+03  0.50400001928E-02 0. -1.
</event>
<event>
 5   0  0.5840834E-04  0.1506984E+04  0.7818609E-02  0.8879822E-01
       -1   -1    0    0    0  501  0.00000000000E+00  0.00000000000E+00  0.27694011035E+03  0.27694011040E+03  0.50400001928E-02 0. -1.
        1   -1    0    0  501    0  0.00000000000E+00  0.00000000000E+00 -0.20500818827E+04  0.20500818827E+04  0.50400001928E-02 0.  1.
    10030    2    1    2    0    0  0.00000000000E+00  0.00000000000E+00 -0.17731417723E+04  0.23270219931E+04  0.15069836135E+04 0.  0.
        3    1    3    3  502    0  0.42563106878E+03 -0.20159175905E+03 -0.17948051934E+04  0.18555664193E+04  0.10100000352E+00 0.  1.
       -3    1    3    3    0  502 -0.42563106878E+03  0.20159175905E+03  0.21663421067E+02  0.47145557377E+03  0.10100000352E+00 0. -1.
</event>
<event>
 5   0  0.6146552E-04  0.1502747E+04  0.7818609E-02  0.8882628E-01
       -1   -1    0    0    0  501  0.00000000000E+00  0.00000000000E+00  0.43401802875E+03  0.43401802878E+03  0.50400001928E-02 0.  1.
        1   -1    0    0  501    0  0.00000000000E+00  0.00000000000E+00 -0.13007806496E+04  0.13007806496E+04  0.50400001928E-02 0. -1.
    10030    2    1    2    0    0  0.00000000000E+00  0.00000000000E+00 -0.86676262082E+03  0.17347986784E+04  0.15027471556E+04 0.  0.
        5    1    3    3  502    0  0.49627962682E+03  0.55701364292E+03 -0.33024002244E+03  0.81586655086E+03  0.46999998093E+01 0. -1.
       -5    1    3    3    0  502 -0.49627962682E+03 -0.55701364292E+03 -0.53652259838E+03  0.91893212751E+03  0.46999998093E+01 0.  1.
</event>
<event>
 5   0  0.5840834E-04  0.1476836E+04  0.7818609E-02  0.8900004E-01
       -1   -1    0    0    0  501  0.00000000000E+00  0.00000000000E+00  0.72871500212E+03  0.72871500214E+03  0.50400001928E-02 0. -1.
        1   -1    0    0  501    0  0.00000000000E+00  0.00000000000E+00 -0.74825029956E+03  0.74825029957E+03  0.50400001928E-02 0.  1.
    10030    2    1    2    0    0  0.00000000000E+00  0.00000000000E+00 -0.19535297438E+02  0.14769653017E+04  0.14768361028E+04 0.  0.
        3    1    3    3  502    0  0.47134802825E+01  0.56133988970E+03  0.46999978231E+03  0.73213693681E+03  0.10100000352E+00 0. -1.
       -3    1    3    3    0  502 -0.47134802825E+01 -0.56133988970E+03 -0.48953507975E+03  0.74482836491E+03  0.10100000352E+00 0.  1.
</event>
<event>
 5   0  0.1097156E-03  0.1539678E+04  0.7818609E-02  0.8858488E-01
        2   -1    0    0  501    0  0.00000000000E+00  0.00000000000E+00  0.67268633791E+03  0.67268633791E+03  0.25500000920E-02 0.  1.
       -2   -1    0    0    0  501  0.00000000000E+00  0.00000000000E+00 -0.88102300814E+03  0.88102300814E+03  0.25500000920E-02 0. -1.
    10030    2    1    2    0    0  0.00000000000E+00  0.00000000000E+00 -0.20833667023E+03  0.15537093461E+04  0.15396780715E+04 0.  0.
        2    1    3    3  502    0  0.64511977898E+03 -0.27030668680E+03  0.22033160974E+03  0.73334252053E+03  0.25500000920E-02 0.  1.
       -2    1    3    3    0  502 -0.64511977898E+03  0.27030668680E+03 -0.42866827997E+03  0.82036682552E+03  0.25500000920E-02 0. -1.
</event>
<event>
 5   0  0.1097156E-03  0.1541137E+04  0.7818609E-02  0.8857549E-01
        2   -1    0    0  501    0  0.00000000000E+00  0.00000000000E+00  0.18876850829E+04  0.18876850829E+04  0.25500000920E-02 0. -1.
       -2   -1    0    0    0  501  0.00000000000E+00  0.00000000000E+00 -0.31455234924E+03  0.31455234925E+03  0.25500000920E-02 0.  1.
    10030    2    1    2    0    0  0.00000000000E+00  0.00000000000E+00  0.15731327337E+04  0.22022374321E+04  0.15411369536E+04 0.  0.
        2    1    3    3  502    0  0.35988510410E+03 -0.63018818842E+03  0.11567806786E+04  0.13655753291E+04  0.25500000920E-02 0. -1.
       -2    1    3    3    0  502 -0.35988510410E+03  0.63018818842E+03  0.41635205508E+03  0.83666210309E+03  0.25500000920E-02 0.  1.
</event>
<event>
 5   0  0.1147755E-03  0.1490644E+04  0.7818609E-02  0.8890699E-01
       -2   -1    0    0    0  501  0.00000000000E+00  0.00000000000E+00  0.84612197439E+03  0.84612197440E+03  0.25500000920E-02 0. -1.
        2   -1    0    0  501    0  0.00000000000E+00  0.00000000000E+00 -0.65653015453E+03  0.65653015453E+03  0.25500000920E-02 0.  1.
    10030    2    1    2    0    0  0.00000000000E+00  0.00000000000E+00  0.18959181987E+03  0.15026521289E+04  0.14906436068E+04 0.  0.
        4    1    3    3  502    0  0.58384855381E+02 -0.36447337217E+03  0.74750986581E+03  0.83367994023E+03  0.12699999809E+01 0. -1.
       -4    1    3    3    0  502 -0.58384855381E+02  0.36447337217E+03 -0.55791804594E+03  0.66897218870E+03  0.12699999809E+01 0.  1.
</event>
<event>
 5   0  0.4070625E-04  0.1499203E+04  0.7818609E-02  0.8884983E-01
        3   -1    0    0  501    0  0.00000000000E+00  0.00000000000E+00  0.17619771217E+04  0.17619771246E+04  0.10100000352E+00 0.  1.
       -3   -1    0    0    0  501  0.00000000000E+00  0.00000000000E+00 -0.31890452001E+03  0.31890453600E+03  0.10100000352E+00 0. -1.
    10030    2    1    2    0    0  0.00000000000E+00  0.00000000000E+00  0.14430726017E+04  0.20808816606E+04  0.14992031055E+04 0.  0.
        3    1    3    3  502    0  0.56690797079E+01  0.48998384081E+03  0.15088913198E+04  0.15864644112E+04  0.10100000352E+00 0.  1.
       -3    1    3    3    0  502 -0.56690797079E+01 -0.48998384081E+03 -0.65818718066E+02  0.49441724947E+03  0.10100000352E+00 0. -1.
</event>
<event>
 5   0  0.5840834E-04  0.1477647E+04  0.7818609E-02  0.8899455E-01
       -1   -1    0    0    0  501  0.00000000000E+00  0.00000000000E+00  0.12675314878E+04  0.12675314878E+04  0.50400001928E-02 0.  1.
        1   -1    0    0  501    0  0.00000000000E+00  0.00000000000E+00 -0.43064814875E+03  0.43064814878E+03  0.50400001928E-02 0. -1.
    10030    2    1    2    0    0  0.00000000000E+00  0.00000000000E+00  0.83688333907E+03  0.16981796366E+04  0.14776468979E+04 0.  0.
        3    1    3    3  502    0  0.15123750413E+03 -0.51119245112E+03  0.10063228749E+04  0.11388047433E+04  0.10100000352E+00 0.  1.
       -3    1    3    3    0  502 -0.15123750413E+03  0.51119245112E+03 -0.16943953581E+03  0.55937489328E+03  0.10100000352E+00 0. -1.
</event>
<event>
 5   0  0.5606965E-04  0.1491076E+04  0.7818609E-02  0.8890409E-01
        1   -1    0    0  501    0  0.00000000000E+00  0.00000000000E+00  0.59383713487E+03  0.59383713489E+03  0.50400001928E-02 0. -1.
       -1   -1    0    0    0  501  0.00000000000E+00  0.00000000000E+00 -0.93599252382E+03  0.93599252383E+03  0.50400001928E-02 0.  1.
    10030    2    1    2    0    0  0.00000000000E+00  0.00000000000E+00 -0.34215538895E+03  0.15298296587E+04  0.14910762806E+04 0.  0.
        4    1    3    3  502    0 -0.63070070009E+03  0.38192453947E+03 -0.57865922144E+02  0.73959435151E+03  0.12699999809E+01 0. -1.
       -4    1    3    3    0  502  0.63070070009E+03 -0.38192453947E+03 -0.28428946680E+03  0.79023530722E+03  0.12699999809E+01 0.  1.
</event>
<event>
 5   0  0.1082667E-03  0.1355278E+04  0.7818609E-02  0.8986842E-01
       -2   -1    0    0    0  501  0.00000000000E+00  0.00000000000E+00  0.48112866817E+03  0.48112866818E+03  0.25500000920E-02 0.  1.
        2   -1    0    0  501    0  0.00000000000E+00  0.00000000000E+00 -0.95441189293E+03  0.95441189293E+03  0.25500000920E-02 0. -1.
    10030    2    1    2    0    0  0.00000000000E+00  0.00000000000E+00 -0.47328322476E+03  0.14355405611E+04  0.13552784554E+04 0.  0.
        5    1    3    3  502    0  0.23863560396E+03  0.12936907146E+03  0.42100596414E+03  0.50095051649E+03  0.46999998093E+01 0.  1.
       -5    1    3    3    0  502 -0.23863560396E+03 -0.12936907146E+03 -0.89428918890E+03  0.93459004462E+03  0.46999998093E+01 0. -1.
</event>
<event>
 5   0  0.6146552E-04  0.1499357E+04  0.7818609E-02  0.8884881E-01
        1   -1    0    0  501    0  0.00000000000E+00  0.00000000000E+00  0.14778261044E+04  0.14778261044E+04  0.50400001928E-02 0.  1.
       -1   -1    0    0    0  501  0.00000000000E+00  0.00000000000E+00 -0.38030035300E+03  0.38030035303E+03  0.50400001928E-02 0. -1.
    10030    2    1    2    0    0  0.00000000000E+00  0.00000000000E+00  0.10975257514E+04  0.18581264574E+04  0.14993569144E+04 0.  0.
        5    1    3    3  502    0  0.56869179445E+03  0.26479150731E+03  0.10574286994E+04  0.12295130922E+04  0.46999998093E+01 0.  1.
       -5    1    3    3    0  502 -0.56869179445E+03 -0.26479150731E+03  0.40097051961E+02  0.62861336527E+03  0.46999998093E+01 0. -1.
</event>
<event>
 5   0  0.5914645E-04  0.1517440E+04  0.7818609E-02  0.8872938E-01
        1   -1    0    0  501    0  0.00000000000E+00  0.00000000000E+00  0.49285472324E+03  0.49285472327E+03  0.50400001928E-02 0.  1.
       -1   -1    0    0    0  501  0.00000000000E+00  0.00000000000E+00 -0.11680033005E+04  0.11680033005E+04  0.50400001928E-02 0. -1.
    10030    2    1    2    0    0  0.00000000000E+00  0.00000000000E+00 -0.67514857721E+03  0.16608580237E+04  0.15174398748E+04 0.  0.
        2    1    3    3  502    0  0.63592137356E+03 -0.17611457810E+03  0.72311207471E+02  0.66380814149E+03  0.25500000920E-02 0.  1.
       -2    1    3    3    0  502 -0.63592137356E+03  0.17611457810E+03 -0.74745978468E+03  0.99704988225E+03  0.25500000920E-02 0. -1.
</event>
<event>
 5   0  0.1082667E-03  0.1452120E+04  0.7818609E-02  0.8916932E-01
       -2   -1    0    0    0  501  0.00000000000E+00  0.00000000000E+00  0.34703281395E+03  0.34703281395E+03  0.25500000920E-02 0. -1.
        2   -1    0    0  501    0  0.00000000000E+00  0.00000000000E+00 -0.15190594502E+04  0.15190594502E+04  0.25500000920E-02 0.  1.
    10030    2    1    2    0    0  0.00000000000E+00  0.00000000000E+00 -0.11720266363E+04  0.18660922642E+04  0.14521204848E+04 0.  0.
        5    1    3    3  502    0 -0.41784412904E+03  0.31444644114E+03  0.61227593565E+02  0.52653697755E+03  0.46999998093E+01 0. -1.
       -5    1    3    3    0  502  0.41784412904E+03 -0.31444644114E+03 -0.12332542298E+04  0.13395552866E+04  0.46999998093E+01 0.  1.
</event>
<event>
 5   0  0.5840834E-04  0.1509360E+04  0.7818609E-02  0.8878252E-01
        1   -1    0    0  501    0  0.00000000000E+00  0.00000000000E+00  0.81979571028E+03  0.81979571029E+03  0.50400001928E-02 0. -1.
       -1   -1    0    0    0  501  0.00000000000E+00  0.00000000000E+00 -0.69473671928E+03  0.69473671930E+03  0.50400001928E-02 0.  1.
    10030    2    1    2    0    0  0.00000000000E+00  0.00000000000E+00  0.12505899100E+03  0.15145324296E+04  0.15093603708E+04 0.  0.
        3    1    3    3  502    0  0.12055337322E+02 -0.20319558557E+03 -0.66667135991E+03  0.69705415104E+03  0.10100000352E+00 0.  1.
       -3    1    3    3    0  502 -0.12055337322E+02  0.20319558557E+03  0.79173035091E+03  0.81747827855E+03  0.10100000352E+00 0. -1.
</event>
<event>
 5   0  0.5840834E-04  0.1497408E+04  0.7818609E-02  0.8886179E-01
        1   -1    0    0  501    0  0.00000000000E+00  0.00000000000E+00  0.21597384748E+04  0.21597384748E+04  0.50400001928E-02 0.  1.
       -1   -1    0    0    0  501  0.00000000000E+00  0.00000000000E+00 -0.25954878406E+03  0.25954878411E+03  0.50400001928E-02 0. -1.
    10030    2    1    2    0    0  0.00000000000E+00  0.00000000000E+00  0.19001896907E+04  0.24192872589E+04  0.14974077535E+04 0.  0.
        3    1    3    3  502    0 -0.80869999670E+01 -0.29657980124E+03  0.20607090041E+04  0.20819573933E+04  0.10100000352E+00 0.  1.
       -3    1    3    3    0  502  0.80869999670E+01  0.29657980124E+03 -0.16051931331E+03  0.33732986559E+03  0.10100000352E+00 0. -1.
</event>
<event>
 5   0  0.5840834E-04  0.1526005E+04  0.7818609E-02  0.8867342E-01
        1   -1    0    0  501    0  0.00000000000E+00  0.00000000000E+00  0.19791551881E+04  0.19791551881E+04  0.50400001928E-02 0. -1.
       -1   -1    0    0    0  501  0.00000000000E+00  0.00000000000E+00 -0.29415226738E+03  0.29415226742E+03  0.50400001928E-02 0.  1.
    10030    2    1    2    0    0  0.00000000000E+00  0.00000000000E+00  0.16850029207E+04  0.22733074555E+04  0.15260052243E+04 0.  0.
        3    1    3    3  502    0 -0.64647373459E+03 -0.18645170884E+03  0.30645275644E+03  0.73932795928E+03  0.10100000352E+00 0.  1.
       -3    1    3    3    0  502  0.64647373459E+03  0.18645170884E+03  0.13785501643E+04  0.15339794962E+04  0.10100000352E+00 0. -1.
</event>
<event>
 5   0  0.5914645E-04  0.1502368E+04  0.7818609E-02  0.8882880E-01
        1   -1    0    0  501    0  0.00000000000E+00  0.00000000000E+00  0.98464081028E+03  0.98464081029E+03  0.50400001928E-02 0.  1.
       -1   -1    0    0    0  501  0.00000000000E+00  0.00000000000E+00 -0.57307923193E+03  0.57307923195E+03  0.50400001928E-02 0. -1.
    10030    2    1    2    0    0  0.00000000000E+00  0.00000000000E+00  0.41156157835E+03  0.15577200422E+04  0.15023677304E+04 0.  0.
        2    1    3    3  502    0 -0.47277280868E+03  0.14096423398E+03 -0.38156344698E+03  0.62367917070E+03  0.25500000920E-02 0. -1.
       -2    1    3    3    0  502  0.47277280868E+03 -0.14096423398E+03  0.79312502533E+03  0.93404087154E+03  0.25500000920E-02 0.  1.
</event>
<event>
 5   0  0.5606965E-04  0.1271551E+04  0.7818609E-02  0.9052435E-01
       -1   -1    0    0    0  501  0.00000000000E+00  0.00000000000E+00  0.10519788888E+04  0.10519788888E+04  0.50400001928E-02 0.  1.
        1   -1    0    0  501    0  0.00000000000E+00  0.00000000000E+00 -0.38423828011E+03  0.38423828014E+03  0.50400001928E-02 0. -1.
    10030    2    1    2    0    0  0.00000000000E+00  0.00000000000E+00  0.66774060870E+03  0.14362171690E+04  0.12715511142E+04 0.  0.
        4    1    3    3  502    0 -0.16675236401E+03  0.46404536536E+03 -0.11943019525E+03  0.50735553259E+03  0.12699999809E+01 0. -1.
       -4    1    3    3    0  502  0.16675236401E+03 -0.46404536536E+03  0.78717080395E+03  0.92886163636E+03  0.12699999809E+01 0.  1.
</event>
<event>
 5   0  0.5606965E-04  0.1522420E+04  0.7818609E-02  0.8869679E-01
        1   -1    0    0  501    0  0.00000000000E+00  0.00000000000E+00  0.10404055605E+04  0.10404055605E+04  0.50400001928E-02 0. -1.
       -1   -1    0    0    0  501  0.00000000000E+00  0.00000000000E+00 -0.55693729903E+03  0.55693729906E+03  0.50400001928E-02 0.  1.
    10030    2    1    2    0    0  0.00000000000E+00  0.00000000000E+00  0.48346826150E+03  0.15973428596E+04  0.15224199983E+04 0.  0.
        4    1    3    3  502    0  0.43407465073E+03 -0.26866223998E+03  0.83418082488E+03  0.97798745548E+03  0.12699999809E+01 0. -1.
       -4    1    3    3    0  502 -0.43407465073E+03  0.26866223998E+03 -0.35071256338E+03  0.61935540411E+03  0.12699999809E+01 0.  1.
</event>
<event>
 5   0  0.1082667E-03  0.1485729E+04  0.7818609E-02  0.8893999E-01
       -2   -1    0    0    0  501  0.00000000000E+00  0.00000000000E+00  0.76080330468E+03  0.76080330468E+03  0.25500000920E-02 0.  1.
        2   -1    0    0  501    0  0.00000000000E+00  0.00000000000E+00 -0.72534870738E+03  0.72534870739E+03  0.25500000920E-02 0. -1.
    10030    2    1    2    0    0  0.00000000000E+00  0.00000000000E+00  0.35454597294E+02  0.14861520121E+04  0.14857290380E+04 0.  0.
        5    1    3    3  502    0 -0.53533470020E+03 -0.38723083553E+03 -0.32192001621E+03  0.73497316146E+03  0.46999998093E+01 0. -1.
       -5    1    3    3    0  502  0.53533470020E+03  0.38723083553E+03  0.35737461351E+03  0.75117885061E+03  0.46999998093E+01 0.  1.
</event>
<event>
 5   0  0.1147755E-03  0.1479815E+04  0.7818609E-02  0.8897988E-01
        2   -1    0    0  501    0  0.00000000000E+00  0.00000000000E+00  0.65117747156E+03  0.65117747156E+03  0.25500000920E-02 0.  1.
       -2   -1    0    0    0  501  0.00000000000E+00  0.00000000000E+00 -0.84072749667E+03  0.84072749668E+03  0.25500000920E-02 0. -1.
    10030    2    1    2    0    0  0.00000000000E+00  0.00000000000E+00 -0.18955002512E+03  0.14919049682E+04  0.14798145905E+04 0.  0.
        4    1    3    3  502    0 -0.53441765415E+03  0.41608376649E+03 -0.39509005147E+03  0.78410821413E+03  0.12699999809E+01 0. -1.
       -4    1    3    3    0  502  0.53441765415E+03 -0.41608376649E+03  0.20554002635E+03  0.70779675411E+03  0.12699999809E+01 0.  1.
</event>
<event>
 5   0  0.1147755E-03  0.1494804E+04  0.7818609E-02  0.8887916E-01
       -2   -1    0    0    0  501  0.00000000000E+00  0.00000000000E+00  0.46340733914E+03  0.46340733915E+03  0.25500000920E-02 0.  1.
        2   -1    0    0  501    0  0.00000000000E+00  0.00000000000E+00 -0.12054396808E+04  0.12054396808E+04  0.25500000920E-02 0. -1.
    10030    2    1    2    0    0  0.00000000000E+00  0.00000000000E+00 -0.74203234170E+03  0.16688470200E+04  0.14948037932E+04 0.  0.
        4    1    3    3  502    0  0.78570905100E+02 -0.74019812567E+03 -0.29578049018E+03  0.80097088814E+03  0.12699999809E+01 0.  1.
       -4    1    3    3    0  502 -0.78570905100E+02  0.74019812567E+03 -0.44625185151E+03  0.86787613186E+03  0.12699999809E+01 0. -1.
</event>
<event>
 5   0  0.6146552E-04  0.1493253E+04  0.7818609E-02  0.8888952E-01
        1   -1    0    0  501    0  0.00000000000E+00  0.00000000000E+00  0.10463330904E+04  0.10463330904E+04  0.50400001928E-02 0. -1.
       -1   -1    0    0    0  501  0.00000000000E+00  0.00000000000E+00 -0.53276634338E+03  0.53276634341E+03  0.50400001928E-02 0.  1.
    10030    2    1    2    0    0  0.00000000000E+00  0.00000000000E+00  0.51356674699E+03  0.15790994338E+04  0.14932528983E+04 0.  0.
        5    1    3    3  502    0 -0.12459699182E+03 -0.70910629643E+03  0.46581570252E+03  0.85753280329E+03  0.46999998093E+01 0. -1.
       -5    1    3    3    0  502  0.12459699182E+03  0.70910629643E+03  0.47751044466E+02  0.72156663050E+03  0.46999998093E+01 0.  1.
</event>
<event>
 5   0  0.5840834E-04  0.1515868E+04  0.7818609E-02  0.8873969E-01
        1   -1    0    0  501    0  0.00000000000E+00  0.00000000000E+00  0.13383210349E+04  0.13383210349E+04  0.50400001928E-02 0.  1.
       -1   -1    0    0    0  501  0.00000000000E+00  0.00000000000E+00 -0.42924242230E+03  0.42924242233E+03  0.50400001928E-02 0. -1.
    10030    2    1    2    0    0  0.00000000000E+00  0.00000000000E+00  0.90907861256E+03  0.17675634572E+04  0.15158682830E+04 0.  0.
        3    1    3    3  502    0  0.15239248711E+03  0.69415044894E+03  0.76171033807E+03  0.10417633921E+04  0.10100000352E+00 0.  1.
       -3    1    3    3    0  502 -0.15239248711E+03 -0.69415044894E+03  0.14736827449E+03  0.72580006505E+03  0.10100000352E+00 0. -1.
</event>
<event>
 5   0  0.1147755E-03  0.1497233E+04  0.7818609E-02  0.8886295E-01
       -2   -1    0    0    0  501  0.00000000000E+00  0.00000000000E+00  0.39757302689E+03  0.39757302690E+03  0.25500000920E-02 0. -1.
        2   -1    0    0  501    0  0.00000000000E+00  0.00000000000E+00 -0.14096194852E+04  0.14096194852E+04  0.25500000920E-02 0.  1.
    10030    2    1    2    0    0  0.00000000000E+00  0.00000000000E+00 -0.10120464583E+04  0.18071925121E+04  0.14972330286E+04 0.  0.
        4    1    3    3  502    0 -0.36679002597E+03 -0.29505616959E+03  0.19657529486E+03  0.51013383128E+03  0.12699999809E+01 0. -1.
       -4    1    3    3    0  502  0.36679002597E+03  0.29505616959E+03 -0.12086217532E+04  0.12970586808E+04  0.12699999809E+01 0.  1.
</event>
<event>
 5   0  0.1082667E-03  0.1500226E+04  0.7818609E-02  0.8884302E-01
       -2   -1    0    0    0  501  0.00000000000E+00  0.00000000000E+00  0.78240212730E+03  0.78240212731E+03  0.25500000920E-02 0. -1.
        2   -1    0    0  501    0  0.00000000000E+00  0.00000000000E+00 -0.71915677130E+03  0.71915677131E+03  0.25500000920E-02 0.  1.
    10030    2    1    2    0    0  0.00000000000E+00  0.00000000000E+00  0.63245356001E+02  0.15015588986E+04  0.15002263666E+04 0.  0.
        5    1    3    3  502    0 -0.29735462067E+02  0.38293834306E+03  0.67649436472E+03  0.77794131385E+03  0.46999998093E+01 0. -1.
       -5    1    3    3    0  502  0.29735462067E+02 -0.38293834306E+03 -0.61324900872E+03  0.72361758477E+03  0.46999998093E+01 0.  1.
</event>
<event>
 5   0  0.6146552E-04  0.1488670E+04  0.7818609E-02  0.8892022E-01
       -1   -1    0    0    0  501  0.00000000000E+00  0.00000000000E+00  0.11527898991E+04  0.11527898992E+04  0.50400001928E-02 0. -1.
        1   -1    0    0  501    0  0.00000000000E+00  0.00000000000E+00 -0.48060350115E+03  0.48060350117E+03  0.50400001928E-02 0.  1.
    10030    2    1    2    0    0  0.00000000000E+00  0.00000000000E+00  0.67218639800E+03  0.16333934003E+04  0.14886703620E+04 0.  0.
        5    1    3    3  502    0 -0.10720044719E+03 -0.87979714800E+02 -0.46628662102E+03  0.48649529189E+03  0.46999998093E+01 0.  1.
       -5    1    3    3    0  502  0.10720044719E+03  0.87979714800E+02  0.11384730190E+04  0.11468981084E+04  0.46999998093E+01 0. -1.
</event>
<event>
 5   0  0.5840834E-04  0.1506554E+04  0.7818609E-02  0.8880106E-01
        1   -1    0    0  501    0  0.00000000000E+00  0.00000000000E+00  0.10906965180E+04  0.10906965180E+04  0.50400001928E-02 0.  1.
       -1   -1    0    0    0  501  0.00000000000E+00  0.00000000000E+00 -0.52024200614E+03  0.52024200617E+03  0.50400001928E-02 0. -1.
    10030    2    1    2    0    0  0.00000000000E+00  0.00000000000E+00  0.57045451184E+03  0.16109385242E+04  0.15065538751E+04 0.  0.
        3    1    3    3  502    0 -0.54091377186E+03  0.51675211290E+03  0.37969850613E+03  0.83892277388E+03  0.10100000352E+00 0.  1.
       -3    1    3    3    0  502  0.54091377186E+03 -0.51675211290E+03  0.19075600571E+03  0.77201575028E+03  0.10100000352E+00 0. -1.
</event>
<event>
 5   0  0.1097156E-03  0.1445333E+04  0.7818609E-02  0.8921642E-01
       -2   -1    0    0    0  501  0.00000000000E+00  0.00000000000E+00  0.64737748995E+03  0.64737748996E+03  0.25500000920E-02 0. -1.
        2   -1    0    0  501    0  0.00000000000E+00  0.00000000000E+00 -0.80671201458E+03  0.80671201459E+03  0.25500000920E-02 0.  1.
    10030    2    1    2    0    0  0.00000000000E+00  0.00000000000E+00 -0.15933452463E+03  0.14540895045E+04  0.14453334551E+04 0.  0.
        2    1    3    3  502    0 -0.70093985366E+03 -0.69390620057E+02 -0.24224906898E+03  0.74485995195E+03  0.25500000920E-02 0.  1.
       -2    1    3    3    0  502  0.70093985366E+03  0.69390620057E+02  0.82914544348E+02  0.70922955259E+03  0.25500000920E-02 0. -1.
</event>
<event>
 5   0  0.1082667E-03  0.1462342E+04  0.7818609E-02  0.8909888E-01
        2   -1    0    0  501    0  0.00000000000E+00  0.00000000000E+00  0.74458153509E+03  0.74458153510E+03  0.25500000920E-02 0.  1.
       -2   -1    0    0    0  501  0.00000000000E+00  0.00000000000E+00 -0.71800237840E+03  0.71800237841E+03  0.25500000920E-02 0. -1.
    10030    2    1    2    0    0  0.00000000000E+00  0.00000000000E+00  0.26579156693E+02  0.14625839135E+04  0.14623423855E+04 0.  0.
        5    1    3    3  502    0 -0.12158465032E+02  0.57793089035E+03  0.46106574653E+03  0.73942927648E+03  0.46999998093E+01 0.  1.
       -5    1    3    3    0  502  0.12158465032E+02 -0.57793089035E+03 -0.43448658984E+03  0.72315463702E+03  0.46999998093E+01 0. -1.
</event>
<event>
 5   0  0.1149716E-03  0.1482948E+04  0.7818609E-02  0.8895872E-01
       -2   -1    0    0    0  501  0.00000000000E+00  0.00000000000E+00  0.11011503569E+04  0.11011503569E+04  0.25500000920E-02 0. -1.
        2   -1    0    0  501    0  0.00000000000E+00  0.00000000000E+00 -0.49928123894E+03  0.49928123895E+03  0.25500000920E-02 0.  1.
    10030    2    1    2    0    0  0.00000000000E+00  0.00000000000E+00  0.60186911799E+03  0.16004315959E+04  0.14829480294E+04 0.  0.
        1    1    3    3  502    0  0.11046767195E+03 -0.19989226897E+03  0.10622448642E+04  0.10865192945E+04  0.50400001928E-02 0. -1.
       -1    1    3    3    0  502 -0.11046767195E+03  0.19989226897E+03 -0.46037574625E+03  0.51391230137E+03  0.50400001928E-02 0.  1.
</event>
<event>
 5   0  0.1147755E-03  0.1525838E+04  0.7818609E-02  0.8867450E-01
       -2   -1    0    0    0  501  0.00000000000E+00  0.00000000000E+00  0.28263653187E+03  0.28263653188E+03  0.25500000920E-02 0.  1.
        2   -1    0    0  501    0  0.00000000000E+00  0.00000000000E+00 -0.20593435603E+04  0.20593435603E+04  0.25500000920E-02 0. -1.
    10030    2    1    2    0    0  0.00000000000E+00  0.00000000000E+00 -0.17767070284E+04  0.23419800922E+04  0.15258384211E+04 0.  0.
        4    1    3    3  502    0  0.50170320308E+03 -0.26030691323E+02 -0.17696216117E+04  0.18395504783E+04  0.12699999809E+01 0. -1.
       -4    1    3    3    0  502 -0.50170320308E+03  0.26030691323E+02 -0.70854167708E+01  0.50242961388E+03  0.12699999809E+01 0.  1.
</event>
<event>
 5   0  0.1082667E-03  0.1415840E+04  0.7818609E-02  0.8942432E-01
        2   -1    0    0  501    0  0.00000000000E+00  0.00000000000E+00  0.51914318293E+03  0.51914318293E+03  0.25500000920E-02 0. -1.
       -2   -1    0    0    0  501  0.00000000000E+00  0.00000000000E+00 -0.96534218995E+03  0.96534218996E+03  0.25500000920E-02 0.  1.
    10030    2    1    2    0    0  0.00000000000E+00  0.00000000000E+00 -0.44619900703E+03  0.14844853729E+04  0.14158401281E+04 0.  0.
        5    1    3    3  502    0 -0.61601858174E+02 -0.57223119708E+03  0.20905568159E+03  0.61234769522E+03  0.46999998093E+01 0.  1.
       -5    1    3    3    0  502  0.61601858174E+02  0.57223119708E+03 -0.65525468862E+03  0.87213767766E+03  0.46999998093E+01 0. -1.
</event>
<event>
 5   0  0.1126175E-03  0.1504367E+04  0.7818609E-02  0.8881554E-01
        2   -1    0    0  501    0  0.00000000000E+00  0.00000000000E+00  0.95642097412E+03  0.95642097412E+03  0.25500000920E-02 0. -1.
       -2   -1    0    0    0  501  0.00000000000E+00  0.00000000000E+00 -0.59155982364E+03  0.59155982365E+03  0.25500000920E-02 0.  1.
    10030    2    1    2    0    0  0.00000000000E+00  0.00000000000E+00  0.36486115048E+03  0.15479807978E+04  0.15043672727E+04 0.  0.
        3    1    3    3  502    0  0.35583776018E+03 -0.64878179638E+03  0.32140871994E+03  0.80674773402E+03  0.10100000352E+00 0. -1.
       -3    1    3    3    0  502 -0.35583776018E+03  0.64878179638E+03  0.43452430534E+02  0.74123306376E+03  0.10100000352E+00 0.  1.
</event>
<event>
 5   0  0.5606965E-04  0.1511598E+04  0.7818609E-02  0.8876777E-01
        1   -1    0    0  501    0  0.00000000000E+00  0.00000000000E+00  0.17363330236E+04  0.17363330236E+04  0.50400001928E-02 0.  1.
       -1   -1    0    0    0  501  0.00000000000E+00  0.00000000000E+00 -0.32898758805E+03  0.32898758809E+03  0.50400001928E-02 0. -1.
    10030    2    1    2    0    0  0.00000000000E+00  0.00000000000E+00  0.14073454356E+04  0.20653206117E+04  0.15115978480E+04 0.  0.
        4    1    3    3  502    0 -0.42523658634E+03 -0.37570293749E+03  0.13858074253E+04  0.14974787760E+04  0.12699999809E+01 0.  1.
       -4    1    3    3    0  502  0.42523658634E+03  0.37570293749E+03  0.21538010245E+02  0.56784183572E+03  0.12699999809E+01 0. -1.
</event>
<event>
 5   0  0.1082667E-03  0.1332304E+04  0.7818609E-02  0.9004333E-01
        2   -1    0    0  501    0  0.00000000000E+00  0.00000000000E+00  0.17134413789E+04  0.17134413789E+04  0.25500000920E-02 0. -1.
       -2   -1    0    0    0  501  0.00000000000E+00  0.00000000000E+00 -0.25898659737E+03  0.25898659738E+03  0.25500000920E-02 0.  1.
    10030    2    1    2    0    0  0.00000000000E+00  0.00000000000E+00  0.14544547815E+04  0.19724279763E+04  0.13323037980E+04 0.  0.
        5    1    3    3  502    0  0.59106938441E+03  0.27345087396E+03  0.51997370278E+03  0.83338654851E+03  0.46999998093E+01 0.  1.
       -5    1    3    3    0  502 -0.59106938441E+03 -0.27345087396E+03  0.93448107874E+03  0.11390414278E+04  0.46999998093E+01 0. -1.
</event>
<event>
 5   0  0.6146552E-04  0.1436566E+04  0.7818609E-02  0.8927767E-01
        1   -1    0    0  501    0  0.00000000000E+00  0.00000000000E+00  0.63070105355E+03  0.63070105357E+03  0.50400001928E-02 0. -1.
       -1   -1    0    0    0  501  0.00000000000E+00  0.00000000000E+00 -0.81802711747E+03  0.81802711749E+03  0.50400001928E-02 0.  1.
    10030    2    1    2    0    0  0.00000000000E+00  0.00000000000E+00 -0.18732606392E+03  0.14487281711E+04  0.14365661347E+04 0.  0.
        5    1    3    3  502    0 -0.17067618857E+03  0.27518544366E+03  0.55289748519E+03  0.64076135095E+03  0.46999998093E+01 0. -1.
       -5    1    3    3    0  502  0.17067618857E+03 -0.27518544366E+03 -0.74022354911E+03  0.80796682011E+03  0.46999998093E+01 0.  1.
</event>
<event>
 5   0  0.6146552E-04  0.1507026E+04  0.7818609E-02  0.8879794E-01
       -1   -1    0    0    0  501  0.00000000000E+00  0.00000000000E+00  0.61625936223E+03  0.61625936225E+03  0.50400001928E-02 0.  1.
        1   -1    0    0  501    0  0.00000000000E+00  0.00000000000E+00 -0.92133628906E+03  0.92133628907E+03  0.50400001928E-02 0. -1.
    10030    2    1    2    0    0  0.00000000000E+00  0.00000000000E+00 -0.30507692683E+03  0.15375956513E+04  0.15070263620E+04 0.  0.
        5    1    3    3  502    0  0.30790985809E+03  0.22077425291E+03 -0.81706431882E+03  0.90064751293E+03  0.46999998093E+01 0. -1.
       -5    1    3    3    0  502 -0.30790985809E+03 -0.22077425291E+03  0.51198739199E+03  0.63694813840E+03  0.46999998093E+01 0.  1.
</event>
<event>
 5   0  0.6146552E-04  0.1495732E+04  0.7818609E-02  0.8887296E-01
       -1   -1    0    0    0  501  0.00000000000E+00  0.00000000000E+00  0.49071790937E+03  0.49071790939E+03  0.50400001928E-02 0.  1.
        1   -1    0    0  501    0  0.00000000000E+00  0.00000000000E+00 -0.11397660213E+04  0.11397660213E+04  0.50400001928E-02 0. -1.
    10030    2    1    2    0    0  0.00000000000E+00  0.00000000000E+00 -0.64904811189E+03  0.16304839307E+04  0.14957320604E+04 0.  0.
        5    1    3    3  502    0 -0.86416480814E+02  0.13089301837E+03 -0.11216188668E+04  0.11325421682E+04  0.46999998093E+01 0. -1.
       -5    1    3    3    0  502  0.86416480814E+02 -0.13089301837E+03  0.47257075490E+03  0.49794176246E+03  0.46999998093E+01 0.  1.
</event>
<event>
 5   0  0.5924403E-04  0.1516676E+04  0.7818609E-02  0.8873439E-01
        1   -1    0    0  501    0  0.00000000000E+00  0.00000000000E+00  0.32996936983E+03  0.32996936986E+03  0.50400001928E-02 0.  1.
       -1   -1    0    0    0  501  0.00000000000E+00  0.00000000000E+00 -0.17428168337E+04  0.17428168337E+04  0.50400001928E-02 0. -1.
    10030    2    1    2    0    0  0.00000000000E+00  0.00000000000E+00 -0.14128474639E+04  0.20727862036E+04  0.15166755386E+04 0.  0.
        1    1    3    3  502    0  0.44743956653E+03 -0.55253757386E+03 -0.34593450345E+03  0.79067731530E+03  0.50400001928E-02 0.  1.
       -1    1    3    3    0  502 -0.44743956653E+03  0.55253757386E+03 -0.10669129604E+04  0.12821088883E+04  0.50400001928E-02 0. -1.
</event>
<event>
 5   0  0.1126175E-03  0.1557766E+04  0.7818609E-02  0.8846923E-01
       -2   -1    0    0    0  501  0.00000000000E+00  0.00000000000E+00  0.60827711164E+03  0.60827711165E+03  0.25500000920E-02 0.  1.
        2   -1    0    0  501    0  0.00000000000E+00  0.00000000000E+00 -0.99733909481E+03  0.99733909482E+03  0.25500000920E-02 0. -1.
    10030    2    1    2    0    0  0.00000000000E+00  0.00000000000E+00 -0.38906198317E+03  0.16056162065E+04  0.15577657641E+04 0.  0.
        3    1    3    3  502    0  0.39011531626E+03  0.10865525451E+03  0.49123510150E+03  0.63663793436E+03  0.10100000352E+00 0.  1.
       -3    1    3    3    0  502 -0.39011531626E+03 -0.10865525451E+03 -0.88029708468E+03  0.96897827210E+03  0.10100000352E+00 0. -1.
</event>
<event>
 5   0  0.5914645E-04  0.1502008E+04  0.7818609E-02  0.8883119E-01
       -1   -1    0    0    0  501  0.00000000000E+00  0.00000000000E+00  0.41624290499E+03  0.41624290502E+03  0.50400001928E-02 0. -1.
        1   -1    0    0  501    0  0.00000000000E+00  0.00000000000E+00 -0.13549943144E+04  0.13549943144E+04  0.50400001928E-02 0.  1.
    10030    2    1    2    0    0  0.00000000000E+00  0.00000000000E+00 -0.93875140942E+03  0.17712372194E+04  0.15020076827E+04 0.  0.
        2    1    3    3  502    0 -0.58822369818E+03  0.46567520369E+03 -0.42945067495E+03  0.86445844125E+03  0.25500000920E-02 0.  1.
       -2    1    3    3    0  502  0.58822369818E+03 -0.46567520369E+03 -0.50930073447E+03  0.90677877819E+03  0.25500000920E-02 0. -1.
</event>
<event>
 5   0  0.5606965E-04  0.1512549E+04  0.7818609E-02  0.8876151E-01
       -1   -1    0    0    0  501  0.00000000000E+00  0.00000000000E+00  0.40897012047E+03  0.40897012050E+03  0.50400001928E-02 0. -1.
        1   -1    0    0  501    0  0.00000000000E+00  0.00000000000E+00 -0.13985152380E+04  0.13985152380E+04  0.50400001928E-02 0.  1.
    10030    2    1    2    0    0  0.00000000000E+00  0.00000000000E+00 -0.98954511753E+03  0.18074853585E+04  0.15125487700E+04 0.  0.
        4    1    3    3  502    0  0.43791468019E+03 -0.49021966338E+03 -0.47863113633E+02  0.65907289129E+03  0.12699999809E+01 0. -1.
       -4    1    3    3    0  502 -0.43791468019E+03  0.49021966338E+03 -0.94168200390E+03  0.11484124672E+04  0.12699999809E+01 0.  1.
</event>
<event>
 5   0  0.1097156E-03  0.1525987E+04  0.7818609E-02  0.8867354E-01
        2   -1    0    0  501    0  0.00000000000E+00  0.00000000000E+00  0.17358497251E+04  0.17358497251E+04  0.25500000920E-02 0. -1.
       -2   -1    0    0    0  501  0.00000000000E+00  0.00000000000E+00 -0.33537394914E+03  0.33537394915E+03  0.25500000920E-02 0.  1.
    10030    2    1    2    0    0  0.00000000000E+00  0.00000000000E+00  0.14004757760E+04  0.20712236742E+04  0.15259866021E+04 0.  0.
        2    1    3    3  502    0 -0.69793032018E+03 -0.36863455809E+00  0.28177523479E+03  0.75266470002E+03  0.25500000920E-02 0.  1.
       -2    1    3    3    0  502  0.69793032018E+03  0.36863455809E+00  0.11187005412E+04  0.13185589742E+04  0.25500000920E-02 0. -1.
</event>
<event>
 5   0  0.1097156E-03  0.1510264E+04  0.7818609E-02  0.8877656E-01
        2   -1    0    0  501    0  0.00000000000E+00  0.00000000000E+00  0.19609848579E+04  0.19609848579E+04  0.25500000920E-02 0.  1.
       -2   -1    0    0    0  501  0.00000000000E+00  0.00000000000E+00 -0.29078481932E+03  0.29078481933E+03  0.25500000920E-02 0. -1.
    10030    2    1    2    0    0  0.00000000000E+00  0.00000000000E+00  0.16702000386E+04  0.22517696772E+04  0.15102643843E+04 0.  0.
        2    1    3    3  502    0 -0.36244668319E+03 -0.88419557663E+02  0.18139796122E+04  0.18519469889E+04  0.25500000920E-02 0.  1.
       -2    1    3    3    0  502  0.36244668319E+03  0.88419557663E+02 -0.14377957357E+03  0.39982268834E+03  0.25500000920E-02 0. -1.
</event>
<event>
 5   0  0.5924403E-04  0.1517306E+04  0.7818609E-02  0.8873026E-01
        1   -1    0    0  501    0  0.00000000000E+00  0.00000000000E+00  0.72661667721E+03  0.72661667723E+03  0.50400001928E-02 0.  1.
       -1   -1    0    0    0  501  0.00000000000E+00  0.00000000000E+00 -0.79210158173E+03  0.79210158175E+03  0.50400001928E-02 0. -1.
    10030    2    1    2    0    0  0.00000000000E+00  0.00000000000E+00 -0.65484904524E+02  0.15187182590E+04  0.15173057956E+04 0.  0.
        1    1    3    3  502    0 -0.64075504048E+03  0.11380021361E+03 -0.42302427759E+03  0.77618750955E+03  0.50400001928E-02 0. -1.
       -1    1    3    3    0  502  0.64075504048E+03 -0.11380021361E+03  0.35753937307E+03  0.74253074943E+03  0.50400001928E-02 0.  1.
</event>
<event>
 5   0  0.1082667E-03  0.1486075E+04  0.7818609E-02  0.8893766E-01
       -2   -1    0    0    0  501  0.00000000000E+00  0.00000000000E+00  0.27050421052E+03  0.27050421053E+03  0.25500000920E-02 0. -1.
        2   -1    0    0  501    0  0.00000000000E+00  0.00000000000E+00 -0.20410200622E+04  0.20410200622E+04  0.25500000920E-02 0.  1.
    10030    2    1    2    0    0  0.00000000000E+00  0.00000000000E+00 -0.17705158517E+04  0.23115242728E+04  0.14860747230E+04 0.  0.
        5    1    3    3  502    0  0.18111231832E+03 -0.59858789362E+03 -0.15093299641E+04  0.16337711495E+04  0.46999998093E+01 0.  1.
       -5    1    3    3    0  502 -0.18111231832E+03  0.59858789362E+03 -0.26118588757E+03  0.67775312327E+03  0.46999998093E+01 0. -1.
</event>
<event>
 5   0  0.5840834E-04  0.1499419E+04  0.7818609E-02  0.8884839E-01
        1   -1    0    0  501    0  0.00000000000E+00  0.00000000000E+00  0.29373966587E+03  0.29373966592E+03  0.50400001928E-02 0.  1.
       -1   -1    0    0    0  501  0.00000000000E+00  0.00000000000E+00 -0.19134786202E+04  0.19134786202E+04  0.50400001928E-02 0. -1.
    10030    2    1    2    0    0  0.00000000000E+00  0.00000000000E+00 -0.16197389543E+04  0.22072182861E+04  0.14994193151E+04 0.  0.
        3    1    3    3  502    0  0.71210999719E+03 -0.89431241808E+02 -0.49085248873E+03  0.86950259976E+03  0.10100000352E+00 0.  1.
       -3    1    3    3    0  502 -0.71210999719E+03  0.89431241808E+02 -0.11288864656E+04  0.13377156863E+04  0.10100000352E+00 0. -1.
</event>
<event>
 5   0  0.1147755E-03  0.1532210E+04  0.7818609E-02  0.8863312E-01
       -2   -1    0    0    0  501  0.00000000000E+00  0.00000000000E+00  0.44492030960E+03  0.44492030960E+03  0.25500000920E-02 0. -1.
        2   -1    0    0  501    0  0.00000000000E+00  0.00000000000E+00 -0.13191508785E+04  0.13191508785E+04  0.25500000920E-02 0.  1.
    10030    2    1    2    0    0  0.00000000000E+00  0.00000000000E+00 -0.87423056891E+03  0.17640711881E+04  0.15322101909E+04 0.  0.
        4    1    3    3  502    0  0.62500547657E+03  0.33627516730E+03 -0.10501738230E+03  0.71745598985E+03  0.12699999809E+01 0. -1.
       -4    1    3    3    0  502 -0.62500547657E+03 -0.33627516730E+03 -0.76921318661E+03  0.10466151983E+04  0.12699999809E+01 0.  1.
</event>
<event>
 5   0  0.5914645E-04  0.1534145E+04  0.7818609E-02  0.8862059E-01
       -1   -1    0    0    0  501  0.00000000000E+00  0.00000000000E+00  0.37680289459E+03  0.37680289462E+03  0.50400001928E-02 0.  1.
        1   -1    0    0  501    0  0.00000000000E+00  0.00000000000E+00 -0.15615594685E+04  0.15615594685E+04  0.50400001928E-02 0. -1.
    10030    2    1    2    0    0  0.00000000000E+00  0.00000000000E+00 -0.11847565739E+04  0.19383623632E+04  0.15341448795E+04 0.  0.
        2    1    3    3  502    0  0.38781054659E+03 -0.37243214558E+03 -0.12836042929E+04  0.13916690354E+04  0.25500000920E-02 0. -1.
       -2    1    3    3    0  502 -0.38781054659E+03  0.37243214558E+03  0.98847718993E+02  0.54669332780E+03  0.25500000920E-02 0.  1.
</event>
<event>
 5   0  0.5924403E-04  0.1491051E+04  0.7818609E-02  0.8890426E-01
        1   -1    0    0  501    0  0.00000000000E+00  0.00000000000E+00  0.14281007700E+04  0.14281007700E+04  0.50400001928E-02 0.  1.
       -1   -1    0    0    0  501  0.00000000000E+00  0.00000000000E+00 -0.38919375335E+03  0.38919375338E+03  0.50400001928E-02 0. -1.
    10030    2    1    2    0    0  0.00000000000E+00  0.00000000000E+00  0.10389070167E+04  0.18172945234E+04  0.14910505007E+04 0.  0.
        1    1    3    3  502    0  0.11606096760E+03  0.22526233097E+03  0.13740016445E+04  0.13971734985E+04  0.50400001928E-02 0.  1.
       -1    1    3    3    0  502 -0.11606096760E+03 -0.22526233097E+03 -0.33509462779E+03  0.42012102489E+03  0.50400001928E-02 0. -1.
</event>
<event>
 5   0  0.5924403E-04  0.1097081E+04  0.7818609E-02  0.9208042E-01
       -1   -1    0    0    0  501  0.00000000000E+00  0.00000000000E+00  0.46616352755E+03  0.46616352758E+03  0.50400001928E-02 0. -1.
        1   -1    0    0  501    0  0.00000000000E+00  0.00000000000E+00 -0.64547423236E+03  0.64547423238E+03  0.50400001928E-02 0.  1.
    10030    2    1    2    0    0  0.00000000000E+00  0.00000000000E+00 -0.17931070481E+03  0.11116377600E+04  0.10970807539E+04 0.  0.
        1    1    3    3  502    0  0.24443309225E+03 -0.38236219755E+03 -0.40188056281E+03  0.60618179905E+03  0.50400001928E-02 0.  1.
       -1    1    3    3    0  502 -0.24443309225E+03  0.38236219755E+03  0.22256985801E+03  0.50545596091E+03  0.50400001928E-02 0. -1.
</event>
<event>
 5   0  0.5840834E-04  0.1469903E+04  0.7818609E-02  0.8904717E-01
        1   -1    0    0  501    0  0.00000000000E+00  0.00000000000E+00  0.40262531007E+03  0.40262531010E+03  0.50400001928E-02 0. -1.
       -1   -1    0    0    0  501  0.00000000000E+00  0.00000000000E+00 -0.13415799457E+04  0.13415799457E+04  0.50400001928E-02 0.  1.
    10030    2    1    2    0    0  0.00000000000E+00  0.00000000000E+00 -0.93895463565E+03  0.17442052558E+04  0.14699034549E+04 0.  0.
        3    1    3    3  502    0 -0.64153550090E+03  0.10987484370E+02 -0.89478384609E+03  0.11010570672E+04  0.10100000352E+00 0. -1.
       -3    1    3    3    0  502  0.64153550090E+03 -0.10987484370E+02 -0.44170789558E+02  0.64314818866E+03  0.10100000352E+00 0.  1.
</event>
<event>
 5   0  0.1147755E-03  0.1494586E+04  0.7818609E-02  0.8888061E-01
       -2   -1    0    0    0  501  0.00000000000E+00  0.00000000000E+00  0.29011308110E+03  0.29011308111E+03  0.25500000920E-02 0.  1.
        2   -1    0    0  501    0  0.00000000000E+00  0.00000000000E+00 -0.19249277586E+04  0.19249277586E+04  0.25500000920E-02 0. -1.
    10030    2    1    2    0    0  0.00000000000E+00  0.00000000000E+00 -0.16348146775E+04  0.22150408397E+04  0.14945858596E+04 0.  0.
        4    1    3    3  502    0 -0.41897593763E+03  0.51028009512E+03 -0.13361616288E+04  0.14903879102E+04  0.12699999809E+01 0.  1.
       -4    1    3    3    0  502  0.41897593763E+03 -0.51028009512E+03 -0.29865304867E+03  0.72465292945E+03  0.12699999809E+01 0. -1.
</event>
<event>
 5   0  0.1149716E-03  0.1492655E+04  0.7818609E-02  0.8889352E-01
       -2   -1    0    0    0  501  0.00000000000E+00  0.00000000000E+00  0.81830536284E+03  0.81830536284E+03  0.25500000920E-02 0. -1.
        2   -1    0    0  501    0  0.00000000000E+00  0.00000000000E+00 -0.68068036624E+03  0.68068036624E+03  0.25500000920E-02 0.  1.
    10030    2    1    2    0    0  0.00000000000E+00  0.00000000000E+00  0.13762499660E+03  0.14989857291E+04  0.14926545402E+04 0.  0.
        1    1    3    3  502    0 -0.60124314098E+03  0.19492346464E+03  0.46737865818E+03  0.78608605241E+03  0.50400001928E-02 0. -1.
       -1    1    3    3    0  502  0.60124314098E+03 -0.19492346464E+03 -0.32975366158E+03  0.71289967667E+03  0.50400001928E-02 0.  1.
</event>
<event>
 5   0  0.5914645E-04  0.1514188E+04  0.7818609E-02  0.8875073E-01
       -1   -1    0    0    0  501  0.00000000000E+00  0.00000000000E+00  0.69842619616E+03  0.69842619617E+03  0.50400001928E-02 0.  1.
        1   -1    0    0  501    0  0.00000000000E+00  0.00000000000E+00 -0.82068983429E+03  0.82068983431E+03  0.50400001928E-02 0. -1.
    10030    2    1    2    0    0  0.00000000000E+00  0.00000000000E+00 -0.12226363814E+03  0.15191160305E+04  0.15141879397E+04 0.  0.
        2    1    3    3  502    0  0.37268339646E+03 -0.26216075592E+03  0.54545993126E+03  0.71073744277E+03  0.25500000920E-02 0.  1.
       -2    1    3    3    0  502 -0.37268339646E+03  0.26216075592E+03 -0.66772356940E+03  0.80837858771E+03  0.25500000920E-02 0. -1.
</event>
<event>
 5   0  0.5914645E-04  0.1505333E+04  0.7818609E-02  0.8880914E-01
       -1   -1    0    0    0  501  0.00000000000E+00  0.00000000000E+00  0.41814253195E+03  0.41814253198E+03  0.50400001928E-02 0.  1.
        1   -1    0    0  501    0  0.00000000000E+00  0.00000000000E+00 -0.13548173435E+04  0.13548173436E+04  0.50400001928E-02 0. -1.
    10030    2    1    2    0    0  0.00000000000E+00  0.00000000000E+00 -0.93667481159E+03  0.17729598755E+04  0.15053328594E+04 0.  0.
        2    1    3    3  502    0 -0.53635211339E+03  0.25981220766E+03 -0.10097741741E+04  0.11725271236E+04  0.25500000920E-02 0. -1.
       -2    1    3    3    0  502  0.53635211339E+03 -0.25981220766E+03  0.73099362553E+02  0.60043275193E+03  0.25500000920E-02 0.  1.
</event>
<event>
 5   0  0.4070625E-04  0.1493649E+04  0.7818609E-02  0.8888688E-01
       -3   -1    0    0    0  501  0.00000000000E+00  0.00000000000E+00  0.70018665430E+03  0.70018666158E+03  0.10100000352E+00 0.  1.
        3   -1    0    0  501    0  0.00000000000E+00  0.00000000000E+00 -0.79656840116E+03  0.79656840756E+03  0.10100000352E+00 0. -1.
    10030    2    1    2    0    0  0.00000000000E+00  0.00000000000E+00 -0.96381746858E+02  0.14967550691E+04  0.14936486521E+04 0.  0.
        4    1    3    3  502    0  0.22567730278E+03  0.59376778278E+03  0.34537846661E+03  0.72303410913E+03  0.12699999809E+01 0.  1.
       -4    1    3    3    0  502 -0.22567730278E+03 -0.59376778278E+03 -0.44176021347E+03  0.77372096002E+03  0.12699999809E+01 0. -1.
</event>
<event>
 5   0  0.1147755E-03  0.1488528E+04  0.7818609E-02  0.8892118E-01
        2   -1    0    0  501    0  0.00000000000E+00  0.00000000000E+00  0.45120421678E+03  0.45120421679E+03  0.25500000920E-02 0.  1.
       -2   -1    0    0    0  501  0.00000000000E+00  0.00000000000E+00 -0.12276673543E+04  0.12276673543E+04  0.25500000920E-02 0. -1.
    10030    2    1    2    0    0  0.00000000000E+00  0.00000000000E+00 -0.77646313756E+03  0.16788715711E+04  0.14885277116E+04 0.  0.
        4    1    3    3  502    0 -0.19019708732E+03  0.50606211238E+03  0.18869912256E+03  0.57261048311E+03  0.12699999809E+01 0.  1.
       -4    1    3    3    0  502  0.19019708732E+03 -0.50606211238E+03 -0.96516226012E+03  0.11062610880E+04  0.12699999809E+01 0. -1.
</event>
<event>
 5   0  0.5840834E-04  0.1534937E+04  0.7818609E-02  0.8861547E-01
        1   -1    0    0  501    0  0.00000000000E+00  0.00000000000E+00  0.18647514850E+04  0.18647514850E+04  0.50400001928E-02 0. -1.
       -1   -1    0    0    0  501  0.00000000000E+00  0.00000000000E+00 -0.31586413477E+03  0.31586413481E+03  0.50400001928E-02 0.  1.
    10030    2    1    2    0    0  0.00000000000E+00  0.00000000000E+00  0.15488873503E+04  0.21806156199E+04  0.15349372814E+04 0.  0.
        3    1    3    3  502    0 -0.27061863206E+03 -0.24941579507E+03 -0.18232831543E+03  0.41071438696E+03  0.10100000352E+00 0.  1.
       -3    1    3    3    0  502  0.27061863206E+03  0.24941579507E+03  0.17312156657E+04  0.17699012329E+04  0.10100000352E+00 0. -1.
</event>
<event>
 5   0  0.1147755E-03  0.1537627E+04  0.7818609E-02  0.8859810E-01
        2   -1    0    0  501    0  0.00000000000E+00  0.00000000000E+00  0.11797096162E+04  0.11797096162E+04  0.25500000920E-02 0. -1.
       -2   -1    0    0    0  501  0.00000000000E+00  0.00000000000E+00 -0.50103389423E+03  0.50103389424E+03  0.25500000920E-02 0.  1.
    10030    2    1    2    0    0  0.00000000000E+00  0.00000000000E+00  0.67867572194E+03  0.16807435104E+04  0.15376273971E+04 0.  0.
        4    1    3    3  502    0  0.19160211577E+03 -0.23349048758E+02 -0.47411654841E+03  0.51190298223E+03  0.12699999809E+01 0.  1.
       -4    1    3    3    0  502 -0.19160211577E+03  0.23349048758E+02  0.11527922704E+04  0.11688405282E+04  0.12699999809E+01 0. -1.
</event>
<event>
 5   0  0.5840834E-04  0.1466997E+04  0.7818609E-02  0.8906701E-01
       -1   -1    0    0    0  501  0.00000000000E+00  0.00000000000E+00  0.65157719275E+03  0.65157719277E+03  0.50400001928E-02 0.  1.
        1   -1    0    0  501    0  0.00000000000E+00  0.00000000000E+00 -0.82572011118E+03  0.82572011119E+03  0.50400001928E-02 0. -1.
    10030    2    1    2    0    0  0.00000000000E+00  0.00000000000E+00 -0.17414291843E+03  0.14772973040E+04  0.14669974670E+04 0.  0.
        3    1    3    3  502    0  0.59200832702E+03  0.16308159653E+03 -0.49107508885E+03  0.78627235706E+03  0.10100000352E+00 0. -1.
       -3    1    3    3    0  502 -0.59200832702E+03 -0.16308159653E+03  0.31693217042E+03  0.69102494690E+03  0.10100000352E+00 0.  1.
</event>
<event>
 5   0  0.5840834E-04  0.1514404E+04  0.7818609E-02  0.8874931E-01
        1   -1    0    0  501    0  0.00000000000E+00  0.00000000000E+00  0.84529703194E+03  0.84529703196E+03  0.50400001928E-02 0.  1.
       -1   -1    0    0    0  501  0.00000000000E+00  0.00000000000E+00 -0.67828788884E+03  0.67828788886E+03  0.50400001928E-02 0. -1.
    10030    2    1    2    0    0  0.00000000000E+00  0.00000000000E+00  0.16700914310E+03  0.15235849208E+04  0.15144038289E+04 0.  0.
        3    1    3    3  502    0 -0.15473103317E+03  0.70308463093E+02 -0.65885078619E+03  0.68041850450E+03  0.10100000352E+00 0. -1.
       -3    1    3    3    0  502  0.15473103317E+03 -0.70308463093E+02  0.82585992929E+03  0.84316641632E+03  0.10100000352E+00 0.  1.
</event>
<event>
 5   0  0.1149716E-03  0.1489888E+04  0.7818609E-02  0.8891206E-01
       -2   -1    0    0    0  501  0.00000000000E+00  0.00000000000E+00  0.54670398072E+03  0.54670398073E+03  0.25500000920E-02 0.  1.
        2   -1    0    0  501    0  0.00000000000E+00  0.00000000000E+00 -0.10150671117E+04  0.10150671117E+04  0.25500000920E-02 0. -1.
    10030    2    1    2    0    0  0.00000000000E+00  0.00000000000E+00 -0.46836313101E+03  0.15617710925E+04  0.14898875537E+04 0.  0.
        1    1    3    3  502    0  0.47582664032E+03 -0.47775924736E+03 -0.56612426860E+03  0.88043260821E+03  0.50400001928E-02 0. -1.
       -1    1    3    3    0  502 -0.47582664032E+03  0.47775924736E+03  0.97761137593E+02  0.68133848425E+03  0.50400001928E-02 0.  1.
</event>
<event>
 5   0  0.1149716E-03  0.1501601E+04  0.7818609E-02  0.8883389E-01
       -2   -1    0    0    0  501  0.00000000000E+00  0.00000000000E+00  0.41400038660E+03  0.41400038661E+03  0.25500000920E-02 0. -1.
        2   -1    0    0  501    0  0.00000000000E+00  0.00000000000E+00 -0.13615955434E+04  0.13615955434E+04  0.25500000920E-02 0.  1.
    10030    2    1    2    0    0  0.00000000000E+00  0.00000000000E+00 -0.94759515678E+03  0.17755959300E+04  0.15016005879E+04 0.  0.
        1    1    3    3  502    0 -0.64588544569E+03  0.18717939686E+03 -0.86863762701E+03  0.10985151172E+04  0.50400001928E-02 0. -1.
       -1    1    3    3    0  502  0.64588544569E+03 -0.18717939686E+03 -0.78957529767E+02  0.67708081282E+03  0.50400001928E-02 0.  1.
</event>
<event>
 5   0  0.1097156E-03  0.1516530E+04  0.7818609E-02  0.8873535E-01
       -2   -1    0    0    0  501  0.00000000000E+00  0.00000000000E+00  0.51451445220E+03  0.51451445221E+03  0.25500000920E-02 0.  1.
        2   -1    0    0  501    0  0.00000000000E+00  0.00000000000E+00 -0.11174916332E+04  0.11174916332E+04  0.25500000920E-02 0. -1.
    10030    2    1    2    0    0  0.00000000000E+00  0.00000000000E+00 -0.60297718099E+03  0.16320060854E+04  0.15165297168E+04 0.  0.
        2    1    3    3  502    0 -0.25941026019E+03 -0.10681037626E+03 -0.10595894635E+04  0.10960985224E+04  0.25500000920E-02 0. -1.
       -2    1    3    3    0  502  0.25941026019E+03  0.10681037626E+03  0.45661228251E+03  0.53590756303E+03  0.25500000920E-02 0.  1.
</event>
<event>
 5   0  0.1147755E-03  0.1526974E+04  0.7818609E-02  0.8866711E-01
       -2   -1    0    0    0  501  0.00000000000E+00  0.00000000000E+00  0.74358307052E+03  0.74358307053E+03  0.25500000920E-02 0.  1.
        2   -1    0    0  501    0  0.00000000000E+00  0.00000000000E+00 -0.78392321879E+03  0.78392321879E+03  0.25500000920E-02 0. -1.
    10030    2    1    2    0    0  0.00000000000E+00  0.00000000000E+00 -0.40340148269E+02  0.15275062893E+04  0.15269735218E+04 0.  0.
        4    1    3    3  502    0  0.49246045820E+03 -0.19668882129E+03 -0.56963999691E+03  0.77826418027E+03  0.12699999809E+01 0. -1.
       -4    1    3    3    0  502 -0.49246045820E+03  0.19668882129E+03  0.52929984864E+03  0.74924210905E+03  0.12699999809E+01 0.  1.
</event>
<event>
 5   0  0.5924403E-04  0.1485224E+04  0.7818609E-02  0.8894339E-01
       -1   -1    0    0    0  501  0.00000000000E+00  0.00000000000E+00  0.25299051475E+03  0.25299051480E+03  0.50400001928E-02 0.  1.
        1   -1    0    0  501    0  0.00000000000E+00  0.00000000000E+00 -0.21798142530E+04  0.21798142530E+04  0.50400001928E-02 0. -1.
    10030    2    1    2    0    0  0.00000000000E+00  0.00000000000E+00 -0.19268237382E+04  0.24328047678E+04  0.14852236599E+04 0.  0.
        1    1    3    3  502    0  0.28133684463E+03 -0.13479719874E+03  0.14045280560E+03  0.34212234005E+03  0.50400001928E-02 0.  1.
       -1    1    3    3    0  502 -0.28133684463E+03  0.13479719874E+03 -0.20672765438E+04  0.20906824277E+04  0.50400001928E-02 0. -1.
</event>
<event>
 5   0  0.5840834E-04  0.1504945E+04  0.7818609E-02  0.8881171E-01
       -1   -1    0    0    0  501  0.00000000000E+00  0.00000000000E+00  0.10705958747E+04  0.10705958748E+04  0.50400001928E-02 0. -1.
        1   -1    0    0  501    0  0.00000000000E+00  0.00000000000E+00 -0.52887838368E+03  0.52887838370E+03  0.50400001928E-02 0.  1.
    10030    2    1    2    0    0  0.00000000000E+00  0.00000000000E+00  0.54171749107E+03  0.15994742585E+04  0.15049452028E+04 0.  0.
        3    1    3    3  502    0  0.67284757578E+03  0.27401798772E+03  0.62576582049E+02  0.72919514305E+03  0.10100000352E+00 0.  1.
       -3    1    3    3    0  502 -0.67284757578E+03 -0.27401798772E+03  0.47914090902E+03  0.87027911541E+03  0.10100000352E+00 0. -1.
</event>
<event>
 5   0  0.1097156E-03  0.1502928E+04  0.7818609E-02  0.8882508E-01
       -2   -1    0    0    0  501  0.00000000000E+00  0.00000000000E+00  0.57046191984E+03  0.57046191985E+03  0.25500000920E-02 0.  1.
        2   -1    0    0  501    0  0.00000000000E+00  0.00000000000E+00 -0.98989629365E+03  0.98989629366E+03  0.25500000920E-02 0. -1.
    10030    2    1    2    0    0  0.00000000000E+00  0.00000000000E+00 -0.41943437381E+03  0.15603582135E+04  0.15029279958E+04 0.  0.
        2    1    3    3  502    0  0.46605363866E+03  0.46054200208E+03 -0.59173584965E+03  0.88286819263E+03  0.25500000920E-02 0. -1.
       -2    1    3    3    0  502 -0.46605363866E+03 -0.46054200208E+03  0.17230147584E+03  0.67749002087E+03  0.25500000920E-02 0.  1.
</event>
<event>
 5   0  0.5914645E-04  0.1501200E+04  0.7818609E-02  0.8883655E-01
       -1   -1    0    0    0  501  0.00000000000E+00  0.00000000000E+00  0.49326544732E+03  0.49326544735E+03  0.50400001928E-02 0. -1.
        1   -1    0    0  501    0  0.00000000000E+00  0.00000000000E+00 -0.11421845395E+04  0.11421845395E+04  0.50400001928E-02 0.  1.
    10030    2    1    2    0    0  0.00000000000E+00  0.00000000000E+00 -0.64891909221E+03  0.16354499869E+04  0.15011997440E+04 0.  0.
        2    1    3    3  502    0 -0.16666231642E+03 -0.61419924567E+03 -0.75802357388E+03  0.98975591923E+03  0.25500000920E-02 0.  1.
       -2    1    3    3    0  502  0.16666231642E+03  0.61419924567E+03  0.10910448166E+03  0.64569406767E+03  0.25500000920E-02 0. -1.
</event>
<event>
 5   0  0.5606965E-04  0.1500867E+04  0.7818609E-02  0.8883877E-01
       -1   -1    0    0    0  501  0.00000000000E+00  0.00000000000E+00  0.93140244159E+03  0.93140244160E+03  0.50400001928E-02 0. -1.
        1   -1    0    0  501    0  0.00000000000E+00  0.00000000000E+00 -0.60462619263E+03  0.60462619265E+03  0.50400001928E-02 0.  1.
    10030    2    1    2    0    0  0.00000000000E+00  0.00000000000E+00  0.32677624896E+03  0.15360286343E+04  0.15008668323E+04 0.  0.
        4    1    3    3  502    0  0.39371053284E+03  0.21879461603E+03 -0.45089838707E+03  0.63733039786E+03  0.12699999809E+01 0.  1.
       -4    1    3    3    0  502 -0.39371053284E+03 -0.21879461603E+03  0.77767463603E+03  0.89869823639E+03  0.12699999809E+01 0. -1.
</event>
<event>
 5   0  0.5606965E-04  0.1280474E+04  0.7818609E-02  0.9045194E-01
       -1   -1    0    0    0  501  0.00000000000E+00  0.00000000000E+00  0.51628217951E+03  0.51628217954E+03  0.50400001928E-02 0.  1.
        1   -1    0    0  501    0  0.00000000000E+00  0.00000000000E+00 -0.79395271759E+03  0.79395271760E+03  0.50400001928E-02 0. -1.
    10030    2    1    2    0    0  0.00000000000E+00  0.00000000000E+00 -0.27767053807E+03  0.13102348971E+04  0.12804743488E+04 0.  0.
        4    1    3    3  502    0  0.17068900121E+03 -0.53511588768E+03 -0.45325248490E+03  0.72175007887E+03  0.12699999809E+01 0. -1.
       -4    1    3    3    0  502 -0.17068900121E+03  0.53511588768E+03  0.17558194682E+03  0.58848481827E+03  0.12699999809E+01 0.  1.
</event>
<event>
 5   0  0.1097156E-03  0.1498499E+04  0.7818609E-02  0.8885452E-01
        2   -1    0    0  501    0  0.00000000000E+00  0.00000000000E+00  0.11221642484E+04  0.11221642484E+04  0.25500000920E-02 0.  1.
       -2   -1    0    0    0  501  0.00000000000E+00  0.00000000000E+00 -0.50026082958E+03  0.50026082959E+03  0.25500000920E-02 0. -1.
    10030    2    1    2    0    0  0.00000000000E+00  0.00000000000E+00  0.62190341886E+03  0.16224250780E+04  0.14984990062E+04 0.  0.
        2    1    3    3  502    0 -0.62865698126E+02 -0.64446476678E+03 -0.97167200668E+02  0.65477354598E+03  0.25500000920E-02 0. -1.
       -2    1    3    3    0  502  0.62865698126E+02  0.64446476678E+03  0.71907061953E+03  0.96765153206E+03  0.25500000920E-02 0.  1.
</event>
<event>
 5   0  0.5924403E-04  0.1491440E+04  0.7818609E-02  0.8890165E-01
       -1   -1    0    0    0  501  0.00000000000E+00  0.00000000000E+00  0.36807423462E+03  0.36807423465E+03  0.50400001928E-02 0. -1.
        1   -1    0    0  501    0  0.00000000000E+00  0.00000000000E+00 -0.15108312677E+04  0.15108312677E+04  0.50400001928E-02 0.  1.
    10030    2    1    2    0    0  0.00000000000E+00  0.00000000000E+00 -0.11427570331E+04  0.18789055024E+04  0.14914396569E+04 0.  0.
        1    1    3    3  502    0 -0.24474405829E+03  0.57424284802E+03 -0.57414458332E+02  0.62685797644E+03  0.50400001928E-02 0. -1.
       -1    1    3    3    0  502  0.24474405829E+03 -0.57424284802E+03 -0.10853425747E+04  0.12520475259E+04  0.50400001928E-02 0.  1.
</event>
<event>
 5   0  0.1097156E-03  0.1485578E+04  0.7818609E-02  0.8894100E-01
        2   -1    0    0  501    0  0.00000000000E+00  0.00000000000E+00  0.14839094031E+04  0.14839094031E+04  0.25500000920E-02 0.  1.
       -2   -1    0    0    0  501  0.00000000000E+00  0.00000000000E+00 -0.37181217865E+03  0.37181217866E+03  0.25500000920E-02 0. -1.
    10030    2    1    2    0    0  0.00000000000E+00  0.00000000000E+00  0.11120972244E+04  0.18557215817E+04  0.14855781206E+04 0.  0.
        2    1    3    3  502    0 -0.15458872770E+03  0.36830653516E+03 -0.22623564511E+03  0.45905331466E+03  0.25500000920E-02 0. -1.
       -2    1    3    3    0  502  0.15458872770E+03 -0.36830653516E+03  0.13383328695E+04  0.13966682671E+04  0.25500000920E-02 0.  1.
</event>
<event>
 5   0  0.1097156E-03  0.1506076E+04  0.7818609E-02  0.8880423E-01
       -2   -1    0    0    0  501  0.00000000000E+00  0.00000000000E+00  0.51737332956E+03  0.51737332957E+03  0.25500000920E-02 0. -1.
        2   -1    0    0  501    0  0.00000000000E+00  0.00000000000E+00 -0.10960479288E+04  0.10960479288E+04  0.25500000920E-02 0.  1.
    10030    2    1    2    0    0  0.00000000000E+00  0.00000000000E+00 -0.57867459926E+03  0.16134212584E+04  0.15060756506E+04 0.  0.
        2    1    3    3  502    0  0.15667813509E+03 -0.67148189655E+03  0.34942435359E+02  0.69040346842E+03  0.25500000920E-02 0. -1.
       -2    1    3    3    0  502 -0.15667813509E+03  0.67148189655E+03 -0.61361703462E+03  0.92301778997E+03  0.25500000920E-02 0.  1.
</event>
<event>
 5   0  0.1097156E-03  0.1523082E+04  0.7818609E-02  0.8869247E-01
        2   -1    0    0  501    0  0.00000000000E+00  0.00000000000E+00  0.96880100637E+03  0.96880100637E+03  0.25500000920E-02 0. -1.
       -2   -1    0    0    0  501  0.00000000000E+00  0.00000000000E+00 -0.59862123929E+03  0.59862123930E+03  0.25500000920E-02 0.  1.
    10030    2    1    2    0    0  0.00000000000E+00  0.00000000000E+00  0.37017976708E+03  0.15674222457E+04  0.15230822159E+04 0.  0.
        2    1    3    3  502    0  0.21227277764E+03  0.69601190717E+03  0.41624538204E+03  0.83830336103E+03  0.25500000920E-02 0. -1.
       -2    1    3    3    0  502 -0.21227277764E+03 -0.69601190717E+03 -0.46065614957E+02  0.72911888464E+03  0.25500000920E-02 0.  1.
</event>
<event>
 5   0  0.1149716E-03  0.1492434E+04  0.7818609E-02  0.8889500E-01
        2   -1    0    0  501    0  0.00000000000E+00  0.00000000000E+00  0.19669027014E+04  0.19669027014E+04  0.25500000920E-02 0. -1.
       -2   -1    0    0    0  501  0.00000000000E+00  0.00000000000E+00 -0.28310489452E+03  0.28310489453E+03  0.25500000920E-02 0.  1.
    10030    2    1    2    0    0  0.00000000000E+00  0.00000000000E+00  0.16837978069E+04  0.22500075960E+04  0.14924339608E+04 0.  0.
        1    1    3    3  502    0  0.24699849089E+03 -0.70309186740E+03  0.78363894859E+03  0.10814048411E+04  0.50400001928E-02 0. -1.
       -1    1    3    3    0  502 -0.24699849089E+03  0.70309186740E+03  0.90015885833E+03  0.11686027549E+04  0.50400001928E-02 0.  1.
</event>
<event>
 5   0  0.5914645E-04  0.1511300E+04  0.7818609E-02  0.8876973E-01
       -1   -1    0    0    0  501  0.00000000000E+00  0.00000000000E+00  0.39173305966E+03  0.39173305970E+03  0.50400001928E-02 0.  1.
        1   -1    0    0  501    0  0.00000000000E+00  0.00000000000E+00 -0.14576424173E+04  0.14576424173E+04  0.50400001928E-02 0. -1.
    10030    2    1    2    0    0  0.00000000000E+00  0.00000000000E+00 -0.10659093577E+04  0.18493754770E+04  0.15112997374E+04 0.  0.
        2    1    3    3  502    0  0.31771909161E+03  0.53396778471E+03 -0.67077538013E+01  0.62137911958E+03  0.25500000920E-02 0.  1.
       -2    1    3    3    0  502 -0.31771909161E+03 -0.53396778471E+03 -0.10592016039E+04  0.12279963574E+04  0.25500000920E-02 0. -1.
</event>
<event>
 5   0  0.1147755E-03  0.1485598E+04  0.7818609E-02  0.8894087E-01
        2   -1    0    0  501    0  0.00000000000E+00  0.00000000000E+00  0.13405305045E+04  0.13405305045E+04  0.25500000920E-02 0.  1.
       -2   -1    0    0    0  501  0.00000000000E+00  0.00000000000E+00 -0.41159102549E+03  0.41159102549E+03  0.25500000920E-02 0. -1.
    10030    2    1    2    0    0  0.00000000000E+00  0.00000000000E+00  0.92893947897E+03  0.17521215300E+04  0.14855979605E+04 0.  0.
        4    1    3    3  502    0  0.16365748684E+03 -0.29371710681E+03 -0.31669813239E+03  0.46190132256E+03  0.12699999809E+01 0. -1.
       -4    1    3    3    0  502 -0.16365748684E+03  0.29371710681E+03  0.12456376114E+04  0.12902202074E+04  0.12699999809E+01 0.  1.
</event>
<event>
 5   0  0.1082667E-03  0.1505879E+04  0.7818609E-02  0.8880553E-01
       -2   -1    0    0    0  501  0.00000000000E+00  0.00000000000E+00  0.64616848807E+03  0.64616848808E+03  0.25500000920E-02 0.  1.
        2   -1    0    0  501    0  0.00000000000E+00  0.00000000000E+00 -0.87735302221E+03  0.87735302221E+03  0.25500000920E-02 0. -1.
    10030    2    1    2    0    0  0.00000000000E+00  0.00000000000E+00 -0.23118453413E+03  0.15235215103E+04  0.15058789804E+04 0.  0.
        5    1    3    3  502    0  0.65076262628E+01  0.20168821644E+03 -0.84947006257E+03  0.87312196345E+03  0.46999998093E+01 0. -1.
       -5    1    3    3    0  502 -0.65076262628E+01 -0.20168821644E+03  0.61828552844E+03  0.65039954684E+03  0.46999998093E+01 0.  1.
</event>
<event>
 5   0  0.5840834E-04  0.1677625E+04  0.7818609E-02  0.8774230E-01
        1   -1    0    0  501    0  0.00000000000E+00  0.00000000000E+00  0.10942394295E+04  0.10942394295E+04  0.50400001928E-02 0. -1.
       -1   -1    0    0    0  501  0.00000000000E+00  0.00000000000E+00 -0.64300942887E+03  0.64300942889E+03  0.50400001928E-02 0.  1.
    10030    2    1    2    0    0  0.00000000000E+00  0.00000000000E+00  0.45123000064E+03  0.17372488584E+04  0.16776248337E+04 0.  0.
        3    1    3    3  502    0  0.75386358279E+03  0.36768400498E+03  0.23619736890E+03  0.87137307524E+03  0.10100000352E+00 0. -1.
       -3    1    3    3    0  502 -0.75386358279E+03 -0.36768400498E+03  0.21503263173E+03  0.86587578317E+03  0.10100000352E+00 0.  1.
</event>
<event>
 5   0  0.1082667E-03  0.1508899E+04  0.7818609E-02  0.8878557E-01
       -2   -1    0    0    0  501  0.00000000000E+00  0.00000000000E+00  0.29737288249E+03  0.29737288250E+03  0.25500000920E-02 0.  1.
        2   -1    0    0  501    0  0.00000000000E+00  0.00000000000E+00 -0.19140745416E+04  0.19140745416E+04  0.25500000920E-02 0. -1.
    10030    2    1    2    0    0  0.00000000000E+00  0.00000000000E+00 -0.16167016591E+04  0.22114474241E+04  0.15088987557E+04 0.  0.
        5    1    3    3  502    0 -0.74444702659E+03  0.60312719644E+02 -0.65232926219E+03  0.99166252115E+03  0.46999998093E+01 0. -1.
       -5    1    3    3    0  502  0.74444702659E+03 -0.60312719644E+02 -0.96437239695E+03  0.12197849030E+04  0.46999998093E+01 0.  1.
</event>
<event>
 5   0  0.6146552E-04  0.1509126E+04  0.7818609E-02  0.8878407E-01
       -1   -1    0    0    0  501  0.00000000000E+00  0.00000000000E+00  0.30946705208E+03  0.30946705212E+03  0.50400001928E-02 0.  1.
        1   -1    0    0  501    0  0.00000000000E+00  0.00000000000E+00 -0.18398243621E+04  0.18398243621E+04  0.50400001928E-02 0. -1.
    10030    2    1    2    0    0  0.00000000000E+00  0.00000000000E+00 -0.15303573101E+04  0.21492914143E+04  0.15091256035E+04 0.  0.
        5    1    3    3  502    0 -0.43937953005E+03 -0.38218240368E+03 -0.14485335636E+04  0.15612140583E+04  0.46999998093E+01 0. -1.
       -5    1    3    3    0  502  0.43937953005E+03  0.38218240368E+03 -0.81823746501E+02  0.58807735596E+03  0.46999998093E+01 0.  1.
</event>
<event>
 5   0  0.1082667E-03  0.1475142E+04  0.7818609E-02  0.8901153E-01
       -2   -1    0    0    0  501  0.00000000000E+00  0.00000000000E+00  0.27515029512E+03  0.27515029513E+03  0.25500000920E-02 0. -1.
        2   -1    0    0  501    0  0.00000000000E+00  0.00000000000E+00 -0.19771416571E+04  0.19771416571E+04  0.25500000920E-02 0.  1.
    10030    2    1    2    0    0  0.00000000000E+00  0.00000000000E+00 -0.17019913620E+04  0.22522919523E+04  0.14751421768E+04 0.  0.
        5    1    3    3  502    0  0.12718410100E+03 -0.52104074462E+03 -0.77976400183E+02  0.54199784325E+03  0.46999998093E+01 0. -1.
       -5    1    3    3    0  502 -0.12718410100E+03  0.52104074462E+03 -0.16240149618E+04  0.17102941090E+04  0.46999998093E+01 0.  1.
</event>
<event>
 5   0  0.1097156E-03  0.1509044E+04  0.7818609E-02  0.8878461E-01
        2   -1    0    0  501    0  0.00000000000E+00  0.00000000000E+00  0.15936212303E+04  0.15936212303E+04  0.25500000920E-02 0.  1.
       -2   -1    0    0    0  501  0.00000000000E+00  0.00000000000E+00 -0.35723907312E+03  0.35723907313E+03  0.25500000920E-02 0. -1.
    10030    2    1    2    0    0  0.00000000000E+00  0.00000000000E+00  0.12363821572E+04  0.19508603035E+04  0.15090444278E+04 0.  0.
        2    1    3    3  502    0  0.18649008744E+03 -0.14143830358E+03  0.15455021724E+04  0.15631251745E+04  0.25500000920E-02 0.  1.
       -2    1    3    3    0  502 -0.18649008744E+03  0.14143830358E+03 -0.30912001516E+03  0.38773512893E+03  0.25500000920E-02 0. -1.
</event>
<event>
 5   0  0.5924403E-04  0.1515209E+04  0.7818609E-02  0.8874402E-01
       -1   -1    0    0    0  501  0.00000000000E+00  0.00000000000E+00  0.54413482427E+03  0.54413482429E+03  0.50400001928E-02 0. -1.
        1   -1    0    0  501    0  0.00000000000E+00  0.00000000000E+00 -0.10548204643E+04  0.10548204643E+04  0.50400001928E-02 0.  1.
    10030    2    1    2    0    0  0.00000000000E+00  0.00000000000E+00 -0.51068564003E+03  0.15989552886E+04  0.15152089598E+04 0.  0.
        1    1    3    3  502    0  0.51731994307E+03  0.36271297670E+03  0.18583587217E+03  0.65857087574E+03  0.50400001928E-02 0. -1.
       -1    1    3    3    0  502 -0.51731994307E+03 -0.36271297670E+03 -0.69652151221E+03  0.94038441286E+03  0.50400001928E-02 0.  1.
</event>
<event>
 5   0  0.5840834E-04  0.1605520E+04  0.7818609E-02  0.8817164E-01
        1   -1    0    0  501    0  0.00000000000E+00  0.00000000000E+00  0.12768955156E+04  0.12768955156E+04  0.50400001928E-02 0. -1.
       -1   -1    0    0    0  501  0.00000000000E+00  0.00000000000E+00 -0.50467996193E+03  0.50467996196E+03  0.50400001928E-02 0.  1.
    10030    2    1    2    0    0  0.00000000000E+00  0.00000000000E+00  0.77221555364E+03  0.17815754775E+04  0.16055199534E+04 0.  0.
        3    1    3    3  502    0 -0.49221872005E+03 -0.29420414054E+02 -0.31682144009E+03  0.58610635915E+03  0.10100000352E+00 0.  1.
       -3    1    3    3    0  502  0.49221872005E+03  0.29420414054E+02  0.10890369937E+04  0.11954691184E+04  0.10100000352E+00 0. -1.
</event>
<event>
 5   0  0.1147755E-03  0.1525745E+04  0.7818609E-02  0.8867511E-01
       -2   -1    0    0    0  501  0.00000000000E+00  0.00000000000E+00  0.23746937509E+03  0.23746937510E+03  0.25500000920E-02 0.  1.
        2   -1    0    0  501    0  0.00000000000E+00  0.00000000000E+00 -0.24507350734E+04  0.24507350734E+04  0.25500000920E-02 0. -1.
    10030    2    1    2    0    0  0.00000000000E+00  0.00000000000E+00 -0.22132656983E+04  0.26882044485E+04  0.15257450985E+04 0.  0.
        4    1    3    3  502    0 -0.18016983205E+03 -0.55204761332E+03 -0.19782911213E+04  0.20617601968E+04  0.12699999809E+01 0. -1.
       -4    1    3    3    0  502  0.18016983205E+03  0.55204761332E+03 -0.23497457708E+03  0.62644425174E+03  0.12699999809E+01 0.  1.
</event>
<event>
 5   0  0.1147755E-03  0.1597516E+04  0.7818609E-02  0.8822076E-01
       -2   -1    0    0    0  501  0.00000000000E+00  0.00000000000E+00  0.79866710948E+03  0.79866710948E+03  0.25500000920E-02 0.  1.
        2   -1    0    0  501    0  0.00000000000E+00  0.00000000000E+00 -0.79884882285E+03  0.79884882286E+03  0.25500000920E-02 0. -1.
    10030    2    1    2    0    0  0.00000000000E+00  0.00000000000E+00 -0.18171337587E+00  0.15975159323E+04  0.15975159220E+04 0.  0.
        4    1    3    3  502    0 -0.60568765836E+03  0.78577590561E+02 -0.51485361133E+03  0.79881651912E+03  0.12699999809E+01 0. -1.
       -4    1    3    3    0  502  0.60568765836E+03 -0.78577590561E+02  0.51467189796E+03  0.79869941321E+03  0.12699999809E+01 0.  1.
</event>
<event>
 5   0  0.1149716E-03  0.1492599E+04  0.7818609E-02  0.8889390E-01
       -2   -1    0    0    0  501  0.00000000000E+00  0.00000000000E+00  0.80660158644E+03  0.80660158645E+03  0.25500000920E-02 0.  1.
        2   -1    0    0  501    0  0.00000000000E+00  0.00000000000E+00 -0.69050535603E+03  0.69050535604E+03  0.25500000920E-02 0. -1.
    10030    2    1    2    0    0  0.00000000000E+00  0.00000000000E+00  0.11609623041E+03  0.14971069425E+04  0.14925986944E+04 0.  0.
        1    1    3    3  502    0 -0.18818592619E+03  0.58826151679E+03 -0.36214101558E+03  0.71596904273E+03  0.50400001928E-02 0. -1.
       -1    1    3    3    0  502  0.18818592619E+03 -0.58826151679E+03  0.47823724599E+03  0.78113789975E+03  0.50400001928E-02 0.  1.
</event>
<event>
 5   0  0.4070625E-04  0.1492512E+04  0.7818609E-02  0.8889448E-01
        4   -1    0    0  501    0  0.00000000000E+00  0.00000000000E+00  0.51229875932E+03  0.51230033350E+03  0.12699999809E+01 0.  1.
       -4   -1    0    0    0  501  0.00000000000E+00  0.00000000000E+00 -0.10870529467E+04  0.10870536885E+04  0.12699999809E+01 0. -1.
    10030    2    1    2    0    0  0.00000000000E+00  0.00000000000E+00 -0.57475418735E+03  0.15993540220E+04  0.14925116120E+04 0.  0.
        3    1    3    3  502    0 -0.22494563914E+03 -0.11132278335E+03 -0.10404696281E+04  0.10703132064E+04  0.10100000352E+00 0. -1.
       -3    1    3    3    0  502  0.22494563914E+03  0.11132278335E+03  0.46571544073E+03  0.52904081562E+03  0.10100000352E+00 0.  1.
</event>
<event>
 5   0  0.5840834E-04  0.1490471E+04  0.7818609E-02  0.8890814E-01
        1   -1    0    0  501    0  0.00000000000E+00  0.00000000000E+00  0.82980056602E+03  0.82980056603E+03  0.50400001928E-02 0. -1.
       -1   -1    0    0    0  501  0.00000000000E+00  0.00000000000E+00 -0.66928845292E+03  0.66928845294E+03  0.50400001928E-02 0.  1.
    10030    2    1    2    0    0  0.00000000000E+00  0.00000000000E+00  0.16051211310E+03  0.14990890190E+04  0.14904709821E+04 0.  0.
        3    1    3    3  502    0  0.43526799162E+03  0.43391844655E+03  0.50415769223E+03  0.79493297303E+03  0.10100000352E+00 0. -1.
       -3    1    3    3    0  502 -0.43526799162E+03 -0.43391844655E+03 -0.34364557913E+03  0.70415604594E+03  0.10100000352E+00 0.  1.
</event>
<event>
 5   0  0.5924403E-04  0.1503029E+04  0.7818609E-02  0.8882441E-01
       -1   -1    0    0    0  501  0.00000000000E+00  0.00000000000E+00  0.50910954567E+03  0.50910954569E+03  0.50400001928E-02 0. -1.
        1   -1    0    0  501    0  0.00000000000E+00  0.00000000000E+00 -0.11093364778E+04  0.11093364778E+04  0.50400001928E-02 0.  1.
    10030    2    1    2    0    0  0.00000000000E+00  0.00000000000E+00 -0.60022693215E+03  0.16184460235E+04  0.15030286627E+04 0.  0.
        1    1    3    3  502    0  0.46626301747E+03  0.24686929975E+03  0.27617349948E+03  0.59549765277E+03  0.50400001928E-02 0. -1.
       -1    1    3    3    0  502 -0.46626301747E+03 -0.24686929975E+03 -0.87640043163E+03  0.10229483707E+04  0.50400001928E-02 0.  1.
</event>
<event>
 5   0  0.1097156E-03  0.1298752E+04  0.7818609E-02  0.9030555E-01
       -2   -1    0    0    0  501  0.00000000000E+00  0.00000000000E+00  0.22545945682E+03  0.22545945684E+03  0.25500000920E-02 0. -1.
        2   -1    0    0  501    0  0.00000000000E+00  0.00000000000E+00 -0.18703555200E+04  0.18703555200E+04  0.25500000920E-02 0.  1.
    10030    2    1    2    0    0  0.00000000000E+00  0.00000000000E+00 -0.16448960632E+04  0.20958149769E+04  0.12987522314E+04 0.  0.
        2    1    3    3  502    0 -0.31863391976E+03 -0.27506783174E+03 -0.24516589626E+02  0.42165264146E+03  0.25500000920E-02 0. -1.
       -2    1    3    3    0  502  0.31863391976E+03  0.27506783174E+03 -0.16203794736E+04  0.16741623354E+04  0.25500000920E-02 0.  1.
</event>
<event>
 5   0  0.6146552E-04  0.1486126E+04  0.7818609E-02  0.8893732E-01
        1   -1    0    0  501    0  0.00000000000E+00  0.00000000000E+00  0.17936081296E+04  0.17936081296E+04  0.50400001928E-02 0.  1.
       -1   -1    0    0    0  501  0.00000000000E+00  0.00000000000E+00 -0.30783902910E+03  0.30783902914E+03  0.50400001928E-02 0. -1.
    10030    2    1    2    0    0  0.00000000000E+00  0.00000000000E+00  0.14857691005E+04  0.21014471587E+04  0.14861259506E+04 0.  0.
        5    1    3    3  502    0  0.13611785740E+03 -0.70964532843E+03  0.98778751139E+03  0.12238753290E+04  0.46999998093E+01 0.  1.
       -5    1    3    3    0  502 -0.13611785740E+03  0.70964532843E+03  0.49798158911E+03  0.87757182975E+03  0.46999998093E+01 0. -1.
</event>
<event>
 5   0  0.5840834E-04  0.1655090E+04  0.7818609E-02  0.8787401E-01
       -1   -1    0    0    0  501  0.00000000000E+00  0.00000000000E+00  0.92219945176E+03  0.92219945177E+03  0.50400001928E-02 0. -1.
        1   -1    0    0  501    0  0.00000000000E+00  0.00000000000E+00 -0.74260604967E+03  0.74260604969E+03  0.50400001928E-02 0.  1.
    10030    2    1    2    0    0  0.00000000000E+00  0.00000000000E+00  0.17959340209E+03  0.16648055015E+04  0.16550901992E+04 0.  0.
        3    1    3    3  502    0 -0.67901460952E+03 -0.27476853558E+03  0.47711840896E+03  0.87418566361E+03  0.10100000352E+00 0. -1.
       -3    1    3    3    0  502  0.67901460952E+03  0.27476853558E+03 -0.29752500687E+03  0.79061983785E+03  0.10100000352E+00 0.  1.
</event>
<event>
 5   0  0.5914645E-04  0.1520604E+04  0.7818609E-02  0.8870866E-01
       -1   -1    0    0    0  501  0.00000000000E+00  0.00000000000E+00  0.12737632868E+04  0.12737632868E+04  0.50400001928E-02 0.  1.
        1   -1    0    0  501    0  0.00000000000E+00  0.00000000000E+00 -0.45382013816E+03  0.45382013819E+03  0.50400001928E-02 0. -1.
    10030    2    1    2    0    0  0.00000000000E+00  0.00000000000E+00  0.81994314864E+03  0.17275834250E+04  0.15206043941E+04 0.  0.
        2    1    3    3  502    0 -0.56194377585E+03  0.40101230092E+03  0.48073043548E+02  0.69202795481E+03  0.25500000920E-02 0. -1.
       -2    1    3    3    0  502  0.56194377585E+03 -0.40101230092E+03  0.77187010509E+03  0.10355554702E+04  0.25500000920E-02 0.  1.
</event>
<event>
 5   0  0.1097156E-03  0.1471388E+04  0.7818609E-02  0.8903706E-01
        2   -1    0    0  501    0  0.00000000000E+00  0.00000000000E+00  0.12838077800E+04  0.12838077800E+04  0.25500000920E-02 0. -1.
       -2   -1    0    0    0  501  0.00000000000E+00  0.00000000000E+00 -0.42159376751E+03  0.42159376751E+03  0.25500000920E-02 0.  1.
    10030    2    1    2    0    0  0.00000000000E+00  0.00000000000E+00  0.86221401252E+03  0.17054015475E+04  0.14713875883E+04 0.  0.
        2    1    3    3  502    0  0.22044623852E+03 -0.70112119682E+02  0.12405582260E+04  0.12619417441E+04  0.25500000920E-02 0. -1.
       -2    1    3    3    0  502 -0.22044623852E+03  0.70112119682E+02 -0.37834421347E+03  0.44345980345E+03  0.25500000920E-02 0.  1.
</event>
<event>
 5   0  0.1082667E-03  0.1483106E+04  0.7818609E-02  0.8895765E-01
       -2   -1    0    0    0  501  0.00000000000E+00  0.00000000000E+00  0.46724781704E+03  0.46724781704E+03  0.25500000920E-02 0.  1.
        2   -1    0    0  501    0  0.00000000000E+00  0.00000000000E+00 -0.11768936523E+04  0.11768936523E+04  0.25500000920E-02 0. -1.
    10030    2    1    2    0    0  0.00000000000E+00  0.00000000000E+00 -0.70964583530E+03  0.16441414694E+04  0.14831061863E+04 0.  0.
        5    1    3    3  502    0 -0.62259592799E+03 -0.33115310594E+03 -0.60905008177E+03  0.93180049433E+03  0.46999998093E+01 0. -1.
       -5    1    3    3    0  502  0.62259592799E+03  0.33115310594E+03 -0.10059575354E+03  0.71234097506E+03  0.46999998093E+01 0.  1.
</event>
<event>
 5   0  0.6146552E-04  0.1459043E+04  0.7818609E-02  0.8912155E-01
       -1   -1    0    0    0  501  0.00000000000E+00  0.00000000000E+00  0.60080129122E+03  0.60080129124E+03  0.50400001928E-02 0.  1.
        1   -1    0    0  501    0  0.00000000000E+00  0.00000000000E+00 -0.88581969714E+03  0.88581969716E+03  0.50400001928E-02 0. -1.
    10030    2    1    2    0    0  0.00000000000E+00  0.00000000000E+00 -0.28501840593E+03  0.14866209884E+04  0.14590429985E+04 0.  0.
        5    1    3    3  502    0 -0.21076201504E+02 -0.21783989471E+03  0.56654743975E+03  0.60736851867E+03  0.46999998093E+01 0.  1.
       -5    1    3    3    0  502  0.21076201504E+02  0.21783989471E+03 -0.85156584567E+03  0.87925246972E+03  0.46999998093E+01 0. -1.
</event>
<event>
 5   0  0.5924403E-04  0.1494024E+04  0.7818609E-02  0.8888436E-01
        1   -1    0    0  501    0  0.00000000000E+00  0.00000000000E+00  0.11789737621E+04  0.11789737621E+04  0.50400001928E-02 0. -1.
       -1   -1    0    0    0  501  0.00000000000E+00  0.00000000000E+00 -0.47331599172E+03  0.47331599175E+03  0.50400001928E-02 0.  1.
    10030    2    1    2    0    0  0.00000000000E+00  0.00000000000E+00  0.70565777037E+03  0.16522897539E+04  0.14940242775E+04 0.  0.
        1    1    3    3  502    0  0.37582048915E+03  0.35966177724E+03  0.94574632645E+03  0.10793672906E+04  0.50400001928E-02 0. -1.
       -1    1    3    3    0  502 -0.37582048915E+03 -0.35966177724E+03 -0.24008855608E+03  0.57292246322E+03  0.50400001928E-02 0.  1.
</event>
<event>
 5   0  0.6146552E-04  0.1540793E+04  0.7818609E-02  0.8857770E-01
        1   -1    0    0  501    0  0.00000000000E+00  0.00000000000E+00  0.15246630185E+04  0.15246630185E+04  0.50400001928E-02 0. -1.
       -1   -1    0    0    0  501  0.00000000000E+00  0.00000000000E+00 -0.38927331418E+03  0.38927331421E+03  0.50400001928E-02 0.  1.
    10030    2    1    2    0    0  0.00000000000E+00  0.00000000000E+00  0.11353897044E+04  0.19139363328E+04  0.15407928170E+04 0.  0.
        5    1    3    3  502    0  0.36618887079E+03  0.67563348875E+03  0.63474517804E+03  0.99674391459E+03  0.46999998093E+01 0. -1.
       -5    1    3    3    0  502 -0.36618887079E+03 -0.67563348875E+03  0.50064452632E+03  0.91719241817E+03  0.46999998093E+01 0.  1.
</event>
<event>
 5   0  0.1082667E-03  0.1495729E+04  0.7818609E-02  0.8887298E-01
        2   -1    0    0  501    0  0.00000000000E+00  0.00000000000E+00  0.10456993206E+04  0.10456993206E+04  0.25500000920E-02 0.  1.
       -2   -1    0    0    0  501  0.00000000000E+00  0.00000000000E+00 -0.53485891500E+03  0.53485891501E+03  0.25500000920E-02 0. -1.
    10030    2    1    2    0    0  0.00000000000E+00  0.00000000000E+00  0.51084040562E+03  0.15805582356E+04  0.14957293927E+04 0.  0.
        5    1    3    3  502    0 -0.26365496901E+03  0.40936771105E+03  0.85522401487E+03  0.98413722170E+03  0.46999998093E+01 0.  1.
       -5    1    3    3    0  502  0.26365496901E+03 -0.40936771105E+03 -0.34438360925E+03  0.59642101393E+03  0.46999998093E+01 0. -1.
</event>
<event>
 5   0  0.4070625E-04  0.1498955E+04  0.7818609E-02  0.8885148E-01
       -3   -1    0    0    0  501  0.00000000000E+00  0.00000000000E+00  0.33903213634E+03  0.33903215139E+03  0.10100000352E+00 0. -1.
        3   -1    0    0  501    0  0.00000000000E+00  0.00000000000E+00 -0.16568240604E+04  0.16568240635E+04  0.10100000352E+00 0.  1.
    10030    2    1    2    0    0  0.00000000000E+00  0.00000000000E+00 -0.13177919241E+04  0.19958562149E+04  0.14989551279E+04 0.  0.
        3    1    3    3  502    0 -0.27505348415E+03  0.25971125706E+02  0.26875585066E+03  0.38543304993E+03  0.10100000352E+00 0. -1.
       -3    1    3    3    0  502  0.27505348415E+03 -0.25971125706E+02 -0.15865477748E+04  0.16104231650E+04  0.10100000352E+00 0.  1.
</event>
<event>
 5   0  0.1097156E-03  0.1669507E+04  0.7818609E-02  0.8778949E-01
        2   -1    0    0  501    0  0.00000000000E+00  0.00000000000E+00  0.50726941719E+03  0.50726941719E+03  0.25500000920E-02 0. -1.
       -2   -1    0    0    0  501  0.00000000000E+00  0.00000000000E+00 -0.13736551056E+04  0.13736551056E+04  0.25500000920E-02 0.  1.
    10030    2    1    2    0    0  0.00000000000E+00  0.00000000000E+00 -0.86638568844E+03  0.18809245228E+04  0.16695067833E+04 0.  0.
        2    1    3    3  502    0 -0.43192985408E+03  0.94350930137E+02  0.36453124399E+03  0.57301703702E+03  0.25500000920E-02 0. -1.
       -2    1    3    3    0  502  0.43192985408E+03 -0.94350930137E+02 -0.12309169324E+04  0.13079074858E+04  0.25500000920E-02 0.  1.
</event>
<event>
 5   0  0.1097156E-03  0.1497284E+04  0.7818609E-02  0.8886261E-01
       -2   -1    0    0    0  501  0.00000000000E+00  0.00000000000E+00  0.90932866875E+03  0.90932866875E+03  0.25500000920E-02 0.  1.
        2   -1    0    0  501    0  0.00000000000E+00  0.00000000000E+00 -0.61635035367E+03  0.61635035367E+03  0.25500000920E-02 0. -1.
    10030    2    1    2    0    0  0.00000000000E+00  0.00000000000E+00  0.29297831508E+03  0.15256790224E+04  0.14972842704E+04 0.  0.
        2    1    3    3  502    0 -0.19622492596E+03  0.49212248482E+03 -0.39248055695E+03  0.65934038950E+03  0.25500000920E-02 0. -1.
       -2    1    3    3    0  502  0.19622492596E+03 -0.49212248482E+03  0.68545887204E+03  0.86633863292E+03  0.25500000920E-02 0.  1.
</event>
<event>
 5   0  0.1082667E-03  0.1220944E+04  0.7818609E-02  0.9094719E-01
        2   -1    0    0  501    0  0.00000000000E+00  0.00000000000E+00  0.12701285291E+04  0.12701285291E+04  0.25500000920E-02 0. -1.
       -2   -1    0    0    0  501  0.00000000000E+00  0.00000000000E+00 -0.29341618737E+03  0.29341618738E+03  0.25500000920E-02 0.  1.
    10030    2    1    2    0    0  0.00000000000E+00  0.00000000000E+00  0.97671234168E+03  0.15635447164E+04  0.12209443402E+04 0.  0.
        5    1    3    3  502    0  0.23316585606E+03 -0.50211044224E+03  0.81777979963E+03  0.98755612666E+03  0.46999998093E+01 0. -1.
       -5    1    3    3    0  502 -0.23316585606E+03  0.50211044224E+03  0.15893254206E+03  0.57598858978E+03  0.46999998093E+01 0.  1.
</event>
<event>
 5   0  0.1149716E-03  0.1448149E+04  0.7818609E-02  0.8919685E-01
       -2   -1    0    0    0  501  0.00000000000E+00  0.00000000000E+00  0.57656884218E+03  0.57656884219E+03  0.25500000920E-02 0.  1.
        2   -1    0    0  501    0  0.00000000000E+00  0.00000000000E+00 -0.90931676552E+03  0.90931676553E+03  0.25500000920E-02 0. -1.
    10030    2    1    2    0    0  0.00000000000E+00  0.00000000000E+00 -0.33274792334E+03  0.14858856077E+04  0.14481487695E+04 0.  0.
        1    1    3    3  502    0 -0.16023107712E+03 -0.30105197213E+03  0.48900163136E+03  0.59617856679E+03  0.50400001928E-02 0.  1.
       -1    1    3    3    0  502  0.16023107712E+03  0.30105197213E+03 -0.82174955470E+03  0.88970704093E+03  0.50400001928E-02 0. -1.
</event>
<event>
 5   0  0.1097156E-03  0.1492784E+04  0.7818609E-02  0.8889266E-01
        2   -1    0    0  501    0  0.00000000000E+00  0.00000000000E+00  0.98923164754E+03  0.98923164754E+03  0.25500000920E-02 0. -1.
       -2   -1    0    0    0  501  0.00000000000E+00  0.00000000000E+00 -0.56316512896E+03  0.56316512897E+03  0.25500000920E-02 0.  1.
    10030    2    1    2    0    0  0.00000000000E+00  0.00000000000E+00  0.42606651858E+03  0.15523967765E+04  0.14927836660E+04 0.  0.
        2    1    3    3  502    0 -0.40278276804E+03 -0.15970564284E+03  0.84505399662E+03  0.94966104890E+03  0.25500000920E-02 0. -1.
       -2    1    3    3    0  502  0.40278276804E+03  0.15970564284E+03 -0.41898747804E+03  0.60273572762E+03  0.25500000920E-02 0.  1.
</event>
<event>
 5   0  0.1149716E-03  0.1483945E+04  0.7818609E-02  0.8895200E-01
        2   -1    0    0  501    0  0.00000000000E+00  0.00000000000E+00  0.49293366505E+03  0.49293366505E+03  0.25500000920E-02 0. -1.
       -2   -1    0    0    0  501  0.00000000000E+00  0.00000000000E+00 -0.11168306606E+04  0.11168306606E+04  0.25500000920E-02 0.  1.
    10030    2    1    2    0    0  0.00000000000E+00  0.00000000000E+00 -0.62389699555E+03  0.16097643257E+04  0.14839453235E+04 0.  0.
        1    1    3    3  502    0  0.50987268234E+03  0.49548089273E+03 -0.54219935774E+03  0.89412057957E+03  0.50400001928E-02 0.  1.
       -1    1    3    3    0  502 -0.50987268234E+03 -0.49548089273E+03 -0.81697637815E+02  0.71564374608E+03  0.50400001928E-02 0. -1.
</event>
<event>
 5   0  0.5606965E-04  0.1407665E+04  0.7818609E-02  0.8948289E-01
       -1   -1    0    0    0  501  0.00000000000E+00  0.00000000000E+00  0.33307104884E+03  0.33307104888E+03  0.50400001928E-02 0. -1.
        1   -1    0    0  501    0  0.00000000000E+00  0.00000000000E+00 -0.14873110369E+04  0.14873110369E+04  0.50400001928E-02 0.  1.
    10030    2    1    2    0    0  0.00000000000E+00  0.00000000000E+00 -0.11542399881E+04  0.18203820858E+04  0.14076650838E+04 0.  0.
        4    1    3    3  502    0  0.65119073981E+03  0.80822429272E+02 -0.90630544242E+03  0.11189159095E+04  0.12699999809E+01 0. -1.
       -4    1    3    3    0  502 -0.65119073981E+03 -0.80822429272E+02 -0.24793454567E+03  0.70146617632E+03  0.12699999809E+01 0.  1.
</event>
<event>
 5   0  0.5606965E-04  0.1569814E+04  0.7818609E-02  0.8839310E-01
        1   -1    0    0  501    0  0.00000000000E+00  0.00000000000E+00  0.11047208252E+04  0.11047208252E+04  0.50400001928E-02 0.  1.
       -1   -1    0    0    0  501  0.00000000000E+00  0.00000000000E+00 -0.55767838223E+03  0.55767838225E+03  0.50400001928E-02 0. -1.
    10030    2    1    2    0    0  0.00000000000E+00  0.00000000000E+00  0.54704244298E+03  0.16623992075E+04  0.15698139032E+04 0.  0.
        4    1    3    3  502    0 -0.23872907585E+02 -0.31788686746E+03 -0.48603686034E+03  0.58125331718E+03  0.12699999809E+01 0. -1.
       -4    1    3    3    0  502  0.23872907585E+02  0.31788686746E+03  0.10330793033E+04  0.10811458903E+04  0.12699999809E+01 0.  1.
</event>
<event>
 5   0  0.5606965E-04  0.1501633E+04  0.7818609E-02  0.8883368E-01
       -1   -1    0    0    0  501  0.00000000000E+00  0.00000000000E+00  0.38414488327E+03  0.38414488331E+03  0.50400001928E-02 0. -1.
        1   -1    0    0  501    0  0.00000000000E+00  0.00000000000E+00 -0.14674814511E+04  0.14674814511E+04  0.50400001928E-02 0.  1.
    10030    2    1    2    0    0  0.00000000000E+00  0.00000000000E+00 -0.10833365678E+04  0.18516263344E+04  0.15016330987E+04 0.  0.
        4    1    3    3  502    0 -0.10530748901E+03  0.71165139149E+03 -0.27666754877E+03  0.77076839303E+03  0.12699999809E+01 0. -1.
       -4    1    3    3    0  502  0.10530748901E+03 -0.71165139149E+03 -0.80666901907E+03  0.10808579414E+04  0.12699999809E+01 0.  1.
</event>
<event>
 5   0  0.1147755E-03  0.1509091E+04  0.7818609E-02  0.8878430E-01
        2   -1    0    0  501    0  0.00000000000E+00  0.00000000000E+00  0.54613636972E+03  0.54613636973E+03  0.25500000920E-02 0.  1.
       -2   -1    0    0    0  501  0.00000000000E+00  0.00000000000E+00 -0.10424852316E+04  0.10424852316E+04  0.25500000920E-02 0. -1.
    10030    2    1    2    0    0  0.00000000000E+00  0.00000000000E+00 -0.49634886186E+03  0.15886216013E+04  0.15090912496E+04 0.  0.
        4    1    3    3  502    0 -0.18886509082E+03 -0.56849583767E+03  0.23478463798E+03  0.64341509083E+03  0.12699999809E+01 0.  1.
       -4    1    3    3    0  502  0.18886509082E+03  0.56849583767E+03 -0.73113349984E+03  0.94520651049E+03  0.12699999809E+01 0. -1.
</event>
<event>
 5   0  0.6146552E-04  0.1535778E+04  0.7818609E-02  0.8861003E-01
        1   -1    0    0  501    0  0.00000000000E+00  0.00000000000E+00  0.97475647300E+03  0.97475647301E+03  0.50400001928E-02 0. -1.
       -1   -1    0    0    0  501  0.00000000000E+00  0.00000000000E+00 -0.60492409868E+03  0.60492409870E+03  0.50400001928E-02 0.  1.
    10030    2    1    2    0    0  0.00000000000E+00  0.00000000000E+00  0.36983237432E+03  0.15796805717E+04  0.15357782143E+04 0.  0.
        5    1    3    3  502    0  0.88566515136E+02  0.46416002125E+03 -0.43764887601E+03  0.64408631533E+03  0.46999998093E+01 0.  1.
       -5    1    3    3    0  502 -0.88566515136E+02 -0.46416002125E+03  0.80748125033E+03  0.93559425638E+03  0.46999998093E+01 0. -1.
</event>
<event>
 5   0  0.5914645E-04  0.1505230E+04  0.7818609E-02  0.8880982E-01
       -1   -1    0    0    0  501  0.00000000000E+00  0.00000000000E+00  0.37015431916E+03  0.37015431920E+03  0.50400001928E-02 0.  1.
        1   -1    0    0  501    0  0.00000000000E+00  0.00000000000E+00 -0.15302521346E+04  0.15302521346E+04  0.50400001928E-02 0. -1.
    10030    2    1    2    0    0  0.00000000000E+00  0.00000000000E+00 -0.11600978154E+04  0.19004064538E+04  0.15052301313E+04 0.  0.
        2    1    3    3  502    0 -0.10369680853E+03 -0.47092772223E+03  0.14949942970E+03  0.50485248059E+03  0.25500000920E-02 0.  1.
       -2    1    3    3    0  502  0.10369680853E+03  0.47092772223E+03 -0.13095972451E+04  0.13955539732E+04  0.25500000920E-02 0. -1.
</event>
<event>
 5   0  0.5606965E-04  0.1531068E+04  0.7818609E-02  0.8864052E-01
       -1   -1    0    0    0  501  0.00000000000E+00  0.00000000000E+00  0.93974814871E+03  0.93974814872E+03  0.50400001928E-02 0.  1.
        1   -1    0    0  501    0  0.00000000000E+00  0.00000000000E+00 -0.62361650993E+03  0.62361650995E+03  0.50400001928E-02 0. -1.
    10030    2    1    2    0    0  0.00000000000E+00  0.00000000000E+00  0.31613163878E+03  0.15633646587E+04  0.15310682032E+04 0.  0.
        4    1    3    3  502    0  0.38175245612E+03  0.32171454600E+03  0.75065735523E+03  0.90151165534E+03  0.12699999809E+01 0.  1.
       -4    1    3    3    0  502 -0.38175245612E+03 -0.32171454600E+03 -0.43452571645E+03  0.66185300333E+03  0.12699999809E+01 0. -1.
</event>
<event>
 5   0  0.5606965E-04  0.1480251E+04  0.7818609E-02  0.8897693E-01
        1   -1    0    0  501    0  0.00000000000E+00  0.00000000000E+00  0.58487221416E+03  0.58487221419E+03  0.50400001928E-02 0.  1.
       -1   -1    0    0    0  501  0.00000000000E+00  0.00000000000E+00 -0.93659108428E+03  0.93659108429E+03  0.50400001928E-02 0. -1.
    10030    2    1    2    0    0  0.00000000000E+00  0.00000000000E+00 -0.35171887011E+03  0.15214632985E+04  0.14802514668E+04 0.  0.
        4    1    3    3  502    0  0.55467424038E+03  0.27002477630E+03  0.24443533062E+03  0.66357150068E+03  0.12699999809E+01 0.  1.
       -4    1    3    3    0  502 -0.55467424038E+03 -0.27002477630E+03 -0.59615420074E+03  0.85789179779E+03  0.12699999809E+01 0. -1.
</event>
<event>
 5   0  0.1126175E-03  0.1493472E+04  0.7818609E-02  0.8888805E-01
       -2   -1    0    0    0  501  0.00000000000E+00  0.00000000000E+00  0.87326576521E+03  0.87326576521E+03  0.25500000920E-02 0.  1.
        2   -1    0    0  501    0  0.00000000000E+00  0.00000000000E+00 -0.63853984838E+03  0.63853984839E+03  0.25500000920E-02 0. -1.
    10030    2    1    2    0    0  0.00000000000E+00  0.00000000000E+00  0.23472591682E+03  0.15118056136E+04  0.14934724495E+04 0.  0.
        3    1    3    3  502    0 -0.53117929488E+03 -0.13684246286E+02 -0.41374539398E+03  0.67344187808E+03  0.10100000352E+00 0. -1.
       -3    1    3    3    0  502  0.53117929488E+03  0.13684246286E+02  0.64847131080E+03  0.83836373552E+03  0.10100000352E+00 0.  1.
</event>
<event>
 5   0  0.5914645E-04  0.1504378E+04  0.7818609E-02  0.8881547E-01
       -1   -1    0    0    0  501  0.00000000000E+00  0.00000000000E+00  0.45255803683E+03  0.45255803686E+03  0.50400001928E-02 0. -1.
        1   -1    0    0  501    0  0.00000000000E+00  0.00000000000E+00 -0.12502001930E+04  0.12502001930E+04  0.50400001928E-02 0.  1.
    10030    2    1    2    0    0  0.00000000000E+00  0.00000000000E+00 -0.79764215616E+03  0.17027582299E+04  0.15043778050E+04 0.  0.
        2    1    3    3  502    0 -0.21312059235E+03  0.33997085809E+03 -0.11189490104E+04  0.11887167278E+04  0.25500000920E-02 0.  1.
       -2    1    3    3    0  502  0.21312059235E+03 -0.33997085809E+03  0.32130685420E+03  0.51404150203E+03  0.25500000920E-02 0. -1.
</event>
<event>
 5   0  0.1126175E-03  0.1498251E+04  0.7818609E-02  0.8885617E-01
       -2   -1    0    0    0  501  0.00000000000E+00  0.00000000000E+00  0.61638369728E+03  0.61638369728E+03  0.25500000920E-02 0.  1.
        2   -1    0    0  501    0  0.00000000000E+00  0.00000000000E+00 -0.91045457774E+03  0.91045457774E+03  0.25500000920E-02 0. -1.
    10030    2    1    2    0    0  0.00000000000E+00  0.00000000000E+00 -0.29407088046E+03  0.15268382750E+04  0.14982514593E+04 0.  0.
        3    1    3    3  502    0 -0.53497683203E+03 -0.51555920467E+03 -0.49353305404E+02  0.74460544135E+03  0.10100000352E+00 0. -1.
       -3    1    3    3    0  502  0.53497683203E+03  0.51555920467E+03 -0.24471757506E+03  0.78223283367E+03  0.10100000352E+00 0.  1.
</event>
<event>
 5   0  0.6146552E-04  0.1576362E+04  0.7818609E-02  0.8835202E-01
       -1   -1    0    0    0  501  0.00000000000E+00  0.00000000000E+00  0.39387392811E+03  0.39387392814E+03  0.50400001928E-02 0.  1.
        1   -1    0    0  501    0  0.00000000000E+00  0.00000000000E+00 -0.15772296499E+04  0.15772296499E+04  0.50400001928E-02 0. -1.
    10030    2    1    2    0    0  0.00000000000E+00  0.00000000000E+00 -0.11833557217E+04  0.19711035780E+04  0.15763624428E+04 0.  0.
        5    1    3    3  502    0 -0.22380534691E+03  0.74141996578E+03 -0.77466219724E+03  0.10954067778E+04  0.46999998093E+01 0.  1.
       -5    1    3    3    0  502  0.22380534691E+03 -0.74141996578E+03 -0.40869352451E+03  0.87569680023E+03  0.46999998093E+01 0. -1.
</event>
<event>
 5   0  0.1082667E-03  0.1113982E+04  0.7818609E-02  0.9191670E-01
       -2   -1    0    0    0  501  0.00000000000E+00  0.00000000000E+00  0.27456592042E+03  0.27456592043E+03  0.25500000920E-02 0. -1.
        2   -1    0    0  501    0  0.00000000000E+00  0.00000000000E+00 -0.11299253262E+04  0.11299253262E+04  0.25500000920E-02 0.  1.
    10030    2    1    2    0    0  0.00000000000E+00  0.00000000000E+00 -0.85535940579E+03  0.14044912466E+04  0.11139820236E+04 0.  0.
        5    1    3    3  502    0  0.35726751069E+03 -0.42651232068E+03 -0.39519001048E+03  0.68245883998E+03  0.46999998093E+01 0.  1.
       -5    1    3    3    0  502 -0.35726751069E+03  0.42651232068E+03 -0.46016939531E+03  0.72203240666E+03  0.46999998093E+01 0. -1.
</event>
<event>
 5   0  0.5840834E-04  0.1565532E+04  0.7818609E-02  0.8842007E-01
        1   -1    0    0  501    0  0.00000000000E+00  0.00000000000E+00  0.98297803883E+03  0.98297803884E+03  0.50400001928E-02 0.  1.
       -1   -1    0    0    0  501  0.00000000000E+00  0.00000000000E+00 -0.62333293588E+03  0.62333293590E+03  0.50400001928E-02 0. -1.
    10030    2    1    2    0    0  0.00000000000E+00  0.00000000000E+00  0.35964510295E+03  0.16063109747E+04  0.15655319695E+04 0.  0.
        3    1    3    3  502    0 -0.67511704821E+03 -0.36658923826E+03  0.33390708410E+03  0.83765425409E+03  0.10100000352E+00 0. -1.
       -3    1    3    3    0  502  0.67511704821E+03  0.36658923826E+03  0.25738018848E+02  0.76865672065E+03  0.10100000352E+00 0.  1.
</event>
<event>
 5   0  0.6146552E-04  0.1440552E+04  0.7818609E-02  0.8924977E-01
        1   -1    0    0  501    0  0.00000000000E+00  0.00000000000E+00  0.43738646692E+03  0.43738646695E+03  0.50400001928E-02 0. -1.
       -1   -1    0    0    0  501  0.00000000000E+00  0.00000000000E+00 -0.11861312849E+04  0.11861312849E+04  0.50400001928E-02 0.  1.
    10030    2    1    2    0    0  0.00000000000E+00  0.00000000000E+00 -0.74874481799E+03  0.16235177519E+04  0.14405523552E+04 0.  0.
        5    1    3    3  502    0 -0.39644814270E+03 -0.14496646852E+03  0.28335127246E+03  0.50842545220E+03  0.46999998093E+01 0. -1.
       -5    1    3    3    0  502  0.39644814270E+03  0.14496646852E+03 -0.10320960905E+04  0.11150922997E+04  0.46999998093E+01 0.  1.
</event>
<event>
 5   0  0.1082667E-03  0.1506198E+04  0.7818609E-02  0.8880341E-01
       -2   -1    0    0    0  501  0.00000000000E+00  0.00000000000E+00  0.40049235149E+03  0.40049235150E+03  0.25500000920E-02 0.  1.
        2   -1    0    0  501    0  0.00000000000E+00  0.00000000000E+00 -0.14161528970E+04  0.14161528970E+04  0.25500000920E-02 0. -1.
    10030    2    1    2    0    0  0.00000000000E+00  0.00000000000E+00 -0.10156605455E+04  0.18166452485E+04  0.15061983984E+04 0.  0.
        5    1    3    3  502    0 -0.20617419684E+03 -0.52692205980E+03 -0.11072351826E+04  0.12434413923E+04  0.46999998093E+01 0. -1.
       -5    1    3    3    0  502  0.20617419684E+03  0.52692205980E+03  0.91574637124E+02  0.57320385615E+03  0.46999998093E+01 0.  1.
</event>
<event>
 5   0  0.5840834E-04  0.1604305E+04  0.7818609E-02  0.8817908E-01
       -1   -1    0    0    0  501  0.00000000000E+00  0.00000000000E+00  0.55391687810E+03  0.55391687813E+03  0.50400001928E-02 0. -1.
        1   -1    0    0  501    0  0.00000000000E+00  0.00000000000E+00 -0.11616337562E+04  0.11616337562E+04  0.50400001928E-02 0.  1.
    10030    2    1    2    0    0  0.00000000000E+00  0.00000000000E+00 -0.60771687805E+03  0.17155506343E+04  0.16043048884E+04 0.  0.
        3    1    3    3  502    0 -0.72036796763E+03  0.30956481847E+03 -0.12273782175E+03  0.79361512631E+03  0.10100000352E+00 0.  1.
       -3    1    3    3    0  502  0.72036796763E+03 -0.30956481847E+03 -0.48497905631E+03  0.92193550798E+03  0.10100000352E+00 0. -1.
</event>
<event>
 5   0  0.5914645E-04  0.1503882E+04  0.7818609E-02  0.8881875E-01
        1   -1    0    0  501    0  0.00000000000E+00  0.00000000000E+00  0.92789815843E+03  0.92789815844E+03  0.50400001928E-02 0.  1.
       -1   -1    0    0    0  501  0.00000000000E+00  0.00000000000E+00 -0.60935082433E+03  0.60935082436E+03  0.50400001928E-02 0. -1.
    10030    2    1    2    0    0  0.00000000000E+00  0.00000000000E+00  0.31854733409E+03  0.15372489828E+04  0.15038823195E+04 0.  0.
        2    1    3    3  502    0 -0.52425315841E+03 -0.48026180774E+03 -0.90948715565E+02  0.71677363718E+03  0.25500000920E-02 0. -1.
       -2    1    3    3    0  502  0.52425315841E+03  0.48026180774E+03  0.40949604966E+03  0.82047534562E+03  0.25500000920E-02 0.  1.
</event>
<event>
 5   0  0.1097156E-03  0.1505496E+04  0.7818609E-02  0.8880806E-01
       -2   -1    0    0    0  501  0.00000000000E+00  0.00000000000E+00  0.36399269571E+03  0.36399269572E+03  0.25500000920E-02 0.  1.
        2   -1    0    0  501    0  0.00000000000E+00  0.00000000000E+00 -0.15567059990E+04  0.15567059990E+04  0.25500000920E-02 0. -1.
    10030    2    1    2    0    0  0.00000000000E+00  0.00000000000E+00 -0.11927133033E+04  0.19206986947E+04  0.15054960817E+04 0.  0.
        2    1    3    3  502    0 -0.27236026339E+03 -0.55652653045E+03 -0.11417148300E+04  0.12990052522E+04  0.25500000920E-02 0. -1.
       -2    1    3    3    0  502  0.27236026339E+03  0.55652653045E+03 -0.50998473252E+02  0.62169344250E+03  0.25500000920E-02 0.  1.
</event>
<event>
 5   0  0.1097156E-03  0.1922866E+04  0.7818609E-02  0.8643558E-01
        2   -1    0    0  501    0  0.00000000000E+00  0.00000000000E+00  0.79141095188E+03  0.79141095189E+03  0.25500000920E-02 0. -1.
       -2   -1    0    0    0  501  0.00000000000E+00  0.00000000000E+00 -0.11679810787E+04  0.11679810787E+04  0.25500000920E-02 0.  1.
    10030    2    1    2    0    0  0.00000000000E+00  0.00000000000E+00 -0.37657012684E+03  0.19593920306E+04  0.19228655879E+04 0.  0.
        2    1    3    3  502    0  0.68861354616E+03  0.10626161149E+02 -0.87188735529E+03  0.11110756462E+04  0.25500000920E-02 0.  1.
       -2    1    3    3    0  502 -0.68861354616E+03 -0.10626161149E+02  0.49531722845E+03  0.84831638441E+03  0.25500000920E-02 0. -1.
</event>
<event>
 5   0  0.1147755E-03  0.1474400E+04  0.7818609E-02  0.8901657E-01
        2   -1    0    0  501    0  0.00000000000E+00  0.00000000000E+00  0.67993765060E+03  0.67993765060E+03  0.25500000920E-02 0. -1.
       -2   -1    0    0    0  501  0.00000000000E+00  0.00000000000E+00 -0.79928461267E+03  0.79928461267E+03  0.25500000920E-02 0.  1.
    10030    2    1    2    0    0  0.00000000000E+00  0.00000000000E+00 -0.11934696207E+03  0.14792222633E+04  0.14743998124E+04 0.  0.
        4    1    3    3  502    0  0.20979541919E+03 -0.36670805342E+03  0.54643259840E+03  0.69070913694E+03  0.12699999809E+01 0. -1.
       -4    1    3    3    0  502 -0.20979541919E+03  0.36670805342E+03 -0.66577956048E+03  0.78851312634E+03  0.12699999809E+01 0.  1.
</event>
<event>
 5   0  0.1149716E-03  0.1497149E+04  0.7818609E-02  0.8886351E-01
        2   -1    0    0  501    0  0.00000000000E+00  0.00000000000E+00  0.51022224649E+03  0.51022224650E+03  0.25500000920E-02 0. -1.
       -2   -1    0    0    0  501  0.00000000000E+00  0.00000000000E+00 -0.10982743974E+04  0.10982743974E+04  0.25500000920E-02 0.  1.
    10030    2    1    2    0    0  0.00000000000E+00  0.00000000000E+00 -0.58805215093E+03  0.16084966439E+04  0.14971493317E+04 0.  0.
        1    1    3    3  502    0 -0.53659260989E+03  0.36898123314E+03 -0.69065051130E+03  0.94925070881E+03  0.50400001928E-02 0.  1.
       -1    1    3    3    0  502  0.53659260989E+03 -0.36898123314E+03  0.10259836036E+03  0.65924593512E+03  0.50400001928E-02 0. -1.
</event>
<event>
 5   0  0.5914645E-04  0.1431176E+04  0.7818609E-02  0.8931556E-01
        1   -1    0    0  501    0  0.00000000000E+00  0.00000000000E+00  0.17005635727E+04  0.17005635727E+04  0.50400001928E-02 0.  1.
       -1   -1    0    0    0  501  0.00000000000E+00  0.00000000000E+00 -0.30111564219E+03  0.30111564223E+03  0.50400001928E-02 0. -1.
    10030    2    1    2    0    0  0.00000000000E+00  0.00000000000E+00  0.13994479305E+04  0.20016792150E+04  0.14311761490E+04 0.  0.
        2    1    3    3  502    0 -0.68901734460E+03  0.23757067844E+02  0.96786999853E+03  0.11883104113E+04  0.25500000920E-02 0.  1.
       -2    1    3    3    0  502  0.68901734460E+03 -0.23757067844E+02  0.43157793200E+03  0.81336880370E+03  0.25500000920E-02 0. -1.
</event>
<event>
 5   0  0.1147755E-03  0.1530319E+04  0.7818609E-02  0.8864538E-01
       -2   -1    0    0    0  501  0.00000000000E+00  0.00000000000E+00  0.40124287768E+03  0.40124287769E+03  0.25500000920E-02 0.  1.
        2   -1    0    0  501    0  0.00000000000E+00  0.00000000000E+00 -0.14591378731E+04  0.14591378731E+04  0.25500000920E-02 0. -1.
    10030    2    1    2    0    0  0.00000000000E+00  0.00000000000E+00 -0.10578949954E+04  0.18603807508E+04  0.15303185017E+04 0.  0.
        4    1    3    3  502    0  0.56102584453E+03 -0.32785618062E+03 -0.37794803998E+02  0.65089917307E+03  0.12699999809E+01 0. -1.
       -4    1    3    3    0  502 -0.56102584453E+03  0.32785618062E+03 -0.10201001914E+04  0.12094815777E+04  0.12699999809E+01 0.  1.
</event>
<event>
 5   0  0.1126175E-03  0.1392639E+04  0.7818609E-02  0.8959164E-01
        2   -1    0    0  501    0  0.00000000000E+00  0.00000000000E+00  0.66729278827E+03  0.66729278827E+03  0.25500000920E-02 0.  1.
       -2   -1    0    0    0  501  0.00000000000E+00  0.00000000000E+00 -0.72660842051E+03  0.72660842051E+03  0.25500000920E-02 0. -1.
    10030    2    1    2    0    0  0.00000000000E+00  0.00000000000E+00 -0.59315632237E+02  0.13939012088E+04  0.13926385876E+04 0.  0.
        3    1    3    3  502    0  0.28693953622E+03  0.28500150152E+03 -0.59700538752E+03  0.72109333394E+03  0.10100000352E+00 0. -1.
       -3    1    3    3    0  502 -0.28693953622E+03 -0.28500150152E+03  0.53768975528E+03  0.67280787485E+03  0.10100000352E+00 0.  1.
</event>
<event>
 5   0  0.4070625E-04  0.1491029E+04  0.7818609E-02  0.8890441E-01
       -3   -1    0    0    0  501  0.00000000000E+00  0.00000000000E+00  0.38298962685E+03  0.38298964017E+03  0.10100000352E+00 0. -1.
        3   -1    0    0  501    0  0.00000000000E+00  0.00000000000E+00 -0.14511928370E+04  0.14511928405E+04  0.10100000352E+00 0.  1.
    10030    2    1    2    0    0  0.00000000000E+00  0.00000000000E+00 -0.10682032101E+04  0.18341824807E+04  0.14910289314E+04 0.  0.
        5    1    3    3  502    0  0.58695913030E+03  0.89046092236E+02 -0.10887860518E+04  0.12401320026E+04  0.46999998093E+01 0.  1.
       -5    1    3    3    0  502 -0.58695913030E+03 -0.89046092236E+02  0.20582841642E+02  0.59405047812E+03  0.46999998093E+01 0. -1.
</event>
<event>
 5   0  0.4070625E-04  0.1497507E+04  0.7818609E-02  0.8886112E-01
       -3   -1    0    0    0  501  0.00000000000E+00  0.00000000000E+00  0.50483103897E+03  0.50483104908E+03  0.10100000352E+00 0. -1.
        3   -1    0    0  501    0  0.00000000000E+00  0.00000000000E+00 -0.11105341871E+04  0.11105341917E+04  0.10100000352E+00 0.  1.
    10030    2    1    2    0    0  0.00000000000E+00  0.00000000000E+00 -0.60570314812E+03  0.16153652408E+04  0.14975074482E+04 0.  0.
        5    1    3    3  502    0  0.35459566015E+03 -0.23687164354E+03 -0.96672604777E+03  0.10566113756E+04  0.46999998093E+01 0.  1.
       -5    1    3    3    0  502 -0.35459566015E+03  0.23687164354E+03  0.36102289965E+03  0.55875386512E+03  0.46999998093E+01 0. -1.
</event>
<event>
 5   0  0.5840834E-04  0.1515565E+04  0.7818609E-02  0.8874168E-01
        1   -1    0    0  501    0  0.00000000000E+00  0.00000000000E+00  0.46160419209E+03  0.46160419212E+03  0.50400001928E-02 0.  1.
       -1   -1    0    0    0  501  0.00000000000E+00  0.00000000000E+00 -0.12439975011E+04  0.12439975011E+04  0.50400001928E-02 0. -1.
    10030    2    1    2    0    0  0.00000000000E+00  0.00000000000E+00 -0.78239330904E+03  0.17056016933E+04  0.15155651903E+04 0.  0.
        3    1    3    3  502    0 -0.40035194085E+03 -0.26938264481E+02 -0.11146281242E+04  0.11846532033E+04  0.10100000352E+00 0. -1.
       -3    1    3    3    0  502  0.40035194085E+03  0.26938264481E+02  0.33223481512E+03  0.52094848998E+03  0.10100000352E+00 0.  1.
</event>
<event>
 5   0  0.1082667E-03  0.1520263E+04  0.7818609E-02  0.8871089E-01
       -2   -1    0    0    0  501  0.00000000000E+00  0.00000000000E+00  0.39276039535E+03  0.39276039536E+03  0.25500000920E-02 0.  1.
        2   -1    0    0  501    0  0.00000000000E+00  0.00000000000E+00 -0.14711253173E+04  0.14711253173E+04  0.25500000920E-02 0. -1.
    10030    2    1    2    0    0  0.00000000000E+00  0.00000000000E+00 -0.10783649220E+04  0.18638857127E+04  0.15202628210E+04 0.  0.
        5    1    3    3  502    0  0.43843138341E+03 -0.30051847527E+02 -0.12995697929E+04  0.13718705946E+04  0.46999998093E+01 0. -1.
       -5    1    3    3    0  502 -0.43843138341E+03  0.30051847527E+02  0.22120487099E+03  0.49201511810E+03  0.46999998093E+01 0.  1.
</event>
<event>
 5   0  0.5606965E-04  0.1527618E+04  0.7818609E-02  0.8866292E-01
       -1   -1    0    0    0  501  0.00000000000E+00  0.00000000000E+00  0.79901907204E+03  0.79901907206E+03  0.50400001928E-02 0.  1.
        1   -1    0    0  501    0  0.00000000000E+00  0.00000000000E+00 -0.73015047545E+03  0.73015047547E+03  0.50400001928E-02 0. -1.
    10030    2    1    2    0    0  0.00000000000E+00  0.00000000000E+00  0.68868596589E+02  0.15291695475E+04  0.15276179567E+04 0.  0.
        4    1    3    3  502    0  0.61198530461E+03 -0.44489138089E+03 -0.70305569559E+02  0.75986764628E+03  0.12699999809E+01 0. -1.
       -4    1    3    3    0  502 -0.61198530461E+03  0.44489138089E+03  0.13917416615E+03  0.76930190125E+03  0.12699999809E+01 0.  1.
</event>
<event>
 5   0  0.1126175E-03  0.1513097E+04  0.7818609E-02  0.8875790E-01
        2   -1    0    0  501    0  0.00000000000E+00  0.00000000000E+00  0.11969945016E+04  0.11969945016E+04  0.25500000920E-02 0.  1.
       -2   -1    0    0    0  501  0.00000000000E+00  0.00000000000E+00 -0.47816886772E+03  0.47816886773E+03  0.25500000920E-02 0. -1.
    10030    2    1    2    0    0  0.00000000000E+00  0.00000000000E+00  0.71882563387E+03  0.16751633693E+04  0.15130968317E+04 0.  0.
        3    1    3    3  502    0 -0.11728507406E+03 -0.44206191569E+03  0.10266157804E+04  0.11238836668E+04  0.10100000352E+00 0.  1.
       -3    1    3    3    0  502  0.11728507406E+03  0.44206191569E+03 -0.30779014649E+03  0.55127970248E+03  0.10100000352E+00 0. -1.
</event>
<event>
 5   0  0.1097156E-03  0.1526718E+04  0.7818609E-02  0.8866878E-01
        2   -1    0    0  501    0  0.00000000000E+00  0.00000000000E+00  0.12438396943E+04  0.12438396943E+04  0.25500000920E-02 0.  1.
       -2   -1    0    0    0  501  0.00000000000E+00  0.00000000000E+00 -0.46848232188E+03  0.46848232189E+03  0.25500000920E-02 0. -1.
    10030    2    1    2    0    0  0.00000000000E+00  0.00000000000E+00  0.77535737237E+03  0.17123220161E+04  0.15267179281E+04 0.  0.
        2    1    3    3  502    0  0.55098334506E+03 -0.40378850695E+03  0.76981856639E+03  0.10291979547E+04  0.25500000920E-02 0.  1.
       -2    1    3    3    0  502 -0.55098334506E+03  0.40378850695E+03  0.55388059792E+01  0.68312406140E+03  0.25500000920E-02 0. -1.
</event>
<event>
 5   0  0.6146552E-04  0.1449232E+04  0.7818609E-02  0.8918933E-01
       -1   -1    0    0    0  501  0.00000000000E+00  0.00000000000E+00  0.36070887733E+03  0.36070887737E+03  0.50400001928E-02 0.  1.
        1   -1    0    0  501    0  0.00000000000E+00  0.00000000000E+00 -0.14556568625E+04  0.14556568625E+04  0.50400001928E-02 0. -1.
    10030    2    1    2    0    0  0.00000000000E+00  0.00000000000E+00 -0.10949479852E+04  0.18163657399E+04  0.14492320072E+04 0.  0.
        5    1    3    3  502    0  0.25240211014E+03 -0.43007680740E+03 -0.12063648589E+04  0.13053777799E+04  0.46999998093E+01 0. -1.
       -5    1    3    3    0  502 -0.25240211014E+03  0.43007680740E+03  0.11141687376E+03  0.51098795996E+03  0.46999998093E+01 0.  1.
</event>
<event>
 5   0  0.1147755E-03  0.1450547E+04  0.7818609E-02  0.8918021E-01
        2   -1    0    0  501    0  0.00000000000E+00  0.00000000000E+00  0.81608381555E+03  0.81608381555E+03  0.25500000920E-02 0. -1.
       -2   -1    0    0    0  501  0.00000000000E+00  0.00000000000E+00 -0.64456835347E+03  0.64456835347E+03  0.25500000920E-02 0.  1.
    10030    2    1    2    0    0  0.00000000000E+00  0.00000000000E+00  0.17151546208E+03  0.14606521690E+04  0.14505472089E+04 0.  0.
        4    1    3    3  502    0  0.17572678261E+03 -0.12955785762E+03 -0.61069255456E+03  0.64854618162E+03  0.12699999809E+01 0.  1.
       -4    1    3    3    0  502 -0.17572678261E+03  0.12955785762E+03  0.78220801664E+03  0.81210598741E+03  0.12699999809E+01 0. -1.
</event>
<event>
 5   0  0.1082667E-03  0.1506878E+04  0.7818609E-02  0.8879892E-01
       -2   -1    0    0    0  501  0.00000000000E+00  0.00000000000E+00  0.73479040676E+03  0.73479040676E+03  0.25500000920E-02 0.  1.
        2   -1    0    0  501    0  0.00000000000E+00  0.00000000000E+00 -0.77256077593E+03  0.77256077593E+03  0.25500000920E-02 0. -1.
    10030    2    1    2    0    0  0.00000000000E+00  0.00000000000E+00 -0.37770369169E+02  0.15073511827E+04  0.15068778939E+04 0.  0.
        5    1    3    3  502    0 -0.46581096227E+03 -0.12856121094E+03 -0.59711545845E+03  0.76816456456E+03  0.46999998093E+01 0. -1.
       -5    1    3    3    0  502  0.46581096227E+03  0.12856121094E+03  0.55934508928E+03  0.73918661813E+03  0.46999998093E+01 0.  1.
</event>
<event>
 5   0  0.5606965E-04  0.1547785E+04  0.7818609E-02  0.8853284E-01
       -1   -1    0    0    0  501  0.00000000000E+00  0.00000000000E+00  0.56942940700E+03  0.56942940702E+03  0.50400001928E-02 0.  1.
        1   -1    0    0  501    0  0.00000000000E+00  0.00000000000E+00 -0.10517718265E+04  0.10517718266E+04  0.50400001928E-02 0. -1.
    10030    2    1    2    0    0  0.00000000000E+00  0.00000000000E+00 -0.48234241955E+03  0.16212012336E+04  0.15477852661E+04 0.  0.
        4    1    3    3  502    0 -0.60585834450E+03  0.19330616868E+03 -0.70308388368E+03  0.94802962446E+03  0.12699999809E+01 0. -1.
       -4    1    3    3    0  502  0.60585834450E+03 -0.19330616868E+03  0.22074146413E+03  0.67317160913E+03  0.12699999809E+01 0.  1.
</event>
<event>
 5   0  0.1126175E-03  0.1242868E+04  0.7818609E-02  0.9076140E-01
       -2   -1    0    0    0  501  0.00000000000E+00  0.00000000000E+00  0.21610506435E+03  0.21610506437E+03  0.25500000920E-02 0.  1.
        2   -1    0    0  501    0  0.00000000000E+00  0.00000000000E+00 -0.17870019992E+04  0.17870019992E+04  0.25500000920E-02 0. -1.
    10030    2    1    2    0    0  0.00000000000E+00  0.00000000000E+00 -0.15708969348E+04  0.20031070635E+04  0.12428679448E+04 0.  0.
        3    1    3    3  502    0  0.27661218055E+02 -0.66474435448E+02 -0.17802569619E+04  0.17817123376E+04  0.10100000352E+00 0. -1.
       -3    1    3    3    0  502 -0.27661218055E+02  0.66474435448E+02  0.20936002703E+03  0.22139472594E+03  0.10100000352E+00 0.  1.
</event>
<event>
 5   0  0.4070625E-04  0.1094446E+04  0.7818609E-02  0.9210622E-01
       -3   -1    0    0    0  501  0.00000000000E+00  0.00000000000E+00  0.19838982980E+03  0.19838985551E+03  0.10100000352E+00 0. -1.
        3   -1    0    0  501    0  0.00000000000E+00  0.00000000000E+00 -0.15094167457E+04  0.15094167491E+04  0.10100000352E+00 0.  1.
    10030    2    1    2    0    0  0.00000000000E+00  0.00000000000E+00 -0.13110269159E+04  0.17078066046E+04  0.10944458984E+04 0.  0.
        4    1    3    3  502    0 -0.31561778567E+03  0.22029289877E+03 -0.48532533937E+02  0.38794402641E+03  0.12699999809E+01 0. -1.
       -4    1    3    3    0  502  0.31561778567E+03 -0.22029289877E+03 -0.12624943820E+04  0.13198625782E+04  0.12699999809E+01 0.  1.
</event>
<event>
 5   0  0.5840834E-04  0.1463861E+04  0.7818609E-02  0.8908847E-01
       -1   -1    0    0    0  501  0.00000000000E+00  0.00000000000E+00  0.39052073353E+03  0.39052073357E+03  0.50400001928E-02 0. -1.
        1   -1    0    0  501    0  0.00000000000E+00  0.00000000000E+00 -0.13718160355E+04  0.13718160355E+04  0.50400001928E-02 0.  1.
    10030    2    1    2    0    0  0.00000000000E+00  0.00000000000E+00 -0.98129530196E+03  0.17623367691E+04  0.14638614750E+04 0.  0.
        3    1    3    3  502    0 -0.95461866689E+02 -0.16838159475E+02  0.38275876003E+03  0.39484271576E+03  0.10100000352E+00 0. -1.
       -3    1    3    3    0  502  0.95461866689E+02  0.16838159475E+02 -0.13640540620E+04  0.13674940533E+04  0.10100000352E+00 0.  1.
</event>
<event>
 5   0  0.5840834E-04  0.1479248E+04  0.7818609E-02  0.8898371E-01
        1   -1    0    0  501    0  0.00000000000E+00  0.00000000000E+00  0.26535833095E+04  0.26535833095E+04  0.50400001928E-02 0.  1.
       -1   -1    0    0    0  501  0.00000000000E+00  0.00000000000E+00 -0.20615272633E+03  0.20615272639E+03  0.50400001928E-02 0. -1.
    10030    2    1    2    0    0  0.00000000000E+00  0.00000000000E+00  0.24474305831E+04  0.28597360359E+04  0.14792476924E+04 0.  0.
        3    1    3    3  502    0  0.28694951435E+03 -0.48199180453E+03  0.29176823105E+03  0.63228540570E+03  0.10100000352E+00 0. -1.
       -3    1    3    3    0  502 -0.28694951435E+03  0.48199180453E+03  0.21556623521E+04  0.22274506302E+04  0.10100000352E+00 0.  1.
</event>
<event>
 5   0  0.5924403E-04  0.1499987E+04  0.7818609E-02  0.8884462E-01
       -1   -1    0    0    0  501  0.00000000000E+00  0.00000000000E+00  0.55225264935E+03  0.55225264937E+03  0.50400001928E-02 0.  1.
        1   -1    0    0  501    0  0.00000000000E+00  0.00000000000E+00 -0.10185376879E+04  0.10185376879E+04  0.50400001928E-02 0. -1.
    10030    2    1    2    0    0  0.00000000000E+00  0.00000000000E+00 -0.46628503857E+03  0.15707903373E+04  0.14999868488E+04 0.  0.
        1    1    3    3  502    0  0.82887163370E+02 -0.37661309639E+03  0.44048030323E+03  0.58543198049E+03  0.50400001928E-02 0.  1.
       -1    1    3    3    0  502 -0.82887163370E+02  0.37661309639E+03 -0.90676534180E+03  0.98535835681E+03  0.50400001928E-02 0. -1.
</event>
<event>
 5   0  0.1126175E-03  0.1462750E+04  0.7818609E-02  0.8909609E-01
        2   -1    0    0  501    0  0.00000000000E+00  0.00000000000E+00  0.13037455430E+04  0.13037455430E+04  0.25500000920E-02 0. -1.
       -2   -1    0    0    0  501  0.00000000000E+00  0.00000000000E+00 -0.41028654283E+03  0.41028654283E+03  0.25500000920E-02 0.  1.
    10030    2    1    2    0    0  0.00000000000E+00  0.00000000000E+00  0.89345900020E+03  0.17140320859E+04  0.14627498099E+04 0.  0.
        3    1    3    3  502    0  0.40625714361E+03 -0.25839775220E+03  0.10918461728E+04  0.11932905516E+04  0.10100000352E+00 0. -1.
       -3    1    3    3    0  502 -0.40625714361E+03  0.25839775220E+03 -0.19838717265E+03  0.52074153430E+03  0.10100000352E+00 0.  1.
</event>
<event>
 5   0  0.4070625E-04  0.1549706E+04  0.7818609E-02  0.8852055E-01
        3   -1    0    0  501    0  0.00000000000E+00  0.00000000000E+00  0.43132798449E+03  0.43132799631E+03  0.10100000352E+00 0. -1.
       -3   -1    0    0    0  501  0.00000000000E+00  0.00000000000E+00 -0.13919741363E+04  0.13919741400E+04  0.10100000352E+00 0.  1.
    10030    2    1    2    0    0  0.00000000000E+00  0.00000000000E+00 -0.96064615181E+03  0.18233021363E+04  0.15497063113E+04 0.  0.
        3    1    3    3  502    0 -0.35373661561E+03  0.47146208939E+02 -0.12895316722E+04  0.13380001128E+04  0.10100000352E+00 0.  1.
       -3    1    3    3    0  502  0.35373661561E+03 -0.47146208939E+02  0.32888552036E+03  0.48530202343E+03  0.10100000352E+00 0. -1.
</event>
<event>
 5   0  0.1126175E-03  0.1493455E+04  0.7818609E-02  0.8888817E-01
       -2   -1    0    0    0  501  0.00000000000E+00  0.00000000000E+00  0.36662750724E+03  0.36662750725E+03  0.25500000920E-02 0.  1.
        2   -1    0    0  501    0  0.00000000000E+00  0.00000000000E+00 -0.15208957007E+04  0.15208957008E+04  0.25500000920E-02 0. -1.
    10030    2    1    2    0    0  0.00000000000E+00  0.00000000000E+00 -0.11542681935E+04  0.18875232080E+04  0.14934553218E+04 0.  0.
        3    1    3    3  502    0  0.42679524820E+03  0.86139589456E+02 -0.13438606118E+04  0.14126342651E+04  0.10100000352E+00 0. -1.
       -3    1    3    3    0  502 -0.42679524820E+03 -0.86139589456E+02  0.18959241834E+03  0.47488894286E+03  0.10100000352E+00 0.  1.
</event>
<event>
 5   0  0.1082667E-03  0.1501207E+04  0.7818609E-02  0.8883650E-01
        2   -1    0    0  501    0  0.00000000000E+00  0.00000000000E+00  0.12553962462E+04  0.12553962462E+04  0.25500000920E-02 0.  1.
       -2   -1    0    0    0  501  0.00000000000E+00  0.00000000000E+00 -0.44878735032E+03  0.44878735033E+03  0.25500000920E-02 0. -1.
    10030    2    1    2    0    0  0.00000000000E+00  0.00000000000E+00  0.80660889591E+03  0.17041835966E+04  0.15012074540E+04 0.  0.
        5    1    3    3  502    0  0.70290986253E+03 -0.39057867626E+02  0.69884281531E+03  0.99197336777E+03  0.46999998093E+01 0.  1.
       -5    1    3    3    0  502 -0.70290986253E+03  0.39057867626E+02  0.10776608060E+03  0.71221022879E+03  0.46999998093E+01 0. -1.
</event>
<event>
 5   0  0.5606965E-04  0.1409592E+04  0.7818609E-02  0.8946904E-01
        1   -1    0    0  501    0  0.00000000000E+00  0.00000000000E+00  0.33005045841E+03  0.33005045845E+03  0.50400001928E-02 0. -1.
       -1   -1    0    0    0  501  0.00000000000E+00  0.00000000000E+00 -0.15050350868E+04  0.15050350868E+04  0.50400001928E-02 0.  1.
    10030    2    1    2    0    0  0.00000000000E+00  0.00000000000E+00 -0.11749846284E+04  0.18350855453E+04  0.14095921685E+04 0.  0.
        4    1    3    3  502    0  0.24882394242E+03 -0.39349667194E+03 -0.12763485707E+04  0.13586096835E+04  0.12699999809E+01 0.  1.
       -4    1    3    3    0  502 -0.24882394242E+03  0.39349667194E+03  0.10136394234E+03  0.47647586178E+03  0.12699999809E+01 0. -1.
</event>
<event>
 5   0  0.5606965E-04  0.1491088E+04  0.7818609E-02  0.8890401E-01
       -1   -1    0    0    0  501  0.00000000000E+00  0.00000000000E+00  0.59604179883E+03  0.59604179885E+03  0.50400001928E-02 0.  1.
        1   -1    0    0  501    0  0.00000000000E+00  0.00000000000E+00 -0.93254450294E+03  0.93254450295E+03  0.50400001928E-02 0. -1.
    10030    2    1    2    0    0  0.00000000000E+00  0.00000000000E+00 -0.33650270411E+03  0.15285863018E+04  0.14910875267E+04 0.  0.
        4    1    3    3  502    0 -0.13116769964E+03  0.38417738726E+02  0.58308747029E+03  0.59889356232E+03  0.12699999809E+01 0.  1.
       -4    1    3    3    0  502  0.13116769964E+03 -0.38417738726E+02 -0.91959017440E+03  0.92969273948E+03  0.12699999809E+01 0. -1.
</event>
<event>
 5   0  0.1097156E-03  0.1501696E+04  0.7818609E-02  0.8883326E-01
       -2   -1    0    0    0  501  0.00000000000E+00  0.00000000000E+00  0.64789533288E+03  0.64789533288E+03  0.25500000920E-02 0. -1.
        2   -1    0    0  501    0  0.00000000000E+00  0.00000000000E+00 -0.87016021292E+03  0.87016021292E+03  0.25500000920E-02 0.  1.
    10030    2    1    2    0    0  0.00000000000E+00  0.00000000000E+00 -0.22226488004E+03  0.15180555458E+04  0.15016960289E+04 0.  0.
        2    1    3    3  502    0 -0.31595951074E+03 -0.32573553032E+03  0.49358052459E+03  0.67048921125E+03  0.25500000920E-02 0. -1.
       -2    1    3    3    0  502  0.31595951074E+03  0.32573553032E+03 -0.71584540462E+03  0.84756633455E+03  0.25500000920E-02 0.  1.
</event>
<event>
 5   0  0.1126175E-03  0.1429898E+04  0.7818609E-02  0.8932457E-01
        2   -1    0    0  501    0  0.00000000000E+00  0.00000000000E+00  0.14053692065E+04  0.14053692065E+04  0.25500000920E-02 0. -1.
       -2   -1    0    0    0  501  0.00000000000E+00  0.00000000000E+00 -0.36371365868E+03  0.36371365869E+03  0.25500000920E-02 0.  1.
    10030    2    1    2    0    0  0.00000000000E+00  0.00000000000E+00  0.10416555478E+04  0.17690828652E+04  0.14298978648E+04 0.  0.
        3    1    3    3  502    0 -0.46371668973E+03  0.26426388847E+03  0.11093589873E+04  0.12310751171E+04  0.10100000352E+00 0. -1.
       -3    1    3    3    0  502  0.46371668973E+03 -0.26426388847E+03 -0.67703439478E+02  0.53800774809E+03  0.10100000352E+00 0.  1.
</event>
<event>
 5   0  0.5924403E-04  0.1487112E+04  0.7818609E-02  0.8893069E-01
       -1   -1    0    0    0  501  0.00000000000E+00  0.00000000000E+00  0.16693667116E+04  0.16693667116E+04  0.50400001928E-02 0.  1.
        1   -1    0    0  501    0  0.00000000000E+00  0.00000000000E+00 -0.33118890313E+03  0.33118890317E+03  0.50400001928E-02 0. -1.
    10030    2    1    2    0    0  0.00000000000E+00  0.00000000000E+00  0.13381778085E+04  0.20005556148E+04  0.14871122758E+04 0.  0.
        1    1    3    3  502    0 -0.70751395533E+03 -0.22317676814E+03  0.73624245483E+03  0.10451970241E+04  0.50400001928E-02 0.  1.
       -1    1    3    3    0  502  0.70751395533E+03  0.22317676814E+03  0.60193535363E+03  0.95535859069E+03  0.50400001928E-02 0. -1.
</event>
<event>
 5   0  0.1082667E-03  0.1479706E+04  0.7818609E-02  0.8898061E-01
       -2   -1    0    0    0  501  0.00000000000E+00  0.00000000000E+00  0.21773840844E+03  0.21773840845E+03  0.25500000920E-02 0.  1.
        2   -1    0    0  501    0  0.00000000000E+00  0.00000000000E+00 -0.25139469931E+04  0.25139469931E+04  0.25500000920E-02 0. -1.
    10030    2    1    2    0    0  0.00000000000E+00  0.00000000000E+00 -0.22962085847E+04  0.27316854016E+04  0.14797064806E+04 0.  0.
        5    1    3    3  502    0  0.12550379658E+03 -0.27270070655E+03 -0.23964332407E+04  0.24151669187E+04  0.46999998093E+01 0. -1.
       -5    1    3    3    0  502 -0.12550379658E+03  0.27270070655E+03  0.10022465600E+03  0.31651848284E+03  0.46999998093E+01 0.  1.
</event>
<event>
 5   0  0.5606965E-04  0.1498663E+04  0.7818609E-02  0.8885343E-01
       -1   -1    0    0    0  501  0.00000000000E+00  0.00000000000E+00  0.57112054892E+03  0.57112054894E+03  0.50400001928E-02 0.  1.
        1   -1    0    0  501    0  0.00000000000E+00  0.00000000000E+00 -0.98315041846E+03  0.98315041847E+03  0.50400001928E-02 0. -1.
    10030    2    1    2    0    0  0.00000000000E+00  0.00000000000E+00 -0.41202986954E+03  0.15542709674E+04  0.14986626127E+04 0.  0.
        4    1    3    3  502    0 -0.53533865414E+02  0.73401361897E+03 -0.59882687343E+02  0.73839651727E+03  0.12699999809E+01 0.  1.
       -4    1    3    3    0  502  0.53533865414E+02 -0.73401361897E+03 -0.35214718219E+03  0.81587445015E+03  0.12699999809E+01 0. -1.
</event>
<event>
 5   0  0.6146552E-04  0.1515440E+04  0.7818609E-02  0.8874250E-01
        1   -1    0    0  501    0  0.00000000000E+00  0.00000000000E+00  0.83183142893E+03  0.83183142894E+03  0.50400001928E-02 0.  1.
       -1   -1    0    0    0  501  0.00000000000E+00  0.00000000000E+00 -0.69021190854E+03  0.69021190855E+03  0.50400001928E-02 0. -1.
    10030    2    1    2    0    0  0.00000000000E+00  0.00000000000E+00  0.14161952039E+03  0.15220433375E+04  0.15154404748E+04 0.  0.
        5    1    3    3  502    0 -0.33399744212E+03 -0.63574629111E+02  0.75090251919E+03  0.82430134547E+03  0.46999998093E+01 0.  1.
       -5    1    3    3    0  502  0.33399744212E+03  0.63574629111E+02 -0.60928299880E+03  0.69774199203E+03  0.46999998093E+01 0. -1.
</event>
<event>
 5   0  0.1097156E-03  0.1503725E+04  0.7818609E-02  0.8881980E-01
        2   -1    0    0  501    0  0.00000000000E+00  0.00000000000E+00  0.14613617246E+04  0.14613617246E+04  0.25500000920E-02 0.  1.
       -2   -1    0    0    0  501  0.00000000000E+00  0.00000000000E+00 -0.38682895534E+03  0.38682895535E+03  0.25500000920E-02 0. -1.
    10030    2    1    2    0    0  0.00000000000E+00  0.00000000000E+00  0.10745327693E+04  0.18481906800E+04  0.15037247478E+04 0.  0.
        2    1    3    3  502    0 -0.37494996840E+03 -0.11535257133E+03 -0.25107138161E+03  0.46575801999E+03  0.25500000920E-02 0. -1.
       -2    1    3    3    0  502  0.37494996840E+03  0.11535257133E+03  0.13256041509E+04  0.13824326600E+04  0.25500000920E-02 0.  1.
</event>
<event>
 5   0  0.5924403E-04  0.1475682E+04  0.7818609E-02  0.8900787E-01
       -1   -1    0    0    0  501  0.00000000000E+00  0.00000000000E+00  0.46954760786E+03  0.46954760789E+03  0.50400001928E-02 0.  1.
        1   -1    0    0  501    0  0.00000000000E+00  0.00000000000E+00 -0.11594344911E+04  0.11594344911E+04  0.50400001928E-02 0. -1.
    10030    2    1    2    0    0  0.00000000000E+00  0.00000000000E+00 -0.68988688326E+03  0.16289820990E+04  0.14756824751E+04 0.  0.
        1    1    3    3  502    0  0.38291367613E+03  0.62843188990E+03 -0.40397974795E+03  0.83949339508E+03  0.50400001928E-02 0. -1.
       -1    1    3    3    0  502 -0.38291367613E+03 -0.62843188990E+03 -0.28590713531E+03  0.78948870395E+03  0.50400001928E-02 0.  1.
</event>
<event>
 5   0  0.5914645E-04  0.1182971E+04  0.7818609E-02  0.9127894E-01
       -1   -1    0    0    0  501  0.00000000000E+00  0.00000000000E+00  0.40644434082E+03  0.40644434086E+03  0.50400001928E-02 0.  1.
        1   -1    0    0  501    0  0.00000000000E+00  0.00000000000E+00 -0.86077032268E+03  0.86077032269E+03  0.50400001928E-02 0. -1.
    10030    2    1    2    0    0  0.00000000000E+00  0.00000000000E+00 -0.45432598185E+03  0.12672146635E+04  0.11829712193E+04 0.  0.
        2    1    3    3  502    0 -0.15422404440E+03  0.57083168925E+03 -0.21122554147E+03  0.62789338481E+03  0.25500000920E-02 0. -1.
       -2    1    3    3    0  502  0.15422404440E+03 -0.57083168925E+03 -0.24310044039E+03  0.63932127873E+03  0.25500000920E-02 0.  1.
</event>
<event>
 5   0  0.1082667E-03  0.1508585E+04  0.7818609E-02  0.8878764E-01
        2   -1    0    0  501    0  0.00000000000E+00  0.00000000000E+00  0.11486642819E+04  0.11486642819E+04  0.25500000920E-02 0. -1.
       -2   -1    0    0    0  501  0.00000000000E+00  0.00000000000E+00 -0.49532084975E+03  0.49532084976E+03  0.25500000920E-02 0.  1.
    10030    2    1    2    0    0  0.00000000000E+00  0.00000000000E+00  0.65334343215E+03  0.16439851317E+04  0.15085852554E+04 0.  0.
        5    1    3    3  502    0 -0.14288263948E+03  0.70792555379E+03  0.89512744596E+02  0.72774216575E+03  0.46999998093E+01 0.  1.
       -5    1    3    3    0  502  0.14288263948E+03 -0.70792555379E+03  0.56383068755E+03  0.91624296592E+03  0.46999998093E+01 0. -1.
</event>
<event>
 5   0  0.1147755E-03  0.1514540E+04  0.7818609E-02  0.8874841E-01
        2   -1    0    0  501    0  0.00000000000E+00  0.00000000000E+00  0.87875236152E+03  0.87875236152E+03  0.25500000920E-02 0. -1.
       -2   -1    0    0    0  501  0.00000000000E+00  0.00000000000E+00 -0.65258155342E+03  0.65258155343E+03  0.25500000920E-02 0.  1.
    10030    2    1    2    0    0  0.00000000000E+00  0.00000000000E+00  0.22617080810E+03  0.15313339149E+04  0.15145396412E+04 0.  0.
        4    1    3    3  502    0 -0.63636446413E+03  0.23734607412E+03  0.45170665973E+03  0.81567972235E+03  0.12699999809E+01 0. -1.
       -4    1    3    3    0  502  0.63636446413E+03 -0.23734607412E+03 -0.22553585163E+03  0.71565419260E+03  0.12699999809E+01 0.  1.
</event>
<event>
 5   0  0.5914645E-04  0.1514099E+04  0.7818609E-02  0.8875131E-01
        1   -1    0    0  501    0  0.00000000000E+00  0.00000000000E+00  0.16401553864E+04  0.16401553864E+04  0.50400001928E-02 0. -1.
       -1   -1    0    0    0  501  0.00000000000E+00  0.00000000000E+00 -0.34943257616E+03  0.34943257619E+03  0.50400001928E-02 0.  1.
    10030    2    1    2    0    0  0.00000000000E+00  0.00000000000E+00  0.12907228103E+04  0.19895879626E+04  0.15140987049E+04 0.  0.
        2    1    3    3  502    0  0.35725606345E+03 -0.40212903477E+03 -0.54646525967E+02  0.54067171026E+03  0.25500000920E-02 0.  1.
       -2    1    3    3    0  502 -0.35725606345E+03  0.40212903477E+03  0.13453693362E+04  0.14489162524E+04  0.25500000920E-02 0. -1.
</event>
<event>
 5   0  0.5840834E-04  0.1492434E+04  0.7818609E-02  0.8889500E-01
       -1   -1    0    0    0  501  0.00000000000E+00  0.00000000000E+00  0.42198620027E+03  0.42198620030E+03  0.50400001928E-02 0. -1.
        1   -1    0    0  501    0  0.00000000000E+00  0.00000000000E+00 -0.13195691195E+04  0.13195691195E+04  0.50400001928E-02 0.  1.
    10030    2    1    2    0    0  0.00000000000E+00  0.00000000000E+00 -0.89758291923E+03  0.17415553198E+04  0.14924341979E+04 0.  0.
        3    1    3    3  502    0  0.66244268344E+03  0.27434018267E+03 -0.20752584484E+03  0.74643139748E+03  0.10100000352E+00 0. -1.
       -3    1    3    3    0  502 -0.66244268344E+03 -0.27434018267E+03 -0.69005707438E+03  0.99512392232E+03  0.10100000352E+00 0.  1.
</event>
<event>
 5   0  0.5914645E-04  0.1525813E+04  0.7818609E-02  0.8867467E-01
        1   -1    0    0  501    0  0.00000000000E+00  0.00000000000E+00  0.40669800561E+03  0.40669800564E+03  0.50400001928E-02 0.  1.
       -1   -1    0    0    0  501  0.00000000000E+00  0.00000000000E+00 -0.14311015123E+04  0.14311015123E+04  0.50400001928E-02 0. -1.
    10030    2    1    2    0    0  0.00000000000E+00  0.00000000000E+00 -0.10244035067E+04  0.18377995180E+04  0.15258127420E+04 0.  0.
        2    1    3    3  502    0  0.10740954650E+03 -0.63213382381E+03 -0.10101257239E+04  0.11964463883E+04  0.25500000920E-02 0. -1.
       -2    1    3    3    0  502 -0.10740954650E+03  0.63213382381E+03 -0.14277782776E+02  0.64135312969E+03  0.25500000920E-02 0.  1.
</event>
<event>
 5   0  0.1126175E-03  0.1553264E+04  0.7818609E-02  0.8849785E-01
       -2   -1    0    0    0  501  0.00000000000E+00  0.00000000000E+00  0.40906204705E+03  0.40906204706E+03  0.25500000920E-02 0.  1.
        2   -1    0    0  501    0  0.00000000000E+00  0.00000000000E+00 -0.14744892989E+04  0.14744892989E+04  0.25500000920E-02 0. -1.
    10030    2    1    2    0    0  0.00000000000E+00  0.00000000000E+00 -0.10654272519E+04  0.18835513460E+04  0.15532644475E+04 0.  0.
        3    1    3    3  502    0  0.45646178805E+03  0.25784988252E+03 -0.12275404048E+04  0.13348031247E+04  0.10100000352E+00 0. -1.
       -3    1    3    3    0  502 -0.45646178805E+03 -0.25784988252E+03  0.16211315295E+03  0.54874822134E+03  0.10100000352E+00 0.  1.
</event>
<event>
 5   0  0.4070625E-04  0.1513587E+04  0.7818609E-02  0.8875468E-01
       -3   -1    0    0    0  501  0.00000000000E+00  0.00000000000E+00  0.21558640060E+04  0.21558640084E+04  0.10100000352E+00 0.  1.
        3   -1    0    0  501    0  0.00000000000E+00  0.00000000000E+00 -0.26566428978E+03  0.26566430898E+03  0.10100000352E+00 0. -1.
    10030    2    1    2    0    0  0.00000000000E+00  0.00000000000E+00  0.18901997162E+04  0.24215283174E+04  0.15135866095E+04 0.  0.
        4    1    3    3  502    0 -0.38909853860E+03 -0.34546566925E+03  0.65917902470E+02  0.52449116688E+03  0.12699999809E+01 0. -1.
       -4    1    3    3    0  502  0.38909853860E+03  0.34546566925E+03  0.18242818138E+04  0.18970371505E+04  0.12699999809E+01 0.  1.
</event>
<event>
 5   0  0.5606965E-04  0.1488779E+04  0.7818609E-02  0.8891949E-01
        1   -1    0    0  501    0  0.00000000000E+00  0.00000000000E+00  0.52493417177E+03  0.52493417180E+03  0.50400001928E-02 0. -1.
       -1   -1    0    0    0  501  0.00000000000E+00  0.00000000000E+00 -0.10555903167E+04  0.10555903167E+04  0.50400001928E-02 0.  1.
    10030    2    1    2    0    0  0.00000000000E+00  0.00000000000E+00 -0.53065614494E+03  0.15805244885E+04  0.14887785983E+04 0.  0.
        4    1    3    3  502    0  0.16667309993E+03  0.65235166131E+02  0.50174885390E+03  0.53271856963E+03  0.12699999809E+01 0. -1.
       -4    1    3    3    0  502 -0.16667309993E+03 -0.65235166131E+02 -0.10324049988E+04  0.10478059189E+04  0.12699999809E+01 0.  1.
</event>
<event>
 5   0  0.5840834E-04  0.1531676E+04  0.7818609E-02  0.8863658E-01
        1   -1    0    0  501    0  0.00000000000E+00  0.00000000000E+00  0.74970873541E+03  0.74970873543E+03  0.50400001928E-02 0.  1.
       -1   -1    0    0    0  501  0.00000000000E+00  0.00000000000E+00 -0.78231411880E+03  0.78231411882E+03  0.50400001928E-02 0. -1.
    10030    2    1    2    0    0  0.00000000000E+00  0.00000000000E+00 -0.32605383389E+02  0.15320228542E+04  0.15316758518E+04 0.  0.
        3    1    3    3  502    0  0.32237621521E+03 -0.60394291545E+03 -0.35965039624E+03  0.77331874862E+03  0.10100000352E+00 0.  1.
       -3    1    3    3    0  502 -0.32237621521E+03  0.60394291545E+03  0.32704501285E+03  0.75870410562E+03  0.10100000352E+00 0. -1.
</event>
<event>
 5   0  0.1149716E-03  0.1499673E+04  0.7818609E-02  0.8884670E-01
        2   -1    0    0  501    0  0.00000000000E+00  0.00000000000E+00  0.14954509465E+04  0.14954509465E+04  0.25500000920E-02 0. -1.
       -2   -1    0    0    0  501  0.00000000000E+00  0.00000000000E+00 -0.37597678434E+03  0.37597678434E+03  0.25500000920E-02 0.  1.
    10030    2    1    2    0    0  0.00000000000E+00  0.00000000000E+00  0.11194741622E+04  0.18714277309E+04  0.14996730817E+04 0.  0.
        1    1    3    3  502    0 -0.53236793204E+03 -0.17714539134E+03  0.11805029881E+04  0.13070514182E+04  0.50400001928E-02 0. -1.
       -1    1    3    3    0  502  0.53236793204E+03  0.17714539134E+03 -0.61028825915E+02  0.56437631272E+03  0.50400001928E-02 0.  1.
</event>
<event>
 5   0  0.5924403E-04  0.1492285E+04  0.7818609E-02  0.8889600E-01
        1   -1    0    0  501    0  0.00000000000E+00  0.00000000000E+00  0.10033270082E+04  0.10033270082E+04  0.50400001928E-02 0. -1.
       -1   -1    0    0    0  501  0.00000000000E+00  0.00000000000E+00 -0.55488222482E+03  0.55488222484E+03  0.50400001928E-02 0.  1.
    10030    2    1    2    0    0  0.00000000000E+00  0.00000000000E+00  0.44844478335E+03  0.15582092330E+04  0.14922845875E+04 0.  0.
        1    1    3    3  502    0 -0.48518954646E+03  0.15987528009E+02  0.81587912020E+03  0.94938044842E+03  0.50400001928E-02 0. -1.
       -1    1    3    3    0  502  0.48518954646E+03 -0.15987528009E+02 -0.36743433685E+03  0.60882878460E+03  0.50400001928E-02 0.  1.
</event>
<event>
 5   0  0.1126175E-03  0.1512269E+04  0.7818609E-02  0.8876335E-01
        2   -1    0    0  501    0  0.00000000000E+00  0.00000000000E+00  0.17776043439E+04  0.17776043439E+04  0.25500000920E-02 0. -1.
       -2   -1    0    0    0  501  0.00000000000E+00  0.00000000000E+00 -0.32163458351E+03  0.32163458352E+03  0.25500000920E-02 0.  1.
    10030    2    1    2    0    0  0.00000000000E+00  0.00000000000E+00  0.14559697603E+04  0.20992389274E+04  0.15122685381E+04 0.  0.
        3    1    3    3  502    0  0.55178131971E+03 -0.72224766511E+02  0.17371620914E+02  0.55675921644E+03  0.10100000352E+00 0.  1.
       -3    1    3    3    0  502 -0.55178131971E+03  0.72224766511E+02  0.14385981394E+04  0.15424797109E+04  0.10100000352E+00 0. -1.
</event>
<event>
 5   0  0.1082667E-03  0.1455898E+04  0.7818609E-02  0.8914322E-01
        2   -1    0    0  501    0  0.00000000000E+00  0.00000000000E+00  0.12292360504E+04  0.12292360504E+04  0.25500000920E-02 0.  1.
       -2   -1    0    0    0  501  0.00000000000E+00  0.00000000000E+00 -0.43108884131E+03  0.43108884131E+03  0.25500000920E-02 0. -1.
    10030    2    1    2    0    0  0.00000000000E+00  0.00000000000E+00  0.79814720910E+03  0.16603248917E+04  0.14558982721E+04 0.  0.
        5    1    3    3  502    0  0.12652910215E+03 -0.42226129927E+03  0.10597000657E+04  0.11477371379E+04  0.46999998093E+01 0.  1.
       -5    1    3    3    0  502 -0.12652910215E+03  0.42226129927E+03 -0.26155285659E+03  0.51258775380E+03  0.46999998093E+01 0. -1.
</event>
<event>
 5   0  0.1147755E-03  0.1488664E+04  0.7818609E-02  0.8892027E-01
       -2   -1    0    0    0  501  0.00000000000E+00  0.00000000000E+00  0.12157170533E+04  0.12157170533E+04  0.25500000920E-02 0.  1.
        2   -1    0    0  501    0  0.00000000000E+00  0.00000000000E+00 -0.45572277524E+03  0.45572277525E+03  0.25500000920E-02 0. -1.
    10030    2    1    2    0    0  0.00000000000E+00  0.00000000000E+00  0.75999427808E+03  0.16714398286E+04  0.14886637625E+04 0.  0.
        4    1    3    3  502    0 -0.60732802911E+03 -0.26167297394E+03  0.76356739311E+03  0.10101271489E+04  0.12699999809E+01 0.  1.
       -4    1    3    3    0  502  0.60732802911E+03  0.26167297394E+03 -0.35731150339E+01  0.66131267967E+03  0.12699999809E+01 0. -1.
</event>
<event>
 5   0  0.5840834E-04  0.1466695E+04  0.7818609E-02  0.8906908E-01
       -1   -1    0    0    0  501  0.00000000000E+00  0.00000000000E+00  0.59152949786E+03  0.59152949788E+03  0.50400001928E-02 0.  1.
        1   -1    0    0  501    0  0.00000000000E+00  0.00000000000E+00 -0.90916550806E+03  0.90916550808E+03  0.50400001928E-02 0. -1.
    10030    2    1    2    0    0  0.00000000000E+00  0.00000000000E+00 -0.31763601020E+03  0.15006950060E+04  0.14666945374E+04 0.  0.
        3    1    3    3  502    0  0.66626285908E+03  0.30421487343E+03 -0.12128913313E+03  0.74240416932E+03  0.10100000352E+00 0.  1.
       -3    1    3    3    0  502 -0.66626285908E+03 -0.30421487343E+03 -0.19634687708E+03  0.75829083665E+03  0.10100000352E+00 0. -1.
</event>
<event>
 5   0  0.1147755E-03  0.1499652E+04  0.7818609E-02  0.8884684E-01
        2   -1    0    0  501    0  0.00000000000E+00  0.00000000000E+00  0.90438188851E+03  0.90438188852E+03  0.25500000920E-02 0. -1.
       -2   -1    0    0    0  501  0.00000000000E+00  0.00000000000E+00 -0.62168351237E+03  0.62168351238E+03  0.25500000920E-02 0.  1.
    10030    2    1    2    0    0  0.00000000000E+00  0.00000000000E+00  0.28269837614E+03  0.15260654009E+04  0.14996523717E+04 0.  0.
        4    1    3    3  502    0  0.20457737963E+03  0.66998114950E+03  0.41347461807E+03  0.81344300208E+03  0.12699999809E+01 0. -1.
       -4    1    3    3    0  502 -0.20457737963E+03 -0.66998114950E+03 -0.13077624193E+03  0.71262239882E+03  0.12699999809E+01 0.  1.
</event>
<event>
 5   0  0.6146552E-04  0.1514033E+04  0.7818609E-02  0.8875174E-01
       -1   -1    0    0    0  501  0.00000000000E+00  0.00000000000E+00  0.64280788571E+03  0.64280788573E+03  0.50400001928E-02 0.  1.
        1   -1    0    0  501    0  0.00000000000E+00  0.00000000000E+00 -0.89151704448E+03  0.89151704450E+03  0.50400001928E-02 0. -1.
    10030    2    1    2    0    0  0.00000000000E+00  0.00000000000E+00 -0.24870915877E+03  0.15343249302E+04  0.15140332711E+04 0.  0.
        5    1    3    3  502    0  0.61512033612E+03 -0.34549708612E+03 -0.40246076314E+03  0.81224258709E+03  0.46999998093E+01 0. -1.
       -5    1    3    3    0  502 -0.61512033612E+03  0.34549708612E+03  0.15375160437E+03  0.72208234313E+03  0.46999998093E+01 0.  1.
</event>
<event>
 5   0  0.1149716E-03  0.1430153E+04  0.7818609E-02  0.8932277E-01
       -2   -1    0    0    0  501  0.00000000000E+00  0.00000000000E+00  0.79729408085E+03  0.79729408086E+03  0.25500000920E-02 0.  1.
        2   -1    0    0  501    0  0.00000000000E+00  0.00000000000E+00 -0.64133701902E+03  0.64133701903E+03  0.25500000920E-02 0. -1.
    10030    2    1    2    0    0  0.00000000000E+00  0.00000000000E+00  0.15595706183E+03  0.14386310999E+04  0.14301527319E+04 0.  0.
        1    1    3    3  502    0  0.28264693350E+00 -0.19996036160E+03  0.76859792857E+03  0.79418322944E+03  0.50400001928E-02 0.  1.
       -1    1    3    3    0  502 -0.28264693350E+00  0.19996036160E+03 -0.61264086674E+03  0.64444787045E+03  0.50400001928E-02 0. -1.
</event>
<event>
 5   0  0.5914645E-04  0.1493470E+04  0.7818609E-02  0.8888807E-01
       -1   -1    0    0    0  501  0.00000000000E+00  0.00000000000E+00  0.32005147549E+03  0.32005147553E+03  0.50400001928E-02 0. -1.
        1   -1    0    0  501    0  0.00000000000E+00  0.00000000000E+00 -0.17422600142E+04  0.17422600142E+04  0.50400001928E-02 0.  1.
    10030    2    1    2    0    0  0.00000000000E+00  0.00000000000E+00 -0.14222085387E+04  0.20623114897E+04  0.14934696358E+04 0.  0.
        2    1    3    3  502    0  0.25413223449E+03 -0.31757051765E+03  0.15366419619E+03  0.43479525237E+03  0.25500000920E-02 0. -1.
       -2    1    3    3    0  502 -0.25413223449E+03  0.31757051765E+03 -0.15758727349E+04  0.16275162373E+04  0.25500000920E-02 0.  1.
</event>
<event>
 5   0  0.4070625E-04  0.1485443E+04  0.7818609E-02  0.8894191E-01
       -4   -1    0    0    0  501  0.00000000000E+00  0.00000000000E+00  0.10069955802E+04  0.10069963811E+04  0.12699999809E+01 0. -1.
        4   -1    0    0  501    0  0.00000000000E+00  0.00000000000E+00 -0.54780134303E+03  0.54780281519E+03  0.12699999809E+01 0.  1.
    10030    2    1    2    0    0  0.00000000000E+00  0.00000000000E+00  0.45919423719E+03  0.15547991963E+04  0.14854430966E+04 0.  0.
        2    1    3    3  502    0  0.43563609542E+02  0.73816927593E+03  0.30244279512E+03  0.79891383286E+03  0.25500000920E-02 0.  1.
       -2    1    3    3    0  502 -0.43563609542E+02 -0.73816927593E+03  0.15675144207E+03  0.75588536340E+03  0.25500000920E-02 0. -1.
</event>
<event>
 5   0  0.5840834E-04  0.1446123E+04  0.7818609E-02  0.8921092E-01
        1   -1    0    0  501    0  0.00000000000E+00  0.00000000000E+00  0.12401614320E+04  0.12401614320E+04  0.50400001928E-02 0.  1.
       -1   -1    0    0    0  501  0.00000000000E+00  0.00000000000E+00 -0.42157270159E+03  0.42157270162E+03  0.50400001928E-02 0. -1.
    10030    2    1    2    0    0  0.00000000000E+00  0.00000000000E+00  0.81858873043E+03  0.16617341336E+04  0.14461233769E+04 0.  0.
        3    1    3    3  502    0  0.30709527187E+03 -0.44805199985E+03  0.95769129077E+03  0.11010134964E+04  0.10100000352E+00 0.  1.
       -3    1    3    3    0  502 -0.30709527187E+03  0.44805199985E+03 -0.13910256035E+03  0.56072063727E+03  0.10100000352E+00 0. -1.
</event>
<event>
 5   0  0.5840834E-04  0.1447790E+04  0.7818609E-02  0.8919934E-01
       -1   -1    0    0    0  501  0.00000000000E+00  0.00000000000E+00  0.53206092980E+03  0.53206092982E+03  0.50400001928E-02 0.  1.
        1   -1    0    0  501    0  0.00000000000E+00  0.00000000000E+00 -0.98489509813E+03  0.98489509814E+03  0.50400001928E-02 0. -1.
    10030    2    1    2    0    0  0.00000000000E+00  0.00000000000E+00 -0.45283416833E+03  0.15169560280E+04  0.14477903186E+04 0.  0.
        3    1    3    3  502    0  0.37573674736E+03 -0.13578368291E+03  0.40608476475E+03  0.56966670802E+03  0.10100000352E+00 0.  1.
       -3    1    3    3    0  502 -0.37573674736E+03  0.13578368291E+03 -0.85891893308E+03  0.94728931994E+03  0.10100000352E+00 0. -1.
</event>
<event>
 5   0  0.4070625E-04  0.1558696E+04  0.7818609E-02  0.8846332E-01
       -3   -1    0    0    0  501  0.00000000000E+00  0.00000000000E+00  0.71708053710E+03  0.71708054422E+03  0.10100000352E+00 0. -1.
        3   -1    0    0  501    0  0.00000000000E+00  0.00000000000E+00 -0.84702268170E+03  0.84702268772E+03  0.10100000352E+00 0.  1.
    10030    2    1    2    0    0  0.00000000000E+00  0.00000000000E+00 -0.12994214460E+03  0.15641032319E+04  0.15586962370E+04 0.  0.
        5    1    3    3  502    0  0.53973376997E+03  0.56188386612E+03 -0.83347938092E+02  0.78357832425E+03  0.46999998093E+01 0.  1.
       -5    1    3    3    0  502 -0.53973376997E+03 -0.56188386612E+03 -0.46594206504E+02  0.78052490769E+03  0.46999998093E+01 0. -1.
</event>
<event>
 5   0  0.5840834E-04  0.1471756E+04  0.7818609E-02  0.8903455E-01
       -1   -1    0    0    0  501  0.00000000000E+00  0.00000000000E+00  0.32112403742E+03  0.32112403746E+03  0.50400001928E-02 0.  1.
        1   -1    0    0  501    0  0.00000000000E+00  0.00000000000E+00 -0.16863163561E+04  0.16863163562E+04  0.50400001928E-02 0. -1.
    10030    2    1    2    0    0  0.00000000000E+00  0.00000000000E+00 -0.13651923187E+04  0.20074403936E+04  0.14717563884E+04 0.  0.
        3    1    3    3  502    0  0.61256599235E+03 -0.39513424407E+03 -0.54518926387E+03  0.91027441437E+03  0.10100000352E+00 0.  1.
       -3    1    3    3    0  502 -0.61256599235E+03  0.39513424407E+03 -0.82000305486E+03  0.10971659792E+04  0.10100000352E+00 0. -1.
</event>
<event>
 5   0  0.5914645E-04  0.1501011E+04  0.7818609E-02  0.8883781E-01
        1   -1    0    0  501    0  0.00000000000E+00  0.00000000000E+00  0.13511665789E+04  0.13511665789E+04  0.50400001928E-02 0.  1.
       -1   -1    0    0    0  501  0.00000000000E+00  0.00000000000E+00 -0.41686813402E+03  0.41686813405E+03  0.50400001928E-02 0. -1.
    10030    2    1    2    0    0  0.00000000000E+00  0.00000000000E+00  0.93429844491E+03  0.17680347130E+04  0.15010107135E+04 0.  0.
        2    1    3    3  502    0 -0.61761324253E+03 -0.24570976238E+03  0.87762343894E+03  0.11009279292E+04  0.25500000920E-02 0.  1.
       -2    1    3    3    0  502  0.61761324253E+03  0.24570976238E+03  0.56675005967E+02  0.66710678380E+03  0.25500000920E-02 0. -1.
</event>
<event>
 5   0  0.6146552E-04  0.1335809E+04  0.7818609E-02  0.9001640E-01
       -1   -1    0    0    0  501  0.00000000000E+00  0.00000000000E+00  0.16328494767E+04  0.16328494767E+04  0.50400001928E-02 0.  1.
        1   -1    0    0  501    0  0.00000000000E+00  0.00000000000E+00 -0.27320129611E+03  0.27320129616E+03  0.50400001928E-02 0. -1.
    10030    2    1    2    0    0  0.00000000000E+00  0.00000000000E+00  0.13596481806E+04  0.19060507728E+04  0.13358092580E+04 0.  0.
        5    1    3    3  502    0  0.48492051860E+03 -0.45155219286E+03  0.56021022649E+03  0.86770091627E+03  0.46999998093E+01 0. -1.
       -5    1    3    3    0  502 -0.48492051860E+03  0.45155219286E+03  0.79943795407E+03  0.10383498566E+04  0.46999998093E+01 0.  1.
</event>
<event>
 5   0  0.4070625E-04  0.1502954E+04  0.7818609E-02  0.8882491E-01
        4   -1    0    0  501    0  0.00000000000E+00  0.00000000000E+00  0.71591216554E+03  0.71591329200E+03  0.12699999809E+01 0.  1.
       -4   -1    0    0    0  501  0.00000000000E+00  0.00000000000E+00 -0.78880650157E+03  0.78880752394E+03  0.12699999809E+01 0. -1.
    10030    2    1    2    0    0  0.00000000000E+00  0.00000000000E+00 -0.72894336037E+02  0.15047208159E+04  0.15029541409E+04 0.  0.
        2    1    3    3  502    0 -0.63590725876E+03 -0.39998695111E+03 -0.55182385318E+02  0.75326801237E+03  0.25500000920E-02 0. -1.
       -2    1    3    3    0  502  0.63590725876E+03  0.39998695111E+03 -0.17711950719E+02  0.75145280358E+03  0.25500000920E-02 0.  1.
</event>
<event>
 5   0  0.4070625E-04  0.1507638E+04  0.7818609E-02  0.8879389E-01
       -3   -1    0    0    0  501  0.00000000000E+00  0.00000000000E+00  0.82904061489E+03  0.82904062104E+03  0.10100000352E+00 0.  1.
        3   -1    0    0  501    0  0.00000000000E+00  0.00000000000E+00 -0.68542286507E+03  0.68542287251E+03  0.10100000352E+00 0. -1.
    10030    2    1    2    0    0  0.00000000000E+00  0.00000000000E+00  0.14361774981E+03  0.15144634935E+04  0.15076384232E+04 0.  0.
        4    1    3    3  502    0  0.18819675688E+03 -0.53337590024E+03 -0.42877820277E+03  0.70976068525E+03  0.12699999809E+01 0. -1.
       -4    1    3    3    0  502 -0.18819675688E+03  0.53337590024E+03  0.57239595258E+03  0.80470280830E+03  0.12699999809E+01 0.  1.
</event>
<event>
 5   0  0.1149716E-03  0.1533149E+04  0.7818609E-02  0.8862703E-01
        2   -1    0    0  501    0  0.00000000000E+00  0.00000000000E+00  0.21406512072E+04  0.21406512072E+04  0.25500000920E-02 0. -1.
       -2   -1    0    0    0  501  0.00000000000E+00  0.00000000000E+00 -0.27451310760E+03  0.27451310761E+03  0.25500000920E-02 0.  1.
    10030    2    1    2    0    0  0.00000000000E+00  0.00000000000E+00  0.18661380996E+04  0.24151643148E+04  0.15331494581E+04 0.  0.
        1    1    3    3  502    0 -0.71181442256E+03  0.10126461338E+03  0.13519394187E+04  0.15312329954E+04  0.50400001928E-02 0. -1.
       -1    1    3    3    0  502  0.71181442256E+03 -0.10126461338E+03  0.51419868086E+03  0.88393131946E+03  0.50400001928E-02 0.  1.
</event>
<event>
 5   0  0.5924403E-04  0.1496173E+04  0.7818609E-02  0.8887002E-01
       -1   -1    0    0    0  501  0.00000000000E+00  0.00000000000E+00  0.14014184254E+04  0.14014184255E+04  0.50400001928E-02 0. -1.
        1   -1    0    0  501    0  0.00000000000E+00  0.00000000000E+00 -0.39933350217E+03  0.39933350220E+03  0.50400001928E-02 0.  1.
    10030    2    1    2    0    0  0.00000000000E+00  0.00000000000E+00  0.10020849233E+04  0.18007519277E+04  0.14961728882E+04 0.  0.
        1    1    3    3  502    0 -0.12771043513E+03  0.60719958401E+03 -0.19182577516E+01  0.62048768706E+03  0.50400001928E-02 0.  1.
       -1    1    3    3    0  502  0.12771043513E+03 -0.60719958401E+03  0.10040031810E+04  0.11802642406E+04  0.50400001928E-02 0. -1.
</event>
<event>
 5   0  0.1147755E-03  0.1652168E+04  0.7818609E-02  0.8789125E-01
       -2   -1    0    0    0  501  0.00000000000E+00  0.00000000000E+00  0.56561503838E+03  0.56561503839E+03  0.25500000920E-02 0.  1.
        2   -1    0    0  501    0  0.00000000000E+00  0.00000000000E+00 -0.12064998459E+04  0.12064998459E+04  0.25500000920E-02 0. -1.
    10030    2    1    2    0    0  0.00000000000E+00  0.00000000000E+00 -0.64088480748E+03  0.17721148843E+04  0.16521676145E+04 0.  0.
        4    1    3    3  502    0  0.28135095063E+03  0.24066670908E+03  0.47163762754E+03  0.59960194036E+03  0.12699999809E+01 0.  1.
       -4    1    3    3    0  502 -0.28135095063E+03 -0.24066670908E+03 -0.11125224350E+04  0.11725129439E+04  0.12699999809E+01 0. -1.
</event>
<event>
 5   0  0.1126175E-03  0.1428862E+04  0.7818609E-02  0.8933188E-01
       -2   -1    0    0    0  501  0.00000000000E+00  0.00000000000E+00  0.35590006615E+03  0.35590006616E+03  0.25500000920E-02 0. -1.
        2   -1    0    0  501    0  0.00000000000E+00  0.00000000000E+00 -0.14341425065E+04  0.14341425065E+04  0.25500000920E-02 0.  1.
    10030    2    1    2    0    0  0.00000000000E+00  0.00000000000E+00 -0.10782424403E+04  0.17900425726E+04  0.14288616629E+04 0.  0.
        3    1    3    3  502    0 -0.62977683573E+03 -0.23503991137E+03 -0.84225344063E+03  0.10776147230E+04  0.10100000352E+00 0.  1.
       -3    1    3    3    0  502  0.62977683573E+03  0.23503991137E+03 -0.23598899968E+03  0.71242784963E+03  0.10100000352E+00 0. -1.
</event>
<event>
 5   0  0.5840834E-04  0.1493795E+04  0.7818609E-02  0.8888589E-01
       -1   -1    0    0    0  501  0.00000000000E+00  0.00000000000E+00  0.59556661235E+03  0.59556661237E+03  0.50400001928E-02 0. -1.
        1   -1    0    0  501    0  0.00000000000E+00  0.00000000000E+00 -0.93668135589E+03  0.93668135590E+03  0.50400001928E-02 0.  1.
    10030    2    1    2    0    0  0.00000000000E+00  0.00000000000E+00 -0.34111474354E+03  0.15322479683E+04  0.14937953568E+04 0.  0.
        3    1    3    3  502    0  0.64279040016E+02 -0.41836182873E+03 -0.80178251930E+03  0.90664967500E+03  0.10100000352E+00 0.  1.
       -3    1    3    3    0  502 -0.64279040016E+02  0.41836182873E+03  0.46066777576E+03  0.62559829327E+03  0.10100000352E+00 0. -1.
</event>
<event>
 5   0  0.6146552E-04  0.1502200E+04  0.7818609E-02  0.8882992E-01
       -1   -1    0    0    0  501  0.00000000000E+00  0.00000000000E+00  0.59427036661E+03  0.59427036663E+03  0.50400001928E-02 0.  1.
        1   -1    0    0  501    0  0.00000000000E+00  0.00000000000E+00 -0.94931693054E+03  0.94931693055E+03  0.50400001928E-02 0. -1.
    10030    2    1    2    0    0  0.00000000000E+00  0.00000000000E+00 -0.35504656393E+03  0.15435872972E+04  0.15021996144E+04 0.  0.
        5    1    3    3  502    0 -0.47876797392E+03 -0.17645635853E+03  0.38881808631E+03  0.64152725084E+03  0.46999998093E+01 0.  1.
       -5    1    3    3    0  502  0.47876797392E+03  0.17645635853E+03 -0.74386465024E+03  0.90206004634E+03  0.46999998093E+01 0. -1.
</event>
<event>
 5   0  0.5606965E-04  0.1493450E+04  0.7818609E-02  0.8888820E-01
       -1   -1    0    0    0  501  0.00000000000E+00  0.00000000000E+00  0.68395709421E+03  0.68395709423E+03  0.50400001928E-02 0. -1.
        1   -1    0    0  501    0  0.00000000000E+00  0.00000000000E+00 -0.81525361712E+03  0.81525361713E+03  0.50400001928E-02 0.  1.
    10030    2    1    2    0    0  0.00000000000E+00  0.00000000000E+00 -0.13129652290E+03  0.14992107114E+04  0.14934503608E+04 0.  0.
        4    1    3    3  502    0 -0.56695756818E+03  0.34559052505E+03  0.27731725250E+03  0.71956943137E+03  0.12699999809E+01 0.  1.
       -4    1    3    3    0  502  0.56695756818E+03 -0.34559052505E+03 -0.40861377541E+03  0.77964128000E+03  0.12699999809E+01 0. -1.
</event>
<event>
 5   0  0.1082667E-03  0.1500115E+04  0.7818609E-02  0.8884376E-01
        2   -1    0    0  501    0  0.00000000000E+00  0.00000000000E+00  0.14347445895E+04  0.14347445895E+04  0.25500000920E-02 0. -1.
       -2   -1    0    0    0  501  0.00000000000E+00  0.00000000000E+00 -0.39211608285E+03  0.39211608286E+03  0.25500000920E-02 0.  1.
    10030    2    1    2    0    0  0.00000000000E+00  0.00000000000E+00  0.10426285066E+04  0.18268606723E+04  0.15001152333E+04 0.  0.
        5    1    3    3  502    0  0.39441673684E+03  0.47685944566E+03  0.10374213484E+04  0.12079837074E+04  0.46999998093E+01 0. -1.
       -5    1    3    3    0  502 -0.39441673684E+03 -0.47685944566E+03  0.52071581971E+01  0.61887696492E+03  0.46999998093E+01 0.  1.
</event>
<event>
 5   0  0.1097156E-03  0.1500035E+04  0.7818609E-02  0.8884429E-01
       -2   -1    0    0    0  501  0.00000000000E+00  0.00000000000E+00  0.54496842069E+03  0.54496842069E+03  0.25500000920E-02 0.  1.
        2   -1    0    0  501    0  0.00000000000E+00  0.00000000000E+00 -0.10322186843E+04  0.10322186844E+04  0.25500000920E-02 0. -1.
    10030    2    1    2    0    0  0.00000000000E+00  0.00000000000E+00 -0.48725026366E+03  0.15771871050E+04  0.15000354479E+04 0.  0.
        2    1    3    3  502    0 -0.13042795902E+03  0.35343353333E+03  0.43826791686E+03  0.57793207380E+03  0.25500000920E-02 0.  1.
       -2    1    3    3    0  502  0.13042795902E+03 -0.35343353333E+03 -0.92551818052E+03  0.99925503124E+03  0.25500000920E-02 0. -1.
</event>
<event>
 5   0  0.1126175E-03  0.1373911E+04  0.7818609E-02  0.8972923E-01
        2   -1    0    0  501    0  0.00000000000E+00  0.00000000000E+00  0.71798791810E+03  0.71798791811E+03  0.25500000920E-02 0.  1.
       -2   -1    0    0    0  501  0.00000000000E+00  0.00000000000E+00 -0.65726415680E+03  0.65726415680E+03  0.25500000920E-02 0. -1.
    10030    2    1    2    0    0  0.00000000000E+00  0.00000000000E+00  0.60723761307E+02  0.13752520749E+04  0.13739108029E+04 0.  0.
        3    1    3    3  502    0 -0.21366897113E+03 -0.36265920929E+03  0.57378374511E+03  0.71162063465E+03  0.10100000352E+00 0.  1.
       -3    1    3    3    0  502  0.21366897113E+03  0.36265920929E+03 -0.51305998381E+03  0.66363144025E+03  0.10100000352E+00 0. -1.
</event>
<event>
 5   0  0.1097156E-03  0.1383928E+04  0.7818609E-02  0.8965535E-01
        2   -1    0    0  501    0  0.00000000000E+00  0.00000000000E+00  0.11916036150E+04  0.11916036150E+04  0.25500000920E-02 0.  1.
       -2   -1    0    0    0  501  0.00000000000E+00  0.00000000000E+00 -0.40182345894E+03  0.40182345894E+03  0.25500000920E-02 0. -1.
    10030    2    1    2    0    0  0.00000000000E+00  0.00000000000E+00  0.78978015610E+03  0.15934270740E+04  0.13839281575E+04 0.  0.
        2    1    3    3  502    0 -0.34161133083E+03  0.35111577309E+03 -0.16779636111E+03  0.51781870019E+03  0.25500000920E-02 0. -1.
       -2    1    3    3    0  502  0.34161133083E+03 -0.35111577309E+03  0.95757651721E+03  0.10756083738E+04  0.25500000920E-02 0.  1.
</event>
<event>
 5   0  0.1126175E-03  0.1520730E+04  0.7818609E-02  0.8870784E-01
        2   -1    0    0  501    0  0.00000000000E+00  0.00000000000E+00  0.64473630171E+03  0.64473630172E+03  0.25500000920E-02 0. -1.
       -2   -1    0    0    0  501  0.00000000000E+00  0.00000000000E+00 -0.89673089564E+03  0.89673089565E+03  0.25500000920E-02 0.  1.
    10030    2    1    2    0    0  0.00000000000E+00  0.00000000000E+00 -0.25199459393E+03  0.15414671974E+04  0.15207300369E+04 0.  0.
        3    1    3    3  502    0  0.42835741039E+03  0.10816354714E+03  0.50128351713E+03  0.66818754756E+03  0.10100000352E+00 0. -1.
       -3    1    3    3    0  502 -0.42835741039E+03 -0.10816354714E+03 -0.75327811106E+03  0.87327964981E+03  0.10100000352E+00 0.  1.
</event>
<event>
 5   0  0.1082667E-03  0.1488544E+04  0.7818609E-02  0.8892107E-01
       -2   -1    0    0    0  501  0.00000000000E+00  0.00000000000E+00  0.57848977113E+03  0.57848977114E+03  0.25500000920E-02 0.  1.
        2   -1    0    0  501    0  0.00000000000E+00  0.00000000000E+00 -0.95756364419E+03  0.95756364419E+03  0.25500000920E-02 0. -1.
    10030    2    1    2    0    0  0.00000000000E+00  0.00000000000E+00 -0.37907387306E+03  0.15360534153E+04  0.14885439508E+04 0.  0.
        5    1    3    3  502    0  0.65339790741E+03 -0.15778439679E+03 -0.51925644425E+03  0.84939630690E+03  0.46999998093E+01 0. -1.
       -5    1    3    3    0  502 -0.65339790741E+03  0.15778439679E+03  0.14018257119E+03  0.68665710842E+03  0.46999998093E+01 0.  1.
</event>
<event>
 5   0  0.1147755E-03  0.1489025E+04  0.7818609E-02  0.8891784E-01
        2   -1    0    0  501    0  0.00000000000E+00  0.00000000000E+00  0.46125422381E+03  0.46125422382E+03  0.25500000920E-02 0.  1.
       -2   -1    0    0    0  501  0.00000000000E+00  0.00000000000E+00 -0.12017209600E+04  0.12017209600E+04  0.25500000920E-02 0. -1.
    10030    2    1    2    0    0  0.00000000000E+00  0.00000000000E+00 -0.74046673615E+03  0.16629751838E+04  0.14890250080E+04 0.  0.
        4    1    3    3  502    0  0.33707620051E+02 -0.25542899213E+03 -0.11503450623E+04  0.11788450063E+04  0.12699999809E+01 0. -1.
       -4    1    3    3    0  502 -0.33707620051E+02  0.25542899213E+03  0.40987832610E+03  0.48413017751E+03  0.12699999809E+01 0.  1.
</event>
<event>
 5   0  0.1147755E-03  0.1490442E+04  0.7818609E-02  0.8890834E-01
       -2   -1    0    0    0  501  0.00000000000E+00  0.00000000000E+00  0.80357377078E+03  0.80357377078E+03  0.25500000920E-02 0. -1.
        2   -1    0    0  501    0  0.00000000000E+00  0.00000000000E+00 -0.69110606497E+03  0.69110606497E+03  0.25500000920E-02 0.  1.
    10030    2    1    2    0    0  0.00000000000E+00  0.00000000000E+00  0.11246770581E+03  0.14946798358E+04  0.14904424935E+04 0.  0.
        4    1    3    3  502    0  0.49709933401E+03 -0.24071672633E+03  0.55795692570E+03  0.78509224557E+03  0.12699999809E+01 0. -1.
       -4    1    3    3    0  502 -0.49709933401E+03  0.24071672633E+03 -0.44548921989E+03  0.70958759019E+03  0.12699999809E+01 0.  1.
</event>
<event>
 5   0  0.5924403E-04  0.1316001E+04  0.7818609E-02  0.9016971E-01
        1   -1    0    0  501    0  0.00000000000E+00  0.00000000000E+00  0.10581501292E+04  0.10581501292E+04  0.50400001928E-02 0. -1.
       -1   -1    0    0    0  501  0.00000000000E+00  0.00000000000E+00 -0.40917158617E+03  0.40917158620E+03  0.50400001928E-02 0.  1.
    10030    2    1    2    0    0  0.00000000000E+00  0.00000000000E+00  0.64897854299E+03  0.14673217154E+04  0.13160014693E+04 0.  0.
        1    1    3    3  502    0  0.92536714771E-01  0.31992977610E+03  0.96559092287E+03  0.10172123183E+04  0.50400001928E-02 0. -1.
       -1    1    3    3    0  502 -0.92536714771E-01 -0.31992977610E+03 -0.31661237987E+03  0.45010939705E+03  0.50400001928E-02 0.  1.
</event>
<event>
 5   0  0.1097156E-03  0.1601013E+04  0.7818609E-02  0.8819926E-01
        2   -1    0    0  501    0  0.00000000000E+00  0.00000000000E+00  0.25466581354E+04  0.25466581354E+04  0.25500000920E-02 0.  1.
       -2   -1    0    0    0  501  0.00000000000E+00  0.00000000000E+00 -0.25162796799E+03  0.25162796800E+03  0.25500000920E-02 0. -1.
    10030    2    1    2    0    0  0.00000000000E+00  0.00000000000E+00  0.22950301674E+04  0.27982861034E+04  0.16010126943E+04 0.  0.
        2    1    3    3  502    0 -0.31319882960E+01 -0.11985062939E+03 -0.23584692013E+03  0.26457088362E+03  0.25500000920E-02 0. -1.
       -2    1    3    3    0  502  0.31319882960E+01  0.11985062939E+03  0.25308770876E+04  0.25337152198E+04  0.25500000920E-02 0.  1.
</event>
<event>
 5   0  0.6146552E-04  0.1503813E+04  0.7818609E-02  0.8881921E-01
        1   -1    0    0  501    0  0.00000000000E+00  0.00000000000E+00  0.24721195408E+04  0.24721195408E+04  0.50400001928E-02 0. -1.
       -1   -1    0    0    0  501  0.00000000000E+00  0.00000000000E+00 -0.22869590568E+03  0.22869590573E+03  0.50400001928E-02 0.  1.
    10030    2    1    2    0    0  0.00000000000E+00  0.00000000000E+00  0.22434236351E+04  0.27008154466E+04  0.15038133094E+04 0.  0.
        5    1    3    3  502    0 -0.34306031568E+03  0.28202751298E+03  0.32052458457E+02  0.44528569297E+03  0.46999998093E+01 0.  1.
       -5    1    3    3    0  502  0.34306031568E+03 -0.28202751298E+03  0.22113711767E+04  0.22555297536E+04  0.46999998093E+01 0. -1.
</event>
<event>
 5   0  0.5924403E-04  0.1489001E+04  0.7818609E-02  0.8891800E-01
        1   -1    0    0  501    0  0.00000000000E+00  0.00000000000E+00  0.55458011936E+03  0.55458011939E+03  0.50400001928E-02 0.  1.
       -1   -1    0    0    0  501  0.00000000000E+00  0.00000000000E+00 -0.99946097556E+03  0.99946097557E+03  0.50400001928E-02 0. -1.
    10030    2    1    2    0    0  0.00000000000E+00  0.00000000000E+00 -0.44488085619E+03  0.15540410950E+04  0.14890012588E+04 0.  0.
        1    1    3    3  502    0 -0.14212994487E+03 -0.42072407747E+03  0.40121547612E+03  0.59848435977E+03  0.50400001928E-02 0.  1.
       -1    1    3    3    0  502  0.14212994487E+03  0.42072407747E+03 -0.84609633231E+03  0.95555673519E+03  0.50400001928E-02 0. -1.
</event>
<event>
 5   0  0.6146552E-04  0.1307350E+04  0.7818609E-02  0.9023757E-01
       -1   -1    0    0    0  501  0.00000000000E+00  0.00000000000E+00  0.42089629826E+03  0.42089629829E+03  0.50400001928E-02 0.  1.
        1   -1    0    0  501    0  0.00000000000E+00  0.00000000000E+00 -0.10151927905E+04  0.10151927905E+04  0.50400001928E-02 0. -1.
    10030    2    1    2    0    0  0.00000000000E+00  0.00000000000E+00 -0.59429649224E+03  0.14360890888E+04  0.13073498194E+04 0.  0.
        5    1    3    3  502    0  0.13266770344E+03 -0.14127246689E+03 -0.98288975696E+03  0.10018248319E+04  0.46999998093E+01 0. -1.
       -5    1    3    3    0  502 -0.13266770344E+03  0.14127246689E+03  0.38859326473E+03  0.43426425691E+03  0.46999998093E+01 0.  1.
</event>
<event>
 5   0  0.1149716E-03  0.1478424E+04  0.7818609E-02  0.8898929E-01
       -2   -1    0    0    0  501  0.00000000000E+00  0.00000000000E+00  0.29948348583E+03  0.29948348584E+03  0.25500000920E-02 0. -1.
        2   -1    0    0  501    0  0.00000000000E+00  0.00000000000E+00 -0.18245891989E+04  0.18245891989E+04  0.25500000920E-02 0.  1.
    10030    2    1    2    0    0  0.00000000000E+00  0.00000000000E+00 -0.15251057130E+04  0.21240726847E+04  0.14784239358E+04 0.  0.
        1    1    3    3  502    0  0.99241024242E+02 -0.46391181937E+03  0.51915067438E+02  0.47724011912E+03  0.50400001928E-02 0. -1.
       -1    1    3    3    0  502 -0.99241024242E+02  0.46391181937E+03 -0.15770207805E+04  0.16468325656E+04  0.50400001928E-02 0.  1.
</event>
<event>
 5   0  0.1126175E-03  0.1506430E+04  0.7818609E-02  0.8880188E-01
        2   -1    0    0  501    0  0.00000000000E+00  0.00000000000E+00  0.17202077688E+04  0.17202077688E+04  0.25500000920E-02 0.  1.
       -2   -1    0    0    0  501  0.00000000000E+00  0.00000000000E+00 -0.32980494367E+03  0.32980494368E+03  0.25500000920E-02 0. -1.
    10030    2    1    2    0    0  0.00000000000E+00  0.00000000000E+00  0.13904028251E+04  0.20500127125E+04  0.15064302523E+04 0.  0.
        3    1    3    3  502    0  0.42730633684E+03 -0.46983800420E+03  0.12462910529E+04  0.13987779861E+04  0.10100000352E+00 0.  1.
       -3    1    3    3    0  502 -0.42730633684E+03  0.46983800420E+03  0.14411177218E+03  0.65123472632E+03  0.10100000352E+00 0. -1.
</event>
<event>
 5   0  0.1082667E-03  0.1505996E+04  0.7818609E-02  0.8880476E-01
       -2   -1    0    0    0  501  0.00000000000E+00  0.00000000000E+00  0.34732762812E+03  0.34732762813E+03  0.25500000920E-02 0.  1.
        2   -1    0    0  501    0  0.00000000000E+00  0.00000000000E+00 -0.16324814093E+04  0.16324814093E+04  0.25500000920E-02 0. -1.
    10030    2    1    2    0    0  0.00000000000E+00  0.00000000000E+00 -0.12851537812E+04  0.19798090375E+04  0.15059958776E+04 0.  0.
        5    1    3    3  502    0  0.35173806315E+03  0.24770079152E+03 -0.14549941815E+04  0.15172690946E+04  0.46999998093E+01 0. -1.
       -5    1    3    3    0  502 -0.35173806315E+03 -0.24770079152E+03  0.16984040029E+03  0.46253994288E+03  0.46999998093E+01 0.  1.
</event>
<event>
 5   0  0.6146552E-04  0.1506270E+04  0.7818609E-02  0.8880294E-01
        1   -1    0    0  501    0  0.00000000000E+00  0.00000000000E+00  0.54125759477E+03  0.54125759480E+03  0.50400001928E-02 0.  1.
       -1   -1    0    0    0  501  0.00000000000E+00  0.00000000000E+00 -0.10479523297E+04  0.10479523297E+04  0.50400001928E-02 0. -1.
    10030    2    1    2    0    0  0.00000000000E+00  0.00000000000E+00 -0.50669473492E+03  0.15892099245E+04  0.15062697732E+04 0.  0.
        5    1    3    3  502    0 -0.21787080305E+03  0.33987848129E+03 -0.92412619705E+03  0.10084723035E+04  0.46999998093E+01 0. -1.
       -5    1    3    3    0  502  0.21787080305E+03 -0.33987848129E+03  0.41743146213E+03  0.58073762100E+03  0.46999998093E+01 0.  1.
</event>
<event>
 5   0  0.1126175E-03  0.1466110E+04  0.7818609E-02  0.8907307E-01
        2   -1    0    0  501    0  0.00000000000E+00  0.00000000000E+00  0.16301414872E+04  0.16301414872E+04  0.25500000920E-02 0. -1.
       -2   -1    0    0    0  501  0.00000000000E+00  0.00000000000E+00 -0.32964613327E+03  0.32964613328E+03  0.25500000920E-02 0.  1.
    10030    2    1    2    0    0  0.00000000000E+00  0.00000000000E+00  0.13004953540E+04  0.19597876205E+04  0.14661102796E+04 0.  0.
        3    1    3    3  502    0  0.13219035589E+03  0.71012230956E+03  0.48317381713E+03  0.86902527724E+03  0.10100000352E+00 0.  1.
       -3    1    3    3    0  502 -0.13219035589E+03 -0.71012230956E+03  0.81732153683E+03  0.10907623433E+04  0.10100000352E+00 0. -1.
</event>
<event>
 5   0  0.1149716E-03  0.1446592E+04  0.7818609E-02  0.8920767E-01
       -2   -1    0    0    0  501  0.00000000000E+00  0.00000000000E+00  0.56225978031E+03  0.56225978032E+03  0.25500000920E-02 0.  1.
        2   -1    0    0  501    0  0.00000000000E+00  0.00000000000E+00 -0.93045406493E+03  0.93045406493E+03  0.25500000920E-02 0. -1.
    10030    2    1    2    0    0  0.00000000000E+00  0.00000000000E+00 -0.36819428462E+03  0.14927138453E+04  0.14465917159E+04 0.  0.
        1    1    3    3  502    0 -0.25174191840E+03 -0.42527115348E+03  0.36087730319E+03  0.61193298281E+03  0.50400001928E-02 0.  1.
       -1    1    3    3    0  502  0.25174191840E+03  0.42527115348E+03 -0.72907158781E+03  0.88078086244E+03  0.50400001928E-02 0. -1.
</event>
<event>
 5   0  0.4070625E-04  0.1647930E+04  0.7818609E-02  0.8791632E-01
        4   -1    0    0  501    0  0.00000000000E+00  0.00000000000E+00  0.94303988594E+03  0.94304074110E+03  0.12699999809E+01 0. -1.
       -4   -1    0    0    0  501  0.00000000000E+00  0.00000000000E+00 -0.71992332419E+03  0.71992444438E+03  0.12699999809E+01 0.  1.
    10030    2    1    2    0    0  0.00000000000E+00  0.00000000000E+00  0.22311656175E+03  0.16629651855E+04  0.16479296733E+04 0.  0.
        2    1    3    3  502    0 -0.30513482893E+03  0.46082464737E+03  0.72824067280E+03  0.91422157981E+03  0.25500000920E-02 0. -1.
       -2    1    3    3    0  502  0.30513482893E+03 -0.46082464737E+03 -0.50512411106E+03  0.74874360567E+03  0.25500000920E-02 0.  1.
</event>
<event>
 5   0  0.6146552E-04  0.1386281E+04  0.7818609E-02  0.8963809E-01
        1   -1    0    0  501    0  0.00000000000E+00  0.00000000000E+00  0.10792148735E+04  0.10792148735E+04  0.50400001928E-02 0.  1.
       -1   -1    0    0    0  501  0.00000000000E+00  0.00000000000E+00 -0.44517922156E+03  0.44517922159E+03  0.50400001928E-02 0. -1.
    10030    2    1    2    0    0  0.00000000000E+00  0.00000000000E+00  0.63403565191E+03  0.15243940951E+04  0.13862814105E+04 0.  0.
        5    1    3    3  502    0 -0.27517637735E+03  0.15223788538E+02 -0.38232161144E+03  0.47132335711E+03  0.46999998093E+01 0. -1.
       -5    1    3    3    0  502  0.27517637735E+03 -0.15223788538E+02  0.10163572634E+04  0.10530707380E+04  0.46999998093E+01 0.  1.
</event>
<event>
 5   0  0.1082667E-03  0.1508407E+04  0.7818609E-02  0.8878881E-01
        2   -1    0    0  501    0  0.00000000000E+00  0.00000000000E+00  0.15581364336E+04  0.15581364336E+04  0.25500000920E-02 0. -1.
       -2   -1    0    0    0  501  0.00000000000E+00  0.00000000000E+00 -0.36506622042E+03  0.36506622043E+03  0.25500000920E-02 0.  1.
    10030    2    1    2    0    0  0.00000000000E+00  0.00000000000E+00  0.11930702132E+04  0.19232026540E+04  0.15084070786E+04 0.  0.
        5    1    3    3  502    0  0.97732888265E+02  0.72915370293E+03  0.38477921914E+03  0.83023730188E+03  0.46999998093E+01 0.  1.
       -5    1    3    3    0  502 -0.97732888265E+02 -0.72915370293E+03  0.80829099405E+03  0.10929653522E+04  0.46999998093E+01 0. -1.
</event>
<event>
 5   0  0.1149716E-03  0.1541635E+04  0.7818609E-02  0.8857229E-01
       -2   -1    0    0    0  501  0.00000000000E+00  0.00000000000E+00  0.13270868300E+04  0.13270868300E+04  0.25500000920E-02 0. -1.
        2   -1    0    0  501    0  0.00000000000E+00  0.00000000000E+00 -0.44771706950E+03  0.44771706951E+03  0.25500000920E-02 0.  1.
    10030    2    1    2    0    0  0.00000000000E+00  0.00000000000E+00  0.87936976046E+03  0.17748038995E+04  0.15416347511E+04 0.  0.
        1    1    3    3  502    0  0.70433619566E+03 -0.29905694731E+03  0.33270617360E+03  0.83439674749E+03  0.50400001928E-02 0. -1.
       -1    1    3    3    0  502 -0.70433619566E+03  0.29905694731E+03  0.54666358686E+03  0.94040715197E+03  0.50400001928E-02 0.  1.
</event>
<event>
 5   0  0.1147755E-03  0.1494315E+04  0.7818609E-02  0.8888242E-01
        2   -1    0    0  501    0  0.00000000000E+00  0.00000000000E+00  0.10071587132E+04  0.10071587132E+04  0.25500000920E-02 0.  1.
       -2   -1    0    0    0  501  0.00000000000E+00  0.00000000000E+00 -0.55427615370E+03  0.55427615370E+03  0.25500000920E-02 0. -1.
    10030    2    1    2    0    0  0.00000000000E+00  0.00000000000E+00  0.45288255946E+03  0.15614348669E+04  0.14943146358E+04 0.  0.
        4    1    3    3  502    0  0.19815563954E+03  0.63334912685E+03 -0.13226471881E+03  0.67667742884E+03  0.12699999809E+01 0.  1.
       -4    1    3    3    0  502 -0.19815563954E+03 -0.63334912685E+03  0.58514727827E+03  0.88475743802E+03  0.12699999809E+01 0. -1.
</event>
<event>
 5   0  0.1149716E-03  0.1496202E+04  0.7818609E-02  0.8886982E-01
       -2   -1    0    0    0  501  0.00000000000E+00  0.00000000000E+00  0.24516597303E+03  0.24516597304E+03  0.25500000920E-02 0. -1.
        2   -1    0    0  501    0  0.00000000000E+00  0.00000000000E+00 -0.22827608629E+04  0.22827608629E+04  0.25500000920E-02 0.  1.
    10030    2    1    2    0    0  0.00000000000E+00  0.00000000000E+00 -0.20375948899E+04  0.25279268359E+04  0.14962022432E+04 0.  0.
        1    1    3    3  502    0  0.27449273260E+03  0.58803990169E+03 -0.38997582552E+03  0.75711183503E+03  0.50400001928E-02 0. -1.
       -1    1    3    3    0  502 -0.27449273260E+03 -0.58803990169E+03 -0.16476190643E+04  0.17708150009E+04  0.50400001928E-02 0.  1.
</event>
<event>
 5   0  0.1126175E-03  0.1493887E+04  0.7818609E-02  0.8888528E-01
       -2   -1    0    0    0  501  0.00000000000E+00  0.00000000000E+00  0.65976068429E+03  0.65976068430E+03  0.25500000920E-02 0. -1.
        2   -1    0    0  501    0  0.00000000000E+00  0.00000000000E+00 -0.84564726886E+03  0.84564726887E+03  0.25500000920E-02 0.  1.
    10030    2    1    2    0    0  0.00000000000E+00  0.00000000000E+00 -0.18588658457E+03  0.15054079532E+04  0.14938873060E+04 0.  0.
        3    1    3    3  502    0  0.71077211356E+03  0.19192554462E+03 -0.21998054470E+03  0.76839043613E+03  0.10100000352E+00 0.  1.
       -3    1    3    3    0  502 -0.71077211356E+03 -0.19192554462E+03  0.34093960127E+02  0.73701751703E+03  0.10100000352E+00 0. -1.
</event>
<event>
 5   0  0.1097156E-03  0.1432103E+04  0.7818609E-02  0.8930903E-01
       -2   -1    0    0    0  501  0.00000000000E+00  0.00000000000E+00  0.72677751244E+03  0.72677751244E+03  0.25500000920E-02 0. -1.
        2   -1    0    0  501    0  0.00000000000E+00  0.00000000000E+00 -0.70548354695E+03  0.70548354696E+03  0.25500000920E-02 0.  1.
    10030    2    1    2    0    0  0.00000000000E+00  0.00000000000E+00  0.21293965483E+02  0.14322610594E+04  0.14321027579E+04 0.  0.
        2    1    3    3  502    0  0.41720308474E+02  0.50080197581E+03 -0.49949407444E+03  0.70854607015E+03  0.25500000920E-02 0.  1.
       -2    1    3    3    0  502 -0.41720308474E+02 -0.50080197581E+03  0.52078803993E+03  0.72371498924E+03  0.25500000920E-02 0. -1.
</event>
<event>
 5   0  0.1149716E-03  0.1489236E+04  0.7818609E-02  0.8891642E-01
        2   -1    0    0  501    0  0.00000000000E+00  0.00000000000E+00  0.68464215627E+03  0.68464215627E+03  0.25500000920E-02 0. -1.
       -2   -1    0    0    0  501  0.00000000000E+00  0.00000000000E+00 -0.80984833499E+03  0.80984833500E+03  0.25500000920E-02 0.  1.
    10030    2    1    2    0    0  0.00000000000E+00  0.00000000000E+00 -0.12520617873E+03  0.14944904913E+04  0.14892364625E+04 0.  0.
        1    1    3    3  502    0 -0.58983664234E+03 -0.27113130345E+03 -0.42863208598E+03  0.77791060767E+03  0.50400001928E-02 0.  1.
       -1    1    3    3    0  502  0.58983664234E+03  0.27113130345E+03  0.30342590725E+03  0.71657988360E+03  0.50400001928E-02 0. -1.
</event>
<event>
 5   0  0.1097156E-03  0.1579453E+04  0.7818609E-02  0.8833271E-01
        2   -1    0    0  501    0  0.00000000000E+00  0.00000000000E+00  0.56008690842E+03  0.56008690842E+03  0.25500000920E-02 0. -1.
       -2   -1    0    0    0  501  0.00000000000E+00  0.00000000000E+00 -0.11135196501E+04  0.11135196501E+04  0.25500000920E-02 0.  1.
    10030    2    1    2    0    0  0.00000000000E+00  0.00000000000E+00 -0.55343274170E+03  0.16736065585E+04  0.15794527892E+04 0.  0.
        2    1    3    3  502    0  0.72096585003E+03 -0.32149405819E+03 -0.30082322101E+03  0.84477499766E+03  0.25500000920E-02 0.  1.
       -2    1    3    3    0  502 -0.72096585003E+03  0.32149405819E+03 -0.25260952068E+03  0.82883156088E+03  0.25500000920E-02 0. -1.
</event>
<event>
 5   0  0.5924403E-04  0.1500057E+04  0.7818609E-02  0.8884415E-01
        1   -1    0    0  501    0  0.00000000000E+00  0.00000000000E+00  0.11753271546E+04  0.11753271546E+04  0.50400001928E-02 0. -1.
       -1   -1    0    0    0  501  0.00000000000E+00  0.00000000000E+00 -0.47862670426E+03  0.47862670428E+03  0.50400001928E-02 0.  1.
    10030    2    1    2    0    0  0.00000000000E+00  0.00000000000E+00  0.69670045032E+03  0.16539538589E+04  0.15000572822E+04 0.  0.
        1    1    3    3  502    0  0.59062778905E+03  0.35353955410E+03  0.19948328667E+02  0.68864311320E+03  0.50400001928E-02 0.  1.
       -1    1    3    3    0  502 -0.59062778905E+03 -0.35353955410E+03  0.67675212165E+03  0.96531074567E+03  0.50400001928E-02 0. -1.
</event>
<event>
 5   0  0.5914645E-04  0.1488436E+04  0.7818609E-02  0.8892180E-01
       -1   -1    0    0    0  501  0.00000000000E+00  0.00000000000E+00  0.47087162700E+03  0.47087162703E+03  0.50400001928E-02 0. -1.
        1   -1    0    0  501    0  0.00000000000E+00  0.00000000000E+00 -0.11762449088E+04  0.11762449088E+04  0.50400001928E-02 0.  1.
    10030    2    1    2    0    0  0.00000000000E+00  0.00000000000E+00 -0.70537328182E+03  0.16471165359E+04  0.14884358958E+04 0.  0.
        2    1    3    3  502    0  0.47687479605E+03  0.22519633790E+03 -0.93377479766E+03  0.10724077277E+04  0.25500000920E-02 0.  1.
       -2    1    3    3    0  502 -0.47687479605E+03 -0.22519633790E+03  0.22840151584E+03  0.57470880814E+03  0.25500000920E-02 0. -1.
</event>
<event>
 5   0  0.5606965E-04  0.1444293E+04  0.7818609E-02  0.8922367E-01
       -1   -1    0    0    0  501  0.00000000000E+00  0.00000000000E+00  0.20939673555E+04  0.20939673555E+04  0.50400001928E-02 0. -1.
        1   -1    0    0  501    0  0.00000000000E+00  0.00000000000E+00 -0.24904668577E+03  0.24904668582E+03  0.50400001928E-02 0.  1.
    10030    2    1    2    0    0  0.00000000000E+00  0.00000000000E+00  0.18449206697E+04  0.23430140413E+04  0.14442930867E+04 0.  0.
        4    1    3    3  502    0  0.15076203477E+03  0.63088120679E+03  0.40752804840E+03  0.76604243443E+03  0.12699999809E+01 0.  1.
       -4    1    3    3    0  502 -0.15076203477E+03 -0.63088120679E+03  0.14373926213E+04  0.15769716069E+04  0.12699999809E+01 0. -1.
</event>
<event>
 5   0  0.4070625E-04  0.1495704E+04  0.7818609E-02  0.8887315E-01
        3   -1    0    0  501    0  0.00000000000E+00  0.00000000000E+00  0.52497424752E+03  0.52497425723E+03  0.10100000352E+00 0.  1.
       -3   -1    0    0    0  501  0.00000000000E+00  0.00000000000E+00 -0.10653527791E+04  0.10653527839E+04  0.10100000352E+00 0. -1.
    10030    2    1    2    0    0  0.00000000000E+00  0.00000000000E+00 -0.54037853163E+03  0.15903270412E+04  0.14957042289E+04 0.  0.
        2    1    3    3  502    0  0.11434911196E+02 -0.29020807928E+03 -0.10029397558E+04  0.10441454115E+04  0.25500000920E-02 0. -1.
       -2    1    3    3    0  502 -0.11434911196E+02  0.29020807928E+03  0.46256122420E+03  0.54618162969E+03  0.25500000920E-02 0.  1.
</event>
<event>
 5   0  0.1126175E-03  0.1496625E+04  0.7818609E-02  0.8886700E-01
        2   -1    0    0  501    0  0.00000000000E+00  0.00000000000E+00  0.14081308295E+04  0.14081308295E+04  0.25500000920E-02 0. -1.
       -2   -1    0    0    0  501  0.00000000000E+00  0.00000000000E+00 -0.39767040315E+03  0.39767040316E+03  0.25500000920E-02 0.  1.
    10030    2    1    2    0    0  0.00000000000E+00  0.00000000000E+00  0.10104604263E+04  0.18058012327E+04  0.14966254771E+04 0.  0.
        3    1    3    3  502    0 -0.59807115200E+02 -0.34228729476E+03 -0.29442912733E+03  0.45544045099E+03  0.10100000352E+00 0.  1.
       -3    1    3    3    0  502  0.59807115200E+02  0.34228729476E+03  0.13048895537E+04  0.13503607817E+04  0.10100000352E+00 0. -1.
</event>
<event>
 5   0  0.1126175E-03  0.1502591E+04  0.7818609E-02  0.8882732E-01
       -2   -1    0    0    0  501  0.00000000000E+00  0.00000000000E+00  0.40174465360E+03  0.40174465360E+03  0.25500000920E-02 0. -1.
        2   -1    0    0  501    0  0.00000000000E+00  0.00000000000E+00 -0.14049846069E+04  0.14049846069E+04  0.25500000920E-02 0.  1.
    10030    2    1    2    0    0  0.00000000000E+00  0.00000000000E+00 -0.10032399533E+04  0.18067292605E+04  0.15025911676E+04 0.  0.
        3    1    3    3  502    0  0.16307109724E+03 -0.30719559531E+03 -0.13023591789E+04  0.13479987974E+04  0.10100000352E+00 0.  1.
       -3    1    3    3    0  502 -0.16307109724E+03  0.30719559531E+03  0.29911922559E+03  0.45873046318E+03  0.10100000352E+00 0. -1.
</event>
<event>
 5   0  0.5840834E-04  0.1493036E+04  0.7818609E-02  0.8889097E-01
       -1   -1    0    0    0  501  0.00000000000E+00  0.00000000000E+00  0.35137783605E+03  0.35137783609E+03  0.50400001928E-02 0. -1.
        1   -1    0    0  501    0  0.00000000000E+00  0.00000000000E+00 -0.15860107424E+04  0.15860107424E+04  0.50400001928E-02 0.  1.
    10030    2    1    2    0    0  0.00000000000E+00  0.00000000000E+00 -0.12346329064E+04  0.19373885785E+04  0.14930358638E+04 0.  0.
        3    1    3    3  502    0  0.37088618290E+03  0.24520346511E+03  0.16082937586E+03  0.47280799307E+03  0.10100000352E+00 0. -1.
       -3    1    3    3    0  502 -0.37088618290E+03 -0.24520346511E+03 -0.13954622822E+04  0.14645805855E+04  0.10100000352E+00 0.  1.
</event>
<event>
 5   0  0.5606965E-04  0.1562260E+04  0.7818609E-02  0.8844075E-01
       -1   -1    0    0    0  501  0.00000000000E+00  0.00000000000E+00  0.56614352396E+03  0.56614352398E+03  0.50400001928E-02 0. -1.
        1   -1    0    0  501    0  0.00000000000E+00  0.00000000000E+00 -0.10777547254E+04  0.10777547254E+04  0.50400001928E-02 0.  1.
    10030    2    1    2    0    0  0.00000000000E+00  0.00000000000E+00 -0.51161120140E+03  0.16438982494E+04  0.15622597200E+04 0.  0.
        4    1    3    3  502    0  0.15622509455E+01 -0.26050697609E+03  0.51908405983E+03  0.58078928992E+03  0.12699999809E+01 0. -1.
       -4    1    3    3    0  502 -0.15622509455E+01  0.26050697609E+03 -0.10306952612E+04  0.10631089594E+04  0.12699999809E+01 0.  1.
</event>
<event>
 5   0  0.6146552E-04  0.1499982E+04  0.7818609E-02  0.8884465E-01
       -1   -1    0    0    0  501  0.00000000000E+00  0.00000000000E+00  0.60897822118E+03  0.60897822120E+03  0.50400001928E-02 0. -1.
        1   -1    0    0  501    0  0.00000000000E+00  0.00000000000E+00 -0.92365587000E+03  0.92365587001E+03  0.50400001928E-02 0.  1.
    10030    2    1    2    0    0  0.00000000000E+00  0.00000000000E+00 -0.31467764882E+03  0.15326340912E+04  0.14999817448E+04 0.  0.
        5    1    3    3  502    0  0.33745165574E+03  0.33438395047E+03  0.43561974101E+03  0.64457186958E+03  0.46999998093E+01 0. -1.
       -5    1    3    3    0  502 -0.33745165574E+03 -0.33438395047E+03 -0.75029738984E+03  0.88806222163E+03  0.46999998093E+01 0.  1.
</event>
<event>
 5   0  0.1147755E-03  0.1462006E+04  0.7818609E-02  0.8910119E-01
        2   -1    0    0  501    0  0.00000000000E+00  0.00000000000E+00  0.10152065287E+04  0.10152065287E+04  0.25500000920E-02 0.  1.
       -2   -1    0    0    0  501  0.00000000000E+00  0.00000000000E+00 -0.52636098684E+03  0.52636098684E+03  0.25500000920E-02 0. -1.
    10030    2    1    2    0    0  0.00000000000E+00  0.00000000000E+00  0.48884554187E+03  0.15415675156E+04  0.14620056228E+04 0.  0.
        4    1    3    3  502    0 -0.39239461307E+03 -0.60103884138E+03  0.98537886296E+02  0.72452229030E+03  0.12699999809E+01 0.  1.
       -4    1    3    3    0  502  0.39239461307E+03  0.60103884138E+03  0.39030765557E+03  0.81704522525E+03  0.12699999809E+01 0. -1.
</event>
<event>
 5   0  0.1147755E-03  0.1543217E+04  0.7818609E-02  0.8856212E-01
        2   -1    0    0  501    0  0.00000000000E+00  0.00000000000E+00  0.17418231678E+04  0.17418231679E+04  0.25500000920E-02 0.  1.
       -2   -1    0    0    0  501  0.00000000000E+00  0.00000000000E+00 -0.34181415494E+03  0.34181415495E+03  0.25500000920E-02 0. -1.
    10030    2    1    2    0    0  0.00000000000E+00  0.00000000000E+00  0.14000090129E+04  0.20836373228E+04  0.15432171774E+04 0.  0.
        4    1    3    3  502    0 -0.41390778177E+02  0.31127638593E+03 -0.25163758131E+03  0.40240436153E+03  0.12699999809E+01 0. -1.
       -4    1    3    3    0  502  0.41390778177E+02 -0.31127638593E+03  0.16516465942E+04  0.16812329613E+04  0.12699999809E+01 0.  1.
</event>
<event>
 5   0  0.1126175E-03  0.1488257E+04  0.7818609E-02  0.8892299E-01
        2   -1    0    0  501    0  0.00000000000E+00  0.00000000000E+00  0.10147891757E+04  0.10147891757E+04  0.25500000920E-02 0. -1.
       -2   -1    0    0    0  501  0.00000000000E+00  0.00000000000E+00 -0.54565771974E+03  0.54565771975E+03  0.25500000920E-02 0.  1.
    10030    2    1    2    0    0  0.00000000000E+00  0.00000000000E+00  0.46913145600E+03  0.15604468955E+04  0.14882574343E+04 0.  0.
        3    1    3    3  502    0  0.45856075198E+03 -0.68552326427E+02  0.84481979541E+03  0.96368972270E+03  0.10100000352E+00 0. -1.
       -3    1    3    3    0  502 -0.45856075198E+03  0.68552326427E+02 -0.37568833941E+03  0.59675717280E+03  0.10100000352E+00 0.  1.
</event>
<event>
 5   0  0.5924403E-04  0.1504187E+04  0.7818609E-02  0.8881673E-01
        1   -1    0    0  501    0  0.00000000000E+00  0.00000000000E+00  0.22411226695E+03  0.22411226701E+03  0.50400001928E-02 0.  1.
       -1   -1    0    0    0  501  0.00000000000E+00  0.00000000000E+00 -0.25239340990E+04  0.25239340990E+04  0.50400001928E-02 0. -1.
    10030    2    1    2    0    0  0.00000000000E+00  0.00000000000E+00 -0.22998218320E+04  0.27480463660E+04  0.15041869467E+04 0.  0.
        1    1    3    3  502    0  0.16215628902E+03 -0.43864587232E+03 -0.22260025576E+04  0.22745971621E+04  0.50400001928E-02 0. -1.
       -1    1    3    3    0  502 -0.16215628902E+03  0.43864587232E+03 -0.73819274448E+02  0.47344920391E+03  0.50400001928E-02 0.  1.
</event>
<event>
 5   0  0.1147755E-03  0.1488911E+04  0.7818609E-02  0.8891861E-01
        2   -1    0    0  501    0  0.00000000000E+00  0.00000000000E+00  0.21565704608E+04  0.21565704608E+04  0.25500000920E-02 0.  1.
       -2   -1    0    0    0  501  0.00000000000E+00  0.00000000000E+00 -0.25698846905E+03  0.25698846906E+03  0.25500000920E-02 0. -1.
    10030    2    1    2    0    0  0.00000000000E+00  0.00000000000E+00  0.18995819918E+04  0.24135589299E+04  0.14889106637E+04 0.  0.
        4    1    3    3  502    0  0.18880961945E+03 -0.28816532192E+03  0.20195728196E+04  0.20487470101E+04  0.12699999809E+01 0.  1.
       -4    1    3    3    0  502 -0.18880961945E+03  0.28816532192E+03 -0.11999082778E+03  0.36481191976E+03  0.12699999809E+01 0. -1.
</event>
<event>
 5   0  0.5606965E-04  0.1467488E+04  0.7818609E-02  0.8906366E-01
       -1   -1    0    0    0  501  0.00000000000E+00  0.00000000000E+00  0.71218081397E+03  0.71218081399E+03  0.50400001928E-02 0.  1.
        1   -1    0    0  501    0  0.00000000000E+00  0.00000000000E+00 -0.75596012783E+03  0.75596012785E+03  0.50400001928E-02 0. -1.
    10030    2    1    2    0    0  0.00000000000E+00  0.00000000000E+00 -0.43779313864E+02  0.14681409418E+04  0.14674880568E+04 0.  0.
        4    1    3    3  502    0 -0.54308649728E+03 -0.47803519782E+03  0.10030432606E+03  0.73042670036E+03  0.12699999809E+01 0.  1.
       -4    1    3    3    0  502  0.54308649728E+03  0.47803519782E+03 -0.14408363992E+03  0.73771424147E+03  0.12699999809E+01 0. -1.
</event>
<event>
 5   0  0.1149716E-03  0.1480002E+04  0.7818609E-02  0.8897861E-01
        2   -1    0    0  501    0  0.00000000000E+00  0.00000000000E+00  0.11162501778E+04  0.11162501778E+04  0.25500000920E-02 0. -1.
       -2   -1    0    0    0  501  0.00000000000E+00  0.00000000000E+00 -0.49057224042E+03  0.49057224043E+03  0.25500000920E-02 0.  1.
    10030    2    1    2    0    0  0.00000000000E+00  0.00000000000E+00  0.62567793738E+03  0.16068224182E+04  0.14800018251E+04 0.  0.
        1    1    3    3  502    0  0.18361626244E+03  0.63894213471E+03  0.66571204774E+03  0.94081587671E+03  0.50400001928E-02 0. -1.
       -1    1    3    3    0  502 -0.18361626244E+03 -0.63894213471E+03 -0.40034110361E+02  0.66600654152E+03  0.50400001928E-02 0.  1.
</event>
<event>
 5   0  0.1082667E-03  0.1502150E+04  0.7818609E-02  0.8883025E-01
       -2   -1    0    0    0  501  0.00000000000E+00  0.00000000000E+00  0.27979889851E+03  0.27979889852E+03  0.25500000920E-02 0.  1.
        2   -1    0    0  501    0  0.00000000000E+00  0.00000000000E+00 -0.20161388939E+04  0.20161388939E+04  0.25500000920E-02 0. -1.
    10030    2    1    2    0    0  0.00000000000E+00  0.00000000000E+00 -0.17363399954E+04  0.22959377924E+04  0.15021497153E+04 0.  0.
        5    1    3    3  502    0  0.45734998246E+02 -0.60615862022E+03 -0.19397366400E+03  0.63809704219E+03  0.46999998093E+01 0. -1.
       -5    1    3    3    0  502 -0.45734998246E+02  0.60615862022E+03 -0.15423663314E+04  0.16578407502E+04  0.46999998093E+01 0.  1.
</event>
<event>
 5   0  0.5924403E-04  0.1477786E+04  0.7818609E-02  0.8899360E-01
       -1   -1    0    0    0  501  0.00000000000E+00  0.00000000000E+00  0.46947368280E+03  0.46947368283E+03  0.50400001928E-02 0.  1.
        1   -1    0    0  501    0  0.00000000000E+00  0.00000000000E+00 -0.11629261246E+04  0.11629261246E+04  0.50400001928E-02 0. -1.
    10030    2    1    2    0    0  0.00000000000E+00  0.00000000000E+00 -0.69345244183E+03  0.16323998075E+04  0.14777864671E+04 0.  0.
        1    1    3    3  502    0  0.96257274602E+02  0.73152715530E+03 -0.39043600430E+03  0.83476806080E+03  0.50400001928E-02 0.  1.
       -1    1    3    3    0  502 -0.96257274602E+02 -0.73152715530E+03 -0.30301643753E+03  0.79763174666E+03  0.50400001928E-02 0. -1.
</event>
<event>
 5   0  0.5924403E-04  0.1491782E+04  0.7818609E-02  0.8889936E-01
       -1   -1    0    0    0  501  0.00000000000E+00  0.00000000000E+00  0.29640716270E+03  0.29640716274E+03  0.50400001928E-02 0.  1.
        1   -1    0    0  501    0  0.00000000000E+00  0.00000000000E+00 -0.18769899206E+04  0.18769899206E+04  0.50400001928E-02 0. -1.
    10030    2    1    2    0    0  0.00000000000E+00  0.00000000000E+00 -0.15805827579E+04  0.21733970833E+04  0.14917818297E+04 0.  0.
        1    1    3    3  502    0  0.22188954294E+03  0.59655398253E+03 -0.22370067273E+03  0.67465073508E+03  0.50400001928E-02 0. -1.
       -1    1    3    3    0  502 -0.22188954294E+03 -0.59655398253E+03 -0.13568820852E+04  0.14987463483E+04  0.50400001928E-02 0.  1.
</event>
<event>
 5   0  0.5606965E-04  0.1486490E+04  0.7818609E-02  0.8893487E-01
       -1   -1    0    0    0  501  0.00000000000E+00  0.00000000000E+00  0.18048782259E+04  0.18048782260E+04  0.50400001928E-02 0.  1.
        1   -1    0    0  501    0  0.00000000000E+00  0.00000000000E+00 -0.30606681691E+03  0.30606681695E+03  0.50400001928E-02 0. -1.
    10030    2    1    2    0    0  0.00000000000E+00  0.00000000000E+00  0.14988114090E+04  0.21109450429E+04  0.14864902739E+04 0.  0.
        4    1    3    3  502    0  0.37606462950E+03 -0.58012528430E+03  0.36194898308E+03  0.78037082871E+03  0.12699999809E+01 0. -1.
       -4    1    3    3    0  502 -0.37606462950E+03  0.58012528430E+03  0.11368624260E+04  0.13305742142E+04  0.12699999809E+01 0.  1.
</event>
<event>
 5   0  0.1147755E-03  0.1510098E+04  0.7818609E-02  0.8877765E-01
        2   -1    0    0  501    0  0.00000000000E+00  0.00000000000E+00  0.21388390333E+04  0.21388390333E+04  0.25500000920E-02 0.  1.
       -2   -1    0    0    0  501  0.00000000000E+00  0.00000000000E+00 -0.26654610267E+03  0.26654610268E+03  0.25500000920E-02 0. -1.
    10030    2    1    2    0    0  0.00000000000E+00  0.00000000000E+00  0.18722929307E+04  0.24053851360E+04  0.15100982863E+04 0.  0.
        4    1    3    3  502    0  0.52375124321E+03 -0.69945212210E+02  0.77046447475E+02  0.53399013609E+03  0.12699999809E+01 0. -1.
       -4    1    3    3    0  502 -0.52375124321E+03  0.69945212210E+02  0.17952464832E+04  0.18713949999E+04  0.12699999809E+01 0.  1.
</event>
<event>
 5   0  0.5924403E-04  0.1493591E+04  0.7818609E-02  0.8888726E-01
        1   -1    0    0  501    0  0.00000000000E+00  0.00000000000E+00  0.82640050535E+03  0.82640050537E+03  0.50400001928E-02 0. -1.
       -1   -1    0    0    0  501  0.00000000000E+00  0.00000000000E+00 -0.67485855404E+03  0.67485855405E+03  0.50400001928E-02 0.  1.
    10030    2    1    2    0    0  0.00000000000E+00  0.00000000000E+00  0.15154195132E+03  0.15012590594E+04  0.14935909080E+04 0.  0.
        1    1    3    3  502    0  0.41341639493E+03 -0.21591684670E+03  0.66200651674E+03  0.80980604376E+03  0.50400001928E-02 0. -1.
       -1    1    3    3    0  502 -0.41341639493E+03  0.21591684670E+03 -0.51046456542E+03  0.69145301566E+03  0.50400001928E-02 0.  1.
</event>
<event>
 5   0  0.1149716E-03  0.1472752E+04  0.7818609E-02  0.8902777E-01
        2   -1    0    0  501    0  0.00000000000E+00  0.00000000000E+00  0.12850934817E+04  0.12850934817E+04  0.25500000920E-02 0.  1.
       -2   -1    0    0    0  501  0.00000000000E+00  0.00000000000E+00 -0.42195368144E+03  0.42195368145E+03  0.25500000920E-02 0. -1.
    10030    2    1    2    0    0  0.00000000000E+00  0.00000000000E+00  0.86313980030E+03  0.17070471632E+04  0.14727524240E+04 0.  0.
        1    1    3    3  502    0 -0.19211160024E+03 -0.63493470266E+02 -0.38910219647E+03  0.43856448447E+03  0.50400001928E-02 0. -1.
       -1    1    3    3    0  502  0.19211160024E+03  0.63493470266E+02  0.12522419968E+04  0.12684826787E+04  0.50400001928E-02 0.  1.
</event>
<event>
 5   0  0.4070625E-04  0.1460505E+04  0.7818609E-02  0.8911150E-01
        3   -1    0    0  501    0  0.00000000000E+00  0.00000000000E+00  0.45050532604E+03  0.45050533737E+03  0.10100000352E+00 0. -1.
       -3   -1    0    0    0  501  0.00000000000E+00  0.00000000000E+00 -0.11837122201E+04  0.11837122244E+04  0.10100000352E+00 0.  1.
    10030    2    1    2    0    0  0.00000000000E+00  0.00000000000E+00 -0.73320689408E+03  0.16342175618E+04  0.14605049434E+04 0.  0.
        5    1    3    3  502    0 -0.33703024735E+03  0.14944746285E+03  0.33870405623E+03  0.50066601591E+03  0.46999998093E+01 0. -1.
       -5    1    3    3    0  502  0.33703024735E+03 -0.14944746285E+03 -0.10719109503E+04  0.11335515459E+04  0.46999998093E+01 0.  1.
</event>
<event>
 5   0  0.4070625E-04  0.1521669E+04  0.7818609E-02  0.8870170E-01
       -3   -1    0    0    0  501  0.00000000000E+00  0.00000000000E+00  0.11466095286E+04  0.11466095331E+04  0.10100000352E+00 0.  1.
        3   -1    0    0  501    0  0.00000000000E+00  0.00000000000E+00 -0.50485311728E+03  0.50485312738E+03  0.10100000352E+00 0. -1.
    10030    2    1    2    0    0  0.00000000000E+00  0.00000000000E+00  0.64175641133E+03  0.16514626604E+04  0.15216693555E+04 0.  0.
        2    1    3    3  502    0  0.36358721427E+03 -0.74921179567E+02 -0.39989324656E+03  0.54564040740E+03  0.25500000920E-02 0. -1.
       -2    1    3    3    0  502 -0.36358721427E+03  0.74921179567E+02  0.10416496579E+04  0.11058222530E+04  0.25500000920E-02 0.  1.
</event>
<event>
 5   0  0.1126175E-03  0.1497727E+04  0.7818609E-02  0.8885966E-01
       -2   -1    0    0    0  501  0.00000000000E+00  0.00000000000E+00  0.18117301164E+03  0.18117301165E+03  0.25500000920E-02 0. -1.
        2   -1    0    0  501    0  0.00000000000E+00  0.00000000000E+00 -0.30953659226E+04  0.30953659226E+04  0.25500000920E-02 0.  1.
    10030    2    1    2    0    0  0.00000000000E+00  0.00000000000E+00 -0.29141929109E+04  0.32765389342E+04  0.14977273001E+04 0.  0.
        3    1    3    3  502    0 -0.28446034135E+03 -0.58106823899E+03 -0.22821679520E+04  0.23720979229E+04  0.10100000352E+00 0.  1.
       -3    1    3    3    0  502  0.28446034135E+03  0.58106823899E+03 -0.63202495892E+03  0.90444101138E+03  0.10100000352E+00 0. -1.
</event>
<event>
 5   0  0.5924403E-04  0.1504077E+04  0.7818609E-02  0.8881746E-01
        1   -1    0    0  501    0  0.00000000000E+00  0.00000000000E+00  0.35249076980E+03  0.35249076984E+03  0.50400001928E-02 0.  1.
       -1   -1    0    0    0  501  0.00000000000E+00  0.00000000000E+00 -0.16044734855E+04  0.16044734855E+04  0.50400001928E-02 0. -1.
    10030    2    1    2    0    0  0.00000000000E+00  0.00000000000E+00 -0.12519827157E+04  0.19569642554E+04  0.15040772508E+04 0.  0.
        1    1    3    3  502    0 -0.72342039458E+01 -0.15973829663E+03 -0.15820994443E+04  0.15901595231E+04  0.50400001928E-02 0. -1.
       -1    1    3    3    0  502  0.72342039458E+01  0.15973829663E+03  0.33011672858E+03  0.36680473230E+03  0.50400001928E-02 0.  1.
</event>
<event>
 5   0  0.4070625E-04  0.1511960E+04  0.7818609E-02  0.8876538E-01
       -3   -1    0    0    0  501  0.00000000000E+00  0.00000000000E+00  0.21590809373E+04  0.21590809397E+04  0.10100000352E+00 0.  1.
        3   -1    0    0  501    0  0.00000000000E+00  0.00000000000E+00 -0.26469878742E+03  0.26469880669E+03  0.10100000352E+00 0. -1.
    10030    2    1    2    0    0  0.00000000000E+00  0.00000000000E+00  0.18943821499E+04  0.24237797464E+04  0.15119604919E+04 0.  0.
        2    1    3    3  502    0 -0.89906932167E+02  0.63024163599E+03  0.29362093751E+03  0.70107134525E+03  0.25500000920E-02 0. -1.
       -2    1    3    3    0  502  0.89906932167E+02 -0.63024163599E+03  0.16007612124E+04  0.17227084011E+04  0.25500000920E-02 0.  1.
</event>
<event>
 5   0  0.1082667E-03  0.1544352E+04  0.7818609E-02  0.8855484E-01
       -2   -1    0    0    0  501  0.00000000000E+00  0.00000000000E+00  0.39610551125E+03  0.39610551126E+03  0.25500000920E-02 0. -1.
        2   -1    0    0  501    0  0.00000000000E+00  0.00000000000E+00 -0.15052946204E+04  0.15052946204E+04  0.25500000920E-02 0.  1.
    10030    2    1    2    0    0  0.00000000000E+00  0.00000000000E+00 -0.11091891092E+04  0.19014001317E+04  0.15443516377E+04 0.  0.
        5    1    3    3  502    0  0.37435689588E+03 -0.67300666806E+03 -0.62372098971E+03  0.99102523871E+03  0.46999998093E+01 0. -1.
       -5    1    3    3    0  502 -0.37435689588E+03  0.67300666806E+03 -0.48546811945E+03  0.91037489297E+03  0.46999998093E+01 0.  1.
</event>
<event>
 5   0  0.5924403E-04  0.1521632E+04  0.7818609E-02  0.8870194E-01
        1   -1    0    0  501    0  0.00000000000E+00  0.00000000000E+00  0.82233870406E+03  0.82233870408E+03  0.50400001928E-02 0. -1.
       -1   -1    0    0    0  501  0.00000000000E+00  0.00000000000E+00 -0.70389635757E+03  0.70389635758E+03  0.50400001928E-02 0.  1.
    10030    2    1    2    0    0  0.00000000000E+00  0.00000000000E+00  0.11844234650E+03  0.15262350617E+04  0.15216323058E+04 0.  0.
        1    1    3    3  502    0 -0.55155112545E+03 -0.23374791878E+02  0.58433721511E+03  0.80386877403E+03  0.50400001928E-02 0. -1.
       -1    1    3    3    0  502  0.55155112545E+03  0.23374791878E+02 -0.46589486862E+03  0.72236628763E+03  0.50400001928E-02 0.  1.
</event>
<event>
 5   0  0.6146552E-04  0.1501023E+04  0.7818609E-02  0.8883773E-01
       -1   -1    0    0    0  501  0.00000000000E+00  0.00000000000E+00  0.40137745068E+03  0.40137745071E+03  0.50400001928E-02 0.  1.
        1   -1    0    0  501    0  0.00000000000E+00  0.00000000000E+00 -0.14033354795E+04  0.14033354795E+04  0.50400001928E-02 0. -1.
    10030    2    1    2    0    0  0.00000000000E+00  0.00000000000E+00 -0.10019580288E+04  0.18047129302E+04  0.15010226077E+04 0.  0.
        5    1    3    3  502    0  0.47607955778E+03  0.12501946811E+03 -0.11821383762E+04  0.12805291263E+04  0.46999998093E+01 0. -1.
       -5    1    3    3    0  502 -0.47607955778E+03 -0.12501946811E+03  0.18018034738E+03  0.52418380394E+03  0.46999998093E+01 0.  1.
</event>
<event>
 5   0  0.5840834E-04  0.1516676E+04  0.7818609E-02  0.8873439E-01
       -1   -1    0    0    0  501  0.00000000000E+00  0.00000000000E+00  0.92196074437E+03  0.92196074439E+03  0.50400001928E-02 0.  1.
        1   -1    0    0  501    0  0.00000000000E+00  0.00000000000E+00 -0.62375356774E+03  0.62375356776E+03  0.50400001928E-02 0. -1.
    10030    2    1    2    0    0  0.00000000000E+00  0.00000000000E+00  0.29820717663E+03  0.15457143122E+04  0.15166757117E+04 0.  0.
        3    1    3    3  502    0  0.46321979147E+03  0.12838949362E+03 -0.44865833997E+03  0.65753384210E+03  0.10100000352E+00 0. -1.
       -3    1    3    3    0  502 -0.46321979147E+03 -0.12838949362E+03  0.74686551661E+03  0.88818047005E+03  0.10100000352E+00 0.  1.
</event>
<event>
 5   0  0.1147755E-03  0.1505638E+04  0.7818609E-02  0.8880712E-01
        2   -1    0    0  501    0  0.00000000000E+00  0.00000000000E+00  0.15572078990E+04  0.15572078990E+04  0.25500000920E-02 0.  1.
       -2   -1    0    0    0  501  0.00000000000E+00  0.00000000000E+00 -0.36394405424E+03  0.36394405424E+03  0.25500000920E-02 0. -1.
    10030    2    1    2    0    0  0.00000000000E+00  0.00000000000E+00  0.11932638448E+04  0.19211519533E+04  0.15056381452E+04 0.  0.
        4    1    3    3  502    0  0.25722612322E+03  0.23474010640E+03 -0.25499376602E+03  0.43161514064E+03  0.12699999809E+01 0. -1.
       -4    1    3    3    0  502 -0.25722612322E+03 -0.23474010640E+03  0.14482576108E+04  0.14895368126E+04  0.12699999809E+01 0.  1.
</event>
<event>
 5   0  0.5914645E-04  0.1476224E+04  0.7818609E-02  0.8900420E-01
        1   -1    0    0  501    0  0.00000000000E+00  0.00000000000E+00  0.16268187022E+04  0.16268187022E+04  0.50400001928E-02 0.  1.
       -1   -1    0    0    0  501  0.00000000000E+00  0.00000000000E+00 -0.33489235993E+03  0.33489235997E+03  0.50400001928E-02 0. -1.
    10030    2    1    2    0    0  0.00000000000E+00  0.00000000000E+00  0.12919263422E+04  0.19617110621E+04  0.14762237695E+04 0.  0.
        2    1    3    3  502    0 -0.25788752616E+03  0.68785631604E+03  0.74139116646E+03  0.10437016573E+04  0.25500000920E-02 0. -1.
       -2    1    3    3    0  502  0.25788752616E+03 -0.68785631604E+03  0.55053517577E+03  0.91800940487E+03  0.25500000920E-02 0.  1.
</event>
<event>
 5   0  0.4070625E-04  0.1505427E+04  0.7818609E-02  0.8880852E-01
       -3   -1    0    0    0  501  0.00000000000E+00  0.00000000000E+00  0.65998187787E+03  0.65998188559E+03  0.10100000352E+00 0. -1.
        3   -1    0    0  501    0  0.00000000000E+00  0.00000000000E+00 -0.85847450573E+03  0.85847451167E+03  0.10100000352E+00 0.  1.
    10030    2    1    2    0    0  0.00000000000E+00  0.00000000000E+00 -0.19849262786E+03  0.15184563973E+04  0.15054270182E+04 0.  0.
        3    1    3    3  502    0  0.39069311888E+03 -0.59231073339E+03  0.15413394724E+03  0.72610632962E+03  0.10100000352E+00 0. -1.
       -3    1    3    3    0  502 -0.39069311888E+03  0.59231073339E+03 -0.35262657510E+03  0.79235006764E+03  0.10100000352E+00 0.  1.
</event>
<event>
 5   0  0.1149716E-03  0.1652541E+04  0.7818609E-02  0.8788905E-01
       -2   -1    0    0    0  501  0.00000000000E+00  0.00000000000E+00  0.76727657076E+03  0.76727657077E+03  0.25500000920E-02 0.  1.
        2   -1    0    0  501    0  0.00000000000E+00  0.00000000000E+00 -0.88980022059E+03  0.88980022060E+03  0.25500000920E-02 0. -1.
    10030    2    1    2    0    0  0.00000000000E+00  0.00000000000E+00 -0.12252364983E+03  0.16570767914E+04  0.16525409065E+04 0.  0.
        1    1    3    3  502    0  0.23381962356E+03 -0.79210039713E+03 -0.36128983310E+02  0.82668008260E+03  0.50400001928E-02 0. -1.
       -1    1    3    3    0  502 -0.23381962356E+03  0.79210039713E+03 -0.86394666518E+02  0.83039670877E+03  0.50400001928E-02 0.  1.
</event>
<event>
 5   0  0.1149716E-03  0.1514290E+04  0.7818609E-02  0.8875005E-01
        2   -1    0    0  501    0  0.00000000000E+00  0.00000000000E+00  0.16463271214E+04  0.16463271214E+04  0.25500000920E-02 0.  1.
       -2   -1    0    0    0  501  0.00000000000E+00  0.00000000000E+00 -0.34821067482E+03  0.34821067483E+03  0.25500000920E-02 0. -1.
    10030    2    1    2    0    0  0.00000000000E+00  0.00000000000E+00  0.12981164466E+04  0.19945377963E+04  0.15142901676E+04 0.  0.
        1    1    3    3  502    0 -0.60687988427E+03 -0.40129779254E+03  0.92511082826E+03  0.11769337946E+04  0.50400001928E-02 0.  1.
       -1    1    3    3    0  502  0.60687988427E+03  0.40129779254E+03  0.37300561836E+03  0.81760400169E+03  0.50400001928E-02 0. -1.
</event>
<event>
 5   0  0.1147755E-03  0.1491290E+04  0.7818609E-02  0.8890266E-01
       -2   -1    0    0    0  501  0.00000000000E+00  0.00000000000E+00  0.45162768424E+03  0.45162768425E+03  0.25500000920E-02 0. -1.
        2   -1    0    0  501    0  0.00000000000E+00  0.00000000000E+00 -0.12310724573E+04  0.12310724573E+04  0.25500000920E-02 0.  1.
    10030    2    1    2    0    0  0.00000000000E+00  0.00000000000E+00 -0.77944477302E+03  0.16827001415E+04  0.14912899155E+04 0.  0.
        4    1    3    3  502    0  0.15279167483E+03 -0.30492609149E+03 -0.11378969123E+04  0.11879125444E+04  0.12699999809E+01 0.  1.
       -4    1    3    3    0  502 -0.15279167483E+03  0.30492609149E+03  0.35845213932E+03  0.49478759711E+03  0.12699999809E+01 0. -1.
</event>
<event>
 5   0  0.1097156E-03  0.1482750E+04  0.7818609E-02  0.8896005E-01
       -2   -1    0    0    0  501  0.00000000000E+00  0.00000000000E+00  0.35341833383E+03  0.35341833384E+03  0.25500000920E-02 0. -1.
        2   -1    0    0  501    0  0.00000000000E+00  0.00000000000E+00 -0.15552028460E+04  0.15552028460E+04  0.25500000920E-02 0.  1.
    10030    2    1    2    0    0  0.00000000000E+00  0.00000000000E+00 -0.12017845122E+04  0.19086211798E+04  0.14827504154E+04 0.  0.
        2    1    3    3  502    0  0.68286574463E+03  0.19967416277E+03 -0.86924469679E+03  0.11232816830E+04  0.25500000920E-02 0.  1.
       -2    1    3    3    0  502 -0.68286574463E+03 -0.19967416277E+03 -0.33253981538E+03  0.78533949684E+03  0.25500000920E-02 0. -1.
</event>
<event>
 5   0  0.1126175E-03  0.1396275E+04  0.7818609E-02  0.8956520E-01
        2   -1    0    0  501    0  0.00000000000E+00  0.00000000000E+00  0.40674911124E+03  0.40674911125E+03  0.25500000920E-02 0.  1.
       -2   -1    0    0    0  501  0.00000000000E+00  0.00000000000E+00 -0.11982709413E+04  0.11982709413E+04  0.25500000920E-02 0. -1.
    10030    2    1    2    0    0  0.00000000000E+00  0.00000000000E+00 -0.79152183008E+03  0.16050200526E+04  0.13962745295E+04 0.  0.
        3    1    3    3  502    0  0.29163379674E+03 -0.57482937759E+02  0.33037588237E+03  0.44441286366E+03  0.10100000352E+00 0.  1.
       -3    1    3    3    0  502 -0.29163379674E+03  0.57482937759E+02 -0.11218977125E+04  0.11606071889E+04  0.10100000352E+00 0. -1.
</event>
<event>
 5   0  0.5840834E-04  0.1495688E+04  0.7818609E-02  0.8887325E-01
        1   -1    0    0  501    0  0.00000000000E+00  0.00000000000E+00  0.42071262813E+03  0.42071262816E+03  0.50400001928E-02 0. -1.
       -1   -1    0    0    0  501  0.00000000000E+00  0.00000000000E+00 -0.13293420329E+04  0.13293420330E+04  0.50400001928E-02 0.  1.
    10030    2    1    2    0    0  0.00000000000E+00  0.00000000000E+00 -0.90862940482E+03  0.17500546611E+04  0.14956884440E+04 0.  0.
        3    1    3    3  502    0 -0.63921387673E+03 -0.27186430998E+02 -0.90738499899E+03  0.11102616938E+04  0.10100000352E+00 0.  1.
       -3    1    3    3    0  502  0.63921387673E+03  0.27186430998E+02 -0.12444058244E+01  0.63979296728E+03  0.10100000352E+00 0. -1.
</event>
<event>
 5   0  0.5606965E-04  0.1514876E+04  0.7818609E-02  0.8874620E-01
       -1   -1    0    0    0  501  0.00000000000E+00  0.00000000000E+00  0.64099959537E+03  0.64099959539E+03  0.50400001928E-02 0. -1.
        1   -1    0    0  501    0  0.00000000000E+00  0.00000000000E+00 -0.89502771117E+03  0.89502771118E+03  0.50400001928E-02 0.  1.
    10030    2    1    2    0    0  0.00000000000E+00  0.00000000000E+00 -0.25402811580E+03  0.15360273066E+04  0.15148761015E+04 0.  0.
        4    1    3    3  502    0  0.25181543864E+03  0.29348246642E+03 -0.78738914037E+03  0.87722644996E+03  0.12699999809E+01 0.  1.
       -4    1    3    3    0  502 -0.25181543864E+03 -0.29348246642E+03  0.53336102457E+03  0.65880085661E+03  0.12699999809E+01 0. -1.
</event>
<event>
 5   0  0.1126175E-03  0.1519677E+04  0.7818609E-02  0.8871472E-01
       -2   -1    0    0    0  501  0.00000000000E+00  0.00000000000E+00  0.14916965217E+04  0.14916965217E+04  0.25500000920E-02 0.  1.
        2   -1    0    0  501    0  0.00000000000E+00  0.00000000000E+00 -0.38704574678E+03  0.38704574679E+03  0.25500000920E-02 0. -1.
    10030    2    1    2    0    0  0.00000000000E+00  0.00000000000E+00  0.11046507749E+04  0.18787422685E+04  0.15196773266E+04 0.  0.
        3    1    3    3  502    0  0.37826532044E+03 -0.63256954175E+03  0.32394546618E+03  0.80508977950E+03  0.10100000352E+00 0. -1.
       -3    1    3    3    0  502 -0.37826532044E+03  0.63256954175E+03  0.78070530874E+03  0.10736524890E+04  0.10100000352E+00 0.  1.
</event>
<event>
 5   0  0.1097156E-03  0.1528887E+04  0.7818609E-02  0.8865467E-01
        2   -1    0    0  501    0  0.00000000000E+00  0.00000000000E+00  0.90961917105E+03  0.90961917105E+03  0.25500000920E-02 0. -1.
       -2   -1    0    0    0  501  0.00000000000E+00  0.00000000000E+00 -0.64243825111E+03  0.64243825111E+03  0.25500000920E-02 0.  1.
    10030    2    1    2    0    0  0.00000000000E+00  0.00000000000E+00  0.26718091994E+03  0.15520574222E+04  0.15288873725E+04 0.  0.
        2    1    3    3  502    0 -0.51598418222E+03  0.44680498480E+03  0.48304530078E+03  0.83618606384E+03  0.25500000920E-02 0. -1.
       -2    1    3    3    0  502  0.51598418222E+03 -0.44680498480E+03 -0.21586438084E+03  0.71587135832E+03  0.25500000920E-02 0.  1.
</event>
<event>
 5   0  0.5924403E-04  0.1380983E+04  0.7818609E-02  0.8967701E-01
       -1   -1    0    0    0  501  0.00000000000E+00  0.00000000000E+00  0.35069320649E+03  0.35069320653E+03  0.50400001928E-02 0.  1.
        1   -1    0    0  501    0  0.00000000000E+00  0.00000000000E+00 -0.13595307806E+04  0.13595307807E+04  0.50400001928E-02 0. -1.
    10030    2    1    2    0    0  0.00000000000E+00  0.00000000000E+00 -0.10088375742E+04  0.17102239872E+04  0.13809825615E+04 0.  0.
        1    1    3    3  502    0  0.60574488715E+03  0.25250253273E+03 -0.77029905604E+03  0.10119511021E+04  0.50400001928E-02 0. -1.
       -1    1    3    3    0  502 -0.60574488715E+03 -0.25250253273E+03 -0.23853851811E+03  0.69827288505E+03  0.50400001928E-02 0.  1.
</event>
<event>
 5   0  0.1149716E-03  0.1126620E+04  0.7818609E-02  0.9179628E-01
        2   -1    0    0  501    0  0.00000000000E+00  0.00000000000E+00  0.11304402227E+04  0.11304402227E+04  0.25500000920E-02 0.  1.
       -2   -1    0    0    0  501  0.00000000000E+00  0.00000000000E+00 -0.28070316064E+03  0.28070316065E+03  0.25500000920E-02 0. -1.
    10030    2    1    2    0    0  0.00000000000E+00  0.00000000000E+00  0.84973706211E+03  0.14111433834E+04  0.11266199775E+04 0.  0.
        1    1    3    3  502    0 -0.81269827133E+02 -0.50459313852E+03  0.72153723373E+03  0.88421434049E+03  0.50400001928E-02 0.  1.
       -1    1    3    3    0  502  0.81269827133E+02  0.50459313852E+03  0.12819982838E+03  0.52692904291E+03  0.50400001928E-02 0. -1.
</event>
<event>
 5   0  0.5914645E-04  0.1489918E+04  0.7818609E-02  0.8891185E-01
        1   -1    0    0  501    0  0.00000000000E+00  0.00000000000E+00  0.62617868997E+03  0.62617868999E+03  0.50400001928E-02 0.  1.
       -1   -1    0    0    0  501  0.00000000000E+00  0.00000000000E+00 -0.88627129412E+03  0.88627129414E+03  0.50400001928E-02 0. -1.
    10030    2    1    2    0    0  0.00000000000E+00  0.00000000000E+00 -0.26009260416E+03  0.15124499841E+04  0.14899183843E+04 0.  0.
        2    1    3    3  502    0  0.24117221211E+03 -0.47198130785E+03 -0.66144515773E+03  0.84760845179E+03  0.25500000920E-02 0. -1.
       -2    1    3    3    0  502 -0.24117221211E+03  0.47198130785E+03  0.40135255357E+03  0.66484153234E+03  0.25500000920E-02 0.  1.
</event>
<event>
 5   0  0.1082667E-03  0.1543624E+04  0.7818609E-02  0.8855951E-01
       -2   -1    0    0    0  501  0.00000000000E+00  0.00000000000E+00  0.70883889168E+03  0.70883889168E+03  0.25500000920E-02 0.  1.
        2   -1    0    0  501    0  0.00000000000E+00  0.00000000000E+00 -0.84037981974E+03  0.84037981975E+03  0.25500000920E-02 0. -1.
    10030    2    1    2    0    0  0.00000000000E+00  0.00000000000E+00 -0.13154092806E+03  0.15492187114E+04  0.15436241771E+04 0.  0.
        5    1    3    3  502    0 -0.21854403744E+03  0.63631676412E+03  0.31376846066E+03  0.74238349760E+03  0.46999998093E+01 0. -1.
       -5    1    3    3    0  502  0.21854403744E+03 -0.63631676412E+03 -0.44530938872E+03  0.80683521383E+03  0.46999998093E+01 0.  1.
</event>
<event>
 5   0  0.5914645E-04  0.1484847E+04  0.7818609E-02  0.8894592E-01
        1   -1    0    0  501    0  0.00000000000E+00  0.00000000000E+00  0.10822674165E+04  0.10822674165E+04  0.50400001928E-02 0. -1.
       -1   -1    0    0    0  501  0.00000000000E+00  0.00000000000E+00 -0.50929459280E+03  0.50929459282E+03  0.50400001928E-02 0.  1.
    10030    2    1    2    0    0  0.00000000000E+00  0.00000000000E+00  0.57297282366E+03  0.15915620093E+04  0.14848473904E+04 0.  0.
        2    1    3    3  502    0 -0.45536112638E+03 -0.26039154649E+03 -0.27666367898E+03  0.59304325658E+03  0.25500000920E-02 0.  1.
       -2    1    3    3    0  502  0.45536112638E+03  0.26039154649E+03  0.84963650264E+03  0.99851875271E+03  0.25500000920E-02 0. -1.
</event>
<event>
 5   0  0.5840834E-04  0.1500182E+04  0.7818609E-02  0.8884332E-01
        1   -1    0    0  501    0  0.00000000000E+00  0.00000000000E+00  0.94721727308E+03  0.94721727309E+03  0.50400001928E-02 0.  1.
       -1   -1    0    0    0  501  0.00000000000E+00  0.00000000000E+00 -0.59398909946E+03  0.59398909948E+03  0.50400001928E-02 0. -1.
    10030    2    1    2    0    0  0.00000000000E+00  0.00000000000E+00  0.35322817362E+03  0.15412063726E+04  0.15001823023E+04 0.  0.
        3    1    3    3  502    0  0.13911706249E+03  0.13183300663E+03  0.92163707907E+03  0.94135456361E+03  0.10100000352E+00 0.  1.
       -3    1    3    3    0  502 -0.13911706249E+03 -0.13183300663E+03 -0.56840890545E+03  0.59985180896E+03  0.10100000352E+00 0. -1.
</event>
<event>
 5   0  0.6146552E-04  0.1498221E+04  0.7818609E-02  0.8885637E-01
       -1   -1    0    0    0  501  0.00000000000E+00  0.00000000000E+00  0.56496289937E+03  0.56496289940E+03  0.50400001928E-02 0. -1.
        1   -1    0    0  501    0  0.00000000000E+00  0.00000000000E+00 -0.99327976386E+03  0.99327976387E+03  0.50400001928E-02 0.  1.
    10030    2    1    2    0    0  0.00000000000E+00  0.00000000000E+00 -0.42831686449E+03  0.15582426633E+04  0.14982205649E+04 0.  0.
        5    1    3    3  502    0 -0.74014728681E+03 -0.11539152731E+03 -0.21072235747E+03  0.77817685180E+03  0.46999998093E+01 0. -1.
       -5    1    3    3    0  502  0.74014728681E+03  0.11539152731E+03 -0.21759450702E+03  0.78006581147E+03  0.46999998093E+01 0.  1.
</event>
<event>
 5   0  0.1149716E-03  0.1473977E+04  0.7818609E-02  0.8901945E-01
        2   -1    0    0  501    0  0.00000000000E+00  0.00000000000E+00  0.26183282075E+03  0.26183282076E+03  0.25500000920E-02 0. -1.
       -2   -1    0    0    0  501  0.00000000000E+00  0.00000000000E+00 -0.20744237802E+04  0.20744237802E+04  0.25500000920E-02 0.  1.
    10030    2    1    2    0    0  0.00000000000E+00  0.00000000000E+00 -0.18125909595E+04  0.23362566010E+04  0.14739772452E+04 0.  0.
        1    1    3    3  502    0  0.23970661277E+02 -0.65861592026E+02  0.25653846801E+03  0.26594045856E+03  0.50400001928E-02 0. -1.
       -1    1    3    3    0  502 -0.23970661277E+02  0.65861592026E+02 -0.20691294275E+04  0.20703161424E+04  0.50400001928E-02 0.  1.
</event>
<event>
 5   0  0.5840834E-04  0.1408081E+04  0.7818609E-02  0.8947990E-01
        1   -1    0    0  501    0  0.00000000000E+00  0.00000000000E+00  0.68449725424E+03  0.68449725426E+03  0.50400001928E-02 0. -1.
       -1   -1    0    0    0  501  0.00000000000E+00  0.00000000000E+00 -0.72414142795E+03  0.72414142797E+03  0.50400001928E-02 0.  1.
    10030    2    1    2    0    0  0.00000000000E+00  0.00000000000E+00 -0.39644173711E+02  0.14086386822E+04  0.14080807067E+04 0.  0.
        3    1    3    3  502    0 -0.66987066831E+03  0.20283022918E+03  0.56405186224E+02  0.70217403069E+03  0.10100000352E+00 0.  1.
       -3    1    3    3    0  502  0.66987066831E+03 -0.20283022918E+03 -0.96049359936E+02  0.70646465155E+03  0.10100000352E+00 0. -1.
</event>
<event>
 5   0  0.1097156E-03  0.1495157E+04  0.7818609E-02  0.8887680E-01
        2   -1    0    0  501    0  0.00000000000E+00  0.00000000000E+00  0.68618702770E+03  0.68618702771E+03  0.25500000920E-02 0. -1.
       -2   -1    0    0    0  501  0.00000000000E+00  0.00000000000E+00 -0.81446207735E+03  0.81446207736E+03  0.25500000920E-02 0.  1.
    10030    2    1    2    0    0  0.00000000000E+00  0.00000000000E+00 -0.12827504965E+03  0.15006491051E+04  0.14951565965E+04 0.  0.
        2    1    3    3  502    0 -0.53946188370E+02 -0.10452817192E+03 -0.80511577079E+03  0.81366315779E+03  0.25500000920E-02 0.  1.
       -2    1    3    3    0  502  0.53946188370E+02  0.10452817192E+03  0.67684072113E+03  0.68698594728E+03  0.25500000920E-02 0. -1.
</event>
<event>
 5   0  0.5606965E-04  0.1533694E+04  0.7818609E-02  0.8862351E-01
        1   -1    0    0  501    0  0.00000000000E+00  0.00000000000E+00  0.14391471165E+04  0.14391471165E+04  0.50400001928E-02 0.  1.
       -1   -1    0    0    0  501  0.00000000000E+00  0.00000000000E+00 -0.40861325933E+03  0.40861325936E+03  0.50400001928E-02 0. -1.
    10030    2    1    2    0    0  0.00000000000E+00  0.00000000000E+00  0.10305338572E+04  0.18477603758E+04  0.15336943554E+04 0.  0.
        4    1    3    3  502    0 -0.46990589692E+03 -0.20282791617E+03  0.12032594833E+04  0.13075877457E+04  0.12699999809E+01 0.  1.
       -4    1    3    3    0  502  0.46990589692E+03  0.20282791617E+03 -0.17272562618E+03  0.54017263016E+03  0.12699999809E+01 0. -1.
</event>
<event>
 5   0  0.6146552E-04  0.1399350E+04  0.7818609E-02  0.8954289E-01
        1   -1    0    0  501    0  0.00000000000E+00  0.00000000000E+00  0.20780745577E+04  0.20780745577E+04  0.50400001928E-02 0. -1.
       -1   -1    0    0    0  501  0.00000000000E+00  0.00000000000E+00 -0.23557625405E+03  0.23557625411E+03  0.50400001928E-02 0.  1.
    10030    2    1    2    0    0  0.00000000000E+00  0.00000000000E+00  0.18424983036E+04  0.23136508118E+04  0.13993498776E+04 0.  0.
        5    1    3    3  502    0  0.67740022697E+03  0.14656824251E+03  0.10795732410E+04  0.12829083326E+04  0.46999998093E+01 0.  1.
       -5    1    3    3    0  502 -0.67740022697E+03 -0.14656824251E+03  0.76292506261E+03  0.10307424792E+04  0.46999998093E+01 0. -1.
</event>
<event>
 5   0  0.1082667E-03  0.1520374E+04  0.7818609E-02  0.8871016E-01
       -2   -1    0    0    0  501  0.00000000000E+00  0.00000000000E+00  0.43950372826E+03  0.43950372827E+03  0.25500000920E-02 0.  1.
        2   -1    0    0  501    0  0.00000000000E+00  0.00000000000E+00 -0.13148571092E+04  0.13148571092E+04  0.25500000920E-02 0. -1.
    10030    2    1    2    0    0  0.00000000000E+00  0.00000000000E+00 -0.87535338090E+03  0.17543608374E+04  0.15203744297E+04 0.  0.
        5    1    3    3  502    0 -0.24025208351E+03 -0.35635924108E+03 -0.11611912129E+04  0.12381841927E+04  0.46999998093E+01 0. -1.
       -5    1    3    3    0  502  0.24025208351E+03  0.35635924108E+03  0.28583783197E+03  0.51617664468E+03  0.46999998093E+01 0.  1.
</event>
<event>
 5   0  0.6146552E-04  0.1475492E+04  0.7818609E-02  0.8900916E-01
        1   -1    0    0  501    0  0.00000000000E+00  0.00000000000E+00  0.76972580974E+03  0.76972580975E+03  0.50400001928E-02 0.  1.
       -1   -1    0    0    0  501  0.00000000000E+00  0.00000000000E+00 -0.70709489393E+03  0.70709489395E+03  0.50400001928E-02 0. -1.
    10030    2    1    2    0    0  0.00000000000E+00  0.00000000000E+00  0.62630915805E+02  0.14768207037E+04  0.14754920397E+04 0.  0.
        5    1    3    3  502    0  0.18908833494E+03 -0.50002473139E+03 -0.47753980049E+03  0.71683016221E+03  0.46999998093E+01 0. -1.
       -5    1    3    3    0  502 -0.18908833494E+03  0.50002473139E+03  0.54017071629E+03  0.75999054149E+03  0.46999998093E+01 0.  1.
</event>
<event>
 5   0  0.5914645E-04  0.1525263E+04  0.7818609E-02  0.8867825E-01
       -1   -1    0    0    0  501  0.00000000000E+00  0.00000000000E+00  0.55804579610E+03  0.55804579612E+03  0.50400001928E-02 0. -1.
        1   -1    0    0  501    0  0.00000000000E+00  0.00000000000E+00 -0.10422200392E+04  0.10422200392E+04  0.50400001928E-02 0.  1.
    10030    2    1    2    0    0  0.00000000000E+00  0.00000000000E+00 -0.48417424312E+03  0.16002658354E+04  0.15252626155E+04 0.  0.
        2    1    3    3  502    0  0.23497097134E+03  0.80223712877E+02  0.51445338708E+03  0.57123505579E+03  0.25500000920E-02 0. -1.
       -2    1    3    3    0  502 -0.23497097134E+03 -0.80223712877E+02 -0.99862763020E+03  0.10290307796E+04  0.25500000920E-02 0.  1.
</event>
<event>
 5   0  0.1149716E-03  0.1486841E+04  0.7818609E-02  0.8893251E-01
        2   -1    0    0  501    0  0.00000000000E+00  0.00000000000E+00  0.65704291408E+03  0.65704291408E+03  0.25500000920E-02 0.  1.
       -2   -1    0    0    0  501  0.00000000000E+00  0.00000000000E+00 -0.84115368432E+03  0.84115368433E+03  0.25500000920E-02 0. -1.
    10030    2    1    2    0    0  0.00000000000E+00  0.00000000000E+00 -0.18411077025E+03  0.14981965984E+04  0.14868410378E+04 0.  0.
        1    1    3    3  502    0  0.48853683156E+03 -0.19739301554E+03  0.43639429747E+03  0.68415803822E+03  0.50400001928E-02 0.  1.
       -1    1    3    3    0  502 -0.48853683156E+03  0.19739301554E+03 -0.62050506772E+03  0.81403856018E+03  0.50400001928E-02 0. -1.
</event>
<event>
 5   0  0.5606965E-04  0.1516460E+04  0.7818609E-02  0.8873580E-01
        1   -1    0    0  501    0  0.00000000000E+00  0.00000000000E+00  0.22779086900E+04  0.22779086900E+04  0.50400001928E-02 0. -1.
       -1   -1    0    0    0  501  0.00000000000E+00  0.00000000000E+00 -0.25238625444E+03  0.25238625449E+03  0.50400001928E-02 0.  1.
    10030    2    1    2    0    0  0.00000000000E+00  0.00000000000E+00  0.20255224356E+04  0.25302949445E+04  0.15164601443E+04 0.  0.
        4    1    3    3  502    0 -0.66371542540E+03  0.29284486039E+03  0.13807328926E+04  0.15597119003E+04  0.12699999809E+01 0. -1.
       -4    1    3    3    0  502  0.66371542540E+03 -0.29284486039E+03  0.64478954293E+03  0.97058304423E+03  0.12699999809E+01 0.  1.
</event>
<event>
 5   0  0.1149716E-03  0.1487761E+04  0.7818609E-02  0.8892633E-01
       -2   -1    0    0    0  501  0.00000000000E+00  0.00000000000E+00  0.51150389077E+03  0.51150389078E+03  0.25500000920E-02 0. -1.
        2   -1    0    0  501    0  0.00000000000E+00  0.00000000000E+00 -0.10818261769E+04  0.10818261769E+04  0.25500000920E-02 0.  1.
    10030    2    1    2    0    0  0.00000000000E+00  0.00000000000E+00 -0.57032228609E+03  0.15933300677E+04  0.14877611349E+04 0.  0.
        1    1    3    3  502    0 -0.43981859936E+03  0.28039684263E+02 -0.92696067726E+03  0.10263930638E+04  0.50400001928E-02 0.  1.
       -1    1    3    3    0  502  0.43981859936E+03 -0.28039684263E+02  0.35663839117E+03  0.56693700383E+03  0.50400001928E-02 0. -1.
</event>
<event>
 5   0  0.1149716E-03  0.1514799E+04  0.7818609E-02  0.8874671E-01
        2   -1    0    0  501    0  0.00000000000E+00  0.00000000000E+00  0.13092963806E+04  0.13092963806E+04  0.25500000920E-02 0.  1.
       -2   -1    0    0    0  501  0.00000000000E+00  0.00000000000E+00 -0.43813918453E+03  0.43813918454E+03  0.25500000920E-02 0. -1.
    10030    2    1    2    0    0  0.00000000000E+00  0.00000000000E+00  0.87115719605E+03  0.17474355651E+04  0.15147990606E+04 0.  0.
        1    1    3    3  502    0 -0.72169842203E+03  0.20041235856E+03  0.30588300376E+03  0.80906003352E+03  0.50400001928E-02 0. -1.
       -1    1    3    3    0  502  0.72169842203E+03 -0.20041235856E+03  0.56527419229E+03  0.93837553161E+03  0.50400001928E-02 0.  1.
</event>
<event>
 5   0  0.5606965E-04  0.1508223E+04  0.7818609E-02  0.8879003E-01
       -1   -1    0    0    0  501  0.00000000000E+00  0.00000000000E+00  0.21624518180E+03  0.21624518186E+03  0.50400001928E-02 0. -1.
        1   -1    0    0  501    0  0.00000000000E+00  0.00000000000E+00 -0.26298116012E+04  0.26298116012E+04  0.50400001928E-02 0.  1.
    10030    2    1    2    0    0  0.00000000000E+00  0.00000000000E+00 -0.24135664194E+04  0.28460567831E+04  0.15082229118E+04 0.  0.
        4    1    3    3  502    0 -0.27308154942E+02 -0.75355967112E+03 -0.11894305929E+04  0.14083127002E+04  0.12699999809E+01 0.  1.
       -4    1    3    3    0  502  0.27308154942E+02  0.75355967112E+03 -0.12241358265E+04  0.14377440829E+04  0.12699999809E+01 0. -1.
</event>
<event>
 5   0  0.5840834E-04  0.1504992E+04  0.7818609E-02  0.8881140E-01
        1   -1    0    0  501    0  0.00000000000E+00  0.00000000000E+00  0.74871453672E+03  0.74871453674E+03  0.50400001928E-02 0.  1.
       -1   -1    0    0    0  501  0.00000000000E+00  0.00000000000E+00 -0.75629699411E+03  0.75629699413E+03  0.50400001928E-02 0. -1.
    10030    2    1    2    0    0  0.00000000000E+00  0.00000000000E+00 -0.75824573898E+01  0.15050115309E+04  0.15049924300E+04 0.  0.
        3    1    3    3  502    0 -0.23795435007E+03  0.19221286945E+02 -0.71742400511E+03  0.75610114660E+03  0.10100000352E+00 0. -1.
       -3    1    3    3    0  502  0.23795435007E+03 -0.19221286945E+02  0.70984154772E+03  0.74891038426E+03  0.10100000352E+00 0.  1.
</event>
<event>
 5   0  0.1149716E-03  0.1494302E+04  0.7818609E-02  0.8888251E-01
       -2   -1    0    0    0  501  0.00000000000E+00  0.00000000000E+00  0.34959486940E+03  0.34959486941E+03  0.25500000920E-02 0. -1.
        2   -1    0    0  501    0  0.00000000000E+00  0.00000000000E+00 -0.15968049906E+04  0.15968049906E+04  0.25500000920E-02 0.  1.
    10030    2    1    2    0    0  0.00000000000E+00  0.00000000000E+00 -0.12472101212E+04  0.19463998600E+04  0.14943022882E+04 0.  0.
        1    1    3    3  502    0 -0.68808279620E+03 -0.20687033546E+03 -0.89048928292E+03  0.11442134561E+04  0.50400001928E-02 0. -1.
       -1    1    3    3    0  502  0.68808279620E+03  0.20687033546E+03 -0.35672083828E+03  0.80218640390E+03  0.50400001928E-02 0.  1.
</event>
<event>
 5   0  0.5606965E-04  0.1549290E+04  0.7818609E-02  0.8852321E-01
       -1   -1    0    0    0  501  0.00000000000E+00  0.00000000000E+00  0.10286640356E+04  0.10286640357E+04  0.50400001928E-02 0. -1.
        1   -1    0    0  501    0  0.00000000000E+00  0.00000000000E+00 -0.58335384003E+03  0.58335384005E+03  0.50400001928E-02 0.  1.
    10030    2    1    2    0    0  0.00000000000E+00  0.00000000000E+00  0.44531019562E+03  0.16120178757E+04  0.15492903089E+04 0.  0.
        4    1    3    3  502    0  0.71473128861E+03 -0.97253007935E+02  0.51653453759E+03  0.88719135698E+03  0.12699999809E+01 0. -1.
       -4    1    3    3    0  502 -0.71473128861E+03  0.97253007935E+02 -0.71224341974E+02  0.72482651874E+03  0.12699999809E+01 0.  1.
</event>
<event>
 5   0  0.5924403E-04  0.1477541E+04  0.7818609E-02  0.8899527E-01
       -1   -1    0    0    0  501  0.00000000000E+00  0.00000000000E+00  0.74964390506E+03  0.74964390508E+03  0.50400001928E-02 0. -1.
        1   -1    0    0  501    0  0.00000000000E+00  0.00000000000E+00 -0.72805498389E+03  0.72805498391E+03  0.50400001928E-02 0.  1.
    10030    2    1    2    0    0  0.00000000000E+00  0.00000000000E+00  0.21588921169E+02  0.14776988890E+04  0.14775411754E+04 0.  0.
        1    1    3    3  502    0 -0.58325326991E+03  0.91218258211E+02  0.45500043855E+03  0.74533921579E+03  0.50400001928E-02 0.  1.
       -1    1    3    3    0  502  0.58325326991E+03 -0.91218258211E+02 -0.43341151738E+03  0.73235967319E+03  0.50400001928E-02 0. -1.
</event>
<event>
 5   0  0.6146552E-04  0.1478276E+04  0.7818609E-02  0.8899029E-01
        1   -1    0    0  501    0  0.00000000000E+00  0.00000000000E+00  0.11367157268E+04  0.11367157268E+04  0.50400001928E-02 0.  1.
       -1   -1    0    0    0  501  0.00000000000E+00  0.00000000000E+00 -0.48061700775E+03  0.48061700778E+03  0.50400001928E-02 0. -1.
    10030    2    1    2    0    0  0.00000000000E+00  0.00000000000E+00  0.65609871901E+03  0.16173327346E+04  0.14782759029E+04 0.  0.
        5    1    3    3  502    0  0.38935197628E+03  0.45037451621E+03 -0.15118523194E+03  0.61425664883E+03  0.46999998093E+01 0. -1.
       -5    1    3    3    0  502 -0.38935197628E+03 -0.45037451621E+03  0.80728395095E+03  0.10030760857E+04  0.46999998093E+01 0.  1.
</event>
<event>
 5   0  0.1147755E-03  0.1374264E+04  0.7818609E-02  0.8972661E-01
        2   -1    0    0  501    0  0.00000000000E+00  0.00000000000E+00  0.83607784181E+03  0.83607784181E+03  0.25500000920E-02 0. -1.
       -2   -1    0    0    0  501  0.00000000000E+00  0.00000000000E+00 -0.56472030228E+03  0.56472030228E+03  0.25500000920E-02 0.  1.
    10030    2    1    2    0    0  0.00000000000E+00  0.00000000000E+00  0.27135753953E+03  0.14007981441E+04  0.13742636305E+04 0.  0.
        4    1    3    3  502    0 -0.65760787403E+03 -0.17651408952E+03  0.22989272891E+03  0.71864985875E+03  0.12699999809E+01 0.  1.
       -4    1    3    3    0  502  0.65760787403E+03  0.17651408952E+03  0.41464810615E+02  0.68214828534E+03  0.12699999809E+01 0. -1.
</event>
<event>
 5   0  0.1097156E-03  0.1503407E+04  0.7818609E-02  0.8882190E-01
        2   -1    0    0  501    0  0.00000000000E+00  0.00000000000E+00  0.12679720892E+04  0.12679720892E+04  0.25500000920E-02 0. -1.
       -2   -1    0    0    0  501  0.00000000000E+00  0.00000000000E+00 -0.44563929316E+03  0.44563929317E+03  0.25500000920E-02 0.  1.
    10030    2    1    2    0    0  0.00000000000E+00  0.00000000000E+00  0.82233279600E+03  0.17136113823E+04  0.15034070448E+04 0.  0.
        2    1    3    3  502    0 -0.97044118297E+02  0.28741050690E+03  0.11951063063E+04  0.12330050461E+04  0.25500000920E-02 0. -1.
       -2    1    3    3    0  502  0.97044118297E+02 -0.28741050690E+03 -0.37277351033E+03  0.48060633619E+03  0.25500000920E-02 0.  1.
</event>
<event>
 5   0  0.6146552E-04  0.1483650E+04  0.7818609E-02  0.8895399E-01
       -1   -1    0    0    0  501  0.00000000000E+00  0.00000000000E+00  0.67605412142E+03  0.67605412144E+03  0.50400001928E-02 0.  1.
        1   -1    0    0  501    0  0.00000000000E+00  0.00000000000E+00 -0.81399448371E+03  0.81399448373E+03  0.50400001928E-02 0. -1.
    10030    2    1    2    0    0  0.00000000000E+00  0.00000000000E+00 -0.13794036229E+03  0.14900486052E+04  0.14836499932E+04 0.  0.
        5    1    3    3  502    0 -0.25912710651E+03 -0.42070281267E+03 -0.62465972184E+03  0.79646693090E+03  0.46999998093E+01 0. -1.
       -5    1    3    3    0  502  0.25912710651E+03  0.42070281267E+03  0.48671935955E+03  0.69358167427E+03  0.46999998093E+01 0.  1.
</event>
<event>
 5   0  0.5924403E-04  0.1495859E+04  0.7818609E-02  0.8887211E-01
        1   -1    0    0  501    0  0.00000000000E+00  0.00000000000E+00  0.51371600315E+03  0.51371600317E+03  0.50400001928E-02 0. -1.
       -1   -1    0    0    0  501  0.00000000000E+00  0.00000000000E+00 -0.10889255324E+04  0.10889255324E+04  0.50400001928E-02 0.  1.
    10030    2    1    2    0    0  0.00000000000E+00  0.00000000000E+00 -0.57520952924E+03  0.16026415356E+04  0.14958589135E+04 0.  0.
        1    1    3    3  502    0  0.22703818787E+03  0.26026513841E+03  0.42316418425E+03  0.54621626475E+03  0.50400001928E-02 0. -1.
       -1    1    3    3    0  502 -0.22703818787E+03 -0.26026513841E+03 -0.99837371349E+03  0.10564252708E+04  0.50400001928E-02 0.  1.
</event>
<event>
 5   0  0.1126175E-03  0.1446848E+04  0.7818609E-02  0.8920589E-01
        2   -1    0    0  501    0  0.00000000000E+00  0.00000000000E+00  0.14025719768E+04  0.14025719768E+04  0.25500000920E-02 0. -1.
       -2   -1    0    0    0  501  0.00000000000E+00  0.00000000000E+00 -0.37313034268E+03  0.37313034269E+03  0.25500000920E-02 0.  1.
    10030    2    1    2    0    0  0.00000000000E+00  0.00000000000E+00  0.10294416341E+04  0.17757023195E+04  0.14468478321E+04 0.  0.
        3    1    3    3  502    0 -0.29964384137E+03  0.62568243602E+03  0.76647156553E+03  0.10338005675E+04  0.10100000352E+00 0.  1.
       -3    1    3    3    0  502  0.29964384137E+03 -0.62568243602E+03  0.26297006860E+03  0.74190175199E+03  0.10100000352E+00 0. -1.
</event>
<event>
 5   0  0.1147755E-03  0.1353795E+04  0.7818609E-02  0.8987960E-01
       -2   -1    0    0    0  501  0.00000000000E+00  0.00000000000E+00  0.11600837655E+04  0.11600837655E+04  0.25500000920E-02 0. -1.
        2   -1    0    0  501    0  0.00000000000E+00  0.00000000000E+00 -0.39496320960E+03  0.39496320961E+03  0.25500000920E-02 0.  1.
    10030    2    1    2    0    0  0.00000000000E+00  0.00000000000E+00  0.76512055585E+03  0.15550469751E+04  0.13537952687E+04 0.  0.
        4    1    3    3  502    0 -0.23657470191E+03 -0.54454621429E+03  0.75598989108E+03  0.96125984905E+03  0.12699999809E+01 0. -1.
       -4    1    3    3    0  502  0.23657470191E+03  0.54454621429E+03  0.91306647743E+01  0.59378712601E+03  0.12699999809E+01 0.  1.
</event>
<event>
 5   0  0.1147755E-03  0.1476284E+04  0.7818609E-02  0.8900379E-01
        2   -1    0    0  501    0  0.00000000000E+00  0.00000000000E+00  0.61648995257E+03  0.61648995258E+03  0.25500000920E-02 0. -1.
       -2   -1    0    0    0  501  0.00000000000E+00  0.00000000000E+00 -0.88379924293E+03  0.88379924294E+03  0.25500000920E-02 0.  1.
    10030    2    1    2    0    0  0.00000000000E+00  0.00000000000E+00 -0.26730929036E+03  0.15002891955E+04  0.14762836494E+04 0.  0.
        4    1    3    3  502    0  0.42433898656E+03 -0.59789129965E+03 -0.22056816994E+03  0.76563014061E+03  0.12699999809E+01 0. -1.
       -4    1    3    3    0  502 -0.42433898656E+03  0.59789129965E+03 -0.46741120418E+02  0.73465905491E+03  0.12699999809E+01 0.  1.
</event>
<event>
 5   0  0.5840834E-04  0.1584441E+04  0.7818609E-02  0.8830164E-01
        1   -1    0    0  501    0  0.00000000000E+00  0.00000000000E+00  0.71739328075E+03  0.71739328077E+03  0.50400001928E-02 0. -1.
       -1   -1    0    0    0  501  0.00000000000E+00  0.00000000000E+00 -0.87485198401E+03  0.87485198402E+03  0.50400001928E-02 0.  1.
    10030    2    1    2    0    0  0.00000000000E+00  0.00000000000E+00 -0.15745870325E+03  0.15922452648E+04  0.15844405132E+04 0.  0.
        3    1    3    3  502    0  0.13002064063E+03 -0.75787398222E+02 -0.86035487329E+03  0.87341835046E+03  0.10100000352E+00 0.  1.
       -3    1    3    3    0  502 -0.13002064063E+03  0.75787398222E+02  0.70289617004E+03  0.71882691433E+03  0.10100000352E+00 0. -1.
</event>
<event>
 5   0  0.5840834E-04  0.1502787E+04  0.7818609E-02  0.8882602E-01
       -1   -1    0    0    0  501  0.00000000000E+00  0.00000000000E+00  0.36218123759E+03  0.36218123762E+03  0.50400001928E-02 0. -1.
        1   -1    0    0  501    0  0.00000000000E+00  0.00000000000E+00 -0.15588659049E+04  0.15588659049E+04  0.50400001928E-02 0.  1.
    10030    2    1    2    0    0  0.00000000000E+00  0.00000000000E+00 -0.11966846673E+04  0.19210471425E+04  0.15027867217E+04 0.  0.
        3    1    3    3  502    0 -0.46636293247E+03 -0.52971030083E+03 -0.26868217211E+03  0.75516720493E+03  0.10100000352E+00 0.  1.
       -3    1    3    3    0  502  0.46636293247E+03  0.52971030083E+03 -0.92800249517E+03  0.11658799376E+04  0.10100000352E+00 0. -1.
</event>
<event>
 5   0  0.5840834E-04  0.1515130E+04  0.7818609E-02  0.8874453E-01
       -1   -1    0    0    0  501  0.00000000000E+00  0.00000000000E+00  0.10150103817E+04  0.10150103817E+04  0.50400001928E-02 0. -1.
        1   -1    0    0  501    0  0.00000000000E+00  0.00000000000E+00 -0.56541779734E+03  0.56541779737E+03  0.50400001928E-02 0.  1.
    10030    2    1    2    0    0  0.00000000000E+00  0.00000000000E+00  0.44959258438E+03  0.15804281791E+04  0.15151302708E+04 0.  0.
        3    1    3    3  502    0 -0.32199697226E+03 -0.43112009397E+03 -0.33143801754E+03  0.63197923640E+03  0.10100000352E+00 0.  1.
       -3    1    3    3    0  502  0.32199697226E+03  0.43112009397E+03  0.78103060192E+03  0.94844894270E+03  0.10100000352E+00 0. -1.
</event>
<event>
 5   0  0.5914645E-04  0.1510847E+04  0.7818609E-02  0.8877272E-01
        1   -1    0    0  501    0  0.00000000000E+00  0.00000000000E+00  0.91108630691E+03  0.91108630692E+03  0.50400001928E-02 0.  1.
       -1   -1    0    0    0  501  0.00000000000E+00  0.00000000000E+00 -0.62635607586E+03  0.62635607588E+03  0.50400001928E-02 0. -1.
    10030    2    1    2    0    0  0.00000000000E+00  0.00000000000E+00  0.28473023105E+03  0.15374423828E+04  0.15108467083E+04 0.  0.
        2    1    3    3  502    0 -0.63309351046E+02  0.72484992382E+03 -0.64308452608E+02  0.73044579749E+03  0.25500000920E-02 0.  1.
       -2    1    3    3    0  502  0.63309351046E+02 -0.72484992382E+03  0.34903868366E+03  0.80699658530E+03  0.25500000920E-02 0. -1.
</event>
<event>
 5   0  0.1126175E-03  0.1541721E+04  0.7818609E-02  0.8857173E-01
        2   -1    0    0  501    0  0.00000000000E+00  0.00000000000E+00  0.81655580336E+03  0.81655580337E+03  0.25500000920E-02 0.  1.
       -2   -1    0    0    0  501  0.00000000000E+00  0.00000000000E+00 -0.72772227756E+03  0.72772227756E+03  0.25500000920E-02 0. -1.
    10030    2    1    2    0    0  0.00000000000E+00  0.00000000000E+00  0.88833525809E+02  0.15442780809E+04  0.15417209202E+04 0.  0.
        3    1    3    3  502    0  0.10594515133E+03 -0.38936842881E+03  0.70231183903E+03  0.80998399854E+03  0.10100000352E+00 0.  1.
       -3    1    3    3    0  502 -0.10594515133E+03  0.38936842881E+03 -0.61347831322E+03  0.73429408239E+03  0.10100000352E+00 0. -1.
</event>
<event>
 5   0  0.1126175E-03  0.1520953E+04  0.7818609E-02  0.8870638E-01
        2   -1    0    0  501    0  0.00000000000E+00  0.00000000000E+00  0.91068139549E+03  0.91068139549E+03  0.25500000920E-02 0. -1.
       -2   -1    0    0    0  501  0.00000000000E+00  0.00000000000E+00 -0.63504577017E+03  0.63504577017E+03  0.25500000920E-02 0.  1.
    10030    2    1    2    0    0  0.00000000000E+00  0.00000000000E+00  0.27563562532E+03  0.15457271657E+04  0.15209528174E+04 0.  0.
        3    1    3    3  502    0  0.41324137423E+03 -0.36544758900E+03 -0.39416247120E+03  0.67800032270E+03  0.10100000352E+00 0.  1.
       -3    1    3    3    0  502 -0.41324137423E+03  0.36544758900E+03  0.66979809652E+03  0.86772684296E+03  0.10100000352E+00 0. -1.
</event>
<event>
 5   0  0.5840834E-04  0.1488093E+04  0.7818609E-02  0.8892410E-01
        1   -1    0    0  501    0  0.00000000000E+00  0.00000000000E+00  0.48688793326E+03  0.48688793328E+03  0.50400001928E-02 0.  1.
       -1   -1    0    0    0  501  0.00000000000E+00  0.00000000000E+00 -0.11370282225E+04  0.11370282225E+04  0.50400001928E-02 0. -1.
    10030    2    1    2    0    0  0.00000000000E+00  0.00000000000E+00 -0.65014028925E+03  0.16239161558E+04  0.14880931709E+04 0.  0.
        3    1    3    3  502    0 -0.62228830652E+03  0.28790840631E+03 -0.97860002273E+01  0.68573301135E+03  0.10100000352E+00 0.  1.
       -3    1    3    3    0  502  0.62228830652E+03 -0.28790840631E+03 -0.64035428903E+03  0.93818314445E+03  0.10100000352E+00 0. -1.
</event>
<event>
 5   0  0.1097156E-03  0.1495060E+04  0.7818609E-02  0.8887744E-01
       -2   -1    0    0    0  501  0.00000000000E+00  0.00000000000E+00  0.76721129936E+03  0.76721129936E+03  0.25500000920E-02 0.  1.
        2   -1    0    0  501    0  0.00000000000E+00  0.00000000000E+00 -0.72835390083E+03  0.72835390083E+03  0.25500000920E-02 0. -1.
    10030    2    1    2    0    0  0.00000000000E+00  0.00000000000E+00  0.38857398532E+02  0.14955652002E+04  0.14950603234E+04 0.  0.
        2    1    3    3  502    0  0.17831995953E+03  0.20943041832E+03 -0.67589036465E+03  0.72971699522E+03  0.25500000920E-02 0. -1.
       -2    1    3    3    0  502 -0.17831995953E+03 -0.20943041832E+03  0.71474776318E+03  0.76584820498E+03  0.25500000920E-02 0.  1.
</event>
<event>
 5   0  0.1149716E-03  0.1453512E+04  0.7818609E-02  0.8915970E-01
       -2   -1    0    0    0  501  0.00000000000E+00  0.00000000000E+00  0.23150960869E+03  0.23150960871E+03  0.25500000920E-02 0.  1.
        2   -1    0    0  501    0  0.00000000000E+00  0.00000000000E+00 -0.22814348573E+04  0.22814348573E+04  0.25500000920E-02 0. -1.
    10030    2    1    2    0    0  0.00000000000E+00  0.00000000000E+00 -0.20499252486E+04  0.25129444660E+04  0.14535117352E+04 0.  0.
        1    1    3    3  502    0  0.21729398026E+03  0.29769762641E+03  0.57946635607E+02  0.37309296861E+03  0.50400001928E-02 0.  1.
       -1    1    3    3    0  502 -0.21729398026E+03 -0.29769762641E+03 -0.21078718842E+04  0.21398514974E+04  0.50400001928E-02 0. -1.
</event>
<event>
 5   0  0.1147755E-03  0.1285045E+04  0.7818609E-02  0.9041509E-01
        2   -1    0    0  501    0  0.00000000000E+00  0.00000000000E+00  0.11716328762E+04  0.11716328762E+04  0.25500000920E-02 0.  1.
       -2   -1    0    0    0  501  0.00000000000E+00  0.00000000000E+00 -0.35235903129E+03  0.35235903130E+03  0.25500000920E-02 0. -1.
    10030    2    1    2    0    0  0.00000000000E+00  0.00000000000E+00  0.81927384494E+03  0.15239919075E+04  0.12850454082E+04 0.  0.
        4    1    3    3  502    0 -0.30309916424E+03 -0.41494966592E+03 -0.47807808466E+02  0.51608093170E+03  0.12699999809E+01 0. -1.
       -4    1    3    3    0  502  0.30309916424E+03  0.41494966592E+03  0.86708165340E+03  0.10079109758E+04  0.12699999809E+01 0.  1.
</event>
<event>
 5   0  0.6146552E-04  0.1484603E+04  0.7818609E-02  0.8894757E-01
       -1   -1    0    0    0  501  0.00000000000E+00  0.00000000000E+00  0.48126475423E+03  0.48126475426E+03  0.50400001928E-02 0.  1.
        1   -1    0    0  501    0  0.00000000000E+00  0.00000000000E+00 -0.11449233803E+04  0.11449233803E+04  0.50400001928E-02 0. -1.
    10030    2    1    2    0    0  0.00000000000E+00  0.00000000000E+00 -0.66365862610E+03  0.16261881346E+04  0.14846026664E+04 0.  0.
        5    1    3    3  502    0 -0.16286366646E+03 -0.24574343006E+03 -0.10780280880E+04  0.11176229488E+04  0.46999998093E+01 0. -1.
       -5    1    3    3    0  502  0.16286366646E+03  0.24574343006E+03  0.41436946186E+03  0.50856518579E+03  0.46999998093E+01 0.  1.
</event>
<event>
 5   0  0.1149716E-03  0.1472413E+04  0.7818609E-02  0.8903008E-01
        2   -1    0    0  501    0  0.00000000000E+00  0.00000000000E+00  0.14552723151E+04  0.14552723151E+04  0.25500000920E-02 0.  1.
       -2   -1    0    0    0  501  0.00000000000E+00  0.00000000000E+00 -0.37243886661E+03  0.37243886662E+03  0.25500000920E-02 0. -1.
    10030    2    1    2    0    0  0.00000000000E+00  0.00000000000E+00  0.10828334485E+04  0.18277111817E+04  0.14724129470E+04 0.  0.
        1    1    3    3  502    0 -0.47418596067E+02  0.57445032043E+03 -0.27092473590E+02  0.57704046309E+03  0.50400001928E-02 0. -1.
       -1    1    3    3    0  502  0.47418596067E+02 -0.57445032043E+03  0.11099259221E+04  0.12506707186E+04  0.50400001928E-02 0.  1.
</event>
<event>
 5   0  0.1082667E-03  0.1503450E+04  0.7818609E-02  0.8882162E-01
        2   -1    0    0  501    0  0.00000000000E+00  0.00000000000E+00  0.97351770668E+03  0.97351770669E+03  0.25500000920E-02 0.  1.
       -2   -1    0    0    0  501  0.00000000000E+00  0.00000000000E+00 -0.58046275986E+03  0.58046275987E+03  0.25500000920E-02 0. -1.
    10030    2    1    2    0    0  0.00000000000E+00  0.00000000000E+00  0.39305494682E+03  0.15539804666E+04  0.15034503980E+04 0.  0.
        5    1    3    3  502    0 -0.62463375454E+03 -0.36220662568E+03 -0.19562947920E+02  0.72233355586E+03  0.46999998093E+01 0. -1.
       -5    1    3    3    0  502  0.62463375454E+03  0.36220662568E+03  0.41261789474E+03  0.83164691069E+03  0.46999998093E+01 0.  1.
</event>
<event>
 5   0  0.5606965E-04  0.1438842E+04  0.7818609E-02  0.8926173E-01
        1   -1    0    0  501    0  0.00000000000E+00  0.00000000000E+00  0.18069255899E+04  0.18069255899E+04  0.50400001928E-02 0.  1.
       -1   -1    0    0    0  501  0.00000000000E+00  0.00000000000E+00 -0.28643472642E+03  0.28643472646E+03  0.50400001928E-02 0. -1.
    10030    2    1    2    0    0  0.00000000000E+00  0.00000000000E+00  0.15204908635E+04  0.20933603164E+04  0.14388415299E+04 0.  0.
        4    1    3    3  502    0  0.55058965375E+03 -0.38440011402E+03  0.38463443515E+03  0.77385895102E+03  0.12699999809E+01 0. -1.
       -4    1    3    3    0  502 -0.55058965375E+03  0.38440011402E+03  0.11358564284E+04  0.13195013654E+04  0.12699999809E+01 0.  1.
</event>
<event>
 5   0  0.1082667E-03  0.1510472E+04  0.7818609E-02  0.8877519E-01
       -2   -1    0    0    0  501  0.00000000000E+00  0.00000000000E+00  0.27109329084E+03  0.27109329085E+03  0.25500000920E-02 0.  1.
        2   -1    0    0  501    0  0.00000000000E+00  0.00000000000E+00 -0.21040050222E+04  0.21040050222E+04  0.25500000920E-02 0. -1.
    10030    2    1    2    0    0  0.00000000000E+00  0.00000000000E+00 -0.18329117314E+04  0.23750983131E+04  0.15104723042E+04 0.  0.
        5    1    3    3  502    0 -0.36215383316E+02 -0.54991336798E+03 -0.10449676547E+03  0.56094378530E+03  0.46999998093E+01 0.  1.
       -5    1    3    3    0  502  0.36215383316E+02  0.54991336798E+03 -0.17284149659E+04  0.18141545278E+04  0.46999998093E+01 0. -1.
</event>
<event>
 5   0  0.1097156E-03  0.1450557E+04  0.7818609E-02  0.8918014E-01
        2   -1    0    0  501    0  0.00000000000E+00  0.00000000000E+00  0.60367383207E+03  0.60367383207E+03  0.25500000920E-02 0. -1.
       -2   -1    0    0    0  501  0.00000000000E+00  0.00000000000E+00 -0.87137968742E+03  0.87137968742E+03  0.25500000920E-02 0.  1.
    10030    2    1    2    0    0  0.00000000000E+00  0.00000000000E+00 -0.26770585535E+03  0.14750535195E+04  0.14505572930E+04 0.  0.
        2    1    3    3  502    0 -0.55881515285E+03  0.40522832547E+03  0.92492479629E+02  0.69644757851E+03  0.25500000920E-02 0.  1.
       -2    1    3    3    0  502  0.55881515285E+03 -0.40522832547E+03 -0.36019833498E+03  0.77860594099E+03  0.25500000920E-02 0. -1.
</event>
<event>
 5   0  0.1097156E-03  0.1482802E+04  0.7818609E-02  0.8895971E-01
       -2   -1    0    0    0  501  0.00000000000E+00  0.00000000000E+00  0.61375743980E+03  0.61375743980E+03  0.25500000920E-02 0. -1.
        2   -1    0    0  501    0  0.00000000000E+00  0.00000000000E+00 -0.89559053762E+03  0.89559053762E+03  0.25500000920E-02 0.  1.
    10030    2    1    2    0    0  0.00000000000E+00  0.00000000000E+00 -0.28183309782E+03  0.15093479774E+04  0.14828018822E+04 0.  0.
        2    1    3    3  502    0 -0.18109312744E+03 -0.63876663480E+03  0.19492627018E+03  0.69196371679E+03  0.25500000920E-02 0. -1.
       -2    1    3    3    0  502  0.18109312744E+03  0.63876663480E+03 -0.47675936801E+03  0.81738426063E+03  0.25500000920E-02 0.  1.
</event>
<event>
 5   0  0.5840834E-04  0.1508865E+04  0.7818609E-02  0.8878579E-01
        1   -1    0    0  501    0  0.00000000000E+00  0.00000000000E+00  0.73454172504E+03  0.73454172506E+03  0.50400001928E-02 0.  1.
       -1   -1    0    0    0  501  0.00000000000E+00  0.00000000000E+00 -0.77486212015E+03  0.77486212017E+03  0.50400001928E-02 0. -1.
    10030    2    1    2    0    0  0.00000000000E+00  0.00000000000E+00 -0.40320395113E+02  0.15094038452E+04  0.15088652139E+04 0.  0.
        3    1    3    3  502    0 -0.68594959313E+03 -0.31394432706E+03 -0.29144685258E+02  0.75494192339E+03  0.10100000352E+00 0.  1.
       -3    1    3    3    0  502  0.68594959313E+03  0.31394432706E+03 -0.11175709854E+02  0.75446192184E+03  0.10100000352E+00 0. -1.
</event>
<event>
 5   0  0.5914645E-04  0.1443645E+04  0.7818609E-02  0.8922818E-01
       -1   -1    0    0    0  501  0.00000000000E+00  0.00000000000E+00  0.47211393473E+03  0.47211393476E+03  0.50400001928E-02 0.  1.
        1   -1    0    0  501    0  0.00000000000E+00  0.00000000000E+00 -0.11036062701E+04  0.11036062701E+04  0.50400001928E-02 0. -1.
    10030    2    1    2    0    0  0.00000000000E+00  0.00000000000E+00 -0.63149233539E+03  0.15757202049E+04  0.14436452454E+04 0.  0.
        2    1    3    3  502    0  0.36956350815E+03  0.57675480304E+03 -0.56417547017E+03  0.88742168699E+03  0.25500000920E-02 0.  1.
       -2    1    3    3    0  502 -0.36956350815E+03 -0.57675480304E+03 -0.67316865216E+02  0.68829851790E+03  0.25500000920E-02 0. -1.
</event>
<event>
 5   0  0.1149716E-03  0.1474691E+04  0.7818609E-02  0.8901460E-01
        2   -1    0    0  501    0  0.00000000000E+00  0.00000000000E+00  0.23037507938E+04  0.23037507938E+04  0.25500000920E-02 0.  1.
       -2   -1    0    0    0  501  0.00000000000E+00  0.00000000000E+00 -0.23599712422E+03  0.23599712424E+03  0.25500000920E-02 0. -1.
    10030    2    1    2    0    0  0.00000000000E+00  0.00000000000E+00  0.20677536695E+04  0.25397479180E+04  0.14746912386E+04 0.  0.
        1    1    3    3  502    0  0.50962162769E+03 -0.46545951798E+03  0.14806994047E+04  0.16336577038E+04  0.50400001928E-02 0. -1.
       -1    1    3    3    0  502 -0.50962162769E+03  0.46545951798E+03  0.58705426488E+03  0.90609021417E+03  0.50400001928E-02 0.  1.
</event>
<event>
 5   0  0.5914645E-04  0.1506382E+04  0.7818609E-02  0.8880220E-01
        1   -1    0    0  501    0  0.00000000000E+00  0.00000000000E+00  0.10742993313E+04  0.10742993313E+04  0.50400001928E-02 0.  1.
       -1   -1    0    0    0  501  0.00000000000E+00  0.00000000000E+00 -0.52806176252E+03  0.52806176254E+03  0.50400001928E-02 0. -1.
    10030    2    1    2    0    0  0.00000000000E+00  0.00000000000E+00  0.54623756881E+03  0.16023610939E+04  0.15063816228E+04 0.  0.
        2    1    3    3  502    0 -0.48782137969E+03  0.15798149292E+03  0.85996629789E+03  0.10012341805E+04  0.25500000920E-02 0.  1.
       -2    1    3    3    0  502  0.48782137969E+03 -0.15798149292E+03 -0.31372872909E+03  0.60112691343E+03  0.25500000920E-02 0. -1.
</event>
<event>
 5   0  0.6146552E-04  0.1617499E+04  0.7818609E-02  0.8809869E-01
        1   -1    0    0  501    0  0.00000000000E+00  0.00000000000E+00  0.85673269390E+03  0.85673269391E+03  0.50400001928E-02 0.  1.
       -1   -1    0    0    0  501  0.00000000000E+00  0.00000000000E+00 -0.76345416794E+03  0.76345416796E+03  0.50400001928E-02 0. -1.
    10030    2    1    2    0    0  0.00000000000E+00  0.00000000000E+00  0.93278525958E+02  0.16201868619E+04  0.16174994850E+04 0.  0.
        5    1    3    3  502    0 -0.29060563909E+03 -0.63730178713E+03 -0.35832051582E+03  0.78677880462E+03  0.46999998093E+01 0. -1.
       -5    1    3    3    0  502  0.29060563909E+03  0.63730178713E+03  0.45159904178E+03  0.83340805725E+03  0.46999998093E+01 0.  1.
</event>
<event>
 5   0  0.1082667E-03  0.1393572E+04  0.7818609E-02  0.8958485E-01
        2   -1    0    0  501    0  0.00000000000E+00  0.00000000000E+00  0.99104271369E+03  0.99104271369E+03  0.25500000920E-02 0. -1.
       -2   -1    0    0    0  501  0.00000000000E+00  0.00000000000E+00 -0.48989884730E+03  0.48989884731E+03  0.25500000920E-02 0.  1.
    10030    2    1    2    0    0  0.00000000000E+00  0.00000000000E+00  0.50114386639E+03  0.14809415610E+04  0.13935719329E+04 0.  0.
        5    1    3    3  502    0 -0.36042437390E+02  0.30966654297E+03  0.91277331503E+03  0.96455670635E+03  0.46999998093E+01 0. -1.
       -5    1    3    3    0  502  0.36042437390E+02 -0.30966654297E+03 -0.41162944864E+03  0.51638485465E+03  0.46999998093E+01 0.  1.
</event>
<event>
 5   0  0.5914645E-04  0.1541568E+04  0.7818609E-02  0.8857272E-01
        1   -1    0    0  501    0  0.00000000000E+00  0.00000000000E+00  0.51171962888E+03  0.51171962890E+03  0.50400001928E-02 0.  1.
       -1   -1    0    0    0  501  0.00000000000E+00  0.00000000000E+00 -0.11610024283E+04  0.11610024283E+04  0.50400001928E-02 0. -1.
    10030    2    1    2    0    0  0.00000000000E+00  0.00000000000E+00 -0.64928279945E+03  0.16727220572E+04  0.15415676849E+04 0.  0.
        2    1    3    3  502    0 -0.27866186807E+03  0.62725777242E+03 -0.70519777866E+03  0.98407756646E+03  0.25500000920E-02 0. -1.
       -2    1    3    3    0  502  0.27866186807E+03 -0.62725777242E+03  0.55914979207E+02  0.68864449078E+03  0.25500000920E-02 0.  1.
</event>
<event>
 5   0  0.5840834E-04  0.1493445E+04  0.7818609E-02  0.8888823E-01
        1   -1    0    0  501    0  0.00000000000E+00  0.00000000000E+00  0.33960628126E+03  0.33960628130E+03  0.50400001928E-02 0.  1.
       -1   -1    0    0    0  501  0.00000000000E+00  0.00000000000E+00 -0.16418858456E+04  0.16418858456E+04  0.50400001928E-02 0. -1.
    10030    2    1    2    0    0  0.00000000000E+00  0.00000000000E+00 -0.13022795643E+04  0.19814921269E+04  0.14934453406E+04 0.  0.
        3    1    3    3  502    0 -0.63007333270E+03  0.38387547003E+03 -0.49846086420E+03  0.89040217004E+03  0.10100000352E+00 0.  1.
       -3    1    3    3    0  502  0.63007333270E+03 -0.38387547003E+03 -0.80381870010E+03  0.10910899568E+04  0.10100000352E+00 0. -1.
</event>
<event>
 5   0  0.6146552E-04  0.1497643E+04  0.7818609E-02  0.8886022E-01
       -1   -1    0    0    0  501  0.00000000000E+00  0.00000000000E+00  0.48425545969E+03  0.48425545972E+03  0.50400001928E-02 0. -1.
        1   -1    0    0  501    0  0.00000000000E+00  0.00000000000E+00 -0.11579298376E+04  0.11579298376E+04  0.50400001928E-02 0.  1.
    10030    2    1    2    0    0  0.00000000000E+00  0.00000000000E+00 -0.67367437794E+03  0.16421852974E+04  0.14976432764E+04 0.  0.
        5    1    3    3  502    0  0.56085005243E+03  0.39433540181E+03 -0.66819450277E+01  0.68565292154E+03  0.46999998093E+01 0.  1.
       -5    1    3    3    0  502 -0.56085005243E+03 -0.39433540181E+03 -0.66699243291E+03  0.95653237582E+03  0.46999998093E+01 0. -1.
</event>
<event>
 5   0  0.1097156E-03  0.1501454E+04  0.7818609E-02  0.8883487E-01
       -2   -1    0    0    0  501  0.00000000000E+00  0.00000000000E+00  0.71559509149E+03  0.71559509150E+03  0.25500000920E-02 0.  1.
        2   -1    0    0  501    0  0.00000000000E+00  0.00000000000E+00 -0.78758383842E+03  0.78758383843E+03  0.25500000920E-02 0. -1.
    10030    2    1    2    0    0  0.00000000000E+00  0.00000000000E+00 -0.71988746928E+02  0.15031789299E+04  0.15014541337E+04 0.  0.
        2    1    3    3  502    0 -0.22952482308E+03 -0.17559328768E+03 -0.72966583140E+03  0.78481008697E+03  0.25500000920E-02 0. -1.
       -2    1    3    3    0  502  0.22952482308E+03  0.17559328768E+03  0.65767708447E+03  0.71836884296E+03  0.25500000920E-02 0.  1.
</event>
<event>
 5   0  0.1126175E-03  0.1429872E+04  0.7818609E-02  0.8932475E-01
        2   -1    0    0  501    0  0.00000000000E+00  0.00000000000E+00  0.12299566215E+04  0.12299566215E+04  0.25500000920E-02 0.  1.
       -2   -1    0    0    0  501  0.00000000000E+00  0.00000000000E+00 -0.41557019303E+03  0.41557019304E+03  0.25500000920E-02 0. -1.
    10030    2    1    2    0    0  0.00000000000E+00  0.00000000000E+00  0.81438642844E+03  0.16455268145E+04  0.14298717573E+04 0.  0.
        3    1    3    3  502    0 -0.57916147150E+03 -0.36466556385E+03  0.16932005564E+03  0.70503778266E+03  0.10100000352E+00 0. -1.
       -3    1    3    3    0  502  0.57916147150E+03  0.36466556385E+03  0.64506637280E+03  0.94048903186E+03  0.10100000352E+00 0.  1.
</event>
<event>
 5   0  0.5840834E-04  0.1470077E+04  0.7818609E-02  0.8904599E-01
        1   -1    0    0  501    0  0.00000000000E+00  0.00000000000E+00  0.98620759503E+03  0.98620759505E+03  0.50400001928E-02 0. -1.
       -1   -1    0    0    0  501  0.00000000000E+00  0.00000000000E+00 -0.54783757305E+03  0.54783757307E+03  0.50400001928E-02 0.  1.
    10030    2    1    2    0    0  0.00000000000E+00  0.00000000000E+00  0.43837002198E+03  0.15340451681E+04  0.14700769713E+04 0.  0.
        3    1    3    3  502    0  0.27373375114E+03  0.40681691882E+03 -0.35222929365E+03  0.60373475754E+03  0.10100000352E+00 0.  1.
       -3    1    3    3    0  502 -0.27373375114E+03 -0.40681691882E+03  0.79059931563E+03  0.93031041058E+03  0.10100000352E+00 0. -1.
</event>
<event>
 5   0  0.1149716E-03  0.1477963E+04  0.7818609E-02  0.8899241E-01
        2   -1    0    0  501    0  0.00000000000E+00  0.00000000000E+00  0.18530028337E+04  0.18530028337E+04  0.25500000920E-02 0.  1.
       -2   -1    0    0    0  501  0.00000000000E+00  0.00000000000E+00 -0.29470740584E+03  0.29470740586E+03  0.25500000920E-02 0. -1.
    10030    2    1    2    0    0  0.00000000000E+00  0.00000000000E+00  0.15582954279E+04  0.21477102396E+04  0.14779630011E+04 0.  0.
        1    1    3    3  502    0 -0.51453272380E+03 -0.38373897390E+03  0.24701860612E+03  0.68776283394E+03  0.50400001928E-02 0. -1.
       -1    1    3    3    0  502  0.51453272380E+03  0.38373897390E+03  0.13112768218E+04  0.14599474057E+04  0.50400001928E-02 0.  1.
</event>
<event>
 5   0  0.1149716E-03  0.1493964E+04  0.7818609E-02  0.8888477E-01
       -2   -1    0    0    0  501  0.00000000000E+00  0.00000000000E+00  0.83303020315E+03  0.83303020315E+03  0.25500000920E-02 0.  1.
        2   -1    0    0  501    0  0.00000000000E+00  0.00000000000E+00 -0.66982179863E+03  0.66982179864E+03  0.25500000920E-02 0. -1.
    10030    2    1    2    0    0  0.00000000000E+00  0.00000000000E+00  0.16320840452E+03  0.15028520018E+04  0.14939635725E+04 0.  0.
        1    1    3    3  502    0 -0.50647498035E+03 -0.34732047473E+03 -0.34617089156E+03  0.70497000225E+03  0.50400001928E-02 0. -1.
       -1    1    3    3    0  502  0.50647498035E+03  0.34732047473E+03  0.50937929608E+03  0.79788199954E+03  0.50400001928E-02 0.  1.
</event>
<event>
 5   0  0.1082667E-03  0.1814394E+04  0.7818609E-02  0.8698682E-01
       -2   -1    0    0    0  501  0.00000000000E+00  0.00000000000E+00  0.33859359655E+03  0.33859359656E+03  0.25500000920E-02 0. -1.
        2   -1    0    0  501    0  0.00000000000E+00  0.00000000000E+00 -0.24306618406E+04  0.24306618406E+04  0.25500000920E-02 0.  1.
    10030    2    1    2    0    0  0.00000000000E+00  0.00000000000E+00 -0.20920682441E+04  0.27692554372E+04  0.18143941519E+04 0.  0.
        5    1    3    3  502    0  0.43624305170E+03  0.13720477899E+03  0.14977804295E+03  0.48123664001E+03  0.46999998093E+01 0. -1.
       -5    1    3    3    0  502 -0.43624305170E+03 -0.13720477899E+03 -0.22418462871E+04  0.22880187972E+04  0.46999998093E+01 0.  1.
</event>
<event>
 5   0  0.1126175E-03  0.1616400E+04  0.7818609E-02  0.8810536E-01
        2   -1    0    0  501    0  0.00000000000E+00  0.00000000000E+00  0.14921829755E+04  0.14921829755E+04  0.25500000920E-02 0. -1.
       -2   -1    0    0    0  501  0.00000000000E+00  0.00000000000E+00 -0.43773916601E+03  0.43773916602E+03  0.25500000920E-02 0.  1.
    10030    2    1    2    0    0  0.00000000000E+00  0.00000000000E+00  0.10544438095E+04  0.19299221415E+04  0.16163996180E+04 0.  0.
        3    1    3    3  502    0  0.74335812419E+03 -0.20571126492E+03  0.81548063773E+03  0.11224558370E+04  0.10100000352E+00 0. -1.
       -3    1    3    3    0  502 -0.74335812419E+03  0.20571126492E+03  0.23896317178E+03  0.80746630454E+03  0.10100000352E+00 0.  1.
</event>
<event>
 5   0  0.5924403E-04  0.1487573E+04  0.7818609E-02  0.8892759E-01
       -1   -1    0    0    0  501  0.00000000000E+00  0.00000000000E+00  0.19780729388E+03  0.19780729394E+03  0.50400001928E-02 0.  1.
        1   -1    0    0  501    0  0.00000000000E+00  0.00000000000E+00 -0.27967541519E+04  0.27967541519E+04  0.50400001928E-02 0. -1.
    10030    2    1    2    0    0  0.00000000000E+00  0.00000000000E+00 -0.25989468580E+04  0.29945614458E+04  0.14875730174E+04 0.  0.
        1    1    3    3  502    0  0.29046538477E+03  0.45979930459E+03 -0.23208523773E+04  0.23837242494E+04  0.50400001928E-02 0. -1.
       -1    1    3    3    0  502 -0.29046538477E+03 -0.45979930459E+03 -0.27809448073E+03  0.61083719638E+03  0.50400001928E-02 0.  1.
</event>
<event>
 5   0  0.5924403E-04  0.1481946E+04  0.7818609E-02  0.8896548E-01
        1   -1    0    0  501    0  0.00000000000E+00  0.00000000000E+00  0.69833986529E+03  0.69833986531E+03  0.50400001928E-02 0.  1.
       -1   -1    0    0    0  501  0.00000000000E+00  0.00000000000E+00 -0.78620909497E+03  0.78620909499E+03  0.50400001928E-02 0. -1.
    10030    2    1    2    0    0  0.00000000000E+00  0.00000000000E+00 -0.87869229680E+02  0.14845489603E+04  0.14819462251E+04 0.  0.
        1    1    3    3  502    0 -0.42092677955E+03  0.53693089798E+03  0.24565268633E+03  0.72513404642E+03  0.50400001928E-02 0.  1.
       -1    1    3    3    0  502  0.42092677955E+03 -0.53693089798E+03 -0.33352191601E+03  0.75941491388E+03  0.50400001928E-02 0. -1.
</event>
<event>
 5   0  0.5924403E-04  0.1507822E+04  0.7818609E-02  0.8879268E-01
       -1   -1    0    0    0  501  0.00000000000E+00  0.00000000000E+00  0.36360426041E+03  0.36360426045E+03  0.50400001928E-02 0. -1.
        1   -1    0    0  501    0  0.00000000000E+00  0.00000000000E+00 -0.15631887130E+04  0.15631887130E+04  0.50400001928E-02 0.  1.
    10030    2    1    2    0    0  0.00000000000E+00  0.00000000000E+00 -0.11995844526E+04  0.19267929735E+04  0.15078223714E+04 0.  0.
        1    1    3    3  502    0  0.30419329726E+03 -0.23505625836E+03  0.22894718465E+03  0.44743918031E+03  0.50400001928E-02 0. -1.
       -1    1    3    3    0  502 -0.30419329726E+03  0.23505625836E+03 -0.14285316372E+04  0.14793537931E+04  0.50400001928E-02 0.  1.
</event>
<event>
 5   0  0.1082667E-03  0.1511438E+04  0.7818609E-02  0.8876882E-01
        2   -1    0    0  501    0  0.00000000000E+00  0.00000000000E+00  0.13005507132E+04  0.13005507132E+04  0.25500000920E-02 0. -1.
       -2   -1    0    0    0  501  0.00000000000E+00  0.00000000000E+00 -0.43913037149E+03  0.43913037150E+03  0.25500000920E-02 0.  1.
    10030    2    1    2    0    0  0.00000000000E+00  0.00000000000E+00  0.86142034171E+03  0.17396810847E+04  0.15114381467E+04 0.  0.
        5    1    3    3  502    0 -0.42884833632E+03 -0.50302686810E+03  0.91475068558E+01  0.66109960859E+03  0.46999998093E+01 0.  1.
       -5    1    3    3    0  502  0.42884833632E+03  0.50302686810E+03  0.85227283486E+03  0.10785814761E+04  0.46999998093E+01 0. -1.
</event>
<event>
 5   0  0.1149716E-03  0.1546897E+04  0.7818609E-02  0.8853852E-01
       -2   -1    0    0    0  501  0.00000000000E+00  0.00000000000E+00  0.42286576742E+03  0.42286576743E+03  0.25500000920E-02 0. -1.
        2   -1    0    0  501    0  0.00000000000E+00  0.00000000000E+00 -0.14146861148E+04  0.14146861148E+04  0.25500000920E-02 0.  1.
    10030    2    1    2    0    0  0.00000000000E+00  0.00000000000E+00 -0.99182034736E+03  0.18375518822E+04  0.15468966735E+04 0.  0.
        1    1    3    3  502    0 -0.55560174257E+00  0.66066594265E+03 -0.97364887503E+03  0.11766358521E+04  0.50400001928E-02 0.  1.
       -1    1    3    3    0  502  0.55560174257E+00 -0.66066594265E+03 -0.18171472327E+02  0.66091603015E+03  0.50400001928E-02 0. -1.
</event>
<event>
 5   0  0.6146552E-04  0.1433590E+04  0.7818609E-02  0.8929857E-01
        1   -1    0    0  501    0  0.00000000000E+00  0.00000000000E+00  0.43883337184E+03  0.43883337187E+03  0.50400001928E-02 0.  1.
       -1   -1    0    0    0  501  0.00000000000E+00  0.00000000000E+00 -0.11708198988E+04  0.11708198988E+04  0.50400001928E-02 0. -1.
    10030    2    1    2    0    0  0.00000000000E+00  0.00000000000E+00 -0.73198652695E+03  0.16096532707E+04  0.14335896819E+04 0.  0.
        5    1    3    3  502    0  0.16139704183E+03 -0.35066339786E+03  0.31213279989E+03  0.49645019738E+03  0.46999998093E+01 0.  1.
       -5    1    3    3    0  502 -0.16139704183E+03  0.35066339786E+03 -0.10441193268E+04  0.11132030733E+04  0.46999998093E+01 0. -1.
</event>
<event>
 5   0  0.6146552E-04  0.1527493E+04  0.7818609E-02  0.8866374E-01
       -1   -1    0    0    0  501  0.00000000000E+00  0.00000000000E+00  0.89994781334E+03  0.89994781335E+03  0.50400001928E-02 0. -1.
        1   -1    0    0  501    0  0.00000000000E+00  0.00000000000E+00 -0.64815832442E+03  0.64815832444E+03  0.50400001928E-02 0.  1.
    10030    2    1    2    0    0  0.00000000000E+00  0.00000000000E+00  0.25178948892E+03  0.15481061378E+04  0.15274929352E+04 0.  0.
        5    1    3    3  502    0  0.12852573011E+03 -0.48737835371E+02 -0.63550385994E+03  0.65021649155E+03  0.46999998093E+01 0.  1.
       -5    1    3    3    0  502 -0.12852573011E+03  0.48737835371E+02  0.88729334886E+03  0.89788964624E+03  0.46999998093E+01 0. -1.
</event>
<event>
 5   0  0.1149716E-03  0.1495266E+04  0.7818609E-02  0.8887607E-01
        2   -1    0    0  501    0  0.00000000000E+00  0.00000000000E+00  0.63206876761E+03  0.63206876761E+03  0.25500000920E-02 0. -1.
       -2   -1    0    0    0  501  0.00000000000E+00  0.00000000000E+00 -0.88432657049E+03  0.88432657049E+03  0.25500000920E-02 0.  1.
    10030    2    1    2    0    0  0.00000000000E+00  0.00000000000E+00 -0.25225780288E+03  0.15163953381E+04  0.14952661376E+04 0.  0.
        1    1    3    3  502    0  0.35314583219E+03 -0.87191180226E+02  0.53627853358E+03  0.64800381659E+03  0.50400001928E-02 0. -1.
       -1    1    3    3    0  502 -0.35314583219E+03  0.87191180226E+02 -0.78853633646E+03  0.86839152152E+03  0.50400001928E-02 0.  1.
</event>
<event>
 5   0  0.5840834E-04  0.1461824E+04  0.7818609E-02  0.8910244E-01
        1   -1    0    0  501    0  0.00000000000E+00  0.00000000000E+00  0.54188019685E+03  0.54188019688E+03  0.50400001928E-02 0. -1.
       -1   -1    0    0    0  501  0.00000000000E+00  0.00000000000E+00 -0.98588677923E+03  0.98588677924E+03  0.50400001928E-02 0.  1.
    10030    2    1    2    0    0  0.00000000000E+00  0.00000000000E+00 -0.44400658237E+03  0.15277669761E+04  0.14618242330E+04 0.  0.
        3    1    3    3  502    0  0.48036616061E+03  0.54074640385E+03 -0.11202221825E+03  0.73192028877E+03  0.10100000352E+00 0. -1.
       -3    1    3    3    0  502 -0.48036616061E+03 -0.54074640385E+03 -0.33198436412E+03  0.79584668734E+03  0.10100000352E+00 0.  1.
</event>
<event>
 5   0  0.5914645E-04  0.1488969E+04  0.7818609E-02  0.8891822E-01
        1   -1    0    0  501    0  0.00000000000E+00  0.00000000000E+00  0.17867301109E+04  0.17867301109E+04  0.50400001928E-02 0. -1.
       -1   -1    0    0    0  501  0.00000000000E+00  0.00000000000E+00 -0.31020759584E+03  0.31020759588E+03  0.50400001928E-02 0.  1.
    10030    2    1    2    0    0  0.00000000000E+00  0.00000000000E+00  0.14765225151E+04  0.20969377068E+04  0.14889691094E+04 0.  0.
        2    1    3    3  502    0 -0.21986496343E+03  0.23724478106E+03  0.16826009336E+04  0.17134093469E+04  0.25500000920E-02 0. -1.
       -2    1    3    3    0  502  0.21986496343E+03 -0.23724478106E+03 -0.20607841851E+03  0.38352835992E+03  0.25500000920E-02 0.  1.
</event>
<event>
 5   0  0.5606965E-04  0.1486216E+04  0.7818609E-02  0.8893671E-01
       -1   -1    0    0    0  501  0.00000000000E+00  0.00000000000E+00  0.60988664619E+03  0.60988664621E+03  0.50400001928E-02 0.  1.
        1   -1    0    0  501    0  0.00000000000E+00  0.00000000000E+00 -0.90542954232E+03  0.90542954233E+03  0.50400001928E-02 0. -1.
    10030    2    1    2    0    0  0.00000000000E+00  0.00000000000E+00 -0.29554289613E+03  0.15153161885E+04  0.14862158483E+04 0.  0.
        4    1    3    3  502    0 -0.68003902677E+03 -0.29868575425E+03 -0.12404530472E+03  0.75303061575E+03  0.12699999809E+01 0.  1.
       -4    1    3    3    0  502  0.68003902677E+03  0.29868575425E+03 -0.17149759141E+03  0.76228557279E+03  0.12699999809E+01 0. -1.
</event>
<event>
 5   0  0.5606965E-04  0.1388867E+04  0.7818609E-02  0.8961917E-01
       -1   -1    0    0    0  501  0.00000000000E+00  0.00000000000E+00  0.59933301282E+03  0.59933301284E+03  0.50400001928E-02 0. -1.
        1   -1    0    0  501    0  0.00000000000E+00  0.00000000000E+00 -0.80462471999E+03  0.80462472001E+03  0.50400001928E-02 0.  1.
    10030    2    1    2    0    0  0.00000000000E+00  0.00000000000E+00 -0.20529170717E+03  0.14039577329E+04  0.13888673913E+04 0.  0.
        4    1    3    3  502    0 -0.34392351007E+02 -0.32139237851E+03 -0.72394622087E+03  0.79282762211E+03  0.12699999809E+01 0.  1.
       -4    1    3    3    0  502  0.34392351007E+02  0.32139237851E+03  0.51865451370E+03  0.61113011074E+03  0.12699999809E+01 0. -1.
</event>
<event>
 5   0  0.5924403E-04  0.1507886E+04  0.7818609E-02  0.8879226E-01
        1   -1    0    0  501    0  0.00000000000E+00  0.00000000000E+00  0.14514066682E+04  0.14514066682E+04  0.50400001928E-02 0.  1.
       -1   -1    0    0    0  501  0.00000000000E+00  0.00000000000E+00 -0.39164062982E+03  0.39164062985E+03  0.50400001928E-02 0. -1.
    10030    2    1    2    0    0  0.00000000000E+00  0.00000000000E+00  0.10597660384E+04  0.18430472980E+04  0.15078857008E+04 0.  0.
        1    1    3    3  502    0  0.57997898199E+03  0.10147492527E+03  0.11054644407E+04  0.12524872892E+04  0.50400001928E-02 0.  1.
       -1    1    3    3    0  502 -0.57997898199E+03 -0.10147492527E+03 -0.45698402324E+02  0.59056000881E+03  0.50400001928E-02 0. -1.
</event>
<event>
 5   0  0.5840834E-04  0.1494065E+04  0.7818609E-02  0.8888409E-01
       -1   -1    0    0    0  501  0.00000000000E+00  0.00000000000E+00  0.65167333250E+03  0.65167333252E+03  0.50400001928E-02 0. -1.
        1   -1    0    0  501    0  0.00000000000E+00  0.00000000000E+00 -0.85634579693E+03  0.85634579694E+03  0.50400001928E-02 0.  1.
    10030    2    1    2    0    0  0.00000000000E+00  0.00000000000E+00 -0.20467246443E+03  0.15080191295E+04  0.14940652185E+04 0.  0.
        3    1    3    3  502    0  0.70333852735E+03 -0.18733091482E+03  0.67400213579E+02  0.73097247191E+03  0.10100000352E+00 0. -1.
       -3    1    3    3    0  502 -0.70333852735E+03  0.18733091482E+03 -0.27207267800E+03  0.77704665756E+03  0.10100000352E+00 0.  1.
</event>
<event>
 5   0  0.5606965E-04  0.1559345E+04  0.7818609E-02  0.8845920E-01
        1   -1    0    0  501    0  0.00000000000E+00  0.00000000000E+00  0.18775026648E+04  0.18775026648E+04  0.50400001928E-02 0.  1.
       -1   -1    0    0    0  501  0.00000000000E+00  0.00000000000E+00 -0.32377553367E+03  0.32377553371E+03  0.50400001928E-02 0. -1.
    10030    2    1    2    0    0  0.00000000000E+00  0.00000000000E+00  0.15537271311E+04  0.22012781985E+04  0.15593452822E+04 0.  0.
        4    1    3    3  502    0  0.18634119313E+03  0.63372038082E+03  0.13615792963E+04  0.15133487220E+04  0.12699999809E+01 0.  1.
       -4    1    3    3    0  502 -0.18634119313E+03 -0.63372038082E+03  0.19214783483E+03  0.68792947651E+03  0.12699999809E+01 0. -1.
</event>
<event>
 5   0  0.1082667E-03  0.1483438E+04  0.7818609E-02  0.8895542E-01
       -2   -1    0    0    0  501  0.00000000000E+00  0.00000000000E+00  0.53484740646E+03  0.53484740647E+03  0.25500000920E-02 0.  1.
        2   -1    0    0  501    0  0.00000000000E+00  0.00000000000E+00 -0.10286058916E+04  0.10286058916E+04  0.25500000920E-02 0. -1.
    10030    2    1    2    0    0  0.00000000000E+00  0.00000000000E+00 -0.49375848511E+03  0.15634532980E+04  0.14834381597E+04 0.  0.
        5    1    3    3  502    0  0.58728833138E+03  0.11800039707E+03 -0.70784162814E+03  0.92730444753E+03  0.46999998093E+01 0. -1.
       -5    1    3    3    0  502 -0.58728833138E+03 -0.11800039707E+03  0.21408314303E+03  0.63614885052E+03  0.46999998093E+01 0.  1.
</event>
<event>
 5   0  0.5914645E-04  0.1572986E+04  0.7818609E-02  0.8837318E-01
        1   -1    0    0  501    0  0.00000000000E+00  0.00000000000E+00  0.55646996428E+03  0.55646996430E+03  0.50400001928E-02 0. -1.
       -1   -1    0    0    0  501  0.00000000000E+00  0.00000000000E+00 -0.11115985918E+04  0.11115985918E+04  0.50400001928E-02 0.  1.
    10030    2    1    2    0    0  0.00000000000E+00  0.00000000000E+00 -0.55512862755E+03  0.16680685561E+04  0.15729859869E+04 0.  0.
        2    1    3    3  502    0  0.35390829061E+03 -0.38561177308E+03  0.34496759893E+03  0.62685736976E+03  0.25500000920E-02 0. -1.
       -2    1    3    3    0  502 -0.35390829061E+03  0.38561177308E+03 -0.90009622648E+03  0.10412111864E+04  0.25500000920E-02 0.  1.
</event>
<event>
 5   0  0.5840834E-04  0.1455807E+04  0.7818609E-02  0.8914384E-01
        1   -1    0    0  501    0  0.00000000000E+00  0.00000000000E+00  0.11099272079E+04  0.11099272080E+04  0.50400001928E-02 0. -1.
       -1   -1    0    0    0  501  0.00000000000E+00  0.00000000000E+00 -0.47736794361E+03  0.47736794364E+03  0.50400001928E-02 0.  1.
    10030    2    1    2    0    0  0.00000000000E+00  0.00000000000E+00  0.63255926433E+03  0.15872951516E+04  0.14558072247E+04 0.  0.
        3    1    3    3  502    0  0.53267838478E+03  0.45506009883E+03  0.53164936604E+03  0.87947541965E+03  0.10100000352E+00 0. -1.
       -3    1    3    3    0  502 -0.53267838478E+03 -0.45506009883E+03  0.10090989829E+03  0.70781973195E+03  0.10100000352E+00 0.  1.
</event>
<event>
 5   0  0.5914645E-04  0.1508044E+04  0.7818609E-02  0.8879121E-01
        1   -1    0    0  501    0  0.00000000000E+00  0.00000000000E+00  0.10574784154E+04  0.10574784154E+04  0.50400001928E-02 0. -1.
       -1   -1    0    0    0  501  0.00000000000E+00  0.00000000000E+00 -0.53764638209E+03  0.53764638212E+03  0.50400001928E-02 0.  1.
    10030    2    1    2    0    0  0.00000000000E+00  0.00000000000E+00  0.51983203333E+03  0.15951247976E+04  0.15080443551E+04 0.  0.
        2    1    3    3  502    0  0.18935313193E+03 -0.60895225481E+03  0.68548150398E+03  0.93624908519E+03  0.25500000920E-02 0. -1.
       -2    1    3    3    0  502 -0.18935313193E+03  0.60895225481E+03 -0.16564947065E+03  0.65887571237E+03  0.25500000920E-02 0.  1.
</event>
<event>
 5   0  0.1149716E-03  0.1415891E+04  0.7818609E-02  0.8942396E-01
        2   -1    0    0  501    0  0.00000000000E+00  0.00000000000E+00  0.14016816368E+04  0.14016816368E+04  0.25500000920E-02 0.  1.
       -2   -1    0    0    0  501  0.00000000000E+00  0.00000000000E+00 -0.35756100319E+03  0.35756100319E+03  0.25500000920E-02 0. -1.
    10030    2    1    2    0    0  0.00000000000E+00  0.00000000000E+00  0.10441206336E+04  0.17592426400E+04  0.14158908040E+04 0.  0.
        1    1    3    3  502    0  0.30627582316E+02 -0.69544595104E+03  0.68216231564E+03  0.97464277790E+03  0.50400001928E-02 0.  1.
       -1    1    3    3    0  502 -0.30627582316E+02  0.69544595104E+03  0.36195831798E+03  0.78459986209E+03  0.50400001928E-02 0. -1.
</event>
<event>
 5   0  0.5924403E-04  0.1516277E+04  0.7818609E-02  0.8873700E-01
        1   -1    0    0  501    0  0.00000000000E+00  0.00000000000E+00  0.78078052189E+03  0.78078052191E+03  0.50400001928E-02 0.  1.
       -1   -1    0    0    0  501  0.00000000000E+00  0.00000000000E+00 -0.73615356296E+03  0.73615356297E+03  0.50400001928E-02 0. -1.
    10030    2    1    2    0    0  0.00000000000E+00  0.00000000000E+00  0.44626958936E+02  0.15169340849E+04  0.15162774985E+04 0.  0.
        1    1    3    3  502    0  0.52333922516E+03 -0.49516554471E+03  0.25842733458E+03  0.76541331876E+03  0.50400001928E-02 0.  1.
       -1    1    3    3    0  502 -0.52333922516E+03  0.49516554471E+03 -0.21380037564E+03  0.75152076612E+03  0.50400001928E-02 0. -1.
</event>
<event>
 5   0  0.1097156E-03  0.1496933E+04  0.7818609E-02  0.8886495E-01
        2   -1    0    0  501    0  0.00000000000E+00  0.00000000000E+00  0.13943301574E+04  0.13943301574E+04  0.25500000920E-02 0.  1.
       -2   -1    0    0    0  501  0.00000000000E+00  0.00000000000E+00 -0.40177135586E+03  0.40177135586E+03  0.25500000920E-02 0. -1.
    10030    2    1    2    0    0  0.00000000000E+00  0.00000000000E+00  0.99255880159E+03  0.17961015133E+04  0.14969327545E+04 0.  0.
        2    1    3    3  502    0  0.46629485440E+03  0.18437983254E+03 -0.17045018289E+03  0.52960369971E+03  0.25500000920E-02 0. -1.
       -2    1    3    3    0  502 -0.46629485440E+03 -0.18437983254E+03  0.11630089845E+04  0.12664978136E+04  0.25500000920E-02 0.  1.
</event>
<event>
 5   0  0.4070625E-04  0.1487949E+04  0.7818609E-02  0.8892507E-01
        3   -1    0    0  501    0  0.00000000000E+00  0.00000000000E+00  0.17212382232E+04  0.17212382261E+04  0.10100000352E+00 0.  1.
       -3   -1    0    0    0  501  0.00000000000E+00  0.00000000000E+00 -0.32156950585E+03  0.32156952171E+03  0.10100000352E+00 0. -1.
    10030    2    1    2    0    0  0.00000000000E+00  0.00000000000E+00  0.13996687173E+04  0.20428077478E+04  0.14879485799E+04 0.  0.
        4    1    3    3  502    0 -0.41468828209E+03  0.54080478205E+03  0.11095483461E+04  0.13021272322E+04  0.12699999809E+01 0.  1.
       -4    1    3    3    0  502  0.41468828209E+03 -0.54080478205E+03  0.29012037127E+03  0.74068051568E+03  0.12699999809E+01 0. -1.
</event>
<event>
 5   0  0.5924403E-04  0.1469847E+04  0.7818609E-02  0.8904756E-01
        1   -1    0    0  501    0  0.00000000000E+00  0.00000000000E+00  0.70454929823E+03  0.70454929825E+03  0.50400001928E-02 0.  1.
       -1   -1    0    0    0  501  0.00000000000E+00  0.00000000000E+00 -0.76660734334E+03  0.76660734336E+03  0.50400001928E-02 0. -1.
    10030    2    1    2    0    0  0.00000000000E+00  0.00000000000E+00 -0.62058045105E+02  0.14711566416E+04  0.14698471564E+04 0.  0.
        1    1    3    3  502    0 -0.14699810825E+03 -0.27266309191E+03 -0.69807535859E+03  0.76371644725E+03  0.50400001928E-02 0. -1.
       -1    1    3    3    0  502  0.14699810825E+03  0.27266309191E+03  0.63601731348E+03  0.70744019435E+03  0.50400001928E-02 0.  1.
</event>
<event>
 5   0  0.5840834E-04  0.1507130E+04  0.7818609E-02  0.8879725E-01
        1   -1    0    0  501    0  0.00000000000E+00  0.00000000000E+00  0.15056879408E+04  0.15056879409E+04  0.50400001928E-02 0. -1.
       -1   -1    0    0    0  501  0.00000000000E+00  0.00000000000E+00 -0.37714338015E+03  0.37714338018E+03  0.50400001928E-02 0.  1.
    10030    2    1    2    0    0  0.00000000000E+00  0.00000000000E+00  0.11285445607E+04  0.18828313210E+04  0.15071300402E+04 0.  0.
        3    1    3    3  502    0 -0.12372433802E+03  0.74298748707E+03  0.59281808783E+03  0.95852564557E+03  0.10100000352E+00 0. -1.
       -3    1    3    3    0  502  0.12372433802E+03 -0.74298748707E+03  0.53572647286E+03  0.92430567546E+03  0.10100000352E+00 0.  1.
</event>
<event>
 5   0  0.1082667E-03  0.1529820E+04  0.7818609E-02  0.8864862E-01
       -2   -1    0    0    0  501  0.00000000000E+00  0.00000000000E+00  0.35517640970E+03  0.35517640971E+03  0.25500000920E-02 0. -1.
        2   -1    0    0  501    0  0.00000000000E+00  0.00000000000E+00 -0.16473145297E+04  0.16473145297E+04  0.25500000920E-02 0.  1.
    10030    2    1    2    0    0  0.00000000000E+00  0.00000000000E+00 -0.12921381200E+04  0.20024909394E+04  0.15298199375E+04 0.  0.
        5    1    3    3  502    0  0.10647782360E+02  0.40885634974E+03  0.20000497967E+03  0.45530316481E+03  0.46999998093E+01 0. -1.
       -5    1    3    3    0  502 -0.10647782360E+02 -0.40885634974E+03 -0.14921430997E+04  0.15471877746E+04  0.46999998093E+01 0.  1.
</event>
<event>
 5   0  0.1147755E-03  0.1519712E+04  0.7818609E-02  0.8871450E-01
        2   -1    0    0  501    0  0.00000000000E+00  0.00000000000E+00  0.14833228843E+04  0.14833228843E+04  0.25500000920E-02 0.  1.
       -2   -1    0    0    0  501  0.00000000000E+00  0.00000000000E+00 -0.38924830789E+03  0.38924830790E+03  0.25500000920E-02 0. -1.
    10030    2    1    2    0    0  0.00000000000E+00  0.00000000000E+00  0.10940745764E+04  0.18725711922E+04  0.15197117132E+04 0.  0.
        4    1    3    3  502    0  0.76417126994E+01  0.45893024080E+03 -0.19912779097E+03  0.50032874366E+03  0.12699999809E+01 0. -1.
       -4    1    3    3    0  502 -0.76417126994E+01 -0.45893024080E+03  0.12932023674E+04  0.13722424486E+04  0.12699999809E+01 0.  1.
</event>
<event>
 5   0  0.5924403E-04  0.1466561E+04  0.7818609E-02  0.8906999E-01
       -1   -1    0    0    0  501  0.00000000000E+00  0.00000000000E+00  0.10623726653E+04  0.10623726653E+04  0.50400001928E-02 0.  1.
        1   -1    0    0  501    0  0.00000000000E+00  0.00000000000E+00 -0.50613161179E+03  0.50613161181E+03  0.50400001928E-02 0. -1.
    10030    2    1    2    0    0  0.00000000000E+00  0.00000000000E+00  0.55624105354E+03  0.15685042772E+04  0.14665611333E+04 0.  0.
        1    1    3    3  502    0 -0.25652756221E+03  0.68466905814E+03  0.21835903017E+03  0.76305882829E+03  0.50400001928E-02 0. -1.
       -1    1    3    3    0  502  0.25652756221E+03 -0.68466905814E+03  0.33788202337E+03  0.80544544886E+03  0.50400001928E-02 0.  1.
</event>
<event>
 5   0  0.6146552E-04  0.1492848E+04  0.7818609E-02  0.8889223E-01
       -1   -1    0    0    0  501  0.00000000000E+00  0.00000000000E+00  0.10347657721E+04  0.10347657721E+04  0.50400001928E-02 0. -1.
        1   -1    0    0  501    0  0.00000000000E+00  0.00000000000E+00 -0.53843006931E+03  0.53843006933E+03  0.50400001928E-02 0.  1.
    10030    2    1    2    0    0  0.00000000000E+00  0.00000000000E+00  0.49633570280E+03  0.15731958414E+04  0.14928482929E+04 0.  0.
        5    1    3    3  502    0  0.44668912177E+02  0.98964044976E+02 -0.53004766180E+03  0.54107467848E+03  0.46999998093E+01 0.  1.
       -5    1    3    3    0  502 -0.44668912177E+02 -0.98964044976E+02  0.10263833646E+04  0.10321211630E+04  0.46999998093E+01 0. -1.
</event>
<event>
 5   0  0.1126175E-03  0.1505492E+04  0.7818609E-02  0.8880809E-01
        2   -1    0    0  501    0  0.00000000000E+00  0.00000000000E+00  0.12573271475E+04  0.12573271475E+04  0.25500000920E-02 0. -1.
       -2   -1    0    0    0  501  0.00000000000E+00  0.00000000000E+00 -0.45065953830E+03  0.45065953831E+03  0.25500000920E-02 0.  1.
    10030    2    1    2    0    0  0.00000000000E+00  0.00000000000E+00  0.80666760924E+03  0.17079866859E+04  0.15054919087E+04 0.  0.
        3    1    3    3  502    0  0.27443941116E+01 -0.62659622580E+03  0.87656766562E+03  0.10774976773E+04  0.10100000352E+00 0. -1.
       -3    1    3    3    0  502 -0.27443941116E+01  0.62659622580E+03 -0.69900056372E+02  0.63048900860E+03  0.10100000352E+00 0.  1.
</event>
<event>
 5   0  0.5606965E-04  0.1501836E+04  0.7818609E-02  0.8883233E-01
        1   -1    0    0  501    0  0.00000000000E+00  0.00000000000E+00  0.17381854289E+04  0.17381854289E+04  0.50400001928E-02 0. -1.
       -1   -1    0    0    0  501  0.00000000000E+00  0.00000000000E+00 -0.32440618506E+03  0.32440618509E+03  0.50400001928E-02 0.  1.
    10030    2    1    2    0    0  0.00000000000E+00  0.00000000000E+00  0.14137792439E+04  0.20625916140E+04  0.15018363479E+04 0.  0.
        4    1    3    3  502    0  0.15364084246E+03 -0.58979005205E+03  0.13093302448E+04  0.14442316701E+04  0.12699999809E+01 0. -1.
       -4    1    3    3    0  502 -0.15364084246E+03  0.58979005205E+03  0.10444899905E+03  0.61835994394E+03  0.12699999809E+01 0.  1.
</event>
<event>
 5   0  0.1126175E-03  0.1484563E+04  0.7818609E-02  0.8894784E-01
       -2   -1    0    0    0  501  0.00000000000E+00  0.00000000000E+00  0.26071953873E+03  0.26071953874E+03  0.25500000920E-02 0.  1.
        2   -1    0    0  501    0  0.00000000000E+00  0.00000000000E+00 -0.21133126624E+04  0.21133126624E+04  0.25500000920E-02 0. -1.
    10030    2    1    2    0    0  0.00000000000E+00  0.00000000000E+00 -0.18525931236E+04  0.23740322011E+04  0.14845631041E+04 0.  0.
        3    1    3    3  502    0 -0.48036641250E+03  0.51337098939E+03 -0.54557827112E+03  0.88991984085E+03  0.10100000352E+00 0.  1.
       -3    1    3    3    0  502  0.48036641250E+03 -0.51337098939E+03 -0.13070148525E+04  0.14841123603E+04  0.10100000352E+00 0. -1.
</event>
<event>
 5   0  0.4070625E-04  0.1510980E+04  0.7818609E-02  0.8877184E-01
        3   -1    0    0  501    0  0.00000000000E+00  0.00000000000E+00  0.31596876058E+03  0.31596877672E+03  0.10100000352E+00 0. -1.
       -3   -1    0    0    0  501  0.00000000000E+00  0.00000000000E+00 -0.18063968691E+04  0.18063968719E+04  0.10100000352E+00 0.  1.
    10030    2    1    2    0    0  0.00000000000E+00  0.00000000000E+00 -0.14904281085E+04  0.21223656486E+04  0.15109798145E+04 0.  0.
        4    1    3    3  502    0  0.65434309788E+03  0.37714267183E+03 -0.77193533515E+03  0.10799478039E+04  0.12699999809E+01 0. -1.
       -4    1    3    3    0  502 -0.65434309788E+03 -0.37714267183E+03 -0.71849277334E+03  0.10424178447E+04  0.12699999809E+01 0.  1.
</event>
<event>
 5   0  0.5914645E-04  0.1498691E+04  0.7818609E-02  0.8885324E-01
        1   -1    0    0  501    0  0.00000000000E+00  0.00000000000E+00  0.16951686725E+04  0.16951686726E+04  0.50400001928E-02 0.  1.
       -1   -1    0    0    0  501  0.00000000000E+00  0.00000000000E+00 -0.33124657286E+03  0.33124657290E+03  0.50400001928E-02 0. -1.
    10030    2    1    2    0    0  0.00000000000E+00  0.00000000000E+00  0.13639220997E+04  0.20264152454E+04  0.14986911800E+04 0.  0.
        2    1    3    3  502    0 -0.20329917802E+03 -0.32293287660E+03  0.15539522818E+04  0.16001199620E+04  0.25500000920E-02 0.  1.
       -2    1    3    3    0  502  0.20329917802E+03  0.32293287660E+03 -0.19003018214E+03  0.42629528346E+03  0.25500000920E-02 0. -1.
</event>
<event>
 5   0  0.1082667E-03  0.1425236E+04  0.7818609E-02  0.8935751E-01
        2   -1    0    0  501    0  0.00000000000E+00  0.00000000000E+00  0.11998274895E+04  0.11998274895E+04  0.25500000920E-02 0.  1.
       -2   -1    0    0    0  501  0.00000000000E+00  0.00000000000E+00 -0.42324785109E+03  0.42324785110E+03  0.25500000920E-02 0. -1.
    10030    2    1    2    0    0  0.00000000000E+00  0.00000000000E+00  0.77657963837E+03  0.16230753406E+04  0.14252359897E+04 0.  0.
        5    1    3    3  502    0 -0.13619847832E+03 -0.57703270635E+03  0.83849584906E+03  0.10269440825E+04  0.46999998093E+01 0.  1.
       -5    1    3    3    0  502  0.13619847832E+03  0.57703270635E+03 -0.61916210688E+02  0.59613125806E+03  0.46999998093E+01 0. -1.
</event>
<event>
 5   0  0.5924403E-04  0.1486366E+04  0.7818609E-02  0.8893570E-01
       -1   -1    0    0    0  501  0.00000000000E+00  0.00000000000E+00  0.41140341771E+03  0.41140341774E+03  0.50400001928E-02 0.  1.
        1   -1    0    0  501    0  0.00000000000E+00  0.00000000000E+00 -0.13425289170E+04  0.13425289170E+04  0.50400001928E-02 0. -1.
    10030    2    1    2    0    0  0.00000000000E+00  0.00000000000E+00 -0.93112549933E+03  0.17539323348E+04  0.14863660180E+04 0.  0.
        1    1    3    3  502    0  0.21902027725E+03 -0.54976282780E+02  0.36994090843E+03  0.43341498506E+03  0.50400001928E-02 0.  1.
       -1    1    3    3    0  502 -0.21902027725E+03  0.54976282780E+02 -0.13010664078E+04  0.13205173497E+04  0.50400001928E-02 0. -1.
</event>
<event>
 5   0  0.5924403E-04  0.1489114E+04  0.7818609E-02  0.8891724E-01
       -1   -1    0    0    0  501  0.00000000000E+00  0.00000000000E+00  0.45152588041E+03  0.45152588044E+03  0.50400001928E-02 0.  1.
        1   -1    0    0  501    0  0.00000000000E+00  0.00000000000E+00 -0.12277593097E+04  0.12277593097E+04  0.50400001928E-02 0. -1.
    10030    2    1    2    0    0  0.00000000000E+00  0.00000000000E+00 -0.77623342928E+03  0.16792851901E+04  0.14891139691E+04 0.  0.
        1    1    3    3  502    0  0.35337938202E+03 -0.60254250532E+03 -0.67877369305E+03  0.97399598806E+03  0.50400001928E-02 0. -1.
       -1    1    3    3    0  502 -0.35337938202E+03  0.60254250532E+03 -0.97459736227E+02  0.70528920207E+03  0.50400001928E-02 0.  1.
</event>
<event>
 5   0  0.1082667E-03  0.1499588E+04  0.7818609E-02  0.8884727E-01
        2   -1    0    0  501    0  0.00000000000E+00  0.00000000000E+00  0.57316756847E+03  0.57316756847E+03  0.25500000920E-02 0.  1.
       -2   -1    0    0    0  501  0.00000000000E+00  0.00000000000E+00 -0.98084943247E+03  0.98084943247E+03  0.25500000920E-02 0. -1.
    10030    2    1    2    0    0  0.00000000000E+00  0.00000000000E+00 -0.40768186400E+03  0.15540170009E+04  0.14995880558E+04 0.  0.
        5    1    3    3  502    0  0.37482742313E+03 -0.14391254088E+03 -0.86004015790E+03  0.94915624622E+03  0.46999998093E+01 0. -1.
       -5    1    3    3    0  502 -0.37482742313E+03  0.14391254088E+03  0.45235829390E+03  0.60486075472E+03  0.46999998093E+01 0.  1.
</event>
<event>
 5   0  0.5606965E-04  0.1478920E+04  0.7818609E-02  0.8898593E-01
        1   -1    0    0  501    0  0.00000000000E+00  0.00000000000E+00  0.34544390251E+03  0.34544390255E+03  0.50400001928E-02 0. -1.
       -1   -1    0    0    0  501  0.00000000000E+00  0.00000000000E+00 -0.15828934541E+04  0.15828934541E+04  0.50400001928E-02 0.  1.
    10030    2    1    2    0    0  0.00000000000E+00  0.00000000000E+00 -0.12374495516E+04  0.19283373566E+04  0.14789197302E+04 0.  0.
        4    1    3    3  502    0  0.44451666155E+03  0.58578515742E+03 -0.51722303039E+03  0.89903314128E+03  0.12699999809E+01 0. -1.
       -4    1    3    3    0  502 -0.44451666155E+03 -0.58578515742E+03 -0.72022652119E+03  0.10293042154E+04  0.12699999809E+01 0.  1.
</event>
<event>
 5   0  0.5924403E-04  0.1520900E+04  0.7818609E-02  0.8870672E-01
       -1   -1    0    0    0  501  0.00000000000E+00  0.00000000000E+00  0.72133982112E+03  0.72133982114E+03  0.50400001928E-02 0.  1.
        1   -1    0    0  501    0  0.00000000000E+00  0.00000000000E+00 -0.80168081955E+03  0.80168081957E+03  0.50400001928E-02 0. -1.
    10030    2    1    2    0    0  0.00000000000E+00  0.00000000000E+00 -0.80340998428E+02  0.15230206407E+04  0.15209001269E+04 0.  0.
        1    1    3    3  502    0  0.10917863644E+03 -0.12895964401E+03  0.70230356420E+03  0.72234400444E+03  0.50400001928E-02 0.  1.
       -1    1    3    3    0  502 -0.10917863644E+03  0.12895964401E+03 -0.78264456262E+03  0.80067663627E+03  0.50400001928E-02 0. -1.
</event>
<event>
 5   0  0.1082667E-03  0.1507006E+04  0.7818609E-02  0.8879807E-01
       -2   -1    0    0    0  501  0.00000000000E+00  0.00000000000E+00  0.81397237827E+03  0.81397237827E+03  0.25500000920E-02 0.  1.
        2   -1    0    0  501    0  0.00000000000E+00  0.00000000000E+00 -0.69752597330E+03  0.69752597331E+03  0.25500000920E-02 0. -1.
    10030    2    1    2    0    0  0.00000000000E+00  0.00000000000E+00  0.11644640497E+03  0.15114983516E+04  0.15070061385E+04 0.  0.
        5    1    3    3  502    0 -0.40721269336E+03  0.62457801210E+03 -0.50843369306E+02  0.74734664583E+03  0.46999998093E+01 0. -1.
       -5    1    3    3    0  502  0.40721269336E+03 -0.62457801210E+03  0.16728977427E+03  0.76415170575E+03  0.46999998093E+01 0.  1.
</event>
<event>
 5   0  0.6146552E-04  0.1498457E+04  0.7818609E-02  0.8885479E-01
       -1   -1    0    0    0  501  0.00000000000E+00  0.00000000000E+00  0.55518836331E+03  0.55518836334E+03  0.50400001928E-02 0. -1.
        1   -1    0    0  501    0  0.00000000000E+00  0.00000000000E+00 -0.10110866441E+04  0.10110866441E+04  0.50400001928E-02 0.  1.
    10030    2    1    2    0    0  0.00000000000E+00  0.00000000000E+00 -0.45589828082E+03  0.15662750075E+04  0.14984572589E+04 0.  0.
        5    1    3    3  502    0  0.34876421621E+03 -0.66305478658E+03 -0.22106941510E+03  0.78113501061E+03  0.46999998093E+01 0. -1.
       -5    1    3    3    0  502 -0.34876421621E+03  0.66305478658E+03 -0.23482886571E+03  0.78513999687E+03  0.46999998093E+01 0.  1.
</event>
<event>
 5   0  0.1126175E-03  0.1519743E+04  0.7818609E-02  0.8871429E-01
       -2   -1    0    0    0  501  0.00000000000E+00  0.00000000000E+00  0.74223932453E+03  0.74223932454E+03  0.25500000920E-02 0.  1.
        2   -1    0    0  501    0  0.00000000000E+00  0.00000000000E+00 -0.77792220826E+03  0.77792220827E+03  0.25500000920E-02 0. -1.
    10030    2    1    2    0    0  0.00000000000E+00  0.00000000000E+00 -0.35682883727E+02  0.15201615328E+04  0.15197426814E+04 0.  0.
        3    1    3    3  502    0 -0.51171453151E+03  0.10427341022E+03 -0.56997159421E+03  0.77304096544E+03  0.10100000352E+00 0.  1.
       -3    1    3    3    0  502  0.51171453151E+03 -0.10427341022E+03  0.53428871048E+03  0.74712056737E+03  0.10100000352E+00 0. -1.
</event>
<event>
 5   0  0.5914645E-04  0.1510735E+04  0.7818609E-02  0.8877346E-01
        1   -1    0    0  501    0  0.00000000000E+00  0.00000000000E+00  0.10713259708E+04  0.10713259708E+04  0.50400001928E-02 0.  1.
       -1   -1    0    0    0  501  0.00000000000E+00  0.00000000000E+00 -0.53259216800E+03  0.53259216802E+03  0.50400001928E-02 0. -1.
    10030    2    1    2    0    0  0.00000000000E+00  0.00000000000E+00  0.53873380279E+03  0.16039181388E+04  0.15107346841E+04 0.  0.
        2    1    3    3  502    0  0.33702346726E+03 -0.63503244510E+03  0.23274865187E+02  0.71930017598E+03  0.25500000920E-02 0. -1.
       -2    1    3    3    0  502 -0.33702346726E+03  0.63503244510E+03  0.51545893760E+03  0.88461796284E+03  0.25500000920E-02 0.  1.
</event>
<event>
 5   0  0.5606965E-04  0.1523496E+04  0.7818609E-02  0.8868977E-01
       -1   -1    0    0    0  501  0.00000000000E+00  0.00000000000E+00  0.83509572350E+03  0.83509572352E+03  0.50400001928E-02 0.  1.
        1   -1    0    0  501    0  0.00000000000E+00  0.00000000000E+00 -0.69484273865E+03  0.69484273867E+03  0.50400001928E-02 0. -1.
    10030    2    1    2    0    0  0.00000000000E+00  0.00000000000E+00  0.14025298485E+03  0.15299384622E+04  0.15234962417E+04 0.  0.
        4    1    3    3  502    0 -0.90384428198E+01  0.67161385771E+03 -0.29071411724E+03  0.73189014078E+03  0.12699999809E+01 0. -1.
       -4    1    3    3    0  502  0.90384428198E+01 -0.67161385771E+03  0.43096710209E+03  0.79804832141E+03  0.12699999809E+01 0.  1.
</event>
<event>
 5   0  0.5924403E-04  0.1629086E+04  0.7818609E-02  0.8802876E-01
        1   -1    0    0  501    0  0.00000000000E+00  0.00000000000E+00  0.10056661153E+04  0.10056661153E+04  0.50400001928E-02 0.  1.
       -1   -1    0    0    0  501  0.00000000000E+00  0.00000000000E+00 -0.65974240235E+03  0.65974240237E+03  0.50400001928E-02 0. -1.
    10030    2    1    2    0    0  0.00000000000E+00  0.00000000000E+00  0.34592371294E+03  0.16654085177E+04  0.16290863438E+04 0.  0.
        1    1    3    3  502    0  0.12811378138E+03  0.31860846887E+03 -0.58212407562E+03  0.67586458470E+03  0.50400001928E-02 0. -1.
       -1    1    3    3    0  502 -0.12811378138E+03 -0.31860846887E+03  0.92804778857E+03  0.98954393298E+03  0.50400001928E-02 0.  1.
</event>
<event>
 5   0  0.5606965E-04  0.1481421E+04  0.7818609E-02  0.8896903E-01
        1   -1    0    0  501    0  0.00000000000E+00  0.00000000000E+00  0.91915598624E+03  0.91915598625E+03  0.50400001928E-02 0.  1.
       -1   -1    0    0    0  501  0.00000000000E+00  0.00000000000E+00 -0.59690847456E+03  0.59690847458E+03  0.50400001928E-02 0. -1.
    10030    2    1    2    0    0  0.00000000000E+00  0.00000000000E+00  0.32224751168E+03  0.15160644608E+04  0.14814209363E+04 0.  0.
        4    1    3    3  502    0 -0.73700309293E+03  0.71141883813E+02  0.14025928707E+03  0.75359737734E+03  0.12699999809E+01 0.  1.
       -4    1    3    3    0  502  0.73700309293E+03 -0.71141883813E+02  0.18198822461E+03  0.76246708350E+03  0.12699999809E+01 0. -1.
</event>
<event>
 5   0  0.1097156E-03  0.1475226E+04  0.7818609E-02  0.8901097E-01
        2   -1    0    0  501    0  0.00000000000E+00  0.00000000000E+00  0.62772550426E+03  0.62772550427E+03  0.25500000920E-02 0. -1.
       -2   -1    0    0    0  501  0.00000000000E+00  0.00000000000E+00 -0.86673671247E+03  0.86673671247E+03  0.25500000920E-02 0.  1.
    10030    2    1    2    0    0  0.00000000000E+00  0.00000000000E+00 -0.23901120820E+03  0.14944622167E+04  0.14752257317E+04 0.  0.
        2    1    3    3  502    0 -0.76690642280E+02 -0.15081121805E+03  0.60780275501E+03  0.63091177443E+03  0.25500000920E-02 0. -1.
       -2    1    3    3    0  502  0.76690642280E+02  0.15081121805E+03 -0.84681396322E+03  0.86355044231E+03  0.25500000920E-02 0.  1.
</event>
<event>
 5   0  0.1149716E-03  0.1476221E+04  0.7818609E-02  0.8900422E-01
       -2   -1    0    0    0  501  0.00000000000E+00  0.00000000000E+00  0.61060897471E+03  0.61060897472E+03  0.25500000920E-02 0.  1.
        2   -1    0    0  501    0  0.00000000000E+00  0.00000000000E+00 -0.89223516844E+03  0.89223516844E+03  0.25500000920E-02 0. -1.
    10030    2    1    2    0    0  0.00000000000E+00  0.00000000000E+00 -0.28162619372E+03  0.15028441432E+04  0.14762205816E+04 0.  0.
        1    1    3    3  502    0 -0.24236682176E+03 -0.27467788827E+01 -0.85056497006E+03  0.88442636178E+03  0.50400001928E-02 0. -1.
       -1    1    3    3    0  502  0.24236682176E+03  0.27467788827E+01  0.56893877634E+03  0.61841778138E+03  0.50400001928E-02 0.  1.
</event>
<event>
 5   0  0.1126175E-03  0.1505169E+04  0.7818609E-02  0.8881023E-01
       -2   -1    0    0    0  501  0.00000000000E+00  0.00000000000E+00  0.50771588248E+03  0.50771588249E+03  0.25500000920E-02 0.  1.
        2   -1    0    0  501    0  0.00000000000E+00  0.00000000000E+00 -0.11155522653E+04  0.11155522653E+04  0.25500000920E-02 0. -1.
    10030    2    1    2    0    0  0.00000000000E+00  0.00000000000E+00 -0.60783638282E+03  0.16232681478E+04  0.15051692301E+04 0.  0.
        3    1    3    3  502    0 -0.62723381529E+03 -0.41338330316E+03 -0.25478505447E+03  0.79323606106E+03  0.10100000352E+00 0.  1.
       -3    1    3    3    0  502  0.62723381529E+03  0.41338330316E+03 -0.35305132835E+03  0.83003208675E+03  0.10100000352E+00 0. -1.
</event>
<event>
 5   0  0.1149716E-03  0.1462958E+04  0.7818609E-02  0.8909466E-01
       -2   -1    0    0    0  501  0.00000000000E+00  0.00000000000E+00  0.13388394225E+04  0.13388394225E+04  0.25500000920E-02 0.  1.
        2   -1    0    0  501    0  0.00000000000E+00  0.00000000000E+00 -0.39964574799E+03  0.39964574800E+03  0.25500000920E-02 0. -1.
    10030    2    1    2    0    0  0.00000000000E+00  0.00000000000E+00  0.93919367448E+03  0.17384851705E+04  0.14629579385E+04 0.  0.
        1    1    3    3  502    0  0.59632290681E+03  0.58700968651E+02  0.96815241887E+03  0.11385806599E+04  0.50400001928E-02 0.  1.
       -1    1    3    3    0  502 -0.59632290681E+03 -0.58700968651E+02 -0.28958744389E+02  0.59990451058E+03  0.50400001928E-02 0. -1.
</event>
<event>
 5   0  0.1147755E-03  0.1498076E+04  0.7818609E-02  0.8885733E-01
        2   -1    0    0  501    0  0.00000000000E+00  0.00000000000E+00  0.55080673473E+03  0.55080673474E+03  0.25500000920E-02 0. -1.
       -2   -1    0    0    0  501  0.00000000000E+00  0.00000000000E+00 -0.10186110850E+04  0.10186110850E+04  0.25500000920E-02 0.  1.
    10030    2    1    2    0    0  0.00000000000E+00  0.00000000000E+00 -0.46780435031E+03  0.15694178198E+04  0.14980758936E+04 0.  0.
        4    1    3    3  502    0  0.29381518760E+03 -0.50920762004E+02  0.48594167125E+03  0.57014139406E+03  0.12699999809E+01 0. -1.
       -4    1    3    3    0  502 -0.29381518760E+03  0.50920762004E+02 -0.95374602155E+03  0.99927642572E+03  0.12699999809E+01 0.  1.
</event>
<event>
 5   0  0.5840834E-04  0.1477308E+04  0.7818609E-02  0.8899685E-01
        1   -1    0    0  501    0  0.00000000000E+00  0.00000000000E+00  0.53025918131E+03  0.53025918134E+03  0.50400001928E-02 0.  1.
       -1   -1    0    0    0  501  0.00000000000E+00  0.00000000000E+00 -0.10289490567E+04  0.10289490567E+04  0.50400001928E-02 0. -1.
    10030    2    1    2    0    0  0.00000000000E+00  0.00000000000E+00 -0.49868987536E+03  0.15592082380E+04  0.14773079360E+04 0.  0.
        3    1    3    3  502    0  0.67880236260E+03 -0.28263088504E+03 -0.32365270419E+03  0.80337036775E+03  0.10100000352E+00 0.  1.
       -3    1    3    3    0  502 -0.67880236260E+03  0.28263088504E+03 -0.17503717117E+03  0.75583787027E+03  0.10100000352E+00 0. -1.
</event>
<event>
 5   0  0.5924403E-04  0.1499233E+04  0.7818609E-02  0.8884963E-01
       -1   -1    0    0    0  501  0.00000000000E+00  0.00000000000E+00  0.83443814248E+03  0.83443814250E+03  0.50400001928E-02 0.  1.
        1   -1    0    0  501    0  0.00000000000E+00  0.00000000000E+00 -0.67341747853E+03  0.67341747855E+03  0.50400001928E-02 0. -1.
    10030    2    1    2    0    0  0.00000000000E+00  0.00000000000E+00  0.16102066395E+03  0.15078556210E+04  0.14992334440E+04 0.  0.
        1    1    3    3  502    0 -0.22857263018E+03  0.70641012470E+03  0.18437339370E+03  0.76501912386E+03  0.50400001928E-02 0.  1.
       -1    1    3    3    0  502  0.22857263018E+03 -0.70641012470E+03 -0.23352729742E+02  0.74283649719E+03  0.50400001928E-02 0. -1.
</event>
<event>
 5   0  0.4070625E-04  0.1488852E+04  0.7818609E-02  0.8891900E-01
       -3   -1    0    0    0  501  0.00000000000E+00  0.00000000000E+00  0.53669163681E+03  0.53669164631E+03  0.10100000352E+00 0. -1.
        3   -1    0    0  501    0  0.00000000000E+00  0.00000000000E+00 -0.10325668778E+04  0.10325668827E+04  0.10100000352E+00 0.  1.
    10030    2    1    2    0    0  0.00000000000E+00  0.00000000000E+00 -0.49587524098E+03  0.15692585290E+04  0.14888519323E+04 0.  0.
        1    1    3    3  502    0 -0.66940285714E+03 -0.24151768800E+03 -0.47823013984E+03  0.85740016646E+03  0.50400001928E-02 0.  1.
       -1    1    3    3    0  502  0.66940285714E+03  0.24151768800E+03 -0.17645101148E+02  0.71185836259E+03  0.50400001928E-02 0. -1.
</event>
<event>
 5   0  0.5924403E-04  0.1401476E+04  0.7818609E-02  0.8952751E-01
       -1   -1    0    0    0  501  0.00000000000E+00  0.00000000000E+00  0.67076065385E+03  0.67076065387E+03  0.50400001928E-02 0.  1.
        1   -1    0    0  501    0  0.00000000000E+00  0.00000000000E+00 -0.73205552468E+03  0.73205552470E+03  0.50400001928E-02 0. -1.
    10030    2    1    2    0    0  0.00000000000E+00  0.00000000000E+00 -0.61294870824E+02  0.14028161786E+04  0.14014764249E+04 0.  0.
        1    1    3    3  502    0  0.47637047394E+03 -0.17389992570E+03 -0.51470463475E+03  0.72255856071E+03  0.50400001928E-02 0. -1.
       -1    1    3    3    0  502 -0.47637047394E+03  0.17389992570E+03  0.45340976393E+03  0.68025761785E+03  0.50400001928E-02 0.  1.
</event>
<event>
 5   0  0.5606965E-04  0.1531002E+04  0.7818609E-02  0.8864095E-01
       -1   -1    0    0    0  501  0.00000000000E+00  0.00000000000E+00  0.51196719665E+03  0.51196719667E+03  0.50400001928E-02 0.  1.
        1   -1    0    0  501    0  0.00000000000E+00  0.00000000000E+00 -0.11445883053E+04  0.11445883053E+04  0.50400001928E-02 0. -1.
    10030    2    1    2    0    0  0.00000000000E+00  0.00000000000E+00 -0.63262110868E+03  0.16565555020E+04  0.15310018498E+04 0.  0.
        4    1    3    3  502    0 -0.47666773247E+03 -0.39534325791E+03  0.17057074572E+03  0.64234290761E+03  0.12699999809E+01 0.  1.
       -4    1    3    3    0  502  0.47666773247E+03  0.39534325791E+03 -0.80319185440E+03  0.10142125944E+04  0.12699999809E+01 0. -1.
</event>
<event>
 5   0  0.5840834E-04  0.1472764E+04  0.7818609E-02  0.8902769E-01
        1   -1    0    0  501    0  0.00000000000E+00  0.00000000000E+00  0.10846444259E+04  0.10846444260E+04  0.50400001928E-02 0. -1.
       -1   -1    0    0    0  501  0.00000000000E+00  0.00000000000E+00 -0.49994153497E+03  0.49994153500E+03  0.50400001928E-02 0.  1.
    10030    2    1    2    0    0  0.00000000000E+00  0.00000000000E+00  0.58470289097E+03  0.15845859610E+04  0.14727644744E+04 0.  0.
        3    1    3    3  502    0 -0.68012228877E+02  0.40819732155E+03  0.94770277339E+03  0.10341137624E+04  0.10100000352E+00 0. -1.
       -3    1    3    3    0  502  0.68012228877E+02 -0.40819732155E+03 -0.36299988241E+03  0.55047219860E+03  0.10100000352E+00 0.  1.
</event>
<event>
 5   0  0.1147755E-03  0.1428881E+04  0.7818609E-02  0.8933174E-01
        2   -1    0    0  501    0  0.00000000000E+00  0.00000000000E+00  0.10599484113E+04  0.10599484113E+04  0.25500000920E-02 0.  1.
       -2   -1    0    0    0  501  0.00000000000E+00  0.00000000000E+00 -0.48155652447E+03  0.48155652448E+03  0.25500000920E-02 0. -1.
    10030    2    1    2    0    0  0.00000000000E+00  0.00000000000E+00  0.57839188681E+03  0.15415049358E+04  0.14288807831E+04 0.  0.
        4    1    3    3  502    0 -0.66761992546E+03 -0.21330614872E+03  0.13968076805E+03  0.71465250844E+03  0.12699999809E+01 0. -1.
       -4    1    3    3    0  502  0.66761992546E+03  0.21330614872E+03  0.43871111876E+03  0.82685242733E+03  0.12699999809E+01 0.  1.
</event>
<event>
 5   0  0.5914645E-04  0.1511495E+04  0.7818609E-02  0.8876845E-01
       -1   -1    0    0    0  501  0.00000000000E+00  0.00000000000E+00  0.67951244181E+03  0.67951244183E+03  0.50400001928E-02 0.  1.
        1   -1    0    0  501    0  0.00000000000E+00  0.00000000000E+00 -0.84053561461E+03  0.84053561463E+03  0.50400001928E-02 0. -1.
    10030    2    1    2    0    0  0.00000000000E+00  0.00000000000E+00 -0.16102317280E+03  0.15200480565E+04  0.15114951643E+04 0.  0.
        2    1    3    3  502    0  0.47263920375E+03  0.84010829886E+02 -0.66751714474E+03  0.82220725793E+03  0.25500000920E-02 0. -1.
       -2    1    3    3    0  502 -0.47263920375E+03 -0.84010829886E+02  0.50649397194E+03  0.69784079852E+03  0.25500000920E-02 0.  1.
</event>
<event>
 5   0  0.5840834E-04  0.1491233E+04  0.7818609E-02  0.8890304E-01
       -1   -1    0    0    0  501  0.00000000000E+00  0.00000000000E+00  0.72269802073E+03  0.72269802074E+03  0.50400001928E-02 0.  1.
        1   -1    0    0  501    0  0.00000000000E+00  0.00000000000E+00 -0.76926155671E+03  0.76926155672E+03  0.50400001928E-02 0. -1.
    10030    2    1    2    0    0  0.00000000000E+00  0.00000000000E+00 -0.46563535980E+02  0.14919595775E+04  0.14912327846E+04 0.  0.
        3    1    3    3  502    0 -0.13989820083E+03  0.20251142359E+03  0.68088041814E+03  0.72400313348E+03  0.10100000352E+00 0.  1.
       -3    1    3    3    0  502  0.13989820083E+03 -0.20251142359E+03 -0.72744395412E+03  0.76795644399E+03  0.10100000352E+00 0. -1.
</event>
<event>
 5   0  0.1082667E-03  0.1522364E+04  0.7818609E-02  0.8869716E-01
        2   -1    0    0  501    0  0.00000000000E+00  0.00000000000E+00  0.25168348708E+04  0.25168348708E+04  0.25500000920E-02 0. -1.
       -2   -1    0    0    0  501  0.00000000000E+00  0.00000000000E+00 -0.23020902097E+03  0.23020902098E+03  0.25500000920E-02 0.  1.
    10030    2    1    2    0    0  0.00000000000E+00  0.00000000000E+00  0.22866258498E+04  0.27470438918E+04  0.15223640715E+04 0.  0.
        5    1    3    3  502    0 -0.69703987215E+02  0.18135327534E+03  0.24713119766E+04  0.24789418371E+04  0.46999998093E+01 0. -1.
       -5    1    3    3    0  502  0.69703987215E+02 -0.18135327534E+03 -0.18468612673E+03  0.26810205467E+03  0.46999998093E+01 0.  1.
</event>
<event>
 5   0  0.5914645E-04  0.1363429E+04  0.7818609E-02  0.8980724E-01
        1   -1    0    0  501    0  0.00000000000E+00  0.00000000000E+00  0.82354781738E+03  0.82354781740E+03  0.50400001928E-02 0. -1.
       -1   -1    0    0    0  501  0.00000000000E+00  0.00000000000E+00 -0.56430823770E+03  0.56430823773E+03  0.50400001928E-02 0.  1.
    10030    2    1    2    0    0  0.00000000000E+00  0.00000000000E+00  0.25923957968E+03  0.13878560551E+04  0.13634292318E+04 0.  0.
        2    1    3    3  502    0  0.71066676837E+01 -0.42958523115E+03 -0.40914603342E+03  0.59329120355E+03  0.25500000920E-02 0.  1.
       -2    1    3    3    0  502 -0.71066676837E+01  0.42958523115E+03  0.66838561310E+03  0.79456485157E+03  0.25500000920E-02 0. -1.
</event>
<event>
 5   0  0.6146552E-04  0.1504287E+04  0.7818609E-02  0.8881607E-01
       -1   -1    0    0    0  501  0.00000000000E+00  0.00000000000E+00  0.64980553835E+03  0.64980553837E+03  0.50400001928E-02 0. -1.
        1   -1    0    0  501    0  0.00000000000E+00  0.00000000000E+00 -0.87059891347E+03  0.87059891348E+03  0.50400001928E-02 0.  1.
    10030    2    1    2    0    0  0.00000000000E+00  0.00000000000E+00 -0.22079337512E+03  0.15204044519E+04  0.15042872009E+04 0.  0.
        5    1    3    3  502    0  0.51478781416E+03 -0.18321028527E+03 -0.63277599800E+03  0.83606223206E+03  0.46999998093E+01 0.  1.
       -5    1    3    3    0  502 -0.51478781416E+03  0.18321028527E+03  0.41198262287E+03  0.68434221979E+03  0.46999998093E+01 0. -1.
</event>
<event>
 5   0  0.6146552E-04  0.1519815E+04  0.7818609E-02  0.8871382E-01
        1   -1    0    0  501    0  0.00000000000E+00  0.00000000000E+00  0.77879107310E+03  0.77879107311E+03  0.50400001928E-02 0. -1.
       -1   -1    0    0    0  501  0.00000000000E+00  0.00000000000E+00 -0.74148209808E+03  0.74148209810E+03  0.50400001928E-02 0.  1.
    10030    2    1    2    0    0  0.00000000000E+00  0.00000000000E+00  0.37308975015E+02  0.15202731712E+04  0.15198153031E+04 0.  0.
        5    1    3    3  502    0  0.16677200491E+03  0.41093791136E+03  0.63589360764E+03  0.77528423101E+03  0.46999998093E+01 0. -1.
       -5    1    3    3    0  502 -0.16677200491E+03 -0.41093791136E+03 -0.59858463262E+03  0.74498894020E+03  0.46999998093E+01 0.  1.
</event>
<event>
 5   0  0.1097156E-03  0.1508775E+04  0.7818609E-02  0.8878639E-01
        2   -1    0    0  501    0  0.00000000000E+00  0.00000000000E+00  0.46718078864E+03  0.46718078865E+03  0.25500000920E-02 0. -1.
       -2   -1    0    0    0  501  0.00000000000E+00  0.00000000000E+00 -0.12181582510E+04  0.12181582510E+04  0.25500000920E-02 0.  1.
    10030    2    1    2    0    0  0.00000000000E+00  0.00000000000E+00 -0.75097746234E+03  0.16853390396E+04  0.15087745125E+04 0.  0.
        2    1    3    3  502    0  0.54973674136E+03  0.33043673177E+03  0.68099954314E+02  0.64500893194E+03  0.25500000920E-02 0. -1.
       -2    1    3    3    0  502 -0.54973674136E+03 -0.33043673177E+03 -0.81907741665E+03  0.10403301077E+04  0.25500000920E-02 0.  1.
</event>
<event>
 5   0  0.1097156E-03  0.1483831E+04  0.7818609E-02  0.8895277E-01
        2   -1    0    0  501    0  0.00000000000E+00  0.00000000000E+00  0.11776813400E+04  0.11776813400E+04  0.25500000920E-02 0. -1.
       -2   -1    0    0    0  501  0.00000000000E+00  0.00000000000E+00 -0.46739192760E+03  0.46739192761E+03  0.25500000920E-02 0.  1.
    10030    2    1    2    0    0  0.00000000000E+00  0.00000000000E+00  0.71028941238E+03  0.16450732676E+04  0.14838311920E+04 0.  0.
        2    1    3    3  502    0  0.15736304105E+03  0.19187541228E+03 -0.42001779749E+03  0.48784654425E+03  0.25500000920E-02 0.  1.
       -2    1    3    3    0  502 -0.15736304105E+03 -0.19187541228E+03  0.11303072099E+04  0.11572267233E+04  0.25500000920E-02 0. -1.
</event>
<event>
 5   0  0.1082667E-03  0.1530212E+04  0.7818609E-02  0.8864607E-01
        2   -1    0    0  501    0  0.00000000000E+00  0.00000000000E+00  0.13230889097E+04  0.13230889097E+04  0.25500000920E-02 0.  1.
       -2   -1    0    0    0  501  0.00000000000E+00  0.00000000000E+00 -0.44243998532E+03  0.44243998533E+03  0.25500000920E-02 0. -1.
    10030    2    1    2    0    0  0.00000000000E+00  0.00000000000E+00  0.88064892433E+03  0.17655288950E+04  0.15302123222E+04 0.  0.
        5    1    3    3  502    0 -0.45542786828E+03 -0.70888592706E+01  0.11495949643E+04  0.12365498240E+04  0.46999998093E+01 0.  1.
       -5    1    3    3    0  502  0.45542786828E+03  0.70888592706E+01 -0.26894604001E+03  0.52897907101E+03  0.46999998093E+01 0. -1.
</event>
<event>
 5   0  0.1147755E-03  0.1507726E+04  0.7818609E-02  0.8879332E-01
       -2   -1    0    0    0  501  0.00000000000E+00  0.00000000000E+00  0.28314037665E+03  0.28314037667E+03  0.25500000920E-02 0. -1.
        2   -1    0    0  501    0  0.00000000000E+00  0.00000000000E+00 -0.20071636062E+04  0.20071636062E+04  0.25500000920E-02 0.  1.
    10030    2    1    2    0    0  0.00000000000E+00  0.00000000000E+00 -0.17240232295E+04  0.22903039828E+04  0.15077255181E+04 0.  0.
        4    1    3    3  502    0  0.80731369280E+02  0.72703533777E+03 -0.11388345558E+04  0.13535300863E+04  0.12699999809E+01 0. -1.
       -4    1    3    3    0  502 -0.80731369280E+02 -0.72703533777E+03 -0.58518867376E+03  0.93677389650E+03  0.12699999809E+01 0.  1.
</event>
<event>
 5   0  0.5924403E-04  0.1499870E+04  0.7818609E-02  0.8884539E-01
        1   -1    0    0  501    0  0.00000000000E+00  0.00000000000E+00  0.26759713973E+04  0.26759713973E+04  0.50400001928E-02 0. -1.
       -1   -1    0    0    0  501  0.00000000000E+00  0.00000000000E+00 -0.21016763271E+03  0.21016763277E+03  0.50400001928E-02 0.  1.
    10030    2    1    2    0    0  0.00000000000E+00  0.00000000000E+00  0.24658037646E+04  0.28861390300E+04  0.14998700928E+04 0.  0.
        1    1    3    3  502    0  0.66277443466E+03  0.20544062270E+01  0.19081178810E+04  0.20199475290E+04  0.50400001928E-02 0. -1.
       -1    1    3    3    0  502 -0.66277443466E+03 -0.20544062270E+01  0.55768588352E+03  0.86619150107E+03  0.50400001928E-02 0.  1.
</event>
<event>
 5   0  0.1147755E-03  0.1515342E+04  0.7818609E-02  0.8874315E-01
       -2   -1    0    0    0  501  0.00000000000E+00  0.00000000000E+00  0.52877045195E+03  0.52877045195E+03  0.25500000920E-02 0. -1.
        2   -1    0    0  501    0  0.00000000000E+00  0.00000000000E+00 -0.10856602097E+04  0.10856602097E+04  0.25500000920E-02 0.  1.
    10030    2    1    2    0    0  0.00000000000E+00  0.00000000000E+00 -0.55688975773E+03  0.16144306616E+04  0.15153415981E+04 0.  0.
        4    1    3    3  502    0 -0.11391138576E+03 -0.70255602227E+03 -0.16428361163E+01  0.71173385478E+03  0.12699999809E+01 0. -1.
       -4    1    3    3    0  502  0.11391138576E+03  0.70255602227E+03 -0.55524692161E+03  0.90269680685E+03  0.12699999809E+01 0.  1.
</event>
<event>
 5   0  0.5606965E-04  0.1435135E+04  0.7818609E-02  0.8928771E-01
       -1   -1    0    0    0  501  0.00000000000E+00  0.00000000000E+00  0.54998191443E+03  0.54998191445E+03  0.50400001928E-02 0. -1.
        1   -1    0    0  501    0  0.00000000000E+00  0.00000000000E+00 -0.93621852750E+03  0.93621852752E+03  0.50400001928E-02 0.  1.
    10030    2    1    2    0    0  0.00000000000E+00  0.00000000000E+00 -0.38623661308E+03  0.14862004420E+04  0.14351351966E+04 0.  0.
        4    1    3    3  502    0  0.22731571995E+03 -0.63619497389E+03  0.57323844971E+02  0.67801483570E+03  0.12699999809E+01 0. -1.
       -4    1    3    3    0  502 -0.22731571995E+03  0.63619497389E+03 -0.44356045805E+03  0.80818560627E+03  0.12699999809E+01 0.  1.
</event>
<event>
 5   0  0.1149716E-03  0.1513604E+04  0.7818609E-02  0.8875457E-01
        2   -1    0    0  501    0  0.00000000000E+00  0.00000000000E+00  0.12783058288E+04  0.12783058288E+04  0.25500000920E-02 0. -1.
       -2   -1    0    0    0  501  0.00000000000E+00  0.00000000000E+00 -0.44805331093E+03  0.44805331094E+03  0.25500000920E-02 0.  1.
    10030    2    1    2    0    0  0.00000000000E+00  0.00000000000E+00  0.83025251783E+03  0.17263591397E+04  0.15136038570E+04 0.  0.
        1    1    3    3  502    0  0.59332413798E+03  0.33059304495E+03  0.34404207549E+02  0.68008010087E+03  0.50400001928E-02 0.  1.
       -1    1    3    3    0  502 -0.59332413798E+03 -0.33059304495E+03  0.79584831028E+03  0.10462790388E+04  0.50400001928E-02 0. -1.
</event>
<event>
 5   0  0.5840834E-04  0.1502663E+04  0.7818609E-02  0.8882684E-01
        1   -1    0    0  501    0  0.00000000000E+00  0.00000000000E+00  0.51514309084E+03  0.51514309086E+03  0.50400001928E-02 0. -1.
       -1   -1    0    0    0  501  0.00000000000E+00  0.00000000000E+00 -0.10958098340E+04  0.10958098340E+04  0.50400001928E-02 0.  1.
    10030    2    1    2    0    0  0.00000000000E+00  0.00000000000E+00 -0.58066674316E+03  0.16109529249E+04  0.15026627897E+04 0.  0.
        3    1    3    3  502    0 -0.36164027032E+02  0.62308933148E+03 -0.73874737157E+03  0.96710694396E+03  0.10100000352E+00 0.  1.
       -3    1    3    3    0  502  0.36164027032E+02 -0.62308933148E+03  0.15808062841E+03  0.64384598091E+03  0.10100000352E+00 0. -1.
</event>
<event>
 5   0  0.1126175E-03  0.1449764E+04  0.7818609E-02  0.8918564E-01
       -2   -1    0    0    0  501  0.00000000000E+00  0.00000000000E+00  0.38788558597E+03  0.38788558598E+03  0.25500000920E-02 0.  1.
        2   -1    0    0  501    0  0.00000000000E+00  0.00000000000E+00 -0.13546624961E+04  0.13546624961E+04  0.25500000920E-02 0. -1.
    10030    2    1    2    0    0  0.00000000000E+00  0.00000000000E+00 -0.96677691013E+03  0.17425480821E+04  0.14497641961E+04 0.  0.
        3    1    3    3  502    0 -0.33476860574E+03  0.10584476945E+03  0.27886276340E+03  0.44837215081E+03  0.10100000352E+00 0.  1.
       -3    1    3    3    0  502  0.33476860574E+03 -0.10584476945E+03 -0.12456396735E+04  0.12941759313E+04  0.10100000352E+00 0. -1.
</event>
<event>
 5   0  0.6146552E-04  0.1520281E+04  0.7818609E-02  0.8871077E-01
        1   -1    0    0  501    0  0.00000000000E+00  0.00000000000E+00  0.13968041663E+04  0.13968041663E+04  0.50400001928E-02 0.  1.
       -1   -1    0    0    0  501  0.00000000000E+00  0.00000000000E+00 -0.41366846958E+03  0.41366846961E+03  0.50400001928E-02 0. -1.
    10030    2    1    2    0    0  0.00000000000E+00  0.00000000000E+00  0.98313569667E+03  0.18104726359E+04  0.15202813447E+04 0.  0.
        5    1    3    3  502    0  0.17518850721E+03  0.30880313173E+03  0.12919786272E+04  0.13398810582E+04  0.46999998093E+01 0.  1.
       -5    1    3    3    0  502 -0.17518850721E+03 -0.30880313173E+03 -0.30884293048E+03  0.47059157763E+03  0.46999998093E+01 0. -1.
</event>
<event>
 5   0  0.1149716E-03  0.1504044E+04  0.7818609E-02  0.8881768E-01
        2   -1    0    0  501    0  0.00000000000E+00  0.00000000000E+00  0.63182372890E+03  0.63182372890E+03  0.25500000920E-02 0. -1.
       -2   -1    0    0    0  501  0.00000000000E+00  0.00000000000E+00 -0.89508656757E+03  0.89508656757E+03  0.25500000920E-02 0.  1.
    10030    2    1    2    0    0  0.00000000000E+00  0.00000000000E+00 -0.26326283867E+03  0.15269102965E+04  0.15040437930E+04 0.  0.
        1    1    3    3  502    0 -0.61364540511E+03  0.30519354676E+03 -0.44590720484E+03  0.81764113127E+03  0.50400001928E-02 0.  1.
       -1    1    3    3    0  502  0.61364540511E+03 -0.30519354676E+03  0.18264436617E+03  0.70926916520E+03  0.50400001928E-02 0. -1.
</event>
<event>
 5   0  0.1126175E-03  0.1302103E+04  0.7818609E-02  0.9027899E-01
       -2   -1    0    0    0  501  0.00000000000E+00  0.00000000000E+00  0.48855840197E+03  0.48855840198E+03  0.25500000920E-02 0. -1.
        2   -1    0    0  501    0  0.00000000000E+00  0.00000000000E+00 -0.86758933239E+03  0.86758933240E+03  0.25500000920E-02 0.  1.
    10030    2    1    2    0    0  0.00000000000E+00  0.00000000000E+00 -0.37903093042E+03  0.13561477344E+04  0.13021030033E+04 0.  0.
        3    1    3    3  502    0  0.17315216787E+02 -0.73441634075E+02  0.48398897778E+03  0.48983551439E+03  0.10100000352E+00 0. -1.
       -3    1    3    3    0  502 -0.17315216787E+02  0.73441634075E+02 -0.86301990820E+03  0.86631221998E+03  0.10100000352E+00 0.  1.
</event>
<event>
 5   0  0.4070625E-04  0.1499332E+04  0.7818609E-02  0.8884897E-01
        3   -1    0    0  501    0  0.00000000000E+00  0.00000000000E+00  0.12928508820E+04  0.12928508860E+04  0.10100000352E+00 0.  1.
       -3   -1    0    0    0  501  0.00000000000E+00  0.00000000000E+00 -0.43469762028E+03  0.43469763201E+03  0.10100000352E+00 0. -1.
    10030    2    1    2    0    0  0.00000000000E+00  0.00000000000E+00  0.85815326173E+03  0.17275485180E+04  0.14993321384E+04 0.  0.
        1    1    3    3  502    0  0.19009785764E+03  0.98230944161E+02  0.12569172773E+04  0.12750010023E+04  0.50400001928E-02 0.  1.
       -1    1    3    3    0  502 -0.19009785764E+03 -0.98230944161E+02 -0.39876401553E+03  0.45254751571E+03  0.50400001928E-02 0. -1.
</event>
<event>
 5   0  0.5606965E-04  0.1461834E+04  0.7818609E-02  0.8910237E-01
        1   -1    0    0  501    0  0.00000000000E+00  0.00000000000E+00  0.64173423871E+03  0.64173423873E+03  0.50400001928E-02 0.  1.
       -1   -1    0    0    0  501  0.00000000000E+00  0.00000000000E+00 -0.83249321698E+03  0.83249321699E+03  0.50400001928E-02 0. -1.
    10030    2    1    2    0    0  0.00000000000E+00  0.00000000000E+00 -0.19075897826E+03  0.14742274557E+04  0.14618336442E+04 0.  0.
        4    1    3    3  502    0 -0.12511550305E+03 -0.55828130045E+03 -0.55410507866E+03  0.79647093521E+03  0.12699999809E+01 0. -1.
       -4    1    3    3    0  502  0.12511550305E+03  0.55828130045E+03  0.36334610040E+03  0.67775652052E+03  0.12699999809E+01 0.  1.
</event>
<event>
 5   0  0.5914645E-04  0.1362875E+04  0.7818609E-02  0.8981139E-01
        1   -1    0    0  501    0  0.00000000000E+00  0.00000000000E+00  0.70256395118E+03  0.70256395120E+03  0.50400001928E-02 0.  1.
       -1   -1    0    0    0  501  0.00000000000E+00  0.00000000000E+00 -0.66094584901E+03  0.66094584903E+03  0.50400001928E-02 0. -1.
    10030    2    1    2    0    0  0.00000000000E+00  0.00000000000E+00  0.41618102169E+02  0.13635098002E+04  0.13628745022E+04 0.  0.
        2    1    3    3  502    0 -0.57815193953E+03  0.14723667714E+03  0.35023206795E+03  0.69180980457E+03  0.25500000920E-02 0.  1.
       -2    1    3    3    0  502  0.57815193953E+03 -0.14723667714E+03 -0.30861396578E+03  0.67169999565E+03  0.25500000920E-02 0. -1.
</event>
<event>
 5   0  0.1147755E-03  0.1508551E+04  0.7818609E-02  0.8878787E-01
        2   -1    0    0  501    0  0.00000000000E+00  0.00000000000E+00  0.14101529239E+04  0.14101529239E+04  0.25500000920E-02 0.  1.
       -2   -1    0    0    0  501  0.00000000000E+00  0.00000000000E+00 -0.40345373052E+03  0.40345373052E+03  0.25500000920E-02 0. -1.
    10030    2    1    2    0    0  0.00000000000E+00  0.00000000000E+00  0.10066991934E+04  0.18136066544E+04  0.15085509043E+04 0.  0.
        4    1    3    3  502    0 -0.99116584427E+02 -0.74621067037E+03  0.56069655436E+03  0.93863555273E+03  0.12699999809E+01 0. -1.
       -4    1    3    3    0  502  0.99116584427E+02  0.74621067037E+03  0.44600263901E+03  0.87497110168E+03  0.12699999809E+01 0.  1.
</event>
<event>
 5   0  0.1149716E-03  0.1502913E+04  0.7818609E-02  0.8882518E-01
        2   -1    0    0  501    0  0.00000000000E+00  0.00000000000E+00  0.12125608613E+04  0.12125608613E+04  0.25500000920E-02 0. -1.
       -2   -1    0    0    0  501  0.00000000000E+00  0.00000000000E+00 -0.46569805506E+03  0.46569805506E+03  0.25500000920E-02 0.  1.
    10030    2    1    2    0    0  0.00000000000E+00  0.00000000000E+00  0.74686280625E+03  0.16782589164E+04  0.15029134835E+04 0.  0.
        1    1    3    3  502    0 -0.65380040760E+03 -0.29343014330E+03  0.12092803246E+03  0.72675980285E+03  0.50400001928E-02 0.  1.
       -1    1    3    3    0  502  0.65380040760E+03  0.29343014330E+03  0.62593477380E+03  0.95149911353E+03  0.50400001928E-02 0. -1.
</event>
<event>
 5   0  0.5924403E-04  0.1504902E+04  0.7818609E-02  0.8881200E-01
        1   -1    0    0  501    0  0.00000000000E+00  0.00000000000E+00  0.11121665971E+04  0.11121665971E+04  0.50400001928E-02 0.  1.
       -1   -1    0    0    0  501  0.00000000000E+00  0.00000000000E+00 -0.50908044959E+03  0.50908044961E+03  0.50400001928E-02 0. -1.
    10030    2    1    2    0    0  0.00000000000E+00  0.00000000000E+00  0.60308614748E+03  0.16212470467E+04  0.15049016862E+04 0.  0.
        1    1    3    3  502    0  0.27882913543E+03 -0.17322297652E+03 -0.42787709357E+03  0.53928720881E+03  0.50400001928E-02 0. -1.
       -1    1    3    3    0  502 -0.27882913543E+03  0.17322297652E+03  0.10309632411E+04  0.10819598379E+04  0.50400001928E-02 0.  1.
</event>
<event>
 5   0  0.1082667E-03  0.1480595E+04  0.7818609E-02  0.8897461E-01
        2   -1    0    0  501    0  0.00000000000E+00  0.00000000000E+00  0.12086077562E+04  0.12086077563E+04  0.25500000920E-02 0.  1.
       -2   -1    0    0    0  501  0.00000000000E+00  0.00000000000E+00 -0.45344742441E+03  0.45344742442E+03  0.25500000920E-02 0. -1.
    10030    2    1    2    0    0  0.00000000000E+00  0.00000000000E+00  0.75516033184E+03  0.16620551807E+04  0.14805945754E+04 0.  0.
        5    1    3    3  502    0  0.50951227047E+03 -0.53575324840E+03  0.33582326517E+03  0.81205520278E+03  0.46999998093E+01 0. -1.
       -5    1    3    3    0  502 -0.50951227047E+03  0.53575324840E+03  0.41933706667E+03  0.84999997789E+03  0.46999998093E+01 0.  1.
</event>
<event>
 5   0  0.5606965E-04  0.1496504E+04  0.7818609E-02  0.8886781E-01
        1   -1    0    0  501    0  0.00000000000E+00  0.00000000000E+00  0.42706061932E+03  0.42706061935E+03  0.50400001928E-02 0.  1.
       -1   -1    0    0    0  501  0.00000000000E+00  0.00000000000E+00 -0.13110107652E+04  0.13110107652E+04  0.50400001928E-02 0. -1.
    10030    2    1    2    0    0  0.00000000000E+00  0.00000000000E+00 -0.88395014584E+03  0.17380713845E+04  0.14965040185E+04 0.  0.
        4    1    3    3  502    0  0.50988563897E+03 -0.23916027272E+03  0.13019248351E+03  0.57804212350E+03  0.12699999809E+01 0.  1.
       -4    1    3    3    0  502 -0.50988563897E+03  0.23916027272E+03 -0.10141426293E+04  0.11600292610E+04  0.12699999809E+01 0. -1.
</event>
<event>
 5   0  0.5840834E-04  0.1500704E+04  0.7818609E-02  0.8883985E-01
       -1   -1    0    0    0  501  0.00000000000E+00  0.00000000000E+00  0.36391985901E+03  0.36391985904E+03  0.50400001928E-02 0.  1.
        1   -1    0    0  501    0  0.00000000000E+00  0.00000000000E+00 -0.15471214180E+04  0.15471214180E+04  0.50400001928E-02 0. -1.
    10030    2    1    2    0    0  0.00000000000E+00  0.00000000000E+00 -0.11832015590E+04  0.19110412771E+04  0.15007041125E+04 0.  0.
        3    1    3    3  502    0  0.21321412342E+03 -0.69542560025E+03 -0.82624095190E+03  0.11007956889E+04  0.10100000352E+00 0. -1.
       -3    1    3    3    0  502 -0.21321412342E+03  0.69542560025E+03 -0.35696060710E+03  0.81024558816E+03  0.10100000352E+00 0.  1.
</event>
<event>
 5   0  0.5914645E-04  0.1499462E+04  0.7818609E-02  0.8884811E-01
       -1   -1    0    0    0  501  0.00000000000E+00  0.00000000000E+00  0.15874806451E+04  0.15874806451E+04  0.50400001928E-02 0. -1.
        1   -1    0    0  501    0  0.00000000000E+00  0.00000000000E+00 -0.35408088030E+03  0.35408088033E+03  0.50400001928E-02 0.  1.
    10030    2    1    2    0    0  0.00000000000E+00  0.00000000000E+00  0.12333997648E+04  0.19415615255E+04  0.14994619626E+04 0.  0.
        2    1    3    3  502    0  0.24566241684E+03 -0.12287493332E+03  0.15199817593E+04  0.15446011851E+04  0.25500000920E-02 0. -1.
       -2    1    3    3    0  502 -0.24566241684E+03  0.12287493332E+03 -0.28658199447E+03  0.39696034040E+03  0.25500000920E-02 0.  1.
</event>
<event>
 5   0  0.1147755E-03  0.1528830E+04  0.7818609E-02  0.8865504E-01
       -2   -1    0    0    0  501  0.00000000000E+00  0.00000000000E+00  0.70571783085E+03  0.70571783086E+03  0.25500000920E-02 0. -1.
        2   -1    0    0  501    0  0.00000000000E+00  0.00000000000E+00 -0.82799426999E+03  0.82799426999E+03  0.25500000920E-02 0.  1.
    10030    2    1    2    0    0  0.00000000000E+00  0.00000000000E+00 -0.12227643914E+03  0.15337121008E+04  0.15288300366E+04 0.  0.
        4    1    3    3  502    0  0.11275310734E+03  0.44808623171E+03  0.54976795078E+03  0.71815106132E+03  0.12699999809E+01 0. -1.
       -4    1    3    3    0  502 -0.11275310734E+03 -0.44808623171E+03 -0.67204438992E+03  0.81556103953E+03  0.12699999809E+01 0.  1.
</event>
<event>
 5   0  0.5924403E-04  0.1499527E+04  0.7818609E-02  0.8884767E-01
        1   -1    0    0  501    0  0.00000000000E+00  0.00000000000E+00  0.53440584101E+03  0.53440584103E+03  0.50400001928E-02 0.  1.
       -1   -1    0    0    0  501  0.00000000000E+00  0.00000000000E+00 -0.10519071793E+04  0.10519071793E+04  0.50400001928E-02 0. -1.
    10030    2    1    2    0    0  0.00000000000E+00  0.00000000000E+00 -0.51750133827E+03  0.15863130203E+04  0.14995270466E+04 0.  0.
        1    1    3    3  502    0 -0.57953172964E+03  0.42962868961E+03 -0.42706929220E+02  0.72267677313E+03  0.50400001928E-02 0.  1.
       -1    1    3    3    0  502  0.57953172964E+03 -0.42962868961E+03 -0.47479440905E+03  0.86363624720E+03  0.50400001928E-02 0. -1.
</event>
<event>
 5   0  0.5840834E-04  0.1502697E+04  0.7818609E-02  0.8882661E-01
       -1   -1    0    0    0  501  0.00000000000E+00  0.00000000000E+00  0.62292952473E+03  0.62292952475E+03  0.50400001928E-02 0. -1.
        1   -1    0    0  501    0  0.00000000000E+00  0.00000000000E+00 -0.90624199932E+03  0.90624199934E+03  0.50400001928E-02 0.  1.
    10030    2    1    2    0    0  0.00000000000E+00  0.00000000000E+00 -0.28331247459E+03  0.15291715241E+04  0.15026974386E+04 0.  0.
        3    1    3    3  502    0 -0.96023986950E+02 -0.63594027100E+03 -0.53693785212E+03  0.83782032775E+03  0.10100000352E+00 0.  1.
       -3    1    3    3    0  502  0.96023986950E+02  0.63594027100E+03  0.25362537753E+03  0.69135119634E+03  0.10100000352E+00 0. -1.
</event>
<event>
 5   0  0.1097156E-03  0.1481899E+04  0.7818609E-02  0.8896580E-01
        2   -1    0    0  501    0  0.00000000000E+00  0.00000000000E+00  0.14917345931E+04  0.14917345931E+04  0.25500000920E-02 0.  1.
       -2   -1    0    0    0  501  0.00000000000E+00  0.00000000000E+00 -0.36803227793E+03  0.36803227794E+03  0.25500000920E-02 0. -1.
    10030    2    1    2    0    0  0.00000000000E+00  0.00000000000E+00  0.11237023152E+04  0.18597668711E+04  0.14818994303E+04 0.  0.
        2    1    3    3  502    0 -0.10693728549E+03  0.52025185687E+03  0.12102187602E+04  0.13216380084E+04  0.25500000920E-02 0.  1.
       -2    1    3    3    0  502  0.10693728549E+03 -0.52025185687E+03 -0.86516445013E+02  0.53812886270E+03  0.25500000920E-02 0. -1.
</event>
<event>
 5   0  0.1147755E-03  0.1500817E+04  0.7818609E-02  0.8883910E-01
       -2   -1    0    0    0  501  0.00000000000E+00  0.00000000000E+00  0.59358695671E+03  0.59358695671E+03  0.25500000920E-02 0.  1.
        2   -1    0    0  501    0  0.00000000000E+00  0.00000000000E+00 -0.94866153520E+03  0.94866153521E+03  0.25500000920E-02 0. -1.
    10030    2    1    2    0    0  0.00000000000E+00  0.00000000000E+00 -0.35507457849E+03  0.15422484919E+04  0.15008172622E+04 0.  0.
        4    1    3    3  502    0  0.21051135380E+03 -0.10364382824E+03 -0.90999348704E+03  0.93975892258E+03  0.12699999809E+01 0. -1.
       -4    1    3    3    0  502 -0.21051135380E+03  0.10364382824E+03  0.55491890854E+03  0.60248956934E+03  0.12699999809E+01 0.  1.
</event>
<event>
 5   0  0.6146552E-04  0.1676203E+04  0.7818609E-02  0.8775054E-01
       -1   -1    0    0    0  501  0.00000000000E+00  0.00000000000E+00  0.80985480272E+03  0.80985480273E+03  0.50400001928E-02 0. -1.
        1   -1    0    0  501    0  0.00000000000E+00  0.00000000000E+00 -0.86733360299E+03  0.86733360300E+03  0.50400001928E-02 0.  1.
    10030    2    1    2    0    0  0.00000000000E+00  0.00000000000E+00 -0.57478800268E+02  0.16771884057E+04  0.16762031905E+04 0.  0.
        5    1    3    3  502    0  0.44636892439E+03  0.30806296203E+02 -0.73781518781E+03  0.86289488694E+03  0.46999998093E+01 0.  1.
       -5    1    3    3    0  502 -0.44636892439E+03 -0.30806296203E+02  0.68033638754E+03  0.81429351880E+03  0.46999998093E+01 0. -1.
</event>
<event>
 5   0  0.1147755E-03  0.1494917E+04  0.7818609E-02  0.8887840E-01
       -2   -1    0    0    0  501  0.00000000000E+00  0.00000000000E+00  0.86984836019E+03  0.86984836020E+03  0.25500000920E-02 0.  1.
        2   -1    0    0  501    0  0.00000000000E+00  0.00000000000E+00 -0.64228908593E+03  0.64228908593E+03  0.25500000920E-02 0. -1.
    10030    2    1    2    0    0  0.00000000000E+00  0.00000000000E+00  0.22755927426E+03  0.15121374461E+04  0.14949168648E+04 0.  0.
        4    1    3    3  502    0  0.61443199895E+03  0.16027449238E+03 -0.28506941232E+03  0.69604653364E+03  0.12699999809E+01 0. -1.
       -4    1    3    3    0  502 -0.61443199895E+03 -0.16027449238E+03  0.51262868658E+03  0.81609091249E+03  0.12699999809E+01 0.  1.
</event>
<event>
 5   0  0.5914645E-04  0.1393222E+04  0.7818609E-02  0.8958739E-01
        1   -1    0    0  501    0  0.00000000000E+00  0.00000000000E+00  0.12588191795E+04  0.12588191795E+04  0.50400001928E-02 0. -1.
       -1   -1    0    0    0  501  0.00000000000E+00  0.00000000000E+00 -0.38549390501E+03  0.38549390504E+03  0.50400001928E-02 0.  1.
    10030    2    1    2    0    0  0.00000000000E+00  0.00000000000E+00  0.87332527452E+03  0.16443130846E+04  0.13932223387E+04 0.  0.
        2    1    3    3  502    0  0.53201588110E+03  0.12271186427E+03  0.94726157701E+03  0.10933451398E+04  0.25500000920E-02 0. -1.
       -2    1    3    3    0  502 -0.53201588110E+03 -0.12271186427E+03 -0.73936302491E+02  0.55096794481E+03  0.25500000920E-02 0.  1.
</event>
<event>
 5   0  0.1082667E-03  0.1501367E+04  0.7818609E-02  0.8883544E-01
        2   -1    0    0  501    0  0.00000000000E+00  0.00000000000E+00  0.56595565042E+03  0.56595565042E+03  0.25500000920E-02 0. -1.
       -2   -1    0    0    0  501  0.00000000000E+00  0.00000000000E+00 -0.99570634690E+03  0.99570634690E+03  0.25500000920E-02 0.  1.
    10030    2    1    2    0    0  0.00000000000E+00  0.00000000000E+00 -0.42975069648E+03  0.15616619973E+04  0.15013668881E+04 0.  0.
        5    1    3    3  502    0  0.69981836229E+03 -0.78769023084E+02  0.55472746399E+02  0.70643443771E+03  0.46999998093E+01 0. -1.
       -5    1    3    3    0  502 -0.69981836229E+03  0.78769023084E+02 -0.48522344288E+03  0.85522755961E+03  0.46999998093E+01 0.  1.
</event>
<event>
 5   0  0.5606965E-04  0.1499847E+04  0.7818609E-02  0.8884555E-01
       -1   -1    0    0    0  501  0.00000000000E+00  0.00000000000E+00  0.65638265518E+03  0.65638265520E+03  0.50400001928E-02 0.  1.
        1   -1    0    0  501    0  0.00000000000E+00  0.00000000000E+00 -0.85679427201E+03  0.85679427202E+03  0.50400001928E-02 0. -1.
    10030    2    1    2    0    0  0.00000000000E+00  0.00000000000E+00 -0.20041161682E+03  0.15131769272E+04  0.14998465245E+04 0.  0.
        4    1    3    3  502    0 -0.92441296842E+02 -0.55293946931E+03  0.40231335413E+03  0.69003267887E+03  0.12699999809E+01 0.  1.
       -4    1    3    3    0  502  0.92441296842E+02  0.55293946931E+03 -0.60272497096E+03  0.82314424836E+03  0.12699999809E+01 0. -1.
</event>
<event>
 5   0  0.1126175E-03  0.1503799E+04  0.7818609E-02  0.8881930E-01
        2   -1    0    0  501    0  0.00000000000E+00  0.00000000000E+00  0.10012419546E+04  0.10012419546E+04  0.25500000920E-02 0. -1.
       -2   -1    0    0    0  501  0.00000000000E+00  0.00000000000E+00 -0.56465168473E+03  0.56465168473E+03  0.25500000920E-02 0.  1.
    10030    2    1    2    0    0  0.00000000000E+00  0.00000000000E+00  0.43659026992E+03  0.15658936394E+04  0.15037991309E+04 0.  0.
        3    1    3    3  502    0 -0.51012466265E+03 -0.41528733418E+03  0.59756299059E+03  0.88869132960E+03  0.10100000352E+00 0. -1.
       -3    1    3    3    0  502  0.51012466265E+03  0.41528733418E+03 -0.16097272067E+03  0.67720230978E+03  0.10100000352E+00 0.  1.
</event>
<event>
 5   0  0.5914645E-04  0.1504128E+04  0.7818609E-02  0.8881712E-01
        1   -1    0    0  501    0  0.00000000000E+00  0.00000000000E+00  0.96023881565E+03  0.96023881566E+03  0.50400001928E-02 0.  1.
       -1   -1    0    0    0  501  0.00000000000E+00  0.00000000000E+00 -0.58902063109E+03  0.58902063111E+03  0.50400001928E-02 0. -1.
    10030    2    1    2    0    0  0.00000000000E+00  0.00000000000E+00  0.37121818456E+03  0.15492594468E+04  0.15041282834E+04 0.  0.
        2    1    3    3  502    0  0.44165851528E+03  0.22785198363E+03  0.76701166912E+03  0.91393964305E+03  0.25500000920E-02 0.  1.
       -2    1    3    3    0  502 -0.44165851528E+03 -0.22785198363E+03 -0.39579348456E+03  0.63531980371E+03  0.25500000920E-02 0. -1.
</event>
<event>
 5   0  0.1097156E-03  0.1505496E+04  0.7818609E-02  0.8880807E-01
        2   -1    0    0  501    0  0.00000000000E+00  0.00000000000E+00  0.13100174596E+04  0.13100174596E+04  0.25500000920E-02 0. -1.
       -2   -1    0    0    0  501  0.00000000000E+00  0.00000000000E+00 -0.43253569321E+03  0.43253569322E+03  0.25500000920E-02 0.  1.
    10030    2    1    2    0    0  0.00000000000E+00  0.00000000000E+00  0.87748176640E+03  0.17425531528E+04  0.15054956792E+04 0.  0.
        2    1    3    3  502    0 -0.68886906275E+03 -0.26645047373E+03  0.27063831324E+03  0.78662668221E+03  0.25500000920E-02 0.  1.
       -2    1    3    3    0  502  0.68886906275E+03  0.26645047373E+03  0.60684345315E+03  0.95592647061E+03  0.25500000920E-02 0. -1.
</event>
<event>
 5   0  0.4070625E-04  0.1521923E+04  0.7818609E-02  0.8870004E-01
        3   -1    0    0  501    0  0.00000000000E+00  0.00000000000E+00  0.29536120220E+04  0.29536120238E+04  0.10100000352E+00 0.  1.
       -3   -1    0    0    0  501  0.00000000000E+00  0.00000000000E+00 -0.19605226185E+03  0.19605228787E+03  0.10100000352E+00 0. -1.
    10030    2    1    2    0    0  0.00000000000E+00  0.00000000000E+00  0.27575597602E+04  0.31496643116E+04  0.15219229432E+04 0.  0.
        3    1    3    3  502    0 -0.39957129393E+03 -0.20719113371E+03  0.26485959254E+04  0.26865676562E+04  0.10100000352E+00 0.  1.
       -3    1    3    3    0  502  0.39957129393E+03  0.20719113371E+03  0.10896383477E+03  0.46309665547E+03  0.10100000352E+00 0. -1.
</event>
<event>
 5   0  0.1147755E-03  0.1504720E+04  0.7818609E-02  0.8881320E-01
       -2   -1    0    0    0  501  0.00000000000E+00  0.00000000000E+00  0.49897190851E+03  0.49897190852E+03  0.25500000920E-02 0.  1.
        2   -1    0    0  501    0  0.00000000000E+00  0.00000000000E+00 -0.11344231290E+04  0.11344231290E+04  0.25500000920E-02 0. -1.
    10030    2    1    2    0    0  0.00000000000E+00  0.00000000000E+00 -0.63545122050E+03  0.16333950375E+04  0.15047196068E+04 0.  0.
        4    1    3    3  502    0  0.18827085937E+01  0.29189384286E+03  0.43499721987E+03  0.52386043397E+03  0.12699999809E+01 0.  1.
       -4    1    3    3    0  502 -0.18827085937E+01 -0.29189384286E+03 -0.10704484404E+04  0.11095346036E+04  0.12699999809E+01 0. -1.
</event>
<event>
 5   0  0.1082667E-03  0.1498944E+04  0.7818609E-02  0.8885155E-01
       -2   -1    0    0    0  501  0.00000000000E+00  0.00000000000E+00  0.22584777498E+03  0.22584777499E+03  0.25500000920E-02 0.  1.
        2   -1    0    0  501    0  0.00000000000E+00  0.00000000000E+00 -0.24871101830E+04  0.24871101830E+04  0.25500000920E-02 0. -1.
    10030    2    1    2    0    0  0.00000000000E+00  0.00000000000E+00 -0.22612624080E+04  0.27129579580E+04  0.14989440296E+04 0.  0.
        5    1    3    3  502    0  0.30057663091E+03 -0.68638679365E+03 -0.11570503162E+04  0.13784994254E+04  0.46999998093E+01 0. -1.
       -5    1    3    3    0  502 -0.30057663091E+03  0.68638679365E+03 -0.11042120919E+04  0.13344585326E+04  0.46999998093E+01 0.  1.
</event>
<event>
 5   0  0.5924403E-04  0.1420976E+04  0.7818609E-02  0.8938773E-01
        1   -1    0    0  501    0  0.00000000000E+00  0.00000000000E+00  0.21502601707E+04  0.21502601707E+04  0.50400001928E-02 0. -1.
       -1   -1    0    0    0  501  0.00000000000E+00  0.00000000000E+00 -0.23475917959E+03  0.23475917964E+03  0.50400001928E-02 0.  1.
    10030    2    1    2    0    0  0.00000000000E+00  0.00000000000E+00  0.19155009911E+04  0.23850193503E+04  0.14209761626E+04 0.  0.
        1    1    3    3  502    0  0.44449247785E+03 -0.75085367397E+01  0.18879793961E+04  0.19396123688E+04  0.50400001928E-02 0. -1.
       -1    1    3    3    0  502 -0.44449247785E+03  0.75085367397E+01  0.27521594979E+02  0.44540698154E+03  0.50400001928E-02 0.  1.
</event>
<event>
 5   0  0.5914645E-04  0.1462505E+04  0.7818609E-02  0.8909777E-01
        1   -1    0    0  501    0  0.00000000000E+00  0.00000000000E+00  0.87497923543E+03  0.87497923545E+03  0.50400001928E-02 0.  1.
       -1   -1    0    0    0  501  0.00000000000E+00  0.00000000000E+00 -0.61113490445E+03  0.61113490447E+03  0.50400001928E-02 0. -1.
    10030    2    1    2    0    0  0.00000000000E+00  0.00000000000E+00  0.26384433098E+03  0.14861141399E+04  0.14625051815E+04 0.  0.
        2    1    3    3  502    0  0.24784099342E+03 -0.23727449911E+03  0.78810657514E+03  0.85955588517E+03  0.25500000920E-02 0.  1.
       -2    1    3    3    0  502 -0.24784099342E+03  0.23727449911E+03 -0.52426224415E+03  0.62655825475E+03  0.25500000920E-02 0. -1.
</event>
<event>
 5   0  0.1082667E-03  0.1503793E+04  0.7818609E-02  0.8881935E-01
        2   -1    0    0  501    0  0.00000000000E+00  0.00000000000E+00  0.64863666970E+03  0.64863666970E+03  0.25500000920E-02 0. -1.
       -2   -1    0    0    0  501  0.00000000000E+00  0.00000000000E+00 -0.87159427601E+03  0.87159427601E+03  0.25500000920E-02 0.  1.
    10030    2    1    2    0    0  0.00000000000E+00  0.00000000000E+00 -0.22295760631E+03  0.15202309457E+04  0.15037925502E+04 0.  0.
        5    1    3    3  502    0 -0.48224791734E+03  0.48557785211E+02  0.46961326750E+03  0.67489230496E+03  0.46999998093E+01 0. -1.
       -5    1    3    3    0  502  0.48224791734E+03 -0.48557785211E+02 -0.69257087382E+03  0.84533864075E+03  0.46999998093E+01 0.  1.
</event>
<event>
 5   0  0.5840834E-04  0.1509947E+04  0.7818609E-02  0.8877865E-01
       -1   -1    0    0    0  501  0.00000000000E+00  0.00000000000E+00  0.69969164815E+03  0.69969164817E+03  0.50400001928E-02 0. -1.
        1   -1    0    0  501    0  0.00000000000E+00  0.00000000000E+00 -0.81462299021E+03  0.81462299023E+03  0.50400001928E-02 0.  1.
    10030    2    1    2    0    0  0.00000000000E+00  0.00000000000E+00 -0.11493134206E+03  0.15143146384E+04  0.15099468900E+04 0.  0.
        3    1    3    3  502    0  0.68845483040E+03 -0.30985612040E+03 -0.55453972558E+02  0.75700463811E+03  0.10100000352E+00 0.  1.
       -3    1    3    3    0  502 -0.68845483040E+03  0.30985612040E+03 -0.59477369503E+02  0.75731000029E+03  0.10100000352E+00 0. -1.
</event>
<event>
 5   0  0.1149716E-03  0.1508259E+04  0.7818609E-02  0.8878979E-01
        2   -1    0    0  501    0  0.00000000000E+00  0.00000000000E+00  0.96397212759E+03  0.96397212759E+03  0.25500000920E-02 0. -1.
       -2   -1    0    0    0  501  0.00000000000E+00  0.00000000000E+00 -0.58996689820E+03  0.58996689820E+03  0.25500000920E-02 0.  1.
    10030    2    1    2    0    0  0.00000000000E+00  0.00000000000E+00  0.37400522939E+03  0.15539390258E+04  0.15082594552E+04 0.  0.
        1    1    3    3  502    0  0.37433902453E+02 -0.19928047229E+03 -0.56135527260E+03  0.59685320289E+03  0.50400001928E-02 0.  1.
       -1    1    3    3    0  502 -0.37433902453E+02  0.19928047229E+03  0.93536050200E+03  0.95708582291E+03  0.50400001928E-02 0. -1.
</event>
<event>
 5   0  0.5924403E-04  0.1261188E+04  0.7818609E-02  0.9060922E-01
        1   -1    0    0  501    0  0.00000000000E+00  0.00000000000E+00  0.47901881459E+03  0.47901881461E+03  0.50400001928E-02 0. -1.
       -1   -1    0    0    0  501  0.00000000000E+00  0.00000000000E+00 -0.83013220171E+03  0.83013220172E+03  0.50400001928E-02 0.  1.
    10030    2    1    2    0    0  0.00000000000E+00  0.00000000000E+00 -0.35111338712E+03  0.13091510163E+04  0.12611882385E+04 0.  0.
        1    1    3    3  502    0 -0.46064664529E+02  0.44846166269E+03  0.28212986721E+03  0.53182429262E+03  0.50400001928E-02 0. -1.
       -1    1    3    3    0  502  0.46064664529E+02 -0.44846166269E+03 -0.63324325433E+03  0.77732672371E+03  0.50400001928E-02 0.  1.
</event>
<event>
 5   0  0.1149716E-03  0.1446721E+04  0.7818609E-02  0.8920677E-01
       -2   -1    0    0    0  501  0.00000000000E+00  0.00000000000E+00  0.50317252874E+03  0.50317252874E+03  0.25500000920E-02 0.  1.
        2   -1    0    0  501    0  0.00000000000E+00  0.00000000000E+00 -0.10399020182E+04  0.10399020182E+04  0.25500000920E-02 0. -1.
    10030    2    1    2    0    0  0.00000000000E+00  0.00000000000E+00 -0.53672948947E+03  0.15430745470E+04  0.14467206063E+04 0.  0.
        1    1    3    3  502    0 -0.36774055756E+03  0.49550882050E+03  0.13425161230E+03  0.63149473815E+03  0.50400001928E-02 0. -1.
       -1    1    3    3    0  502  0.36774055756E+03 -0.49550882050E+03 -0.67098110176E+03  0.91157980881E+03  0.50400001928E-02 0.  1.
</event>
<event>
 5   0  0.1126175E-03  0.1502337E+04  0.7818609E-02  0.8882900E-01
       -2   -1    0    0    0  501  0.00000000000E+00  0.00000000000E+00  0.35506223343E+03  0.35506223344E+03  0.25500000920E-02 0.  1.
        2   -1    0    0  501    0  0.00000000000E+00  0.00000000000E+00 -0.15891704818E+04  0.15891704818E+04  0.25500000920E-02 0. -1.
    10030    2    1    2    0    0  0.00000000000E+00  0.00000000000E+00 -0.12341082483E+04  0.19442327152E+04  0.15023374063E+04 0.  0.
        3    1    3    3  502    0  0.60044193458E+02 -0.17495472937E+02 -0.15857952711E+04  0.15870280555E+04  0.10100000352E+00 0. -1.
       -3    1    3    3    0  502 -0.60044193458E+02  0.17495472937E+02  0.35168702278E+03  0.35720465973E+03  0.10100000352E+00 0.  1.
</event>
<event>
 5   0  0.1082667E-03  0.1526193E+04  0.7818609E-02  0.8867220E-01
       -2   -1    0    0    0  501  0.00000000000E+00  0.00000000000E+00  0.31268933357E+03  0.31268933358E+03  0.25500000920E-02 0. -1.
        2   -1    0    0  501    0  0.00000000000E+00  0.00000000000E+00 -0.18622828730E+04  0.18622828730E+04  0.25500000920E-02 0.  1.
    10030    2    1    2    0    0  0.00000000000E+00  0.00000000000E+00 -0.15495935394E+04  0.21749722065E+04  0.15261926359E+04 0.  0.
        5    1    3    3  502    0  0.34059823318E+03  0.17759304130E+03 -0.17144397689E+04  0.17569497022E+04  0.46999998093E+01 0.  1.
       -5    1    3    3    0  502 -0.34059823318E+03 -0.17759304130E+03  0.16484622952E+03  0.41802250435E+03  0.46999998093E+01 0. -1.
</event>
<event>
 5   0  0.1126175E-03  0.1534113E+04  0.7818609E-02  0.8862080E-01
        2   -1    0    0  501    0  0.00000000000E+00  0.00000000000E+00  0.15291590430E+04  0.15291590430E+04  0.25500000920E-02 0. -1.
       -2   -1    0    0    0  501  0.00000000000E+00  0.00000000000E+00 -0.38477075961E+03  0.38477075962E+03  0.25500000920E-02 0.  1.
    10030    2    1    2    0    0  0.00000000000E+00  0.00000000000E+00  0.11443882834E+04  0.19139298026E+04  0.15341130161E+04 0.  0.
        3    1    3    3  502    0 -0.14983300859E+03  0.73349696170E+03  0.78061090269E+03  0.10815826898E+04  0.10100000352E+00 0. -1.
       -3    1    3    3    0  502  0.14983300859E+03 -0.73349696170E+03  0.36377738069E+03  0.83234711281E+03  0.10100000352E+00 0.  1.
</event>
<event>
 5   0  0.5606965E-04  0.1488422E+04  0.7818609E-02  0.8892189E-01
        1   -1    0    0  501    0  0.00000000000E+00  0.00000000000E+00  0.79190886767E+03  0.79190886769E+03  0.50400001928E-02 0. -1.
       -1   -1    0    0    0  501  0.00000000000E+00  0.00000000000E+00 -0.69938582342E+03  0.69938582344E+03  0.50400001928E-02 0.  1.
    10030    2    1    2    0    0  0.00000000000E+00  0.00000000000E+00  0.92523044257E+02  0.14912946911E+04  0.14884217622E+04 0.  0.
        4    1    3    3  502    0  0.13911476315E+03 -0.40764988417E+03 -0.56180104757E+03  0.70792187093E+03  0.12699999809E+01 0.  1.
       -4    1    3    3    0  502 -0.13911476315E+03  0.40764988417E+03  0.65432409183E+03  0.78337282020E+03  0.12699999809E+01 0. -1.
</event>
<event>
 5   0  0.5840834E-04  0.1415400E+04  0.7818609E-02  0.8942746E-01
       -1   -1    0    0    0  501  0.00000000000E+00  0.00000000000E+00  0.81564203619E+03  0.81564203620E+03  0.50400001928E-02 0.  1.
        1   -1    0    0  501    0  0.00000000000E+00  0.00000000000E+00 -0.61404289840E+03  0.61404289842E+03  0.50400001928E-02 0. -1.
    10030    2    1    2    0    0  0.00000000000E+00  0.00000000000E+00  0.20159913779E+03  0.14296849346E+04  0.14153998728E+04 0.  0.
        3    1    3    3  502    0 -0.21130367300E+03  0.12731232658E+03  0.77080512778E+03  0.80931960679E+03  0.10100000352E+00 0.  1.
       -3    1    3    3    0  502  0.21130367300E+03 -0.12731232658E+03 -0.56920598999E+03  0.62036532783E+03  0.10100000352E+00 0. -1.
</event>
<event>
 5   0  0.4070625E-04  0.1532855E+04  0.7818609E-02  0.8862894E-01
        3   -1    0    0  501    0  0.00000000000E+00  0.00000000000E+00  0.68491203641E+03  0.68491204386E+03  0.10100000352E+00 0. -1.
       -3   -1    0    0    0  501  0.00000000000E+00  0.00000000000E+00 -0.85764455258E+03  0.85764455853E+03  0.10100000352E+00 0.  1.
    10030    2    1    2    0    0  0.00000000000E+00  0.00000000000E+00 -0.17273251617E+03  0.15425566024E+04  0.15328549669E+04 0.  0.
        5    1    3    3  502    0 -0.63570369696E+03 -0.40715968860E+03  0.46723556020E+02  0.75637516024E+03  0.46999998093E+01 0. -1.
       -5    1    3    3    0  502  0.63570369696E+03  0.40715968860E+03 -0.21945607220E+03  0.78618144214E+03  0.46999998093E+01 0.  1.
</event>
<event>
 5   0  0.5914645E-04  0.1459206E+04  0.7818609E-02  0.8912043E-01
        1   -1    0    0  501    0  0.00000000000E+00  0.00000000000E+00  0.18800675636E+04  0.18800675636E+04  0.50400001928E-02 0. -1.
       -1   -1    0    0    0  501  0.00000000000E+00  0.00000000000E+00 -0.28313915216E+03  0.28313915220E+03  0.50400001928E-02 0.  1.
    10030    2    1    2    0    0  0.00000000000E+00  0.00000000000E+00  0.15969284115E+04  0.21632067158E+04  0.14592062719E+04 0.  0.
        2    1    3    3  502    0  0.33050963113E+03 -0.64008502270E+03  0.96991236713E+03  0.12081702912E+04  0.25500000920E-02 0. -1.
       -2    1    3    3    0  502 -0.33050963113E+03  0.64008502270E+03  0.62701604433E+03  0.95503642465E+03  0.25500000920E-02 0.  1.
</event>
<event>
 5   0  0.5924403E-04  0.1500979E+04  0.7818609E-02  0.8883802E-01
       -1   -1    0    0    0  501  0.00000000000E+00  0.00000000000E+00  0.29517125519E+03  0.29517125524E+03  0.50400001928E-02 0. -1.
        1   -1    0    0  501    0  0.00000000000E+00  0.00000000000E+00 -0.19081615654E+04  0.19081615654E+04  0.50400001928E-02 0.  1.
    10030    2    1    2    0    0  0.00000000000E+00  0.00000000000E+00 -0.16129903102E+04  0.22033328206E+04  0.15009789398E+04 0.  0.
        1    1    3    3  502    0  0.68623573224E+03 -0.72538259061E+02 -0.12396047332E+04  0.14187322418E+04  0.50400001928E-02 0.  1.
       -1    1    3    3    0  502 -0.68623573224E+03  0.72538259061E+02 -0.37338557701E+03  0.78460057888E+03  0.50400001928E-02 0. -1.
</event>
<event>
 5   0  0.1149716E-03  0.1475096E+04  0.7818609E-02  0.8901185E-01
        2   -1    0    0  501    0  0.00000000000E+00  0.00000000000E+00  0.80597561719E+03  0.80597561719E+03  0.25500000920E-02 0. -1.
       -2   -1    0    0    0  501  0.00000000000E+00  0.00000000000E+00 -0.67492955324E+03  0.67492955325E+03  0.25500000920E-02 0.  1.
    10030    2    1    2    0    0  0.00000000000E+00  0.00000000000E+00  0.13104606394E+03  0.14809051704E+04  0.14750956081E+04 0.  0.
        1    1    3    3  502    0 -0.13790428388E+03  0.21850515674E+03  0.75905098708E+03  0.80182323242E+03  0.50400001928E-02 0. -1.
       -1    1    3    3    0  502  0.13790428388E+03 -0.21850515674E+03 -0.62800492313E+03  0.67908193802E+03  0.50400001928E-02 0.  1.
</event>
<event>
 5   0  0.5840834E-04  0.1437681E+04  0.7818609E-02  0.8926986E-01
       -1   -1    0    0    0  501  0.00000000000E+00  0.00000000000E+00  0.82547620547E+03  0.82547620549E+03  0.50400001928E-02 0. -1.
        1   -1    0    0  501    0  0.00000000000E+00  0.00000000000E+00 -0.62597997494E+03  0.62597997496E+03  0.50400001928E-02 0.  1.
    10030    2    1    2    0    0  0.00000000000E+00  0.00000000000E+00  0.19949623053E+03  0.14514561804E+04  0.14376808748E+04 0.  0.
        3    1    3    3  502    0 -0.64828778885E+03  0.29868065595E+03  0.13818705257E+02  0.71391747298E+03  0.10100000352E+00 0. -1.
       -3    1    3    3    0  502  0.64828778885E+03 -0.29868065595E+03  0.18567752527E+03  0.73753870746E+03  0.10100000352E+00 0.  1.
</event>
<event>
 5   0  0.1097156E-03  0.1498365E+04  0.7818609E-02  0.8885541E-01
       -2   -1    0    0    0  501  0.00000000000E+00  0.00000000000E+00  0.27721176255E+03  0.27721176256E+03  0.25500000920E-02 0. -1.
        2   -1    0    0  501    0  0.00000000000E+00  0.00000000000E+00 -0.20247145104E+04  0.20247145104E+04  0.25500000920E-02 0.  1.
    10030    2    1    2    0    0  0.00000000000E+00  0.00000000000E+00 -0.17475027478E+04  0.23019262730E+04  0.14983653468E+04 0.  0.
        2    1    3    3  502    0 -0.35419400732E+03  0.47246764733E+03 -0.16539659061E+03  0.61321701280E+03  0.25500000920E-02 0. -1.
       -2    1    3    3    0  502  0.35419400732E+03 -0.47246764733E+03 -0.15821061572E+04  0.16887092602E+04  0.25500000920E-02 0.  1.
</event>
<event>
 5   0  0.6146552E-04  0.1508593E+04  0.7818609E-02  0.8878759E-01
       -1   -1    0    0    0  501  0.00000000000E+00  0.00000000000E+00  0.21597431604E+03  0.21597431609E+03  0.50400001928E-02 0. -1.
        1   -1    0    0  501    0  0.00000000000E+00  0.00000000000E+00 -0.26344007746E+04  0.26344007746E+04  0.50400001928E-02 0.  1.
    10030    2    1    2    0    0  0.00000000000E+00  0.00000000000E+00 -0.24184264586E+04  0.28503750907E+04  0.15085925965E+04 0.  0.
        5    1    3    3  502    0 -0.74498329646E+03  0.25218913273E+02 -0.99127533638E+03  0.12402761741E+04  0.46999998093E+01 0. -1.
       -5    1    3    3    0  502  0.74498329646E+03 -0.25218913273E+02 -0.14271511222E+04  0.16100989166E+04  0.46999998093E+01 0.  1.
</event>
<event>
 5   0  0.1147755E-03  0.1502978E+04  0.7818609E-02  0.8882475E-01
        2   -1    0    0  501    0  0.00000000000E+00  0.00000000000E+00  0.18500149296E+04  0.18500149296E+04  0.25500000920E-02 0.  1.
       -2   -1    0    0    0  501  0.00000000000E+00  0.00000000000E+00 -0.30526025423E+03  0.30526025424E+03  0.25500000920E-02 0. -1.
    10030    2    1    2    0    0  0.00000000000E+00  0.00000000000E+00  0.15447546753E+04  0.21552751838E+04  0.15029784133E+04 0.  0.
        4    1    3    3  502    0  0.15364533218E+03  0.54045344173E+03  0.56757369876E+02  0.56472986703E+03  0.12699999809E+01 0. -1.
       -4    1    3    3    0  502 -0.15364533218E+03 -0.54045344173E+03  0.14879973055E+04  0.15905453168E+04  0.12699999809E+01 0.  1.
</event>
<event>
 5   0  0.1149716E-03  0.1494583E+04  0.7818609E-02  0.8888063E-01
       -2   -1    0    0    0  501  0.00000000000E+00  0.00000000000E+00  0.11016256919E+04  0.11016256919E+04  0.25500000920E-02 0.  1.
        2   -1    0    0  501    0  0.00000000000E+00  0.00000000000E+00 -0.50692797691E+03  0.50692797692E+03  0.25500000920E-02 0. -1.
    10030    2    1    2    0    0  0.00000000000E+00  0.00000000000E+00  0.59469771496E+03  0.16085536688E+04  0.14945833979E+04 0.  0.
        1    1    3    3  502    0 -0.45229308428E+03  0.35134871794E+03 -0.21928735463E+03  0.61327147302E+03  0.50400001928E-02 0. -1.
       -1    1    3    3    0  502  0.45229308428E+03 -0.35134871794E+03  0.81398506959E+03  0.99528219578E+03  0.50400001928E-02 0.  1.
</event>
<event>
 5   0  0.1126175E-03  0.1519369E+04  0.7818609E-02  0.8871674E-01
       -2   -1    0    0    0  501  0.00000000000E+00  0.00000000000E+00  0.25826436484E+03  0.25826436486E+03  0.25500000920E-02 0.  1.
        2   -1    0    0  501    0  0.00000000000E+00  0.00000000000E+00 -0.22346105818E+04  0.22346105818E+04  0.25500000920E-02 0. -1.
    10030    2    1    2    0    0  0.00000000000E+00  0.00000000000E+00 -0.19763462170E+04  0.24928749467E+04  0.15193686618E+04 0.  0.
        3    1    3    3  502    0 -0.10110178123E+03 -0.69254444216E+03 -0.50344642114E+03  0.86214713576E+03  0.10100000352E+00 0.  1.
       -3    1    3    3    0  502  0.10110178123E+03  0.69254444216E+03 -0.14728997958E+04  0.16307278109E+04  0.10100000352E+00 0. -1.
</event>
<event>
 5   0  0.5606965E-04  0.1357411E+04  0.7818609E-02  0.8985237E-01
       -1   -1    0    0    0  501  0.00000000000E+00  0.00000000000E+00  0.14157682256E+04  0.14157682257E+04  0.50400001928E-02 0. -1.
        1   -1    0    0  501    0  0.00000000000E+00  0.00000000000E+00 -0.32536497267E+03  0.32536497270E+03  0.50400001928E-02 0.  1.
    10030    2    1    2    0    0  0.00000000000E+00  0.00000000000E+00  0.10904032530E+04  0.17411331984E+04  0.13574113453E+04 0.  0.
        4    1    3    3  502    0  0.30059313690E+02 -0.61060608167E+03  0.16708873588E+03  0.63376936488E+03  0.12699999809E+01 0.  1.
       -4    1    3    3    0  502 -0.30059313690E+02  0.61060608167E+03  0.92331451710E+03  0.11073638335E+04  0.12699999809E+01 0. -1.
</event>
<event>
 5   0  0.1147755E-03  0.1498049E+04  0.7818609E-02  0.8885751E-01
       -2   -1    0    0    0  501  0.00000000000E+00  0.00000000000E+00  0.26528085467E+03  0.26528085469E+03  0.25500000920E-02 0. -1.
        2   -1    0    0  501    0  0.00000000000E+00  0.00000000000E+00 -0.21148826715E+04  0.21148826715E+04  0.25500000920E-02 0.  1.
    10030    2    1    2    0    0  0.00000000000E+00  0.00000000000E+00 -0.18496018168E+04  0.23801635261E+04  0.14980492417E+04 0.  0.
        4    1    3    3  502    0  0.63171263946E+03 -0.39472092502E+03 -0.10496115227E+04  0.12870708718E+04  0.12699999809E+01 0.  1.
       -4    1    3    3    0  502 -0.63171263946E+03  0.39472092502E+03 -0.79999029409E+03  0.10930926544E+04  0.12699999809E+01 0. -1.
</event>
<event>
 5   0  0.1147755E-03  0.1503362E+04  0.7818609E-02  0.8882220E-01
        2   -1    0    0  501    0  0.00000000000E+00  0.00000000000E+00  0.10680865811E+04  0.10680865811E+04  0.25500000920E-02 0.  1.
       -2   -1    0    0    0  501  0.00000000000E+00  0.00000000000E+00 -0.52900606219E+03  0.52900606220E+03  0.25500000920E-02 0. -1.
    10030    2    1    2    0    0  0.00000000000E+00  0.00000000000E+00  0.53908051889E+03  0.15970926433E+04  0.15033619343E+04 0.  0.
        4    1    3    3  502    0  0.57000808889E+03  0.44185790617E+03  0.44495476637E+02  0.72258500606E+03  0.12699999809E+01 0. -1.
       -4    1    3    3    0  502 -0.57000808889E+03 -0.44185790617E+03  0.49458504225E+03  0.87450763722E+03  0.12699999809E+01 0.  1.
</event>
<event>
 5   0  0.5914645E-04  0.1449869E+04  0.7818609E-02  0.8918491E-01
       -1   -1    0    0    0  501  0.00000000000E+00  0.00000000000E+00  0.27670123637E+03  0.27670123641E+03  0.50400001928E-02 0.  1.
        1   -1    0    0  501    0  0.00000000000E+00  0.00000000000E+00 -0.18992682162E+04  0.18992682162E+04  0.50400001928E-02 0. -1.
    10030    2    1    2    0    0  0.00000000000E+00  0.00000000000E+00 -0.16225669799E+04  0.21759694526E+04  0.14498687715E+04 0.  0.
        2    1    3    3  502    0 -0.28244491517E+03  0.11166433130E+03 -0.17991797286E+04  0.18246346892E+04  0.25500000920E-02 0. -1.
       -2    1    3    3    0  502  0.28244491517E+03 -0.11166433130E+03  0.17661274877E+03  0.35133476347E+03  0.25500000920E-02 0.  1.
</event>
<event>
 5   0  0.1149716E-03  0.1508847E+04  0.7818609E-02  0.8878591E-01
        2   -1    0    0  501    0  0.00000000000E+00  0.00000000000E+00  0.16577067724E+04  0.16577067724E+04  0.25500000920E-02 0. -1.
       -2   -1    0    0    0  501  0.00000000000E+00  0.00000000000E+00 -0.34333861679E+03  0.34333861680E+03  0.25500000920E-02 0.  1.
    10030    2    1    2    0    0  0.00000000000E+00  0.00000000000E+00  0.13143681556E+04  0.20010453892E+04  0.15088469111E+04 0.  0.
        1    1    3    3  502    0  0.71217862051E+03  0.10763045175E+02  0.32738584313E+03  0.78389777456E+03  0.50400001928E-02 0.  1.
       -1    1    3    3    0  502 -0.71217862051E+03 -0.10763045175E+02  0.98698231248E+03  0.12171476146E+04  0.50400001928E-02 0. -1.
</event>
<event>
 5   0  0.6146552E-04  0.1483405E+04  0.7818609E-02  0.8895564E-01
        1   -1    0    0  501    0  0.00000000000E+00  0.00000000000E+00  0.17597481902E+04  0.17597481902E+04  0.50400001928E-02 0. -1.
       -1   -1    0    0    0  501  0.00000000000E+00  0.00000000000E+00 -0.31261444533E+03  0.31261444537E+03  0.50400001928E-02 0.  1.
    10030    2    1    2    0    0  0.00000000000E+00  0.00000000000E+00  0.14471337449E+04  0.20723626356E+04  0.14834051429E+04 0.  0.
        5    1    3    3  502    0 -0.10762591227E+03 -0.31639031390E+03 -0.20144733123E+03  0.39024259759E+03  0.46999998093E+01 0.  1.
       -5    1    3    3    0  502  0.10762591227E+03  0.31639031390E+03  0.16485810761E+04  0.16821200380E+04  0.46999998093E+01 0. -1.
</event>
<event>
 5   0  0.6146552E-04  0.1505609E+04  0.7818609E-02  0.8880732E-01
       -1   -1    0    0    0  501  0.00000000000E+00  0.00000000000E+00  0.11801107239E+04  0.11801107239E+04  0.50400001928E-02 0.  1.
        1   -1    0    0  501    0  0.00000000000E+00  0.00000000000E+00 -0.48022149082E+03  0.48022149084E+03  0.50400001928E-02 0. -1.
    10030    2    1    2    0    0  0.00000000000E+00  0.00000000000E+00  0.69988923305E+03  0.16603322147E+04  0.15056088884E+04 0.  0.
        5    1    3    3  502    0 -0.24247605199E+03 -0.68851980403E+03  0.14708901926E+03  0.74465523964E+03  0.46999998093E+01 0.  1.
       -5    1    3    3    0  502  0.24247605199E+03  0.68851980403E+03  0.55280021380E+03  0.91567697509E+03  0.46999998093E+01 0. -1.
</event>
<event>
 5   0  0.6146552E-04  0.1503272E+04  0.7818609E-02  0.8882280E-01
        1   -1    0    0  501    0  0.00000000000E+00  0.00000000000E+00  0.11104708728E+04  0.11104708728E+04  0.50400001928E-02 0. -1.
       -1   -1    0    0    0  501  0.00000000000E+00  0.00000000000E+00 -0.50875393379E+03  0.50875393382E+03  0.50400001928E-02 0.  1.
    10030    2    1    2    0    0  0.00000000000E+00  0.00000000000E+00  0.60171693901E+03  0.16192248066E+04  0.15032716653E+04 0.  0.
        5    1    3    3  502    0  0.59952858493E+03 -0.28714894134E+03  0.67869346921E+03  0.95001892287E+03  0.46999998093E+01 0. -1.
       -5    1    3    3    0  502 -0.59952858493E+03  0.28714894134E+03 -0.76976530202E+02  0.66920588376E+03  0.46999998093E+01 0.  1.
</event>
<event>
 5   0  0.5914645E-04  0.1482321E+04  0.7818609E-02  0.8896295E-01
       -1   -1    0    0    0  501  0.00000000000E+00  0.00000000000E+00  0.36746315589E+03  0.36746315593E+03  0.50400001928E-02 0.  1.
        1   -1    0    0  501    0  0.00000000000E+00  0.00000000000E+00 -0.14948954624E+04  0.14948954624E+04  0.50400001928E-02 0. -1.
    10030    2    1    2    0    0  0.00000000000E+00  0.00000000000E+00 -0.11274323065E+04  0.18623586183E+04  0.14823211587E+04 0.  0.
        2    1    3    3  502    0  0.72149034806E+03  0.88656285705E+02 -0.38203672325E+03  0.82119444546E+03  0.25500000920E-02 0. -1.
       -2    1    3    3    0  502 -0.72149034806E+03 -0.88656285705E+02 -0.74539558326E+03  0.10411641729E+04  0.25500000920E-02 0.  1.
</event>
<event>
 5   0  0.1126175E-03  0.1404735E+04  0.7818609E-02  0.8950398E-01
       -2   -1    0    0    0  501  0.00000000000E+00  0.00000000000E+00  0.11468027284E+04  0.11468027284E+04  0.25500000920E-02 0. -1.
        2   -1    0    0  501    0  0.00000000000E+00  0.00000000000E+00 -0.43016980203E+03  0.43016980204E+03  0.25500000920E-02 0.  1.
    10030    2    1    2    0    0  0.00000000000E+00  0.00000000000E+00  0.71663292634E+03  0.15769725304E+04  0.14047347118E+04 0.  0.
        3    1    3    3  502    0 -0.29988672386E+02 -0.20933770991E+03 -0.39358100683E+03  0.44679706400E+03  0.10100000352E+00 0.  1.
       -3    1    3    3    0  502  0.29988672386E+02  0.20933770991E+03  0.11102139332E+04  0.11301754664E+04  0.10100000352E+00 0. -1.
</event>
<event>
 5   0  0.1082667E-03  0.1510137E+04  0.7818609E-02  0.8877740E-01
       -2   -1    0    0    0  501  0.00000000000E+00  0.00000000000E+00  0.94193850243E+03  0.94193850243E+03  0.25500000920E-02 0.  1.
        2   -1    0    0  501    0  0.00000000000E+00  0.00000000000E+00 -0.60527153907E+03  0.60527153908E+03  0.25500000920E-02 0. -1.
    10030    2    1    2    0    0  0.00000000000E+00  0.00000000000E+00  0.33666696336E+03  0.15472100415E+04  0.15101371687E+04 0.  0.
        5    1    3    3  502    0  0.56750576169E+03 -0.41425316512E+02 -0.34016474561E+03  0.66295775926E+03  0.46999998093E+01 0. -1.
       -5    1    3    3    0  502 -0.56750576169E+03  0.41425316512E+02  0.67683170897E+03  0.88425228225E+03  0.46999998093E+01 0.  1.
</event>
<event>
 5   0  0.1097156E-03  0.1454179E+04  0.7818609E-02  0.8915508E-01
        2   -1    0    0  501    0  0.00000000000E+00  0.00000000000E+00  0.94659746505E+03  0.94659746505E+03  0.25500000920E-02 0.  1.
       -2   -1    0    0    0  501  0.00000000000E+00  0.00000000000E+00 -0.55848391310E+03  0.55848391311E+03  0.25500000920E-02 0. -1.
    10030    2    1    2    0    0  0.00000000000E+00  0.00000000000E+00  0.38811355195E+03  0.15050813782E+04  0.14541794338E+04 0.  0.
        2    1    3    3  502    0  0.15867072891E+03  0.35821841854E+03 -0.43988849246E+03  0.58906597373E+03  0.25500000920E-02 0. -1.
       -2    1    3    3    0  502 -0.15867072891E+03 -0.35821841854E+03  0.82800204441E+03  0.91601540443E+03  0.25500000920E-02 0.  1.
</event>
<event>
 5   0  0.5606965E-04  0.1516214E+04  0.7818609E-02  0.8873742E-01
       -1   -1    0    0    0  501  0.00000000000E+00  0.00000000000E+00  0.55747848014E+03  0.55747848016E+03  0.50400001928E-02 0.  1.
        1   -1    0    0  501    0  0.00000000000E+00  0.00000000000E+00 -0.10309392707E+04  0.10309392707E+04  0.50400001928E-02 0. -1.
    10030    2    1    2    0    0  0.00000000000E+00  0.00000000000E+00 -0.47346079059E+03  0.15884177509E+04  0.15162143091E+04 0.  0.
        4    1    3    3  502    0  0.41814861701E+02  0.42796902430E+03 -0.89081747954E+03  0.98917307038E+03  0.12699999809E+01 0. -1.
       -4    1    3    3    0  502 -0.41814861701E+02 -0.42796902430E+03  0.41735668895E+03  0.59924468052E+03  0.12699999809E+01 0.  1.
</event>
<event>
 5   0  0.1149716E-03  0.1503834E+04  0.7818609E-02  0.8881908E-01
        2   -1    0    0  501    0  0.00000000000E+00  0.00000000000E+00  0.71012765665E+03  0.71012765665E+03  0.25500000920E-02 0.  1.
       -2   -1    0    0    0  501  0.00000000000E+00  0.00000000000E+00 -0.79616514066E+03  0.79616514067E+03  0.25500000920E-02 0. -1.
    10030    2    1    2    0    0  0.00000000000E+00  0.00000000000E+00 -0.86037484014E+02  0.15062927973E+04  0.15038336153E+04 0.  0.
        1    1    3    3  502    0 -0.69822146484E+03  0.17629512434E+03 -0.25967247706E+03  0.76552137801E+03  0.50400001928E-02 0. -1.
       -1    1    3    3    0  502  0.69822146484E+03 -0.17629512434E+03  0.17363499304E+03  0.74077141931E+03  0.50400001928E-02 0.  1.
</event>
<event>
 5   0  0.5914645E-04  0.1502233E+04  0.7818609E-02  0.8882969E-01
       -1   -1    0    0    0  501  0.00000000000E+00  0.00000000000E+00  0.12878035459E+04  0.12878035459E+04  0.50400001928E-02 0.  1.
        1   -1    0    0  501    0  0.00000000000E+00  0.00000000000E+00 -0.43809160486E+03  0.43809160489E+03  0.50400001928E-02 0. -1.
    10030    2    1    2    0    0  0.00000000000E+00  0.00000000000E+00  0.84971194100E+03  0.17258951508E+04  0.15022329010E+04 0.  0.
        2    1    3    3  502    0 -0.28229750767E+03  0.34716893954E+03  0.11179667208E+04  0.12041875868E+04  0.25500000920E-02 0.  1.
       -2    1    3    3    0  502  0.28229750767E+03 -0.34716893954E+03 -0.26825477978E+03  0.52170756396E+03  0.25500000920E-02 0. -1.
</event>
<event>
 5   0  0.5924403E-04  0.1504218E+04  0.7818609E-02  0.8881653E-01
       -1   -1    0    0    0  501  0.00000000000E+00  0.00000000000E+00  0.43381383045E+03  0.43381383048E+03  0.50400001928E-02 0.  1.
        1   -1    0    0  501    0  0.00000000000E+00  0.00000000000E+00 -0.13039412429E+04  0.13039412429E+04  0.50400001928E-02 0. -1.
    10030    2    1    2    0    0  0.00000000000E+00  0.00000000000E+00 -0.87012741241E+03  0.17377550734E+04  0.15042177306E+04 0.  0.
        1    1    3    3  502    0 -0.27663447988E+03 -0.12857844397E+03  0.35913415772E+03  0.47120738001E+03  0.50400001928E-02 0.  1.
       -1    1    3    3    0  502  0.27663447988E+03  0.12857844397E+03 -0.12292615701E+04  0.12665476934E+04  0.50400001928E-02 0. -1.
</event>
<event>
 5   0  0.5840834E-04  0.1506533E+04  0.7818609E-02  0.8880120E-01
       -1   -1    0    0    0  501  0.00000000000E+00  0.00000000000E+00  0.67609354353E+03  0.67609354355E+03  0.50400001928E-02 0.  1.
        1   -1    0    0  501    0  0.00000000000E+00  0.00000000000E+00 -0.83924809978E+03  0.83924809979E+03  0.50400001928E-02 0. -1.
    10030    2    1    2    0    0  0.00000000000E+00  0.00000000000E+00 -0.16315455625E+03  0.15153416433E+04  0.15065327367E+04 0.  0.
        3    1    3    3  502    0 -0.91423781336E+02 -0.72011026235E+03 -0.28398290041E+03  0.77946353068E+03  0.10100000352E+00 0.  1.
       -3    1    3    3    0  502  0.91423781336E+02  0.72011026235E+03  0.12082834417E+03  0.73587811266E+03  0.10100000352E+00 0. -1.
</event>
<event>
 5   0  0.5914645E-04  0.1494804E+04  0.7818609E-02  0.8887916E-01
       -1   -1    0    0    0  501  0.00000000000E+00  0.00000000000E+00  0.52397675603E+03  0.52397675605E+03  0.50400001928E-02 0.  1.
        1   -1    0    0  501    0  0.00000000000E+00  0.00000000000E+00 -0.10660957971E+04  0.10660957971E+04  0.50400001928E-02 0. -1.
    10030    2    1    2    0    0  0.00000000000E+00  0.00000000000E+00 -0.54211904110E+03  0.15900725532E+04  0.14948035556E+04 0.  0.
        2    1    3    3  502    0  0.53364179463E+03 -0.14248219925E+03  0.26455396312E+03  0.61242431491E+03  0.25500000920E-02 0.  1.
       -2    1    3    3    0  502 -0.53364179463E+03  0.14248219925E+03 -0.80667300422E+03  0.97764823828E+03  0.25500000920E-02 0. -1.
</event>
<event>
 5   0  0.5840834E-04  0.1485750E+04  0.7818609E-02  0.8893985E-01
        1   -1    0    0  501    0  0.00000000000E+00  0.00000000000E+00  0.10285729837E+04  0.10285729837E+04  0.50400001928E-02 0. -1.
       -1   -1    0    0    0  501  0.00000000000E+00  0.00000000000E+00 -0.53653264330E+03  0.53653264332E+03  0.50400001928E-02 0.  1.
    10030    2    1    2    0    0  0.00000000000E+00  0.00000000000E+00  0.49204034042E+03  0.15651056270E+04  0.14857496179E+04 0.  0.
        3    1    3    3  502    0 -0.63510871360E+03 -0.29175750677E+03 -0.19174876954E+02  0.69918038228E+03  0.10100000352E+00 0.  1.
       -3    1    3    3    0  502  0.63510871360E+03  0.29175750677E+03  0.51121521737E+03  0.86592524477E+03  0.10100000352E+00 0. -1.
</event>
<event>
 5   0  0.5924403E-04  0.1516774E+04  0.7818609E-02  0.8873374E-01
       -1   -1    0    0    0  501  0.00000000000E+00  0.00000000000E+00  0.55239080424E+03  0.55239080427E+03  0.50400001928E-02 0.  1.
        1   -1    0    0  501    0  0.00000000000E+00  0.00000000000E+00 -0.10412033252E+04  0.10412033252E+04  0.50400001928E-02 0. -1.
    10030    2    1    2    0    0  0.00000000000E+00  0.00000000000E+00 -0.48881252097E+03  0.15935941295E+04  0.15167743962E+04 0.  0.
        1    1    3    3  502    0  0.61321698754E+03 -0.38691660096E+03 -0.47795162128E+03  0.86843380992E+03  0.50400001928E-02 0. -1.
       -1    1    3    3    0  502 -0.61321698754E+03  0.38691660096E+03 -0.10860899690E+02  0.72516031957E+03  0.50400001928E-02 0.  1.
</event>
<event>
 5   0  0.5914645E-04  0.1413452E+04  0.7818609E-02  0.8944138E-01
       -1   -1    0    0    0  501  0.00000000000E+00  0.00000000000E+00  0.57045559813E+03  0.57045559815E+03  0.50400001928E-02 0. -1.
        1   -1    0    0  501    0  0.00000000000E+00  0.00000000000E+00 -0.87554870563E+03  0.87554870565E+03  0.50400001928E-02 0.  1.
    10030    2    1    2    0    0  0.00000000000E+00  0.00000000000E+00 -0.30509310750E+03  0.14460043038E+04  0.14134520304E+04 0.  0.
        2    1    3    3  502    0  0.23146538864E+03  0.56452269199E+03 -0.51741081339E+03  0.79998502844E+03  0.25500000920E-02 0.  1.
       -2    1    3    3    0  502 -0.23146538864E+03 -0.56452269199E+03  0.21231770588E+03  0.64601927537E+03  0.25500000920E-02 0. -1.
</event>
<event>
 5   0  0.1097156E-03  0.1506331E+04  0.7818609E-02  0.8880254E-01
        2   -1    0    0  501    0  0.00000000000E+00  0.00000000000E+00  0.18940200833E+04  0.18940200833E+04  0.25500000920E-02 0. -1.
       -2   -1    0    0    0  501  0.00000000000E+00  0.00000000000E+00 -0.29949950783E+03  0.29949950784E+03  0.25500000920E-02 0.  1.
    10030    2    1    2    0    0  0.00000000000E+00  0.00000000000E+00  0.15945205755E+04  0.21935195912E+04  0.15063307509E+04 0.  0.
        2    1    3    3  502    0 -0.60122738468E+03  0.65108712273E+02  0.14351777675E+03  0.62153910959E+03  0.25500000920E-02 0.  1.
       -2    1    3    3    0  502  0.60122738468E+03 -0.65108712273E+02  0.14510027988E+04  0.15719804816E+04  0.25500000920E-02 0. -1.
</event>
<event>
 5   0  0.5914645E-04  0.1510930E+04  0.7818609E-02  0.8877217E-01
        1   -1    0    0  501    0  0.00000000000E+00  0.00000000000E+00  0.82343202006E+03  0.82343202008E+03  0.50400001928E-02 0.  1.
       -1   -1    0    0    0  501  0.00000000000E+00  0.00000000000E+00 -0.69310837808E+03  0.69310837810E+03  0.50400001928E-02 0. -1.
    10030    2    1    2    0    0  0.00000000000E+00  0.00000000000E+00  0.13032364198E+03  0.15165403982E+04  0.15109303517E+04 0.  0.
        2    1    3    3  502    0  0.68733027102E+03 -0.23669428178E+03  0.27154763331E+03  0.77600592888E+03  0.25500000920E-02 0.  1.
       -2    1    3    3    0  502 -0.68733027102E+03  0.23669428178E+03 -0.14122399132E+03  0.74053446930E+03  0.25500000920E-02 0. -1.
</event>
<event>
 5   0  0.6146552E-04  0.1515395E+04  0.7818609E-02  0.8874279E-01
        1   -1    0    0  501    0  0.00000000000E+00  0.00000000000E+00  0.97148678626E+03  0.97148678628E+03  0.50400001928E-02 0. -1.
       -1   -1    0    0    0  501  0.00000000000E+00  0.00000000000E+00 -0.59095569391E+03  0.59095569393E+03  0.50400001928E-02 0.  1.
    10030    2    1    2    0    0  0.00000000000E+00  0.00000000000E+00  0.38053109235E+03  0.15624424802E+04  0.15153951932E+04 0.  0.
        5    1    3    3  502    0  0.18547081493E+03  0.48681658924E+03 -0.37699144206E+03  0.64306644457E+03  0.46999998093E+01 0.  1.
       -5    1    3    3    0  502 -0.18547081493E+03 -0.48681658924E+03  0.75752253442E+03  0.91937603563E+03  0.46999998093E+01 0. -1.
</event>
<event>
 5   0  0.4070625E-04  0.1502131E+04  0.7818609E-02  0.8883037E-01
        3   -1    0    0  501    0  0.00000000000E+00  0.00000000000E+00  0.41580184788E+03  0.41580186015E+03  0.10100000352E+00 0.  1.
       -3   -1    0    0    0  501  0.00000000000E+00  0.00000000000E+00 -0.13566541493E+04  0.13566541531E+04  0.10100000352E+00 0. -1.
    10030    2    1    2    0    0  0.00000000000E+00  0.00000000000E+00 -0.94085230146E+03  0.17724560132E+04  0.15021309083E+04 0.  0.
        5    1    3    3  502    0  0.39762982705E+03 -0.48497692438E+03 -0.95803017379E+03  0.11450572040E+04  0.46999998093E+01 0. -1.
       -5    1    3    3    0  502 -0.39762982705E+03  0.48497692438E+03  0.17177872335E+02  0.62739880924E+03  0.46999998093E+01 0.  1.
</event>
<event>
 5   0  0.1126175E-03  0.1511341E+04  0.7818609E-02  0.8876946E-01
        2   -1    0    0  501    0  0.00000000000E+00  0.00000000000E+00  0.22054853954E+04  0.22054853954E+04  0.25500000920E-02 0. -1.
       -2   -1    0    0    0  501  0.00000000000E+00  0.00000000000E+00 -0.25891708438E+03  0.25891708440E+03  0.25500000920E-02 0.  1.
    10030    2    1    2    0    0  0.00000000000E+00  0.00000000000E+00  0.19465683110E+04  0.24644024798E+04  0.15113409255E+04 0.  0.
        3    1    3    3  502    0  0.30513089616E+03  0.35420421423E+03  0.52031015883E+01  0.46753884506E+03  0.10100000352E+00 0.  1.
       -3    1    3    3    0  502 -0.30513089616E+03 -0.35420421423E+03  0.19413652095E+04  0.19968636348E+04  0.10100000352E+00 0. -1.
</event>
<event>
 5   0  0.1126175E-03  0.1507057E+04  0.7818609E-02  0.8879773E-01
        2   -1    0    0  501    0  0.00000000000E+00  0.00000000000E+00  0.21050782609E+04  0.21050782609E+04  0.25500000920E-02 0. -1.
       -2   -1    0    0    0  501  0.00000000000E+00  0.00000000000E+00 -0.26973129653E+03  0.26973129654E+03  0.25500000920E-02 0.  1.
    10030    2    1    2    0    0  0.00000000000E+00  0.00000000000E+00  0.18353469643E+04  0.23748095574E+04  0.15070573826E+04 0.  0.
        3    1    3    3  502    0  0.43240587210E+03  0.14789341282E+02 -0.54491983341E+02  0.43607676995E+03  0.10100000352E+00 0.  1.
       -3    1    3    3    0  502 -0.43240587210E+03 -0.14789341282E+02  0.18898389477E+04  0.19387327875E+04  0.10100000352E+00 0. -1.
</event>
<event>
 5   0  0.1147755E-03  0.1540457E+04  0.7818609E-02  0.8857987E-01
       -2   -1    0    0    0  501  0.00000000000E+00  0.00000000000E+00  0.79127953660E+03  0.79127953660E+03  0.25500000920E-02 0.  1.
        2   -1    0    0  501    0  0.00000000000E+00  0.00000000000E+00 -0.74973713557E+03  0.74973713557E+03  0.25500000920E-02 0. -1.
    10030    2    1    2    0    0  0.00000000000E+00  0.00000000000E+00  0.41542401030E+02  0.15410166722E+04  0.15404566248E+04 0.  0.
        4    1    3    3  502    0  0.10462960691E+02 -0.75929134411E+03  0.14972586853E+03  0.77398466871E+03  0.12699999809E+01 0.  1.
       -4    1    3    3    0  502 -0.10462960691E+02  0.75929134411E+03 -0.10818346750E+03  0.76703200346E+03  0.12699999809E+01 0. -1.
</event>
<event>
 5   0  0.1126175E-03  0.1566899E+04  0.7818609E-02  0.8841145E-01
       -2   -1    0    0    0  501  0.00000000000E+00  0.00000000000E+00  0.83927422576E+03  0.83927422576E+03  0.25500000920E-02 0.  1.
        2   -1    0    0  501    0  0.00000000000E+00  0.00000000000E+00 -0.73133795072E+03  0.73133795073E+03  0.25500000920E-02 0. -1.
    10030    2    1    2    0    0  0.00000000000E+00  0.00000000000E+00  0.10793627504E+03  0.15706121765E+04  0.15668989659E+04 0.  0.
        3    1    3    3  502    0  0.35784946172E+03  0.84762218849E+02  0.74738217578E+03  0.83295918140E+03  0.10100000352E+00 0.  1.
       -3    1    3    3    0  502 -0.35784946172E+03 -0.84762218849E+02 -0.63944590074E+03  0.73765299509E+03  0.10100000352E+00 0. -1.
</event>
<event>
 5   0  0.1149716E-03  0.1484778E+04  0.7818609E-02  0.8894639E-01
        2   -1    0    0  501    0  0.00000000000E+00  0.00000000000E+00  0.81597305952E+03  0.81597305952E+03  0.25500000920E-02 0.  1.
       -2   -1    0    0    0  501  0.00000000000E+00  0.00000000000E+00 -0.67544059845E+03  0.67544059845E+03  0.25500000920E-02 0. -1.
    10030    2    1    2    0    0  0.00000000000E+00  0.00000000000E+00  0.14053246107E+03  0.14914136580E+04  0.14847778711E+04 0.  0.
        1    1    3    3  502    0 -0.58293412256E+03  0.45763004398E+03  0.26437712917E+02  0.74157696910E+03  0.50400001928E-02 0.  1.
       -1    1    3    3    0  502  0.58293412256E+03 -0.45763004398E+03  0.11409474815E+03  0.74983668888E+03  0.50400001928E-02 0. -1.
</event>
<event>
 5   0  0.1082667E-03  0.1516627E+04  0.7818609E-02  0.8873471E-01
       -2   -1    0    0    0  501  0.00000000000E+00  0.00000000000E+00  0.62902040029E+03  0.62902040029E+03  0.25500000920E-02 0.  1.
        2   -1    0    0  501    0  0.00000000000E+00  0.00000000000E+00 -0.91418258401E+03  0.91418258401E+03  0.25500000920E-02 0. -1.
    10030    2    1    2    0    0  0.00000000000E+00  0.00000000000E+00 -0.28516218372E+03  0.15432029843E+04  0.15166271723E+04 0.  0.
        5    1    3    3  502    0  0.20747211725E+03 -0.56306107849E+03  0.32915351708E+03  0.68443157829E+03  0.46999998093E+01 0.  1.
       -5    1    3    3    0  502 -0.20747211725E+03  0.56306107849E+03 -0.61431570080E+03  0.85877140602E+03  0.46999998093E+01 0. -1.
</event>
<event>
 5   0  0.1082667E-03  0.1742842E+04  0.7818609E-02  0.8737300E-01
       -2   -1    0    0    0  501  0.00000000000E+00  0.00000000000E+00  0.14028235696E+04  0.14028235696E+04  0.25500000920E-02 0.  1.
        2   -1    0    0  501    0  0.00000000000E+00  0.00000000000E+00 -0.54131891261E+03  0.54131891261E+03  0.25500000920E-02 0. -1.
    10030    2    1    2    0    0  0.00000000000E+00  0.00000000000E+00  0.86150465700E+03  0.19441424822E+04  0.17428424247E+04 0.  0.
        5    1    3    3  502    0  0.95676691118E+02  0.10388143976E+03  0.13899583141E+04  0.13971226101E+04  0.46999998093E+01 0.  1.
       -5    1    3    3    0  502 -0.95676691118E+02 -0.10388143976E+03 -0.52845365712E+03  0.54701987210E+03  0.46999998093E+01 0. -1.
</event>
<event>
 5   0  0.5840834E-04  0.1478055E+04  0.7818609E-02  0.8899179E-01
       -1   -1    0    0    0  501  0.00000000000E+00  0.00000000000E+00  0.31608992286E+03  0.31608992290E+03  0.50400001928E-02 0.  1.
        1   -1    0    0  501    0  0.00000000000E+00  0.00000000000E+00 -0.17278674026E+04  0.17278674027E+04  0.50400001928E-02 0. -1.
    10030    2    1    2    0    0  0.00000000000E+00  0.00000000000E+00 -0.14117774798E+04  0.20439573256E+04  0.14780547677E+04 0.  0.
        3    1    3    3  502    0 -0.13258647948E+02 -0.72439863297E+03 -0.90739091736E+03  0.11611578094E+04  0.10100000352E+00 0. -1.
       -3    1    3    3    0  502  0.13258647948E+02  0.72439863297E+03 -0.50438656242E+03  0.88279951616E+03  0.10100000352E+00 0.  1.
</event>
<event>
 5   0  0.5924403E-04  0.1503024E+04  0.7818609E-02  0.8882445E-01
        1   -1    0    0  501    0  0.00000000000E+00  0.00000000000E+00  0.15325775589E+04  0.15325775589E+04  0.50400001928E-02 0. -1.
       -1   -1    0    0    0  501  0.00000000000E+00  0.00000000000E+00 -0.36850997705E+03  0.36850997708E+03  0.50400001928E-02 0.  1.
    10030    2    1    2    0    0  0.00000000000E+00  0.00000000000E+00  0.11640675819E+04  0.19010875360E+04  0.15030237804E+04 0.  0.
        1    1    3    3  502    0 -0.68329569375E+03  0.17031395750E+03  0.91396811330E+03  0.11537926856E+04  0.50400001928E-02 0. -1.
       -1    1    3    3    0  502  0.68329569375E+03 -0.17031395750E+03  0.25009946855E+03  0.74729485038E+03  0.50400001928E-02 0.  1.
</event>
<event>
 5   0  0.5840834E-04  0.1457537E+04  0.7818609E-02  0.8913192E-01
        1   -1    0    0  501    0  0.00000000000E+00  0.00000000000E+00  0.70664523028E+03  0.70664523030E+03  0.50400001928E-02 0.  1.
       -1   -1    0    0    0  501  0.00000000000E+00  0.00000000000E+00 -0.75158403076E+03  0.75158403078E+03  0.50400001928E-02 0. -1.
    10030    2    1    2    0    0  0.00000000000E+00  0.00000000000E+00 -0.44938800482E+02  0.14582292611E+04  0.14575366486E+04 0.  0.
        3    1    3    3  502    0  0.11516943253E+03  0.34725369006E+02 -0.74158311140E+03  0.75127582868E+03  0.10100000352E+00 0. -1.
       -3    1    3    3    0  502 -0.11516943253E+03 -0.34725369006E+02  0.69664431092E+03  0.70695343240E+03  0.10100000352E+00 0.  1.
</event>
<event>
 5   0  0.5924403E-04  0.1493720E+04  0.7818609E-02  0.8888640E-01
       -1   -1    0    0    0  501  0.00000000000E+00  0.00000000000E+00  0.50802630485E+03  0.50802630487E+03  0.50400001928E-02 0. -1.
        1   -1    0    0  501    0  0.00000000000E+00  0.00000000000E+00 -0.10979748305E+04  0.10979748305E+04  0.50400001928E-02 0.  1.
    10030    2    1    2    0    0  0.00000000000E+00  0.00000000000E+00 -0.58994852568E+03  0.16060011354E+04  0.14937203165E+04 0.  0.
        1    1    3    3  502    0  0.21603495652E+03 -0.40906900887E+03 -0.92538579970E+03  0.10345759686E+04  0.50400001928E-02 0.  1.
       -1    1    3    3    0  502 -0.21603495652E+03  0.40906900887E+03  0.33543727402E+03  0.57142516683E+03  0.50400001928E-02 0. -1.
</event>
<event>
 5   0  0.5606965E-04  0.1462330E+04  0.7818609E-02  0.8909897E-01
       -1   -1    0    0    0  501  0.00000000000E+00  0.00000000000E+00  0.63877970579E+03  0.63877970581E+03  0.50400001928E-02 0.  1.
        1   -1    0    0  501    0  0.00000000000E+00  0.00000000000E+00 -0.83691181596E+03  0.83691181597E+03  0.50400001928E-02 0. -1.
    10030    2    1    2    0    0  0.00000000000E+00  0.00000000000E+00 -0.19813211017E+03  0.14756915218E+04  0.14623300361E+04 0.  0.
        4    1    3    3  502    0  0.17170179130E+03 -0.40684607487E+03 -0.68713887163E+03  0.81680271521E+03  0.12699999809E+01 0. -1.
       -4    1    3    3    0  502 -0.17170179130E+03  0.40684607487E+03  0.48900676146E+03  0.65888880657E+03  0.12699999809E+01 0.  1.
</event>
<event>
 5   0  0.1147755E-03  0.1520526E+04  0.7818609E-02  0.8870917E-01
       -2   -1    0    0    0  501  0.00000000000E+00  0.00000000000E+00  0.30226713100E+03  0.30226713101E+03  0.25500000920E-02 0.  1.
        2   -1    0    0  501    0  0.00000000000E+00  0.00000000000E+00 -0.19122154710E+04  0.19122154710E+04  0.25500000920E-02 0. -1.
    10030    2    1    2    0    0  0.00000000000E+00  0.00000000000E+00 -0.16099483400E+04  0.22144826020E+04  0.15205260725E+04 0.  0.
        4    1    3    3  502    0  0.34696157959E+03 -0.49530549772E+03 -0.14760035426E+04  0.15950855602E+04  0.12699999809E+01 0. -1.
       -4    1    3    3    0  502 -0.34696157959E+03  0.49530549772E+03 -0.13394479745E+03  0.61939704184E+03  0.12699999809E+01 0.  1.
</event>
<event>
 5   0  0.1082667E-03  0.1518928E+04  0.7818609E-02  0.8871963E-01
       -2   -1    0    0    0  501  0.00000000000E+00  0.00000000000E+00  0.62753754711E+03  0.62753754712E+03  0.25500000920E-02 0. -1.
        2   -1    0    0  501    0  0.00000000000E+00  0.00000000000E+00 -0.91912488819E+03  0.91912488820E+03  0.25500000920E-02 0.  1.
    10030    2    1    2    0    0  0.00000000000E+00  0.00000000000E+00 -0.29158734108E+03  0.15466624353E+04  0.15189277505E+04 0.  0.
        5    1    3    3  502    0  0.60329764306E+03 -0.25492384603E+03  0.24568577973E+03  0.69952684420E+03  0.46999998093E+01 0. -1.
       -5    1    3    3    0  502 -0.60329764306E+03  0.25492384603E+03 -0.53727312081E+03  0.84713559112E+03  0.46999998093E+01 0.  1.
</event>
<event>
 5   0  0.5924403E-04  0.1514049E+04  0.7818609E-02  0.8875164E-01
        1   -1    0    0  501    0  0.00000000000E+00  0.00000000000E+00  0.12546287884E+04  0.12546287884E+04  0.50400001928E-02 0. -1.
       -1   -1    0    0    0  501  0.00000000000E+00  0.00000000000E+00 -0.45677717160E+03  0.45677717163E+03  0.50400001928E-02 0.  1.
    10030    2    1    2    0    0  0.00000000000E+00  0.00000000000E+00  0.79785161682E+03  0.17114059601E+04  0.15140485982E+04 0.  0.
        1    1    3    3  502    0  0.11264703456E+02 -0.19060558987E+03 -0.42911178264E+03  0.46967468152E+03  0.50400001928E-02 0.  1.
       -1    1    3    3    0  502 -0.11264703456E+02  0.19060558987E+03  0.12269633995E+04  0.12417312785E+04  0.50400001928E-02 0. -1.
</event>
<event>
 5   0  0.1126175E-03  0.1522300E+04  0.7818609E-02  0.8869757E-01
       -2   -1    0    0    0  501  0.00000000000E+00  0.00000000000E+00  0.26793850797E+03  0.26793850798E+03  0.25500000920E-02 0. -1.
        2   -1    0    0  501    0  0.00000000000E+00  0.00000000000E+00 -0.21622481806E+04  0.21622481806E+04  0.25500000920E-02 0.  1.
    10030    2    1    2    0    0  0.00000000000E+00  0.00000000000E+00 -0.18943096726E+04  0.24301866885E+04  0.15223003007E+04 0.  0.
        3    1    3    3  502    0 -0.40976957542E+03 -0.54802588441E+03 -0.41503654203E+03  0.80031169949E+03  0.10100000352E+00 0. -1.
       -3    1    3    3    0  502  0.40976957542E+03  0.54802588441E+03 -0.14792731306E+04  0.16298749890E+04  0.10100000352E+00 0.  1.
</event>
<event>
 5   0  0.1149716E-03  0.1427238E+04  0.7818609E-02  0.8934335E-01
       -2   -1    0    0    0  501  0.00000000000E+00  0.00000000000E+00  0.13899563979E+04  0.13899563979E+04  0.25500000920E-02 0. -1.
        2   -1    0    0  501    0  0.00000000000E+00  0.00000000000E+00 -0.36637992387E+03  0.36637992388E+03  0.25500000920E-02 0.  1.
    10030    2    1    2    0    0  0.00000000000E+00  0.00000000000E+00  0.10235764740E+04  0.17563363218E+04  0.14272380590E+04 0.  0.
        1    1    3    3  502    0  0.16169484494E+03  0.61703917706E+03  0.11805990915E+03  0.64870695316E+03  0.50400001928E-02 0.  1.
       -1    1    3    3    0  502 -0.16169484494E+03 -0.61703917706E+03  0.90551656487E+03  0.11076293686E+04  0.50400001928E-02 0. -1.
</event>
<event>
 5   0  0.1097156E-03  0.1476754E+04  0.7818609E-02  0.8900060E-01
       -2   -1    0    0    0  501  0.00000000000E+00  0.00000000000E+00  0.10587973017E+04  0.10587973017E+04  0.25500000920E-02 0. -1.
        2   -1    0    0  501    0  0.00000000000E+00  0.00000000000E+00 -0.51492419173E+03  0.51492419174E+03  0.25500000920E-02 0.  1.
    10030    2    1    2    0    0  0.00000000000E+00  0.00000000000E+00  0.54387310992E+03  0.15737214934E+04  0.14767536623E+04 0.  0.
        2    1    3    3  502    0 -0.15585584115E+03 -0.21307797905E+03  0.10067859009E+04  0.10408223281E+04  0.25500000920E-02 0. -1.
       -2    1    3    3    0  502  0.15585584115E+03  0.21307797905E+03 -0.46291279096E+03  0.53289916533E+03  0.25500000920E-02 0.  1.
</event>
<event>
 5   0  0.5914645E-04  0.1478462E+04  0.7818609E-02  0.8898903E-01
       -1   -1    0    0    0  501  0.00000000000E+00  0.00000000000E+00  0.23267598474E+03  0.23267598480E+03  0.50400001928E-02 0. -1.
        1   -1    0    0  501    0  0.00000000000E+00  0.00000000000E+00 -0.23486000124E+04  0.23486000124E+04  0.50400001928E-02 0.  1.
    10030    2    1    2    0    0  0.00000000000E+00  0.00000000000E+00 -0.21159240277E+04  0.25812759972E+04  0.14784624726E+04 0.  0.
        2    1    3    3  502    0  0.74180094978E+02 -0.14893638290E+03 -0.23154821550E+04  0.23214526364E+04  0.25500000920E-02 0.  1.
       -2    1    3    3    0  502 -0.74180094978E+02  0.14893638290E+03  0.19955812736E+03  0.25982336085E+03  0.25500000920E-02 0. -1.
</event>
<event>
 5   0  0.5606965E-04  0.1511693E+04  0.7818609E-02  0.8876714E-01
       -1   -1    0    0    0  501  0.00000000000E+00  0.00000000000E+00  0.46202276999E+03  0.46202277002E+03  0.50400001928E-02 0. -1.
        1   -1    0    0  501    0  0.00000000000E+00  0.00000000000E+00 -0.12365271010E+04  0.12365271010E+04  0.50400001928E-02 0.  1.
    10030    2    1    2    0    0  0.00000000000E+00  0.00000000000E+00 -0.77450433105E+03  0.16985498711E+04  0.15116926624E+04 0.  0.
        4    1    3    3  502    0 -0.70292634946E+03  0.23041853231E+03 -0.56169717624E+03  0.92881832642E+03  0.12699999809E+01 0.  1.
       -4    1    3    3    0  502  0.70292634946E+03 -0.23041853231E+03 -0.21280715481E+03  0.76973154465E+03  0.12699999809E+01 0. -1.
</event>
<event>
 5   0  0.1082667E-03  0.1504844E+04  0.7818609E-02  0.8881238E-01
        2   -1    0    0  501    0  0.00000000000E+00  0.00000000000E+00  0.16827369832E+04  0.16827369832E+04  0.25500000920E-02 0. -1.
       -2   -1    0    0    0  501  0.00000000000E+00  0.00000000000E+00 -0.33643918502E+03  0.33643918503E+03  0.25500000920E-02 0.  1.
    10030    2    1    2    0    0  0.00000000000E+00  0.00000000000E+00  0.13462977982E+04  0.20191761683E+04  0.15048437251E+04 0.  0.
        5    1    3    3  502    0  0.36509071751E+03 -0.24276711013E+03 -0.14730545786E+03  0.46254522988E+03  0.46999998093E+01 0.  1.
       -5    1    3    3    0  502 -0.36509071751E+03  0.24276711013E+03  0.14936032561E+04  0.15566309384E+04  0.46999998093E+01 0. -1.
</event>
<event>
 5   0  0.5914645E-04  0.1503081E+04  0.7818609E-02  0.8882407E-01
       -1   -1    0    0    0  501  0.00000000000E+00  0.00000000000E+00  0.16791930816E+04  0.16791930816E+04  0.50400001928E-02 0. -1.
        1   -1    0    0  501    0  0.00000000000E+00  0.00000000000E+00 -0.33635982331E+03  0.33635982334E+03  0.50400001928E-02 0.  1.
    10030    2    1    2    0    0  0.00000000000E+00  0.00000000000E+00  0.13428332583E+04  0.20155529049E+04  0.15030809536E+04 0.  0.
        2    1    3    3  502    0 -0.51551510576E+03  0.99703304236E+02  0.13924382382E+04  0.14881467738E+04  0.25500000920E-02 0. -1.
       -2    1    3    3    0  502  0.51551510576E+03 -0.99703304236E+02 -0.49604979910E+02  0.52740613115E+03  0.25500000920E-02 0.  1.
</event>
<event>
 5   0  0.6146552E-04  0.1472940E+04  0.7818609E-02  0.8902650E-01
        1   -1    0    0  501    0  0.00000000000E+00  0.00000000000E+00  0.51035300195E+03  0.51035300197E+03  0.50400001928E-02 0. -1.
       -1   -1    0    0    0  501  0.00000000000E+00  0.00000000000E+00 -0.10627700407E+04  0.10627700407E+04  0.50400001928E-02 0.  1.
    10030    2    1    2    0    0  0.00000000000E+00  0.00000000000E+00 -0.55241703871E+03  0.15731230426E+04  0.14729397553E+04 0.  0.
        5    1    3    3  502    0 -0.23873811515E+03 -0.53722445817E+03 -0.74995487007E+03  0.95292203418E+03  0.46999998093E+01 0. -1.
       -5    1    3    3    0  502  0.23873811515E+03  0.53722445817E+03  0.19753783136E+03  0.62020100846E+03  0.46999998093E+01 0.  1.
</event>
<event>
 5   0  0.5606965E-04  0.1500490E+04  0.7818609E-02  0.8884127E-01
        1   -1    0    0  501    0  0.00000000000E+00  0.00000000000E+00  0.11614584188E+04  0.11614584188E+04  0.50400001928E-02 0.  1.
       -1   -1    0    0    0  501  0.00000000000E+00  0.00000000000E+00 -0.48462161424E+03  0.48462161427E+03  0.50400001928E-02 0. -1.
    10030    2    1    2    0    0  0.00000000000E+00  0.00000000000E+00  0.67683680459E+03  0.16460800331E+04  0.15004903916E+04 0.  0.
        4    1    3    3  502    0  0.46724183161E+03  0.59476201645E+02 -0.30220642348E+03  0.55962727155E+03  0.12699999809E+01 0. -1.
       -4    1    3    3    0  502 -0.46724183161E+03 -0.59476201645E+02  0.97904322807E+03  0.10864527616E+04  0.12699999809E+01 0.  1.
</event>
<event>
 5   0  0.5840834E-04  0.1502895E+04  0.7818609E-02  0.8882530E-01
        1   -1    0    0  501    0  0.00000000000E+00  0.00000000000E+00  0.15889998828E+04  0.15889998828E+04  0.50400001928E-02 0. -1.
       -1   -1    0    0    0  501  0.00000000000E+00  0.00000000000E+00 -0.35536392143E+03  0.35536392147E+03  0.50400001928E-02 0.  1.
    10030    2    1    2    0    0  0.00000000000E+00  0.00000000000E+00  0.12336359614E+04  0.19443638043E+04  0.15028948460E+04 0.  0.
        3    1    3    3  502    0  0.55606229521E+03  0.41736210740E+03  0.98565310268E+03  0.12061958605E+04  0.10100000352E+00 0. -1.
       -3    1    3    3    0  502 -0.55606229521E+03 -0.41736210740E+03  0.24798285871E+03  0.73816794381E+03  0.10100000352E+00 0.  1.
</event>
<event>
 5   0  0.6146552E-04  0.1448654E+04  0.7818609E-02  0.8919334E-01
        1   -1    0    0  501    0  0.00000000000E+00  0.00000000000E+00  0.17498427267E+04  0.17498427267E+04  0.50400001928E-02 0. -1.
       -1   -1    0    0    0  501  0.00000000000E+00  0.00000000000E+00 -0.29982668083E+03  0.29982668087E+03  0.50400001928E-02 0.  1.
    10030    2    1    2    0    0  0.00000000000E+00  0.00000000000E+00  0.14500160459E+04  0.20496694076E+04  0.14486539086E+04 0.  0.
        5    1    3    3  502    0  0.26252576807E+03  0.18605297188E+03  0.16431453646E+04  0.16743608532E+04  0.46999998093E+01 0. -1.
       -5    1    3    3    0  502 -0.26252576807E+03 -0.18605297188E+03 -0.19312931877E+03  0.37530855441E+03  0.46999998093E+01 0.  1.
</event>
<event>
 5   0  0.5924403E-04  0.1473508E+04  0.7818609E-02  0.8902263E-01
        1   -1    0    0  501    0  0.00000000000E+00  0.00000000000E+00  0.89635591990E+03  0.89635591992E+03  0.50400001928E-02 0.  1.
       -1   -1    0    0    0  501  0.00000000000E+00  0.00000000000E+00 -0.60557048578E+03  0.60557048580E+03  0.50400001928E-02 0. -1.
    10030    2    1    2    0    0  0.00000000000E+00  0.00000000000E+00  0.29078543413E+03  0.15019264057E+04  0.14735083167E+04 0.  0.
        1    1    3    3  502    0 -0.49500157908E+02 -0.25045558443E+03 -0.55904263613E+03  0.61457866416E+03  0.50400001928E-02 0. -1.
       -1    1    3    3    0  502  0.49500157908E+02  0.25045558443E+03  0.84982807026E+03  0.88734774155E+03  0.50400001928E-02 0.  1.
</event>
<event>
 5   0  0.4070625E-04  0.1480881E+04  0.7818609E-02  0.8897268E-01
        3   -1    0    0  501    0  0.00000000000E+00  0.00000000000E+00  0.73702485448E+03  0.73702486140E+03  0.10100000352E+00 0. -1.
       -3   -1    0    0    0  501  0.00000000000E+00  0.00000000000E+00 -0.74387149845E+03  0.74387150531E+03  0.10100000352E+00 0.  1.
    10030    2    1    2    0    0  0.00000000000E+00  0.00000000000E+00 -0.68466439729E+01  0.14808963667E+04  0.14808805395E+04 0.  0.
        5    1    3    3  502    0 -0.55414909296E+02  0.27266503272E+03 -0.68958856061E+03  0.74362053842E+03  0.46999998093E+01 0.  1.
       -5    1    3    3    0  502  0.55414909296E+02 -0.27266503272E+03  0.68274191664E+03  0.73727582829E+03  0.46999998093E+01 0. -1.
</event>
<event>
 5   0  0.1149716E-03  0.1520451E+04  0.7818609E-02  0.8870966E-01
        2   -1    0    0  501    0  0.00000000000E+00  0.00000000000E+00  0.16234528771E+04  0.16234528771E+04  0.25500000920E-02 0. -1.
       -2   -1    0    0    0  501  0.00000000000E+00  0.00000000000E+00 -0.35599624729E+03  0.35599624730E+03  0.25500000920E-02 0.  1.
    10030    2    1    2    0    0  0.00000000000E+00  0.00000000000E+00  0.12674566298E+04  0.19794491244E+04  0.15204514223E+04 0.  0.
        1    1    3    3  502    0 -0.28966154966E+03 -0.20922514987E+03 -0.23985731659E+03  0.43036090557E+03  0.50400001928E-02 0.  1.
       -1    1    3    3    0  502  0.28966154966E+03  0.20922514987E+03  0.15073139464E+04  0.15490882188E+04  0.50400001928E-02 0. -1.
</event>
<event>
 5   0  0.5924403E-04  0.1484187E+04  0.7818609E-02  0.8895037E-01
        1   -1    0    0  501    0  0.00000000000E+00  0.00000000000E+00  0.88609590129E+03  0.88609590130E+03  0.50400001928E-02 0.  1.
       -1   -1    0    0    0  501  0.00000000000E+00  0.00000000000E+00 -0.62149302923E+03  0.62149302925E+03  0.50400001928E-02 0. -1.
    10030    2    1    2    0    0  0.00000000000E+00  0.00000000000E+00  0.26460287206E+03  0.15075889306E+04  0.14841865461E+04 0.  0.
        1    1    3    3  502    0 -0.73697117799E+03  0.73487502676E+02  0.84923781396E+02  0.74547902648E+03  0.50400001928E-02 0. -1.
       -1    1    3    3    0  502  0.73697117799E+03 -0.73487502676E+02  0.17967909066E+03  0.76210990408E+03  0.50400001928E-02 0.  1.
</event>
<event>
 5   0  0.1149716E-03  0.1495357E+04  0.7818609E-02  0.8887547E-01
       -2   -1    0    0    0  501  0.00000000000E+00  0.00000000000E+00  0.31878303218E+03  0.31878303219E+03  0.25500000920E-02 0. -1.
        2   -1    0    0  501    0  0.00000000000E+00  0.00000000000E+00 -0.17536155478E+04  0.17536155478E+04  0.25500000920E-02 0.  1.
    10030    2    1    2    0    0  0.00000000000E+00  0.00000000000E+00 -0.14348325157E+04  0.20723985800E+04  0.14953566553E+04 0.  0.
        1    1    3    3  502    0 -0.71922676835E+03 -0.16157784833E+03 -0.54416161919E+03  0.91624582575E+03  0.50400001928E-02 0. -1.
       -1    1    3    3    0  502  0.71922676835E+03  0.16157784833E+03 -0.89067089647E+03  0.11561527543E+04  0.50400001928E-02 0.  1.
</event>
<event>
 5   0  0.1082667E-03  0.1419097E+04  0.7818609E-02  0.8940110E-01
        2   -1    0    0  501    0  0.00000000000E+00  0.00000000000E+00  0.14691503568E+04  0.14691503569E+04  0.25500000920E-02 0. -1.
       -2   -1    0    0    0  501  0.00000000000E+00  0.00000000000E+00 -0.34268702132E+03  0.34268702133E+03  0.25500000920E-02 0.  1.
    10030    2    1    2    0    0  0.00000000000E+00  0.00000000000E+00  0.11264633355E+04  0.18118373782E+04  0.14190965572E+04 0.  0.
        5    1    3    3  502    0  0.27175010026E+03  0.20514086284E+03  0.13580106254E+04  0.14000520845E+04  0.46999998093E+01 0. -1.
       -5    1    3    3    0  502 -0.27175010026E+03 -0.20514086284E+03 -0.23154728991E+03  0.41178529364E+03  0.46999998093E+01 0.  1.
</event>
<event>
 5   0  0.5914645E-04  0.1369598E+04  0.7818609E-02  0.8976124E-01
        1   -1    0    0  501    0  0.00000000000E+00  0.00000000000E+00  0.96729211155E+03  0.96729211156E+03  0.50400001928E-02 0.  1.
       -1   -1    0    0    0  501  0.00000000000E+00  0.00000000000E+00 -0.48480655126E+03  0.48480655128E+03  0.50400001928E-02 0. -1.
    10030    2    1    2    0    0  0.00000000000E+00  0.00000000000E+00  0.48248556029E+03  0.14520986628E+04  0.13695978281E+04 0.  0.
        2    1    3    3  502    0 -0.27026622910E+03  0.80327930080E+02  0.90289636934E+03  0.94589548298E+03  0.25500000920E-02 0.  1.
       -2    1    3    3    0  502  0.27026622910E+03 -0.80327930080E+02 -0.42041080905E+03  0.50620317987E+03  0.25500000920E-02 0. -1.
</event>
<event>
 5   0  0.5924403E-04  0.1503052E+04  0.7818609E-02  0.8882426E-01
        1   -1    0    0  501    0  0.00000000000E+00  0.00000000000E+00  0.97410029226E+03  0.97410029227E+03  0.50400001928E-02 0. -1.
       -1   -1    0    0    0  501  0.00000000000E+00  0.00000000000E+00 -0.57980827490E+03  0.57980827492E+03  0.50400001928E-02 0.  1.
    10030    2    1    2    0    0  0.00000000000E+00  0.00000000000E+00  0.39429201736E+03  0.15539085672E+04  0.15030521083E+04 0.  0.
        1    1    3    3  502    0 -0.32471723342E+03 -0.23033936930E+03  0.85612501141E+03  0.94416499719E+03  0.50400001928E-02 0. -1.
       -1    1    3    3    0  502  0.32471723342E+03  0.23033936930E+03 -0.46183299406E+03  0.60974357000E+03  0.50400001928E-02 0.  1.
</event>
<event>
 5   0  0.1097156E-03  0.1506134E+04  0.7818609E-02  0.8880384E-01
       -2   -1    0    0    0  501  0.00000000000E+00  0.00000000000E+00  0.30046238895E+03  0.30046238896E+03  0.25500000920E-02 0. -1.
        2   -1    0    0  501    0  0.00000000000E+00  0.00000000000E+00 -0.18874565098E+04  0.18874565098E+04  0.25500000920E-02 0.  1.
    10030    2    1    2    0    0  0.00000000000E+00  0.00000000000E+00 -0.15869941209E+04  0.21879188988E+04  0.15061337152E+04 0.  0.
        2    1    3    3  502    0 -0.55929831669E+03  0.47692845845E+03 -0.10314620525E+04  0.12665659586E+04  0.25500000920E-02 0.  1.
       -2    1    3    3    0  502  0.55929831669E+03 -0.47692845845E+03 -0.55553206835E+03  0.92135294025E+03  0.25500000920E-02 0. -1.
</event>
<event>
 5   0  0.5840834E-04  0.1494550E+04  0.7818609E-02  0.8888085E-01
        1   -1    0    0  501    0  0.00000000000E+00  0.00000000000E+00  0.89228021144E+03  0.89228021146E+03  0.50400001928E-02 0. -1.
       -1   -1    0    0    0  501  0.00000000000E+00  0.00000000000E+00 -0.62583461008E+03  0.62583461010E+03  0.50400001928E-02 0.  1.
    10030    2    1    2    0    0  0.00000000000E+00  0.00000000000E+00  0.26644560136E+03  0.15181148216E+04  0.14945498831E+04 0.  0.
        3    1    3    3  502    0  0.70199400281E+03 -0.92052984687E+02 -0.10960824369E+03  0.71643793119E+03  0.10100000352E+00 0.  1.
       -3    1    3    3    0  502 -0.70199400281E+03  0.92052984687E+02  0.37605384505E+03  0.80167689036E+03  0.10100000352E+00 0. -1.
</event>
<event>
 5   0  0.5840834E-04  0.1510760E+04  0.7818609E-02  0.8877329E-01
        1   -1    0    0  501    0  0.00000000000E+00  0.00000000000E+00  0.99486197225E+03  0.99486197226E+03  0.50400001928E-02 0. -1.
       -1   -1    0    0    0  501  0.00000000000E+00  0.00000000000E+00 -0.57354578429E+03  0.57354578431E+03  0.50400001928E-02 0.  1.
    10030    2    1    2    0    0  0.00000000000E+00  0.00000000000E+00  0.42131618796E+03  0.15684077566E+04  0.15107599282E+04 0.  0.
        3    1    3    3  502    0  0.30694313885E+03 -0.32988237732E+03  0.84006146942E+03  0.95327842521E+03  0.10100000352E+00 0. -1.
       -3    1    3    3    0  502 -0.30694313885E+03  0.32988237732E+03 -0.41874528146E+03  0.61512933136E+03  0.10100000352E+00 0.  1.
</event>
<event>
 5   0  0.1097156E-03  0.1489855E+04  0.7818609E-02  0.8891228E-01
        2   -1    0    0  501    0  0.00000000000E+00  0.00000000000E+00  0.91519998628E+03  0.91519998628E+03  0.25500000920E-02 0. -1.
       -2   -1    0    0    0  501  0.00000000000E+00  0.00000000000E+00 -0.60633392432E+03  0.60633392432E+03  0.25500000920E-02 0.  1.
    10030    2    1    2    0    0  0.00000000000E+00  0.00000000000E+00  0.30886606196E+03  0.15215339106E+04  0.14898547570E+04 0.  0.
        2    1    3    3  502    0 -0.88203090010E+01 -0.42730044830E+03  0.77753195127E+03  0.88725385670E+03  0.25500000920E-02 0. -1.
       -2    1    3    3    0  502  0.88203090010E+01  0.42730044830E+03 -0.46866588932E+03  0.63428005390E+03  0.25500000920E-02 0.  1.
</event>
<event>
 5   0  0.6146552E-04  0.1501603E+04  0.7818609E-02  0.8883388E-01
       -1   -1    0    0    0  501  0.00000000000E+00  0.00000000000E+00  0.99804920748E+03  0.99804920750E+03  0.50400001928E-02 0.  1.
        1   -1    0    0  501    0  0.00000000000E+00  0.00000000000E+00 -0.56480474785E+03  0.56480474787E+03  0.50400001928E-02 0. -1.
    10030    2    1    2    0    0  0.00000000000E+00  0.00000000000E+00  0.43324445964E+03  0.15628539554E+04  0.15016030514E+04 0.  0.
        5    1    3    3  502    0  0.42307819393E+02 -0.71329862599E+03 -0.23202515040E+02  0.71494428323E+03  0.46999998093E+01 0.  1.
       -5    1    3    3    0  502 -0.42307819393E+02  0.71329862599E+03  0.45644697468E+03  0.84790967214E+03  0.46999998093E+01 0. -1.
</event>
<event>
 5   0  0.1126175E-03  0.1585249E+04  0.7818609E-02  0.8829662E-01
        2   -1    0    0  501    0  0.00000000000E+00  0.00000000000E+00  0.96575160101E+03  0.96575160101E+03  0.25500000920E-02 0.  1.
       -2   -1    0    0    0  501  0.00000000000E+00  0.00000000000E+00 -0.65053321260E+03  0.65053321261E+03  0.25500000920E-02 0. -1.
    10030    2    1    2    0    0  0.00000000000E+00  0.00000000000E+00  0.31521838841E+03  0.16162848136E+04  0.15852488657E+04 0.  0.
        3    1    3    3  502    0  0.70576207565E+03 -0.28337217912E+03  0.38525970311E+03  0.85254029135E+03  0.10100000352E+00 0. -1.
       -3    1    3    3    0  502 -0.70576207565E+03  0.28337217912E+03 -0.70041314706E+02  0.76374452227E+03  0.10100000352E+00 0.  1.
</event>
<event>
 5   0  0.1126175E-03  0.1481141E+04  0.7818609E-02  0.8897092E-01
        2   -1    0    0  501    0  0.00000000000E+00  0.00000000000E+00  0.13386704316E+04  0.13386704316E+04  0.25500000920E-02 0.  1.
       -2   -1    0    0    0  501  0.00000000000E+00  0.00000000000E+00 -0.40969334258E+03  0.40969334259E+03  0.25500000920E-02 0. -1.
    10030    2    1    2    0    0  0.00000000000E+00  0.00000000000E+00  0.92897708905E+03  0.17483637742E+04  0.14811405926E+04 0.  0.
        3    1    3    3  502    0  0.20689777481E+03 -0.39511584825E+03 -0.23337776601E+03  0.50337701042E+03  0.10100000352E+00 0. -1.
       -3    1    3    3    0  502 -0.20689777481E+03  0.39511584825E+03  0.11623548551E+04  0.12449867638E+04  0.10100000352E+00 0.  1.
</event>
<event>
 5   0  0.1097156E-03  0.1494876E+04  0.7818609E-02  0.8887868E-01
       -2   -1    0    0    0  501  0.00000000000E+00  0.00000000000E+00  0.95321465154E+03  0.95321465154E+03  0.25500000920E-02 0.  1.
        2   -1    0    0  501    0  0.00000000000E+00  0.00000000000E+00 -0.58608349009E+03  0.58608349010E+03  0.25500000920E-02 0. -1.
    10030    2    1    2    0    0  0.00000000000E+00  0.00000000000E+00  0.36713116145E+03  0.15392981416E+04  0.14948757404E+04 0.  0.
        2    1    3    3  502    0 -0.66478533311E+03 -0.18156974986E+03 -0.11444129228E+03  0.69857277543E+03  0.25500000920E-02 0.  1.
       -2    1    3    3    0  502  0.66478533311E+03  0.18156974986E+03  0.48157245373E+03  0.84072536621E+03  0.25500000920E-02 0. -1.
</event>
<event>
 5   0  0.5606965E-04  0.1497516E+04  0.7818609E-02  0.8886106E-01
        1   -1    0    0  501    0  0.00000000000E+00  0.00000000000E+00  0.71801688696E+03  0.71801688698E+03  0.50400001928E-02 0. -1.
       -1   -1    0    0    0  501  0.00000000000E+00  0.00000000000E+00 -0.78081551632E+03  0.78081551633E+03  0.50400001928E-02 0.  1.
    10030    2    1    2    0    0  0.00000000000E+00  0.00000000000E+00 -0.62798629351E+02  0.14988324033E+04  0.14975162454E+04 0.  0.
        4    1    3    3  502    0  0.31615719515E+02  0.73567694897E+03  0.10442915752E+03  0.74372521055E+03  0.12699999809E+01 0. -1.
       -4    1    3    3    0  502 -0.31615719515E+02 -0.73567694897E+03 -0.16722778687E+03  0.75510719277E+03  0.12699999809E+01 0.  1.
</event>
<event>
 5   0  0.1149716E-03  0.1476971E+04  0.7818609E-02  0.8899913E-01
        2   -1    0    0  501    0  0.00000000000E+00  0.00000000000E+00  0.10931372772E+04  0.10931372772E+04  0.25500000920E-02 0. -1.
       -2   -1    0    0    0  501  0.00000000000E+00  0.00000000000E+00 -0.49889506372E+03  0.49889506373E+03  0.25500000920E-02 0.  1.
    10030    2    1    2    0    0  0.00000000000E+00  0.00000000000E+00  0.59424221343E+03  0.15920323409E+04  0.14769709429E+04 0.  0.
        1    1    3    3  502    0 -0.57669361856E+02  0.65462839193E+03  0.66025899242E+03  0.93156106827E+03  0.50400001928E-02 0. -1.
       -1    1    3    3    0  502  0.57669361856E+02 -0.65462839193E+03 -0.66016778990E+02  0.66047127262E+03  0.50400001928E-02 0.  1.
</event>
<event>
 5   0  0.1097156E-03  0.1483920E+04  0.7818609E-02  0.8895217E-01
        2   -1    0    0  501    0  0.00000000000E+00  0.00000000000E+00  0.34820813650E+03  0.34820813651E+03  0.25500000920E-02 0.  1.
       -2   -1    0    0    0  501  0.00000000000E+00  0.00000000000E+00 -0.15809650150E+04  0.15809650150E+04  0.25500000920E-02 0. -1.
    10030    2    1    2    0    0  0.00000000000E+00  0.00000000000E+00 -0.12327568785E+04  0.19291731515E+04  0.14839203237E+04 0.  0.
        2    1    3    3  502    0  0.37669538431E+03  0.26811597264E+03 -0.13707661893E+04  0.14466463054E+04  0.25500000920E-02 0. -1.
       -2    1    3    3    0  502 -0.37669538431E+03 -0.26811597264E+03  0.13800931075E+03  0.48252684610E+03  0.25500000920E-02 0.  1.
</event>
<event>
 5   0  0.1149716E-03  0.1482400E+04  0.7818609E-02  0.8896241E-01
       -2   -1    0    0    0  501  0.00000000000E+00  0.00000000000E+00  0.10156221008E+04  0.10156221008E+04  0.25500000920E-02 0.  1.
        2   -1    0    0  501    0  0.00000000000E+00  0.00000000000E+00 -0.54092737918E+03  0.54092737919E+03  0.25500000920E-02 0. -1.
    10030    2    1    2    0    0  0.00000000000E+00  0.00000000000E+00  0.47469472159E+03  0.15565494800E+04  0.14824004873E+04 0.  0.
        1    1    3    3  502    0  0.13834597324E+03  0.39314741488E+03  0.88092737391E+03  0.97454478413E+03  0.50400001928E-02 0.  1.
       -1    1    3    3    0  502 -0.13834597324E+03 -0.39314741488E+03 -0.40623265232E+03  0.58200469583E+03  0.50400001928E-02 0. -1.
</event>
<event>
 5   0  0.1126175E-03  0.1495122E+04  0.7818609E-02  0.8887703E-01
       -2   -1    0    0    0  501  0.00000000000E+00  0.00000000000E+00  0.21190549514E+03  0.21190549516E+03  0.25500000920E-02 0. -1.
        2   -1    0    0  501    0  0.00000000000E+00  0.00000000000E+00 -0.26372485663E+04  0.26372485663E+04  0.25500000920E-02 0.  1.
    10030    2    1    2    0    0  0.00000000000E+00  0.00000000000E+00 -0.24253430711E+04  0.28491540614E+04  0.14951220195E+04 0.  0.
        3    1    3    3  502    0  0.14150072861E+03 -0.18258075543E+03  0.14219109405E+03  0.27124989563E+03  0.10100000352E+00 0. -1.
       -3    1    3    3    0  502 -0.14150072861E+03  0.18258075543E+03 -0.25675341652E+04  0.25779041658E+04  0.10100000352E+00 0.  1.
</event>
<event>
 5   0  0.5914645E-04  0.1489768E+04  0.7818609E-02  0.8891286E-01
        1   -1    0    0  501    0  0.00000000000E+00  0.00000000000E+00  0.12271744751E+04  0.12271744751E+04  0.50400001928E-02 0.  1.
       -1   -1    0    0    0  501  0.00000000000E+00  0.00000000000E+00 -0.45213804457E+03  0.45213804460E+03  0.50400001928E-02 0. -1.
    10030    2    1    2    0    0  0.00000000000E+00  0.00000000000E+00  0.77503643055E+03  0.16793125197E+04  0.14897681263E+04 0.  0.
        2    1    3    3  502    0 -0.13283552975E+03  0.25681659326E+03  0.11613375116E+04  0.11967893952E+04  0.25500000920E-02 0.  1.
       -2    1    3    3    0  502  0.13283552975E+03 -0.25681659326E+03 -0.38630108104E+03  0.48252312458E+03  0.25500000920E-02 0. -1.
</event>
<event>
 5   0  0.1126175E-03  0.1512285E+04  0.7818609E-02  0.8876325E-01
        2   -1    0    0  501    0  0.00000000000E+00  0.00000000000E+00  0.17659007327E+04  0.17659007327E+04  0.25500000920E-02 0.  1.
       -2   -1    0    0    0  501  0.00000000000E+00  0.00000000000E+00 -0.32377316826E+03  0.32377316827E+03  0.25500000920E-02 0. -1.
    10030    2    1    2    0    0  0.00000000000E+00  0.00000000000E+00  0.14421275645E+04  0.20896739010E+04  0.15122847286E+04 0.  0.
        3    1    3    3  502    0 -0.50980045785E+03  0.52403273690E+03  0.45439282048E+03  0.86080175515E+03  0.10100000352E+00 0. -1.
       -3    1    3    3    0  502  0.50980045785E+03 -0.52403273690E+03  0.98773474398E+03  0.12288721458E+04  0.10100000352E+00 0.  1.
</event>
<event>
 5   0  0.1147755E-03  0.1511431E+04  0.7818609E-02  0.8876887E-01
       -2   -1    0    0    0  501  0.00000000000E+00  0.00000000000E+00  0.46939482846E+03  0.46939482847E+03  0.25500000920E-02 0.  1.
        2   -1    0    0  501    0  0.00000000000E+00  0.00000000000E+00 -0.12166858315E+04  0.12166858315E+04  0.25500000920E-02 0. -1.
    10030    2    1    2    0    0  0.00000000000E+00  0.00000000000E+00 -0.74729100299E+03  0.16860806599E+04  0.15114311591E+04 0.  0.
        4    1    3    3  502    0 -0.64222097384E+03  0.98993376166E+02 -0.80404776165E+03  0.10337997309E+04  0.12699999809E+01 0. -1.
       -4    1    3    3    0  502  0.64222097384E+03 -0.98993376166E+02  0.56756758660E+02  0.65228092899E+03  0.12699999809E+01 0.  1.
</event>
<event>
 5   0  0.5924403E-04  0.1318176E+04  0.7818609E-02  0.9015274E-01
        1   -1    0    0  501    0  0.00000000000E+00  0.00000000000E+00  0.56512713447E+03  0.56512713450E+03  0.50400001928E-02 0.  1.
       -1   -1    0    0    0  501  0.00000000000E+00  0.00000000000E+00 -0.76867165724E+03  0.76867165726E+03  0.50400001928E-02 0. -1.
    10030    2    1    2    0    0  0.00000000000E+00  0.00000000000E+00 -0.20354452277E+03  0.13337987918E+04  0.13181763327E+04 0.  0.
        1    1    3    3  502    0  0.12000936422E+03 -0.60996593193E+02  0.55106758020E+03  0.56727269444E+03  0.50400001928E-02 0.  1.
       -1    1    3    3    0  502 -0.12000936422E+03  0.60996593193E+02 -0.75461210297E+03  0.76652609731E+03  0.50400001928E-02 0. -1.
</event>
<event>
 5   0  0.5914645E-04  0.1496352E+04  0.7818609E-02  0.8886882E-01
       -1   -1    0    0    0  501  0.00000000000E+00  0.00000000000E+00  0.25871169070E+03  0.25871169075E+03  0.50400001928E-02 0. -1.
        1   -1    0    0  501    0  0.00000000000E+00  0.00000000000E+00 -0.21636735379E+04  0.21636735379E+04  0.50400001928E-02 0.  1.
    10030    2    1    2    0    0  0.00000000000E+00  0.00000000000E+00 -0.19049618472E+04  0.24223852287E+04  0.14963524173E+04 0.  0.
        2    1    3    3  502    0 -0.20636887217E+03 -0.31505586901E+03 -0.19990202388E+04  0.20341903124E+04  0.25500000920E-02 0.  1.
       -2    1    3    3    0  502  0.20636887217E+03  0.31505586901E+03  0.94058391553E+02  0.38819491629E+03  0.25500000920E-02 0. -1.
</event>
<event>
 5   0  0.6146552E-04  0.1498491E+04  0.7818609E-02  0.8885457E-01
        1   -1    0    0  501    0  0.00000000000E+00  0.00000000000E+00  0.51312365511E+03  0.51312365514E+03  0.50400001928E-02 0. -1.
       -1   -1    0    0    0  501  0.00000000000E+00  0.00000000000E+00 -0.10940223481E+04  0.10940223481E+04  0.50400001928E-02 0.  1.
    10030    2    1    2    0    0  0.00000000000E+00  0.00000000000E+00 -0.58089869298E+03  0.16071460032E+04  0.14984909023E+04 0.  0.
        5    1    3    3  502    0  0.25895335725E+03  0.62023474544E+02 -0.10415453470E+04  0.10750546742E+04  0.46999998093E+01 0.  1.
       -5    1    3    3    0  502 -0.25895335725E+03 -0.62023474544E+02  0.46064665401E+03  0.53209132907E+03  0.46999998093E+01 0. -1.
</event>
<event>
 5   0  0.4070625E-04  0.1486783E+04  0.7818609E-02  0.8893290E-01
       -3   -1    0    0    0  501  0.00000000000E+00  0.00000000000E+00  0.62009032330E+03  0.62009033152E+03  0.10100000352E+00 0.  1.
        3   -1    0    0  501    0  0.00000000000E+00  0.00000000000E+00 -0.89121078418E+03  0.89121078990E+03  0.10100000352E+00 0. -1.
    10030    2    1    2    0    0  0.00000000000E+00  0.00000000000E+00 -0.27112046088E+03  0.15113011214E+04  0.14867833653E+04 0.  0.
        3    1    3    3  502    0  0.53744721566E+03 -0.51092207644E+03 -0.18877140273E+03  0.76519639996E+03  0.10100000352E+00 0. -1.
       -3    1    3    3    0  502 -0.53744721566E+03  0.51092207644E+03 -0.82349058158E+02  0.74610472147E+03  0.10100000352E+00 0.  1.
</event>
<event>
 5   0  0.5840834E-04  0.1500982E+04  0.7818609E-02  0.8883800E-01
       -1   -1    0    0    0  501  0.00000000000E+00  0.00000000000E+00  0.99088965583E+03  0.99088965584E+03  0.50400001928E-02 0.  1.
        1   -1    0    0  501    0  0.00000000000E+00  0.00000000000E+00 -0.56841544566E+03  0.56841544568E+03  0.50400001928E-02 0. -1.
    10030    2    1    2    0    0  0.00000000000E+00  0.00000000000E+00  0.42247421017E+03  0.15593051015E+04  0.15009823255E+04 0.  0.
        3    1    3    3  502    0  0.17170647920E+03 -0.53095635817E+03  0.73257247676E+03  0.92090184775E+03  0.10100000352E+00 0. -1.
       -3    1    3    3    0  502 -0.17170647920E+03  0.53095635817E+03 -0.31009826660E+03  0.63840325377E+03  0.10100000352E+00 0.  1.
</event>
<event>
 5   0  0.1147755E-03  0.1514865E+04  0.7818609E-02  0.8874628E-01
        2   -1    0    0  501    0  0.00000000000E+00  0.00000000000E+00  0.16915526176E+04  0.16915526176E+04  0.25500000920E-02 0. -1.
       -2   -1    0    0    0  501  0.00000000000E+00  0.00000000000E+00 -0.33915813495E+03  0.33915813495E+03  0.25500000920E-02 0.  1.
    10030    2    1    2    0    0  0.00000000000E+00  0.00000000000E+00  0.13523944826E+04  0.20307107525E+04  0.15148647873E+04 0.  0.
        4    1    3    3  502    0 -0.12133661395E+03 -0.47054042305E+03 -0.10265843768E+03  0.49666007625E+03  0.12699999809E+01 0.  1.
       -4    1    3    3    0  502  0.12133661395E+03  0.47054042305E+03  0.14550529203E+04  0.15340506763E+04  0.12699999809E+01 0. -1.
</event>
<event>
 5   0  0.5924403E-04  0.1502447E+04  0.7818609E-02  0.8882827E-01
       -1   -1    0    0    0  501  0.00000000000E+00  0.00000000000E+00  0.57684588052E+03  0.57684588054E+03  0.50400001928E-02 0. -1.
        1   -1    0    0  501    0  0.00000000000E+00  0.00000000000E+00 -0.97831506935E+03  0.97831506936E+03  0.50400001928E-02 0.  1.
    10030    2    1    2    0    0  0.00000000000E+00  0.00000000000E+00 -0.40146918883E+03  0.15551609499E+04  0.15024473603E+04 0.  0.
        1    1    3    3  502    0 -0.34318000244E+03  0.27506834433E+03 -0.83111921931E+03  0.94031604520E+03  0.50400001928E-02 0.  1.
       -1    1    3    3    0  502  0.34318000244E+03 -0.27506834433E+03  0.42965003048E+03  0.61484490471E+03  0.50400001928E-02 0. -1.
</event>
<event>
 5   0  0.1082667E-03  0.1527849E+04  0.7818609E-02  0.8866142E-01
       -2   -1    0    0    0  501  0.00000000000E+00  0.00000000000E+00  0.45107035879E+03  0.45107035880E+03  0.25500000920E-02 0. -1.
        2   -1    0    0  501    0  0.00000000000E+00  0.00000000000E+00 -0.12937691052E+04  0.12937691052E+04  0.25500000920E-02 0.  1.
    10030    2    1    2    0    0  0.00000000000E+00  0.00000000000E+00 -0.84269874644E+03  0.17448394640E+04  0.15278493309E+04 0.  0.
        5    1    3    3  502    0  0.26561151346E+03 -0.22005755022E+03 -0.11997569828E+04  0.12483644137E+04  0.46999998093E+01 0.  1.
       -5    1    3    3    0  502 -0.26561151346E+03  0.22005755022E+03  0.35705823637E+03  0.49647505038E+03  0.46999998093E+01 0. -1.
</event>
<event>
 5   0  0.1082667E-03  0.1520071E+04  0.7818609E-02  0.8871214E-01
        2   -1    0    0  501    0  0.00000000000E+00  0.00000000000E+00  0.55588584198E+03  0.55588584199E+03  0.25500000920E-02 0. -1.
       -2   -1    0    0    0  501  0.00000000000E+00  0.00000000000E+00 -0.10391599443E+04  0.10391599443E+04  0.25500000920E-02 0.  1.
    10030    2    1    2    0    0  0.00000000000E+00  0.00000000000E+00 -0.48327410229E+03  0.15950457863E+04  0.15200714465E+04 0.  0.
        5    1    3    3  502    0  0.42007027153E+03  0.42713512633E+03 -0.73238907559E+03  0.94621313520E+03  0.46999998093E+01 0.  1.
       -5    1    3    3    0  502 -0.42007027153E+03 -0.42713512633E+03  0.24911497330E+03  0.64883265107E+03  0.46999998093E+01 0. -1.
</event>
<event>
 5   0  0.1082667E-03  0.1470297E+04  0.7818609E-02  0.8904449E-01
       -2   -1    0    0    0  501  0.00000000000E+00  0.00000000000E+00  0.39325803232E+03  0.39325803233E+03  0.25500000920E-02 0. -1.
        2   -1    0    0  501    0  0.00000000000E+00  0.00000000000E+00 -0.13742722859E+04  0.13742722859E+04  0.25500000920E-02 0.  1.
    10030    2    1    2    0    0  0.00000000000E+00  0.00000000000E+00 -0.98101425355E+03  0.17675303182E+04  0.14702974053E+04 0.  0.
        5    1    3    3  502    0  0.38257546361E+03  0.62689639239E+03 -0.45139625960E+03  0.86205785498E+03  0.46999998093E+01 0. -1.
       -5    1    3    3    0  502 -0.38257546361E+03 -0.62689639239E+03 -0.52961799395E+03  0.90547246322E+03  0.46999998093E+01 0.  1.
</event>
<event>
 5   0  0.1097156E-03  0.1489201E+04  0.7818609E-02  0.8891666E-01
       -2   -1    0    0    0  501  0.00000000000E+00  0.00000000000E+00  0.12320488533E+04  0.12320488533E+04  0.25500000920E-02 0. -1.
        2   -1    0    0  501    0  0.00000000000E+00  0.00000000000E+00 -0.45000652963E+03  0.45000652963E+03  0.25500000920E-02 0.  1.
    10030    2    1    2    0    0  0.00000000000E+00  0.00000000000E+00  0.78204232367E+03  0.16820553829E+04  0.14892011668E+04 0.  0.
        2    1    3    3  502    0 -0.31568905702E+03 -0.43328325562E+03  0.97469722900E+03  0.11123977025E+04  0.25500000920E-02 0. -1.
       -2    1    3    3    0  502  0.31568905702E+03  0.43328325562E+03 -0.19265490532E+03  0.56965768043E+03  0.25500000920E-02 0.  1.
</event>
<event>
 5   0  0.5606965E-04  0.1503683E+04  0.7818609E-02  0.8882007E-01
       -1   -1    0    0    0  501  0.00000000000E+00  0.00000000000E+00  0.59031428260E+03  0.59031428262E+03  0.50400001928E-02 0.  1.
        1   -1    0    0  501    0  0.00000000000E+00  0.00000000000E+00 -0.95756736038E+03  0.95756736039E+03  0.50400001928E-02 0. -1.
    10030    2    1    2    0    0  0.00000000000E+00  0.00000000000E+00 -0.36725307778E+03  0.15478816430E+04  0.15036830642E+04 0.  0.
        4    1    3    3  502    0  0.10902262774E+03  0.35949024138E+03 -0.85403358623E+03  0.93300275794E+03  0.12699999809E+01 0. -1.
       -4    1    3    3    0  502 -0.10902262774E+03 -0.35949024138E+03  0.48678050845E+03  0.61487888508E+03  0.12699999809E+01 0.  1.
</event>
<event>
 5   0  0.1149716E-03  0.1501606E+04  0.7818609E-02  0.8883385E-01
       -2   -1    0    0    0  501  0.00000000000E+00  0.00000000000E+00  0.76671251713E+03  0.76671251713E+03  0.25500000920E-02 0. -1.
        2   -1    0    0  501    0  0.00000000000E+00  0.00000000000E+00 -0.73522407963E+03  0.73522407963E+03  0.25500000920E-02 0.  1.
    10030    2    1    2    0    0  0.00000000000E+00  0.00000000000E+00  0.31488437503E+02  0.15019365968E+04  0.15016064794E+04 0.  0.
        1    1    3    3  502    0  0.41144817718E+03 -0.53365182734E+03  0.34692368390E+03  0.75791155012E+03  0.50400001928E-02 0. -1.
       -1    1    3    3    0  502 -0.41144817718E+03  0.53365182734E+03 -0.31543524640E+03  0.74402504664E+03  0.50400001928E-02 0.  1.
</event>
<event>
 5   0  0.1082667E-03  0.1524986E+04  0.7818609E-02  0.8868005E-01
        2   -1    0    0  501    0  0.00000000000E+00  0.00000000000E+00  0.17209250300E+04  0.17209250300E+04  0.25500000920E-02 0.  1.
       -2   -1    0    0    0  501  0.00000000000E+00  0.00000000000E+00 -0.33783909530E+03  0.33783909531E+03  0.25500000920E-02 0. -1.
    10030    2    1    2    0    0  0.00000000000E+00  0.00000000000E+00  0.13830859347E+04  0.20587641253E+04  0.15249862363E+04 0.  0.
        5    1    3    3  502    0 -0.14734663787E+03 -0.39776908206E+03 -0.16382362296E+03  0.45474338233E+03  0.46999998093E+01 0. -1.
       -5    1    3    3    0  502  0.14734663787E+03  0.39776908206E+03  0.15469095577E+04  0.16040207430E+04  0.46999998093E+01 0.  1.
</event>
<event>
 5   0  0.1147755E-03  0.1566197E+04  0.7818609E-02  0.8841588E-01
        2   -1    0    0  501    0  0.00000000000E+00  0.00000000000E+00  0.24114969179E+03  0.24114969180E+03  0.25500000920E-02 0. -1.
       -2   -1    0    0    0  501  0.00000000000E+00  0.00000000000E+00 -0.25429971138E+04  0.25429971138E+04  0.25500000920E-02 0.  1.
    10030    2    1    2    0    0  0.00000000000E+00  0.00000000000E+00 -0.23018474220E+04  0.27841468056E+04  0.15661966291E+04 0.  0.
        4    1    3    3  502    0 -0.48785164481E+03 -0.21583470652E+03 -0.21700256468E+04  0.22346357127E+04  0.12699999809E+01 0.  1.
       -4    1    3    3    0  502  0.48785164481E+03  0.21583470652E+03 -0.13182177521E+03  0.54951109288E+03  0.12699999809E+01 0. -1.
</event>
<event>
 5   0  0.1082667E-03  0.1489877E+04  0.7818609E-02  0.8891213E-01
        2   -1    0    0  501    0  0.00000000000E+00  0.00000000000E+00  0.86361104833E+03  0.86361104833E+03  0.25500000920E-02 0. -1.
       -2   -1    0    0    0  501  0.00000000000E+00  0.00000000000E+00 -0.64257303874E+03  0.64257303874E+03  0.25500000920E-02 0.  1.
    10030    2    1    2    0    0  0.00000000000E+00  0.00000000000E+00  0.22103800959E+03  0.15061840871E+04  0.14898767407E+04 0.  0.
        5    1    3    3  502    0 -0.29471879230E+03  0.30717941298E+03 -0.50747610380E+03  0.66239900680E+03  0.46999998093E+01 0.  1.
       -5    1    3    3    0  502  0.29471879230E+03 -0.30717941298E+03  0.72851411339E+03  0.84378508027E+03  0.46999998093E+01 0. -1.
</event>
<event>
 5   0  0.1082667E-03  0.1483380E+04  0.7818609E-02  0.8895581E-01
        2   -1    0    0  501    0  0.00000000000E+00  0.00000000000E+00  0.13633039865E+04  0.13633039865E+04  0.25500000920E-02 0.  1.
       -2   -1    0    0    0  501  0.00000000000E+00  0.00000000000E+00 -0.40350822091E+03  0.40350822092E+03  0.25500000920E-02 0. -1.
    10030    2    1    2    0    0  0.00000000000E+00  0.00000000000E+00  0.95979576555E+03  0.17668122074E+04  0.14833804180E+04 0.  0.
        5    1    3    3  502    0  0.43043725116E+03 -0.45431460640E+03  0.58509775832E+01  0.62588682101E+03  0.46999998093E+01 0. -1.
       -5    1    3    3    0  502 -0.43043725116E+03  0.45431460640E+03  0.95394478797E+03  0.11409253864E+04  0.46999998093E+01 0.  1.
</event>
<event>
 5   0  0.5606965E-04  0.1492912E+04  0.7818609E-02  0.8889180E-01
        1   -1    0    0  501    0  0.00000000000E+00  0.00000000000E+00  0.93564989556E+03  0.93564989557E+03  0.50400001928E-02 0. -1.
       -1   -1    0    0    0  501  0.00000000000E+00  0.00000000000E+00 -0.59551798509E+03  0.59551798511E+03  0.50400001928E-02 0.  1.
    10030    2    1    2    0    0  0.00000000000E+00  0.00000000000E+00  0.34013191047E+03  0.15311678807E+04  0.14929117061E+04 0.  0.
        4    1    3    3  502    0  0.69331571163E+03 -0.20233479929E+03  0.36349539108E+03  0.80855213761E+03  0.12699999809E+01 0. -1.
       -4    1    3    3    0  502 -0.69331571163E+03  0.20233479929E+03 -0.23363480609E+02  0.72261574307E+03  0.12699999809E+01 0.  1.
</event>
<event>
 5   0  0.5840834E-04  0.1483725E+04  0.7818609E-02  0.8895348E-01
        1   -1    0    0  501    0  0.00000000000E+00  0.00000000000E+00  0.89990808314E+03  0.89990808315E+03  0.50400001928E-02 0.  1.
       -1   -1    0    0    0  501  0.00000000000E+00  0.00000000000E+00 -0.61157375534E+03  0.61157375536E+03  0.50400001928E-02 0. -1.
    10030    2    1    2    0    0  0.00000000000E+00  0.00000000000E+00  0.28833432780E+03  0.15114818385E+04  0.14837252655E+04 0.  0.
        3    1    3    3  502    0 -0.24099656825E+03  0.59974012521E+03 -0.22677745156E+03  0.68497852991E+03  0.10100000352E+00 0. -1.
       -3    1    3    3    0  502  0.24099656825E+03 -0.59974012521E+03  0.51511177936E+03  0.82650330861E+03  0.10100000352E+00 0.  1.
</event>
<event>
 5   0  0.6146552E-04  0.1593523E+04  0.7818609E-02  0.8824537E-01
        1   -1    0    0  501    0  0.00000000000E+00  0.00000000000E+00  0.79297040716E+03  0.79297040717E+03  0.50400001928E-02 0.  1.
       -1   -1    0    0    0  501  0.00000000000E+00  0.00000000000E+00 -0.80057082821E+03  0.80057082823E+03  0.50400001928E-02 0. -1.
    10030    2    1    2    0    0  0.00000000000E+00  0.00000000000E+00 -0.76004210547E+01  0.15935412354E+04  0.15935231101E+04 0.  0.
        5    1    3    3  502    0 -0.18357988669E+02  0.26135089735E+03 -0.75624851967E+03  0.80035943225E+03  0.46999998093E+01 0. -1.
       -5    1    3    3    0  502  0.18357988669E+02 -0.26135089735E+03  0.74864809861E+03  0.79318180315E+03  0.46999998093E+01 0.  1.
</event>
<event>
 5   0  0.1149716E-03  0.1503472E+04  0.7818609E-02  0.8882147E-01
        2   -1    0    0  501    0  0.00000000000E+00  0.00000000000E+00  0.68929238107E+03  0.68929238107E+03  0.25500000920E-02 0. -1.
       -2   -1    0    0    0  501  0.00000000000E+00  0.00000000000E+00 -0.81983666852E+03  0.81983666852E+03  0.25500000920E-02 0.  1.
    10030    2    1    2    0    0  0.00000000000E+00  0.00000000000E+00 -0.13054428745E+03  0.15091290496E+04  0.15034722070E+04 0.  0.
        1    1    3    3  502    0  0.41752273960E+03 -0.78447877213E+02 -0.68778932900E+03  0.80841416900E+03  0.50400001928E-02 0.  1.
       -1    1    3    3    0  502 -0.41752273960E+03  0.78447877213E+02  0.55724504155E+03  0.70071488059E+03  0.50400001928E-02 0. -1.
</event>
<event>
 5   0  0.1082667E-03  0.1501371E+04  0.7818609E-02  0.8883542E-01
       -2   -1    0    0    0  501  0.00000000000E+00  0.00000000000E+00  0.70962927302E+03  0.70962927302E+03  0.25500000920E-02 0. -1.
        2   -1    0    0  501    0  0.00000000000E+00  0.00000000000E+00 -0.79411700000E+03  0.79411700001E+03  0.25500000920E-02 0.  1.
    10030    2    1    2    0    0  0.00000000000E+00  0.00000000000E+00 -0.84487726985E+02  0.15037462730E+04  0.15013709327E+04 0.  0.
        5    1    3    3  502    0  0.10433861224E+02  0.27108201802E+03 -0.74328856537E+03  0.79126121310E+03  0.46999998093E+01 0.  1.
       -5    1    3    3    0  502 -0.10433861224E+02 -0.27108201802E+03  0.65880083839E+03  0.71248505992E+03  0.46999998093E+01 0. -1.
</event>
<event>
 5   0  0.6146552E-04  0.1500502E+04  0.7818609E-02  0.8884119E-01
       -1   -1    0    0    0  501  0.00000000000E+00  0.00000000000E+00  0.30083829027E+03  0.30083829031E+03  0.50400001928E-02 0.  1.
        1   -1    0    0  501    0  0.00000000000E+00  0.00000000000E+00 -0.18710258146E+04  0.18710258146E+04  0.50400001928E-02 0. -1.
    10030    2    1    2    0    0  0.00000000000E+00  0.00000000000E+00 -0.15701875243E+04  0.21718641049E+04  0.15005015257E+04 0.  0.
        5    1    3    3  502    0 -0.17365773610E+03 -0.69290955983E+03 -0.45321501346E+03  0.84599444788E+03  0.46999998093E+01 0. -1.
       -5    1    3    3    0  502  0.17365773610E+03  0.69290955983E+03 -0.11169725109E+04  0.13258696570E+04  0.46999998093E+01 0.  1.
</event>
<event>
 5   0  0.5924403E-04  0.1508487E+04  0.7818609E-02  0.8878829E-01
        1   -1    0    0  501    0  0.00000000000E+00  0.00000000000E+00  0.17803120686E+04  0.17803120686E+04  0.50400001928E-02 0.  1.
       -1   -1    0    0    0  501  0.00000000000E+00  0.00000000000E+00 -0.31954131427E+03  0.31954131431E+03  0.50400001928E-02 0. -1.
    10030    2    1    2    0    0  0.00000000000E+00  0.00000000000E+00  0.14607707543E+04  0.20998533829E+04  0.15084870013E+04 0.  0.
        1    1    3    3  502    0  0.37886102195E+03  0.30254748336E+03  0.15346496295E+04  0.16094160863E+04  0.50400001928E-02 0.  1.
       -1    1    3    3    0  502 -0.37886102195E+03 -0.30254748336E+03 -0.73878875174E+02  0.49043729657E+03  0.50400001928E-02 0. -1.
</event>
<event>
 5   0  0.1147755E-03  0.1507860E+04  0.7818609E-02  0.8879243E-01
        2   -1    0    0  501    0  0.00000000000E+00  0.00000000000E+00  0.12933457439E+04  0.12933457439E+04  0.25500000920E-02 0.  1.
       -2   -1    0    0    0  501  0.00000000000E+00  0.00000000000E+00 -0.43948818347E+03  0.43948818347E+03  0.25500000920E-02 0. -1.
    10030    2    1    2    0    0  0.00000000000E+00  0.00000000000E+00  0.85385756047E+03  0.17328339274E+04  0.15078596375E+04 0.  0.
        4    1    3    3  502    0 -0.11281505904E+03  0.99109568402E+02 -0.42212678049E+03  0.44804305129E+03  0.12699999809E+01 0. -1.
       -4    1    3    3    0  502  0.11281505904E+03 -0.99109568402E+02  0.12759843410E+04  0.12847908761E+04  0.12699999809E+01 0.  1.
</event>
<event>
 5   0  0.5924403E-04  0.1555018E+04  0.7818609E-02  0.8848669E-01
       -1   -1    0    0    0  501  0.00000000000E+00  0.00000000000E+00  0.11509058589E+04  0.11509058589E+04  0.50400001928E-02 0. -1.
        1   -1    0    0  501    0  0.00000000000E+00  0.00000000000E+00 -0.52525603149E+03  0.52525603152E+03  0.50400001928E-02 0.  1.
    10030    2    1    2    0    0  0.00000000000E+00  0.00000000000E+00  0.62564982745E+03  0.16761618905E+04  0.15550179988E+04 0.  0.
        1    1    3    3  502    0  0.51984801558E+03 -0.11609939027E+03  0.92334111233E+03  0.10659642759E+04  0.50400001928E-02 0. -1.
       -1    1    3    3    0  502 -0.51984801558E+03  0.11609939027E+03 -0.29769128488E+03  0.61019761458E+03  0.50400001928E-02 0.  1.
</event>
<event>
 5   0  0.1147755E-03  0.1511154E+04  0.7818609E-02  0.8877070E-01
       -2   -1    0    0    0  501  0.00000000000E+00  0.00000000000E+00  0.51126675055E+03  0.51126675056E+03  0.25500000920E-02 0. -1.
        2   -1    0    0  501    0  0.00000000000E+00  0.00000000000E+00 -0.11166310463E+04  0.11166310463E+04  0.25500000920E-02 0.  1.
    10030    2    1    2    0    0  0.00000000000E+00  0.00000000000E+00 -0.60536429576E+03  0.16278977969E+04  0.15111536343E+04 0.  0.
        4    1    3    3  502    0  0.33438190863E+02  0.74790252814E+03 -0.19272607323E+03  0.77305967196E+03  0.12699999809E+01 0. -1.
       -4    1    3    3    0  502 -0.33438190863E+02 -0.74790252814E+03 -0.41263822254E+03  0.85483812492E+03  0.12699999809E+01 0.  1.
</event>
<event>
 5   0  0.1149716E-03  0.1488495E+04  0.7818609E-02  0.8892140E-01
       -2   -1    0    0    0  501  0.00000000000E+00  0.00000000000E+00  0.22228919620E+03  0.22228919622E+03  0.25500000920E-02 0. -1.
        2   -1    0    0  501    0  0.00000000000E+00  0.00000000000E+00 -0.24918177344E+04  0.24918177344E+04  0.25500000920E-02 0.  1.
    10030    2    1    2    0    0  0.00000000000E+00  0.00000000000E+00 -0.22695285382E+04  0.27141069306E+04  0.14884947582E+04 0.  0.
        1    1    3    3  502    0  0.69334385318E+03 -0.95355251577E+02 -0.67316971113E+03  0.97106940161E+03  0.50400001928E-02 0. -1.
       -1    1    3    3    0  502 -0.69334385318E+03  0.95355251577E+02 -0.15963588270E+04  0.17430375290E+04  0.50400001928E-02 0.  1.
</event>
<event>
 5   0  0.5914645E-04  0.1335059E+04  0.7818609E-02  0.9002216E-01
        1   -1    0    0  501    0  0.00000000000E+00  0.00000000000E+00  0.10753683626E+04  0.10753683627E+04  0.50400001928E-02 0. -1.
       -1   -1    0    0    0  501  0.00000000000E+00  0.00000000000E+00 -0.41436535133E+03  0.41436535136E+03  0.50400001928E-02 0.  1.
    10030    2    1    2    0    0  0.00000000000E+00  0.00000000000E+00  0.66100301132E+03  0.14897337140E+04  0.13350586346E+04 0.  0.
        2    1    3    3  502    0 -0.60010470497E+02 -0.43198699075E+03 -0.23339955945E+03  0.49466086474E+03  0.25500000920E-02 0.  1.
       -2    1    3    3    0  502  0.60010470497E+02  0.43198699075E+03  0.89440257077E+03  0.99507284927E+03  0.25500000920E-02 0. -1.
</event>
<event>
 5   0  0.5924403E-04  0.1603323E+04  0.7818609E-02  0.8818509E-01
        1   -1    0    0  501    0  0.00000000000E+00  0.00000000000E+00  0.82551141629E+03  0.82551141631E+03  0.50400001928E-02 0.  1.
       -1   -1    0    0    0  501  0.00000000000E+00  0.00000000000E+00 -0.77850059537E+03  0.77850059539E+03  0.50400001928E-02 0. -1.
    10030    2    1    2    0    0  0.00000000000E+00  0.00000000000E+00  0.47010820920E+02  0.16040120117E+04  0.16033229607E+04 0.  0.
        1    1    3    3  502    0 -0.49134017941E+02  0.76165306268E+03 -0.22181740827E+03  0.79481601786E+03  0.50400001928E-02 0. -1.
       -1    1    3    3    0  502  0.49134017941E+02 -0.76165306268E+03  0.26882822919E+03  0.80919599384E+03  0.50400001928E-02 0.  1.
</event>
<event>
 5   0  0.4070625E-04  0.1504914E+04  0.7818609E-02  0.8881191E-01
        3   -1    0    0  501    0  0.00000000000E+00  0.00000000000E+00  0.60410893498E+03  0.60410894342E+03  0.10100000352E+00 0. -1.
       -3   -1    0    0    0  501  0.00000000000E+00  0.00000000000E+00 -0.93723462338E+03  0.93723462882E+03  0.10100000352E+00 0.  1.
    10030    2    1    2    0    0  0.00000000000E+00  0.00000000000E+00 -0.33312568840E+03  0.15413435722E+04  0.15049143774E+04 0.  0.
        1    1    3    3  502    0  0.41397547866E+03  0.43846782139E+03  0.29440088326E+03  0.67104516049E+03  0.50400001928E-02 0. -1.
       -1    1    3    3    0  502 -0.41397547866E+03 -0.43846782139E+03 -0.62752657166E+03  0.87029841175E+03  0.50400001928E-02 0.  1.
</event>
<event>
 5   0  0.1147755E-03  0.1503978E+04  0.7818609E-02  0.8881812E-01
       -2   -1    0    0    0  501  0.00000000000E+00  0.00000000000E+00  0.39286263176E+03  0.39286263177E+03  0.25500000920E-02 0. -1.
        2   -1    0    0  501    0  0.00000000000E+00  0.00000000000E+00 -0.14394022891E+04  0.14394022891E+04  0.25500000920E-02 0.  1.
    10030    2    1    2    0    0  0.00000000000E+00  0.00000000000E+00 -0.10465396573E+04  0.18322649209E+04  0.15039778874E+04 0.  0.
        4    1    3    3  502    0  0.60559078954E+03 -0.30865825917E+03 -0.13137831191E+03  0.69229473425E+03  0.12699999809E+01 0. -1.
       -4    1    3    3    0  502 -0.60559078954E+03  0.30865825917E+03 -0.91516134543E+03  0.11399701866E+04  0.12699999809E+01 0.  1.
</event>
<event>
 5   0  0.5606965E-04  0.1497009E+04  0.7818609E-02  0.8886444E-01
       -1   -1    0    0    0  501  0.00000000000E+00  0.00000000000E+00  0.70107855331E+03  0.70107855333E+03  0.50400001928E-02 0.  1.
        1   -1    0    0  501    0  0.00000000000E+00  0.00000000000E+00 -0.79913866907E+03  0.79913866908E+03  0.50400001928E-02 0. -1.
    10030    2    1    2    0    0  0.00000000000E+00  0.00000000000E+00 -0.98060115758E+02  0.15002172224E+04  0.14970089940E+04 0.  0.
        4    1    3    3  502    0  0.24755106374E+03 -0.70629618031E+03 -0.60078459230E+02  0.75083077830E+03  0.12699999809E+01 0. -1.
       -4    1    3    3    0  502 -0.24755106374E+03  0.70629618031E+03 -0.37981656528E+02  0.74938644411E+03  0.12699999809E+01 0.  1.
</event>
<event>
 5   0  0.1147755E-03  0.1533593E+04  0.7818609E-02  0.8862416E-01
       -2   -1    0    0    0  501  0.00000000000E+00  0.00000000000E+00  0.58725571186E+03  0.58725571186E+03  0.25500000920E-02 0.  1.
        2   -1    0    0  501    0  0.00000000000E+00  0.00000000000E+00 -0.10012284341E+04  0.10012284341E+04  0.25500000920E-02 0. -1.
    10030    2    1    2    0    0  0.00000000000E+00  0.00000000000E+00 -0.41397272220E+03  0.15884841459E+04  0.15335933187E+04 0.  0.
        4    1    3    3  502    0 -0.53273951049E+03  0.51832908484E+03 -0.40214204808E+03  0.84510133473E+03  0.12699999809E+01 0.  1.
       -4    1    3    3    0  502  0.53273951049E+03 -0.51832908484E+03 -0.11830674117E+02  0.74338281119E+03  0.12699999809E+01 0. -1.
</event>
<event>
 5   0  0.5914645E-04  0.1512683E+04  0.7818609E-02  0.8876063E-01
        1   -1    0    0  501    0  0.00000000000E+00  0.00000000000E+00  0.47361479873E+03  0.47361479876E+03  0.50400001928E-02 0. -1.
       -1   -1    0    0    0  501  0.00000000000E+00  0.00000000000E+00 -0.12078425323E+04  0.12078425323E+04  0.50400001928E-02 0.  1.
    10030    2    1    2    0    0  0.00000000000E+00  0.00000000000E+00 -0.73422773356E+03  0.16814573311E+04  0.15126825151E+04 0.  0.
        2    1    3    3  502    0 -0.59083134743E+03  0.26181123519E+03 -0.80392860421E+03  0.10314688578E+04  0.25500000920E-02 0.  1.
       -2    1    3    3    0  502  0.59083134743E+03 -0.26181123519E+03  0.69700870648E+02  0.64998847324E+03  0.25500000920E-02 0. -1.
</event>
<event>
 5   0  0.1149716E-03  0.1510795E+04  0.7818609E-02  0.8877306E-01
       -2   -1    0    0    0  501  0.00000000000E+00  0.00000000000E+00  0.76725534564E+03  0.76725534564E+03  0.25500000920E-02 0. -1.
        2   -1    0    0  501    0  0.00000000000E+00  0.00000000000E+00 -0.74372283140E+03  0.74372283140E+03  0.25500000920E-02 0.  1.
    10030    2    1    2    0    0  0.00000000000E+00  0.00000000000E+00  0.23532514238E+02  0.15109781770E+04  0.15107949140E+04 0.  0.
        1    1    3    3  502    0  0.45736692497E+03 -0.15584827432E+03 -0.56895220225E+03  0.74644477166E+03  0.50400001928E-02 0.  1.
       -1    1    3    3    0  502 -0.45736692497E+03  0.15584827432E+03  0.59248471649E+03  0.76453340539E+03  0.50400001928E-02 0. -1.
</event>
<event>
 5   0  0.5840834E-04  0.1478476E+04  0.7818609E-02  0.8898894E-01
        1   -1    0    0  501    0  0.00000000000E+00  0.00000000000E+00  0.10247603698E+04  0.10247603699E+04  0.50400001928E-02 0. -1.
       -1   -1    0    0    0  501  0.00000000000E+00  0.00000000000E+00 -0.53326880041E+03  0.53326880044E+03  0.50400001928E-02 0.  1.
    10030    2    1    2    0    0  0.00000000000E+00  0.00000000000E+00  0.49149156943E+03  0.15580291703E+04  0.14784758817E+04 0.  0.
        3    1    3    3  502    0 -0.13970145063E+03 -0.56836776540E+03 -0.23012078192E+03  0.62889903524E+03  0.10100000352E+00 0.  1.
       -3    1    3    3    0  502  0.13970145063E+03  0.56836776540E+03  0.72161235135E+03  0.92913013506E+03  0.10100000352E+00 0. -1.
</event>
<event>
 5   0  0.5924403E-04  0.1516072E+04  0.7818609E-02  0.8873835E-01
        1   -1    0    0  501    0  0.00000000000E+00  0.00000000000E+00  0.13154437343E+04  0.13154437343E+04  0.50400001928E-02 0.  1.
       -1   -1    0    0    0  501  0.00000000000E+00  0.00000000000E+00 -0.43682499818E+03  0.43682499821E+03  0.50400001928E-02 0. -1.
    10030    2    1    2    0    0  0.00000000000E+00  0.00000000000E+00  0.87861873616E+03  0.17522687326E+04  0.15160721710E+04 0.  0.
        1    1    3    3  502    0 -0.44652415245E+03  0.41316086573E+03 -0.83402687032E+02  0.61403723659E+03  0.50400001928E-02 0. -1.
       -1    1    3    3    0  502  0.44652415245E+03 -0.41316086573E+03  0.96202142319E+03  0.11382314960E+04  0.50400001928E-02 0.  1.
</event>
<event>
 5   0  0.5840834E-04  0.1481082E+04  0.7818609E-02  0.8897132E-01
       -1   -1    0    0    0  501  0.00000000000E+00  0.00000000000E+00  0.43524310443E+03  0.43524310446E+03  0.50400001928E-02 0.  1.
        1   -1    0    0  501    0  0.00000000000E+00  0.00000000000E+00 -0.12599869153E+04  0.12599869153E+04  0.50400001928E-02 0. -1.
    10030    2    1    2    0    0  0.00000000000E+00  0.00000000000E+00 -0.82474381090E+03  0.16952300198E+04  0.14810815192E+04 0.  0.
        3    1    3    3  502    0 -0.37846181634E+03 -0.30355565952E+03 -0.10527501400E+04  0.11591644630E+04  0.10100000352E+00 0. -1.
       -3    1    3    3    0  502  0.37846181634E+03  0.30355565952E+03  0.22800632910E+03  0.53606555678E+03  0.10100000352E+00 0.  1.
</event>
<event>
 5   0  0.1126175E-03  0.1505611E+04  0.7818609E-02  0.8880730E-01
       -2   -1    0    0    0  501  0.00000000000E+00  0.00000000000E+00  0.56283451825E+03  0.56283451825E+03  0.25500000920E-02 0. -1.
        2   -1    0    0  501    0  0.00000000000E+00  0.00000000000E+00 -0.10068961090E+04  0.10068961090E+04  0.25500000920E-02 0.  1.
    10030    2    1    2    0    0  0.00000000000E+00  0.00000000000E+00 -0.44406159080E+03  0.15697306273E+04  0.15056106887E+04 0.  0.
        3    1    3    3  502    0 -0.25845198870E+03  0.63503210876E+03 -0.54616089529E+03  0.87655857954E+03  0.10100000352E+00 0.  1.
       -3    1    3    3    0  502  0.25845198870E+03 -0.63503210876E+03  0.10209930450E+03  0.69317204776E+03  0.10100000352E+00 0. -1.
</event>
<event>
 5   0  0.1097156E-03  0.1448299E+04  0.7818609E-02  0.8919580E-01
       -2   -1    0    0    0  501  0.00000000000E+00  0.00000000000E+00  0.55791921334E+03  0.55791921335E+03  0.25500000920E-02 0.  1.
        2   -1    0    0  501    0  0.00000000000E+00  0.00000000000E+00 -0.93990793910E+03  0.93990793911E+03  0.25500000920E-02 0. -1.
    10030    2    1    2    0    0  0.00000000000E+00  0.00000000000E+00 -0.38198872576E+03  0.14978271525E+04  0.14482992757E+04 0.  0.
        2    1    3    3  502    0 -0.63521891037E+03 -0.17330813813E+03  0.12073321733E+03  0.66941413535E+03  0.25500000920E-02 0.  1.
       -2    1    3    3    0  502  0.63521891037E+03  0.17330813813E+03 -0.50272194309E+03  0.82841301710E+03  0.25500000920E-02 0. -1.
</event>
<event>
 5   0  0.5606965E-04  0.1155777E+04  0.7818609E-02  0.9152471E-01
        1   -1    0    0  501    0  0.00000000000E+00  0.00000000000E+00  0.85043381459E+03  0.85043381460E+03  0.50400001928E-02 0. -1.
       -1   -1    0    0    0  501  0.00000000000E+00  0.00000000000E+00 -0.39268784902E+03  0.39268784905E+03  0.50400001928E-02 0.  1.
    10030    2    1    2    0    0  0.00000000000E+00  0.00000000000E+00  0.45774596557E+03  0.12431216637E+04  0.11557768390E+04 0.  0.
        4    1    3    3  502    0 -0.47168350627E+03 -0.22029505069E+03  0.49870700914E+03  0.72091992157E+03  0.12699999809E+01 0. -1.
       -4    1    3    3    0  502  0.47168350627E+03  0.22029505069E+03 -0.40961043572E+02  0.52220174209E+03  0.12699999809E+01 0.  1.
</event>
<event>
 5   0  0.1149716E-03  0.1468950E+04  0.7818609E-02  0.8905367E-01
        2   -1    0    0  501    0  0.00000000000E+00  0.00000000000E+00  0.16859563804E+04  0.16859563804E+04  0.25500000920E-02 0. -1.
       -2   -1    0    0    0  501  0.00000000000E+00  0.00000000000E+00 -0.31996890351E+03  0.31996890352E+03  0.25500000920E-02 0.  1.
    10030    2    1    2    0    0  0.00000000000E+00  0.00000000000E+00  0.13659874769E+04  0.20059252839E+04  0.14689501209E+04 0.  0.
        1    1    3    3  502    0 -0.51287648468E+03 -0.11563487211E+03 -0.17361724200E+02  0.52603720560E+03  0.50400001928E-02 0. -1.
       -1    1    3    3    0  502  0.51287648468E+03  0.11563487211E+03  0.13833492011E+04  0.14798880783E+04  0.50400001928E-02 0.  1.
</event>
<event>
 5   0  0.4070625E-04  0.1510996E+04  0.7818609E-02  0.8877173E-01
       -4   -1    0    0    0  501  0.00000000000E+00  0.00000000000E+00  0.10099356509E+04  0.10099364494E+04  0.12699999809E+01 0.  1.
        4   -1    0    0  501    0  0.00000000000E+00  0.00000000000E+00 -0.56516036028E+03  0.56516178722E+03  0.12699999809E+01 0. -1.
    10030    2    1    2    0    0  0.00000000000E+00  0.00000000000E+00  0.44477529063E+03  0.15750982366E+04  0.15109961601E+04 0.  0.
        1    1    3    3  502    0  0.57814410001E+03  0.17530118389E+03  0.69528077682E+03  0.92108439575E+03  0.50400001928E-02 0.  1.
       -1    1    3    3    0  502 -0.57814410001E+03 -0.17530118389E+03 -0.25050548618E+03  0.65401384090E+03  0.50400001928E-02 0. -1.
</event>
<event>
 5   0  0.5606965E-04  0.1488556E+04  0.7818609E-02  0.8892099E-01
       -1   -1    0    0    0  501  0.00000000000E+00  0.00000000000E+00  0.54674059626E+03  0.54674059628E+03  0.50400001928E-02 0.  1.
        1   -1    0    0  501    0  0.00000000000E+00  0.00000000000E+00 -0.10131858378E+04  0.10131858378E+04  0.50400001928E-02 0. -1.
    10030    2    1    2    0    0  0.00000000000E+00  0.00000000000E+00 -0.46644524155E+03  0.15599264341E+04  0.14885561180E+04 0.  0.
        4    1    3    3  502    0 -0.44845165620E+03 -0.59265278862E+03 -0.19127858492E+03  0.76742121795E+03  0.12699999809E+01 0.  1.
       -4    1    3    3    0  502  0.44845165620E+03  0.59265278862E+03 -0.27516665663E+03  0.79250521615E+03  0.12699999809E+01 0. -1.
</event>
<event>
 5   0  0.1149716E-03  0.1529741E+04  0.7818609E-02  0.8864913E-01
       -2   -1    0    0    0  501  0.00000000000E+00  0.00000000000E+00  0.67187161028E+03  0.67187161029E+03  0.25500000920E-02 0. -1.
        2   -1    0    0  501    0  0.00000000000E+00  0.00000000000E+00 -0.87074161042E+03  0.87074161042E+03  0.25500000920E-02 0.  1.
    10030    2    1    2    0    0  0.00000000000E+00  0.00000000000E+00 -0.19887000014E+03  0.15426132207E+04  0.15297405897E+04 0.  0.
        1    1    3    3  502    0 -0.10494428584E+03  0.30333359691E+02  0.66396449497E+03  0.67289097664E+03  0.50400001928E-02 0. -1.
       -1    1    3    3    0  502  0.10494428584E+03 -0.30333359691E+02 -0.86283449511E+03  0.86972224406E+03  0.50400001928E-02 0.  1.
</event>
<event>
 5   0  0.5924403E-04  0.1506705E+04  0.7818609E-02  0.8880007E-01
        1   -1    0    0  501    0  0.00000000000E+00  0.00000000000E+00  0.10216150429E+04  0.10216150430E+04  0.50400001928E-02 0. -1.
       -1   -1    0    0    0  501  0.00000000000E+00  0.00000000000E+00 -0.55553183387E+03  0.55553183390E+03  0.50400001928E-02 0.  1.
    10030    2    1    2    0    0  0.00000000000E+00  0.00000000000E+00  0.46608320908E+03  0.15771468769E+04  0.15067045873E+04 0.  0.
        1    1    3    3  502    0 -0.24535356164E+03 -0.95463928226E+02 -0.50581144793E+03  0.57022535254E+03  0.50400001928E-02 0.  1.
       -1    1    3    3    0  502  0.24535356164E+03  0.95463928226E+02  0.97189465700E+03  0.10069215243E+04  0.50400001928E-02 0. -1.
</event>
<event>
 5   0  0.1149716E-03  0.1502483E+04  0.7818609E-02  0.8882803E-01
       -2   -1    0    0    0  501  0.00000000000E+00  0.00000000000E+00  0.48056823593E+03  0.48056823594E+03  0.25500000920E-02 0. -1.
        2   -1    0    0  501    0  0.00000000000E+00  0.00000000000E+00 -0.11743679072E+04  0.11743679072E+04  0.25500000920E-02 0.  1.
    10030    2    1    2    0    0  0.00000000000E+00  0.00000000000E+00 -0.69379967122E+03  0.16549361431E+04  0.15024831626E+04 0.  0.
        1    1    3    3  502    0  0.31902025068E+00  0.41197403428E+03 -0.10388468540E+04  0.11175533512E+04  0.50400001928E-02 0.  1.
       -1    1    3    3    0  502 -0.31902025068E+00 -0.41197403428E+03  0.34504718275E+03  0.53738279192E+03  0.50400001928E-02 0. -1.
</event>
<event>
 5   0  0.5606965E-04  0.1494262E+04  0.7818609E-02  0.8888278E-01
        1   -1    0    0  501    0  0.00000000000E+00  0.00000000000E+00  0.72168746443E+03  0.72168746445E+03  0.50400001928E-02 0. -1.
       -1   -1    0    0    0  501  0.00000000000E+00  0.00000000000E+00 -0.77347148703E+03  0.77347148705E+03  0.50400001928E-02 0.  1.
    10030    2    1    2    0    0  0.00000000000E+00  0.00000000000E+00 -0.51784022600E+02  0.14951589515E+04  0.14942619266E+04 0.  0.
        4    1    3    3  502    0 -0.36443583464E+03 -0.59054127423E+03 -0.30291664125E+03  0.75717407416E+03  0.12699999809E+01 0.  1.
       -4    1    3    3    0  502  0.36443583464E+03  0.59054127423E+03  0.25113261865E+03  0.73798487734E+03  0.12699999809E+01 0. -1.
</event>
<event>
 5   0  0.1097156E-03  0.1470729E+04  0.7818609E-02  0.8904155E-01
        2   -1    0    0  501    0  0.00000000000E+00  0.00000000000E+00  0.12634611382E+04  0.12634611382E+04  0.25500000920E-02 0. -1.
       -2   -1    0    0    0  501  0.00000000000E+00  0.00000000000E+00 -0.42799967848E+03  0.42799967849E+03  0.25500000920E-02 0.  1.
    10030    2    1    2    0    0  0.00000000000E+00  0.00000000000E+00  0.83546145968E+03  0.16914608166E+04  0.14707290177E+04 0.  0.
        2    1    3    3  502    0  0.28943498485E+03  0.38641012122E+03  0.10556647842E+04  0.11608245039E+04  0.25500000920E-02 0. -1.
       -2    1    3    3    0  502 -0.28943498485E+03 -0.38641012122E+03 -0.22020332454E+03  0.53063631273E+03  0.25500000920E-02 0.  1.
</event>
<event>
 5   0  0.1097156E-03  0.1461356E+04  0.7818609E-02  0.8910565E-01
        2   -1    0    0  501    0  0.00000000000E+00  0.00000000000E+00  0.18883493449E+04  0.18883493449E+04  0.25500000920E-02 0. -1.
       -2   -1    0    0    0  501  0.00000000000E+00  0.00000000000E+00 -0.28272850289E+03  0.28272850290E+03  0.25500000920E-02 0.  1.
    10030    2    1    2    0    0  0.00000000000E+00  0.00000000000E+00  0.16056208420E+04  0.21710778478E+04  0.14613557859E+04 0.  0.
        2    1    3    3  502    0 -0.16552747124E+03 -0.69811187927E+03  0.10082973597E+04  0.12375068102E+04  0.25500000920E-02 0. -1.
       -2    1    3    3    0  502  0.16552747124E+03  0.69811187927E+03  0.59732348229E+03  0.93357103759E+03  0.25500000920E-02 0.  1.
</event>
<event>
 5   0  0.5606965E-04  0.1465520E+04  0.7818609E-02  0.8907711E-01
        1   -1    0    0  501    0  0.00000000000E+00  0.00000000000E+00  0.57189517880E+03  0.57189517882E+03  0.50400001928E-02 0.  1.
       -1   -1    0    0    0  501  0.00000000000E+00  0.00000000000E+00 -0.93887378338E+03  0.93887378340E+03  0.50400001928E-02 0. -1.
    10030    2    1    2    0    0  0.00000000000E+00  0.00000000000E+00 -0.36697860459E+03  0.15107689622E+04  0.14655202356E+04 0.  0.
        4    1    3    3  502    0  0.92692997453E+02  0.72583437752E+03 -0.22352447869E+03  0.76510936528E+03  0.12699999809E+01 0.  1.
       -4    1    3    3    0  502 -0.92692997453E+02 -0.72583437752E+03 -0.14345412590E+03  0.74565959693E+03  0.12699999809E+01 0. -1.
</event>
<event>
 5   0  0.6146552E-04  0.1499586E+04  0.7818609E-02  0.8884728E-01
        1   -1    0    0  501    0  0.00000000000E+00  0.00000000000E+00  0.76761640685E+03  0.76761640687E+03  0.50400001928E-02 0. -1.
       -1   -1    0    0    0  501  0.00000000000E+00  0.00000000000E+00 -0.73238365976E+03  0.73238365978E+03  0.50400001928E-02 0.  1.
    10030    2    1    2    0    0  0.00000000000E+00  0.00000000000E+00  0.35232747093E+02  0.15000000666E+04  0.14995862274E+04 0.  0.
        5    1    3    3  502    0  0.45936872857E+03  0.43408346492E+03  0.42111279675E+03  0.75947755786E+03  0.46999998093E+01 0.  1.
       -5    1    3    3    0  502 -0.45936872857E+03 -0.43408346492E+03 -0.38588004965E+03  0.74052250879E+03  0.46999998093E+01 0. -1.
</event>
<event>
 5   0  0.5914645E-04  0.1496162E+04  0.7818609E-02  0.8887009E-01
        1   -1    0    0  501    0  0.00000000000E+00  0.00000000000E+00  0.76089681317E+03  0.76089681318E+03  0.50400001928E-02 0.  1.
       -1   -1    0    0    0  501  0.00000000000E+00  0.00000000000E+00 -0.73548070758E+03  0.73548070759E+03  0.50400001928E-02 0. -1.
    10030    2    1    2    0    0  0.00000000000E+00  0.00000000000E+00  0.25416105592E+02  0.14963775208E+04  0.14961616578E+04 0.  0.
        2    1    3    3  502    0 -0.33329820332E+03  0.41592402782E+03 -0.51229095002E+03  0.73927160552E+03  0.25500000920E-02 0. -1.
       -2    1    3    3    0  502  0.33329820332E+03 -0.41592402782E+03  0.53770705561E+03  0.75710591525E+03  0.25500000920E-02 0.  1.
</event>
<event>
 5   0  0.1126175E-03  0.1500245E+04  0.7818609E-02  0.8884290E-01
        2   -1    0    0  501    0  0.00000000000E+00  0.00000000000E+00  0.21135532906E+04  0.21135532906E+04  0.25500000920E-02 0. -1.
       -2   -1    0    0    0  501  0.00000000000E+00  0.00000000000E+00 -0.26622646197E+03  0.26622646198E+03  0.25500000920E-02 0.  1.
    10030    2    1    2    0    0  0.00000000000E+00  0.00000000000E+00  0.18473268286E+04  0.23797797526E+04  0.15002450663E+04 0.  0.
        3    1    3    3  502    0  0.99138909877E+02 -0.38227715534E+03  0.19352941898E+04  0.19751779561E+04  0.10100000352E+00 0. -1.
       -3    1    3    3    0  502 -0.99138909877E+02  0.38227715534E+03 -0.87967361123E+02  0.40460179655E+03  0.10100000352E+00 0.  1.
</event>
<event>
 5   0  0.5914645E-04  0.1531467E+04  0.7818609E-02  0.8863793E-01
       -1   -1    0    0    0  501  0.00000000000E+00  0.00000000000E+00  0.68274479380E+03  0.68274479381E+03  0.50400001928E-02 0. -1.
        1   -1    0    0  501    0  0.00000000000E+00  0.00000000000E+00 -0.85880954112E+03  0.85880954113E+03  0.50400001928E-02 0.  1.
    10030    2    1    2    0    0  0.00000000000E+00  0.00000000000E+00 -0.17606474732E+03  0.15415543349E+04  0.15314669348E+04 0.  0.
        2    1    3    3  502    0 -0.11592195944E+03 -0.13780598283E+03 -0.83719220278E+03  0.85634057126E+03  0.25500000920E-02 0.  1.
       -2    1    3    3    0  502  0.11592195944E+03  0.13780598283E+03  0.66112745546E+03  0.68521376369E+03  0.25500000920E-02 0. -1.
</event>
<event>
 5   0  0.5924403E-04  0.1509335E+04  0.7818609E-02  0.8878269E-01
       -1   -1    0    0    0  501  0.00000000000E+00  0.00000000000E+00  0.67271495316E+03  0.67271495318E+03  0.50400001928E-02 0.  1.
        1   -1    0    0  501    0  0.00000000000E+00  0.00000000000E+00 -0.84660408127E+03  0.84660408129E+03  0.50400001928E-02 0. -1.
    10030    2    1    2    0    0  0.00000000000E+00  0.00000000000E+00 -0.17388912811E+03  0.15193190345E+04  0.15093352509E+04 0.  0.
        1    1    3    3  502    0 -0.64386104230E+03  0.22559070800E+03 -0.41168510206E+03  0.79682672684E+03  0.50400001928E-02 0. -1.
       -1    1    3    3    0  502  0.64386104230E+03 -0.22559070800E+03  0.23779597395E+03  0.72249230763E+03  0.50400001928E-02 0.  1.
</event>
<event>
 5   0  0.1149716E-03  0.1765587E+04  0.7818609E-02  0.8724817E-01
        2   -1    0    0  501    0  0.00000000000E+00  0.00000000000E+00  0.20613896165E+04  0.20613896165E+04  0.25500000920E-02 0. -1.
       -2   -1    0    0    0  501  0.00000000000E+00  0.00000000000E+00 -0.37805783790E+03  0.37805783791E+03  0.25500000920E-02 0.  1.
    10030    2    1    2    0    0  0.00000000000E+00  0.00000000000E+00  0.16833317786E+04  0.24394474544E+04  0.17655871562E+04 0.  0.
        1    1    3    3  502    0 -0.11018899815E+03 -0.14722992440E+03  0.20346315621E+04  0.20429253191E+04  0.50400001928E-02 0. -1.
       -1    1    3    3    0  502  0.11018899815E+03  0.14722992440E+03 -0.35129978344E+03  0.39652213535E+03  0.50400001928E-02 0.  1.
</event>
<event>
 5   0  0.4070625E-04  0.1492941E+04  0.7818609E-02  0.8889161E-01
       -3   -1    0    0    0  501  0.00000000000E+00  0.00000000000E+00  0.71094618700E+03  0.71094619417E+03  0.10100000352E+00 0. -1.
        3   -1    0    0  501    0  0.00000000000E+00  0.00000000000E+00 -0.78377004784E+03  0.78377005435E+03  0.10100000352E+00 0.  1.
    10030    2    1    2    0    0  0.00000000000E+00  0.00000000000E+00 -0.72823860848E+02  0.14947162485E+04  0.14929411740E+04 0.  0.
        2    1    3    3  502    0 -0.16553182410E+03 -0.43689130069E+03 -0.61929272094E+03  0.77575657756E+03  0.25500000920E-02 0.  1.
       -2    1    3    3    0  502  0.16553182410E+03  0.43689130069E+03  0.54646886009E+03  0.71895967096E+03  0.25500000920E-02 0. -1.
</event>
<event>
 5   0  0.6146552E-04  0.1509203E+04  0.7818609E-02  0.8878356E-01
        1   -1    0    0  501    0  0.00000000000E+00  0.00000000000E+00  0.15516088882E+04  0.15516088882E+04  0.50400001928E-02 0. -1.
       -1   -1    0    0    0  501  0.00000000000E+00  0.00000000000E+00 -0.36698894455E+03  0.36698894459E+03  0.50400001928E-02 0.  1.
    10030    2    1    2    0    0  0.00000000000E+00  0.00000000000E+00  0.11846199436E+04  0.19185978328E+04  0.15092028469E+04 0.  0.
        5    1    3    3  502    0  0.35075815019E+03 -0.36511014048E+03 -0.11899077057E+03  0.52011305318E+03  0.46999998093E+01 0.  1.
       -5    1    3    3    0  502 -0.35075815019E+03  0.36511014048E+03  0.13036107142E+04  0.13984847796E+04  0.46999998093E+01 0. -1.
</event>
<event>
 5   0  0.1097156E-03  0.1509291E+04  0.7818609E-02  0.8878298E-01
        2   -1    0    0  501    0  0.00000000000E+00  0.00000000000E+00  0.19508852654E+04  0.19508852654E+04  0.25500000920E-02 0. -1.
       -2   -1    0    0    0  501  0.00000000000E+00  0.00000000000E+00 -0.29191358033E+03  0.29191358034E+03  0.25500000920E-02 0.  1.
    10030    2    1    2    0    0  0.00000000000E+00  0.00000000000E+00  0.16589716851E+04  0.22427988458E+04  0.15092910954E+04 0.  0.
        2    1    3    3  502    0 -0.31298850576E+03 -0.48767924370E+03  0.11112288098E+03  0.59003486689E+03  0.25500000920E-02 0.  1.
       -2    1    3    3    0  502  0.31298850576E+03  0.48767924370E+03  0.15478488041E+04  0.16527639789E+04  0.25500000920E-02 0. -1.
</event>
<event>
 5   0  0.1097156E-03  0.1514072E+04  0.7818609E-02  0.8875149E-01
       -2   -1    0    0    0  501  0.00000000000E+00  0.00000000000E+00  0.39332616403E+03  0.39332616404E+03  0.25500000920E-02 0. -1.
        2   -1    0    0  501    0  0.00000000000E+00  0.00000000000E+00 -0.14570695713E+04  0.14570695714E+04  0.25500000920E-02 0.  1.
    10030    2    1    2    0    0  0.00000000000E+00  0.00000000000E+00 -0.10637434073E+04  0.18503957354E+04  0.15140721056E+04 0.  0.
        2    1    3    3  502    0 -0.37779676678E+02 -0.70430835330E+03 -0.19578316940E+03  0.73198948758E+03  0.25500000920E-02 0. -1.
       -2    1    3    3    0  502  0.37779676678E+02  0.70430835330E+03 -0.86796023792E+03  0.11184062478E+04  0.25500000920E-02 0.  1.
</event>
<event>
 5   0  0.5840834E-04  0.1532668E+04  0.7818609E-02  0.8863015E-01
        1   -1    0    0  501    0  0.00000000000E+00  0.00000000000E+00  0.86783990701E+03  0.86783990702E+03  0.50400001928E-02 0.  1.
       -1   -1    0    0    0  501  0.00000000000E+00  0.00000000000E+00 -0.67670028856E+03  0.67670028858E+03  0.50400001928E-02 0. -1.
    10030    2    1    2    0    0  0.00000000000E+00  0.00000000000E+00  0.19113961845E+03  0.15445401956E+04  0.15326676294E+04 0.  0.
        3    1    3    3  502    0  0.11621893175E+03 -0.17337027180E+03 -0.64750452328E+03  0.68031331687E+03  0.10100000352E+00 0. -1.
       -3    1    3    3    0  502 -0.11621893175E+03  0.17337027180E+03  0.83864414173E+03  0.86422687872E+03  0.10100000352E+00 0.  1.
</event>
<event>
 5   0  0.1082667E-03  0.1480894E+04  0.7818609E-02  0.8897258E-01
        2   -1    0    0  501    0  0.00000000000E+00  0.00000000000E+00  0.14938430809E+04  0.14938430809E+04  0.25500000920E-02 0.  1.
       -2   -1    0    0    0  501  0.00000000000E+00  0.00000000000E+00 -0.36701442491E+03  0.36701442492E+03  0.25500000920E-02 0. -1.
    10030    2    1    2    0    0  0.00000000000E+00  0.00000000000E+00  0.11268286560E+04  0.18608575058E+04  0.14808942693E+04 0.  0.
        5    1    3    3  502    0  0.55171338856E+03 -0.48428568943E+03  0.44210696284E+03  0.85697196494E+03  0.46999998093E+01 0.  1.
       -5    1    3    3    0  502 -0.55171338856E+03  0.48428568943E+03  0.68472169312E+03  0.10038855408E+04  0.46999998093E+01 0. -1.
</event>
<event>
 5   0  0.5606965E-04  0.1522262E+04  0.7818609E-02  0.8869783E-01
       -1   -1    0    0    0  501  0.00000000000E+00  0.00000000000E+00  0.12886257541E+04  0.12886257541E+04  0.50400001928E-02 0.  1.
        1   -1    0    0  501    0  0.00000000000E+00  0.00000000000E+00 -0.44956445120E+03  0.44956445123E+03  0.50400001928E-02 0. -1.
    10030    2    1    2    0    0  0.00000000000E+00  0.00000000000E+00  0.83906130292E+03  0.17381902054E+04  0.15222619091E+04 0.  0.
        4    1    3    3  502    0  0.11953162419E+03 -0.46979152789E+03  0.10895592641E+04  0.11925321345E+04  0.12699999809E+01 0.  1.
       -4    1    3    3    0  502 -0.11953162419E+03  0.46979152789E+03 -0.25049796119E+03  0.54565807088E+03  0.12699999809E+01 0. -1.
</event>
<event>
 5   0  0.1097156E-03  0.1222115E+04  0.7818609E-02  0.9093716E-01
        2   -1    0    0  501    0  0.00000000000E+00  0.00000000000E+00  0.11910773231E+04  0.11910773231E+04  0.25500000920E-02 0.  1.
       -2   -1    0    0    0  501  0.00000000000E+00  0.00000000000E+00 -0.31349050405E+03  0.31349050406E+03  0.25500000920E-02 0. -1.
    10030    2    1    2    0    0  0.00000000000E+00  0.00000000000E+00  0.87758681907E+03  0.15045678272E+04  0.12221152653E+04 0.  0.
        2    1    3    3  502    0  0.13674883721E+03 -0.98874377450E+02 -0.28423551301E+03  0.33055440378E+03  0.25500000920E-02 0. -1.
       -2    1    3    3    0  502 -0.13674883721E+03  0.98874377450E+02  0.11618223321E+04  0.11740134234E+04  0.25500000920E-02 0.  1.
</event>
<event>
 5   0  0.6146552E-04  0.1495631E+04  0.7818609E-02  0.8887363E-01
        1   -1    0    0  501    0  0.00000000000E+00  0.00000000000E+00  0.12954282059E+04  0.12954282059E+04  0.50400001928E-02 0.  1.
       -1   -1    0    0    0  501  0.00000000000E+00  0.00000000000E+00 -0.43169354211E+03  0.43169354214E+03  0.50400001928E-02 0. -1.
    10030    2    1    2    0    0  0.00000000000E+00  0.00000000000E+00  0.86373466377E+03  0.17271217480E+04  0.14956309582E+04 0.  0.
        5    1    3    3  502    0 -0.28237394182E+02  0.31087376581E+03 -0.35284324710E+03  0.47112662387E+03  0.46999998093E+01 0. -1.
       -5    1    3    3    0  502  0.28237394182E+02 -0.31087376581E+03  0.12165779109E+04  0.12559951242E+04  0.46999998093E+01 0.  1.
</event>
<event>
 5   0  0.4070625E-04  0.1470994E+04  0.7818609E-02  0.8903974E-01
       -3   -1    0    0    0  501  0.00000000000E+00  0.00000000000E+00  0.45717129334E+03  0.45717130450E+03  0.10100000352E+00 0. -1.
        3   -1    0    0  501    0  0.00000000000E+00  0.00000000000E+00 -0.11832668824E+04  0.11832668867E+04  0.10100000352E+00 0.  1.
    10030    2    1    2    0    0  0.00000000000E+00  0.00000000000E+00 -0.72609558906E+03  0.16404381912E+04  0.14709937643E+04 0.  0.
        4    1    3    3  502    0 -0.19478888714E+03 -0.99606226263E+02  0.42004298590E+03  0.47360514542E+03  0.12699999809E+01 0. -1.
       -4    1    3    3    0  502  0.19478888714E+03  0.99606226263E+02 -0.11461385750E+04  0.11668330458E+04  0.12699999809E+01 0.  1.
</event>
<event>
 5   0  0.5914645E-04  0.1538309E+04  0.7818609E-02  0.8859370E-01
        1   -1    0    0  501    0  0.00000000000E+00  0.00000000000E+00  0.10404400663E+04  0.10404400663E+04  0.50400001928E-02 0. -1.
       -1   -1    0    0    0  501  0.00000000000E+00  0.00000000000E+00 -0.56860398993E+03  0.56860398996E+03  0.50400001928E-02 0.  1.
    10030    2    1    2    0    0  0.00000000000E+00  0.00000000000E+00  0.47183607634E+03  0.16090440562E+04  0.15383086465E+04 0.  0.
        2    1    3    3  502    0 -0.21324931225E+03 -0.73288039728E+03  0.33520061535E+03  0.83363565089E+03  0.25500000920E-02 0.  1.
       -2    1    3    3    0  502  0.21324931225E+03  0.73288039728E+03  0.13663546099E+03  0.77540840536E+03  0.25500000920E-02 0. -1.
</event>
<event>
 5   0  0.6146552E-04  0.1536847E+04  0.7818609E-02  0.8860313E-01
        1   -1    0    0  501    0  0.00000000000E+00  0.00000000000E+00  0.11040271020E+04  0.11040271020E+04  0.50400001928E-02 0. -1.
       -1   -1    0    0    0  501  0.00000000000E+00  0.00000000000E+00 -0.53483683395E+03  0.53483683398E+03  0.50400001928E-02 0.  1.
    10030    2    1    2    0    0  0.00000000000E+00  0.00000000000E+00  0.56919026803E+03  0.16388639360E+04  0.15368465894E+04 0.  0.
        5    1    3    3  502    0 -0.15689594468E+03 -0.64135085278E+03 -0.13456857299E+03  0.67385313285E+03  0.46999998093E+01 0.  1.
       -5    1    3    3    0  502  0.15689594468E+03  0.64135085278E+03  0.70375884102E+03  0.96501080312E+03  0.46999998093E+01 0. -1.
</event>
<event>
 5   0  0.1097156E-03  0.1477333E+04  0.7818609E-02  0.8899668E-01
        2   -1    0    0  501    0  0.00000000000E+00  0.00000000000E+00  0.79377693383E+03  0.79377693384E+03  0.25500000920E-02 0.  1.
       -2   -1    0    0    0  501  0.00000000000E+00  0.00000000000E+00 -0.68738215328E+03  0.68738215328E+03  0.25500000920E-02 0. -1.
    10030    2    1    2    0    0  0.00000000000E+00  0.00000000000E+00  0.10639478055E+03  0.14811590871E+04  0.14773328643E+04 0.  0.
        2    1    3    3  502    0  0.46799462206E+03  0.55305999920E+03 -0.91167796211E+02  0.73020948779E+03  0.25500000920E-02 0. -1.
       -2    1    3    3    0  502 -0.46799462206E+03 -0.55305999920E+03  0.19756257676E+03  0.75094959933E+03  0.25500000920E-02 0.  1.
</event>
<event>
 5   0  0.1097156E-03  0.1486167E+04  0.7818609E-02  0.8893704E-01
       -2   -1    0    0    0  501  0.00000000000E+00  0.00000000000E+00  0.24186173454E+03  0.24186173455E+03  0.25500000920E-02 0.  1.
        2   -1    0    0  501    0  0.00000000000E+00  0.00000000000E+00 -0.22830118605E+04  0.22830118605E+04  0.25500000920E-02 0. -1.
    10030    2    1    2    0    0  0.00000000000E+00  0.00000000000E+00 -0.20411501259E+04  0.25248735950E+04  0.14861671623E+04 0.  0.
        2    1    3    3  502    0  0.28405210981E+03 -0.49838165381E+03 -0.18230380502E+04  0.19111613241E+04  0.25500000920E-02 0. -1.
       -2    1    3    3    0  502 -0.28405210981E+03  0.49838165381E+03 -0.21811207567E+03  0.61371227094E+03  0.25500000920E-02 0.  1.
</event>
<event>
 5   0  0.5606965E-04  0.1497346E+04  0.7818609E-02  0.8886220E-01
        1   -1    0    0  501    0  0.00000000000E+00  0.00000000000E+00  0.10288987163E+04  0.10288987163E+04  0.50400001928E-02 0. -1.
       -1   -1    0    0    0  501  0.00000000000E+00  0.00000000000E+00 -0.54476796474E+03  0.54476796476E+03  0.50400001928E-02 0.  1.
    10030    2    1    2    0    0  0.00000000000E+00  0.00000000000E+00  0.48413075156E+03  0.15736666811E+04  0.14973457311E+04 0.  0.
        4    1    3    3  502    0  0.35838632716E+03  0.62403004124E+03  0.45912379012E+03  0.85361028545E+03  0.12699999809E+01 0. -1.
       -4    1    3    3    0  502 -0.35838632716E+03 -0.62403004124E+03  0.25006961437E+02  0.72005639563E+03  0.12699999809E+01 0.  1.
</event>
<event>
 5   0  0.1147755E-03  0.1489326E+04  0.7818609E-02  0.8891582E-01
        2   -1    0    0  501    0  0.00000000000E+00  0.00000000000E+00  0.20056084850E+04  0.20056084850E+04  0.25500000920E-02 0.  1.
       -2   -1    0    0    0  501  0.00000000000E+00  0.00000000000E+00 -0.27648611467E+03  0.27648611468E+03  0.25500000920E-02 0. -1.
    10030    2    1    2    0    0  0.00000000000E+00  0.00000000000E+00  0.17291223703E+04  0.22820945997E+04  0.14893258845E+04 0.  0.
        4    1    3    3  502    0  0.56019588588E+03  0.10018532066E+03  0.12863454153E+03  0.58344235980E+03  0.12699999809E+01 0. -1.
       -4    1    3    3    0  502 -0.56019588588E+03 -0.10018532066E+03  0.16004878288E+04  0.16986522399E+04  0.12699999809E+01 0.  1.
</event>
<event>
 5   0  0.4070625E-04  0.1526285E+04  0.7818609E-02  0.8867159E-01
       -3   -1    0    0    0  501  0.00000000000E+00  0.00000000000E+00  0.46406188970E+03  0.46406190069E+03  0.10100000352E+00 0. -1.
        3   -1    0    0  501    0  0.00000000000E+00  0.00000000000E+00 -0.12549758470E+04  0.12549758510E+04  0.10100000352E+00 0.  1.
    10030    2    1    2    0    0  0.00000000000E+00  0.00000000000E+00 -0.79091395726E+03  0.17190377517E+04  0.15262850009E+04 0.  0.
        3    1    3    3  502    0  0.68526632114E+03  0.50040082595E+02 -0.76950108640E+03  0.10316132381E+04  0.10100000352E+00 0.  1.
       -3    1    3    3    0  502 -0.68526632114E+03 -0.50040082595E+02 -0.21412870858E+02  0.68742451367E+03  0.10100000352E+00 0. -1.
</event>
<event>
 5   0  0.4070625E-04  0.1508673E+04  0.7818609E-02  0.8878706E-01
       -3   -1    0    0    0  501  0.00000000000E+00  0.00000000000E+00  0.87525840055E+03  0.87525840638E+03  0.10100000352E+00 0.  1.
        3   -1    0    0  501    0  0.00000000000E+00  0.00000000000E+00 -0.65012083048E+03  0.65012083832E+03  0.10100000352E+00 0. -1.
    10030    2    1    2    0    0  0.00000000000E+00  0.00000000000E+00  0.22513757008E+03  0.15253792447E+04  0.15086732299E+04 0.  0.
        4    1    3    3  502    0 -0.59502733715E+03 -0.13494984635E+03 -0.33591161271E+03  0.69649638724E+03  0.12699999809E+01 0. -1.
       -4    1    3    3    0  502  0.59502733715E+03  0.13494984635E+03  0.56104918278E+03  0.82888285746E+03  0.12699999809E+01 0.  1.
</event>
<event>
 5   0  0.5840834E-04  0.1454688E+04  0.7818609E-02  0.8915157E-01
       -1   -1    0    0    0  501  0.00000000000E+00  0.00000000000E+00  0.50108416697E+03  0.50108416700E+03  0.50400001928E-02 0.  1.
        1   -1    0    0  501    0  0.00000000000E+00  0.00000000000E+00 -0.10557697192E+04  0.10557697192E+04  0.50400001928E-02 0. -1.
    10030    2    1    2    0    0  0.00000000000E+00  0.00000000000E+00 -0.55468555220E+03  0.15568538862E+04  0.14546882694E+04 0.  0.
        3    1    3    3  502    0  0.39546908417E+03  0.26381690514E+03 -0.86648999224E+03  0.98833196489E+03  0.10100000352E+00 0. -1.
       -3    1    3    3    0  502 -0.39546908417E+03 -0.26381690514E+03  0.31180444003E+03  0.56852192130E+03  0.10100000352E+00 0.  1.
</event>
<event>
 5   0  0.1097156E-03  0.1509533E+04  0.7818609E-02  0.8878138E-01
       -2   -1    0    0    0  501  0.00000000000E+00  0.00000000000E+00  0.97129588630E+03  0.97129588630E+03  0.25500000920E-02 0. -1.
        2   -1    0    0  501    0  0.00000000000E+00  0.00000000000E+00 -0.58650770371E+03  0.58650770372E+03  0.25500000920E-02 0.  1.
    10030    2    1    2    0    0  0.00000000000E+00  0.00000000000E+00  0.38478818258E+03  0.15578035900E+04  0.15095330668E+04 0.  0.
        2    1    3    3  502    0  0.59627423700E+03  0.45870207888E+03  0.25535279050E+03  0.79445302599E+03  0.25500000920E-02 0. -1.
       -2    1    3    3    0  502 -0.59627423700E+03 -0.45870207888E+03  0.12943539208E+03  0.76335056403E+03  0.25500000920E-02 0.  1.
</event>
<event>
 5   0  0.5924403E-04  0.1481587E+04  0.7818609E-02  0.8896791E-01
        1   -1    0    0  501    0  0.00000000000E+00  0.00000000000E+00  0.39265357479E+03  0.39265357483E+03  0.50400001928E-02 0.  1.
       -1   -1    0    0    0  501  0.00000000000E+00  0.00000000000E+00 -0.13976056846E+04  0.13976056846E+04  0.50400001928E-02 0. -1.
    10030    2    1    2    0    0  0.00000000000E+00  0.00000000000E+00 -0.10049521098E+04  0.17902592594E+04  0.14815868091E+04 0.  0.
        1    1    3    3  502    0 -0.91725078585E+01  0.45816888524E+03 -0.12057792391E+04  0.12899249730E+04  0.50400001928E-02 0. -1.
       -1    1    3    3    0  502  0.91725078585E+01 -0.45816888524E+03  0.20082712935E+03  0.50033428646E+03  0.50400001928E-02 0.  1.
</event>
<event>
 5   0  0.1097156E-03  0.1503091E+04  0.7818609E-02  0.8882400E-01
        2   -1    0    0  501    0  0.00000000000E+00  0.00000000000E+00  0.14328525845E+04  0.14328525845E+04  0.25500000920E-02 0. -1.
       -2   -1    0    0    0  501  0.00000000000E+00  0.00000000000E+00 -0.39419314583E+03  0.39419314584E+03  0.25500000920E-02 0.  1.
    10030    2    1    2    0    0  0.00000000000E+00  0.00000000000E+00  0.10386594387E+04  0.18270457304E+04  0.15030910389E+04 0.  0.
        2    1    3    3  502    0  0.45134384222E+03 -0.86605529123E+02 -0.20348288519E+03  0.50261025274E+03  0.25500000920E-02 0.  1.
       -2    1    3    3    0  502 -0.45134384222E+03  0.86605529123E+02  0.12421423239E+04  0.13244354776E+04  0.25500000920E-02 0. -1.
</event>
<event>
 5   0  0.1097156E-03  0.1479345E+04  0.7818609E-02  0.8898305E-01
       -2   -1    0    0    0  501  0.00000000000E+00  0.00000000000E+00  0.61228317555E+03  0.61228317556E+03  0.25500000920E-02 0. -1.
        2   -1    0    0  501    0  0.00000000000E+00  0.00000000000E+00 -0.89356647394E+03  0.89356647394E+03  0.25500000920E-02 0.  1.
    10030    2    1    2    0    0  0.00000000000E+00  0.00000000000E+00 -0.28128329839E+03  0.15058496495E+04  0.14793454204E+04 0.  0.
        2    1    3    3  502    0  0.28073326947E+03  0.18073571856E+03 -0.81249652210E+03  0.87842311387E+03  0.25500000920E-02 0.  1.
       -2    1    3    3    0  502 -0.28073326947E+03 -0.18073571856E+03  0.53121322372E+03  0.62742653562E+03  0.25500000920E-02 0. -1.
</event>
<event>
 5   0  0.5840834E-04  0.1486782E+04  0.7818609E-02  0.8893291E-01
       -1   -1    0    0    0  501  0.00000000000E+00  0.00000000000E+00  0.48064482011E+03  0.48064482014E+03  0.50400001928E-02 0.  1.
        1   -1    0    0  501    0  0.00000000000E+00  0.00000000000E+00 -0.11497685286E+04  0.11497685286E+04  0.50400001928E-02 0. -1.
    10030    2    1    2    0    0  0.00000000000E+00  0.00000000000E+00 -0.66912370844E+03  0.16304133487E+04  0.14867821463E+04 0.  0.
        3    1    3    3  502    0  0.12761446417E+03  0.33600246395E+03 -0.10481539034E+04  0.11080657574E+04  0.10100000352E+00 0. -1.
       -3    1    3    3    0  502 -0.12761446417E+03 -0.33600246395E+03  0.37903019498E+03  0.52234759131E+03  0.10100000352E+00 0.  1.
</event>
<event>
 5   0  0.5924403E-04  0.1476265E+04  0.7818609E-02  0.8900392E-01
       -1   -1    0    0    0  501  0.00000000000E+00  0.00000000000E+00  0.79716102850E+03  0.79716102852E+03  0.50400001928E-02 0. -1.
        1   -1    0    0  501    0  0.00000000000E+00  0.00000000000E+00 -0.68347500549E+03  0.68347500551E+03  0.50400001928E-02 0.  1.
    10030    2    1    2    0    0  0.00000000000E+00  0.00000000000E+00  0.11368602301E+03  0.14806360340E+04  0.14762650688E+04 0.  0.
        1    1    3    3  502    0  0.16035574765E+03 -0.36413111872E+03  0.68040256048E+03  0.78819609347E+03  0.50400001928E-02 0. -1.
       -1    1    3    3    0  502 -0.16035574765E+03  0.36413111872E+03 -0.56671653747E+03  0.69243994057E+03  0.50400001928E-02 0.  1.
</event>
<event>
 5   0  0.5840834E-04  0.1523760E+04  0.7818609E-02  0.8868805E-01
        1   -1    0    0  501    0  0.00000000000E+00  0.00000000000E+00  0.17680273353E+04  0.17680273353E+04  0.50400001928E-02 0.  1.
       -1   -1    0    0    0  501  0.00000000000E+00  0.00000000000E+00 -0.32831000592E+03  0.32831000596E+03  0.50400001928E-02 0. -1.
    10030    2    1    2    0    0  0.00000000000E+00  0.00000000000E+00  0.14397173294E+04  0.20963373413E+04  0.15237599089E+04 0.  0.
        3    1    3    3  502    0  0.51025052761E+03  0.48887353470E+02  0.14953265475E+04  0.15807425686E+04  0.10100000352E+00 0.  1.
       -3    1    3    3    0  502 -0.51025052761E+03 -0.48887353470E+02 -0.55609218150E+02  0.51559477267E+03  0.10100000352E+00 0. -1.
</event>
<event>
 5   0  0.4070625E-04  0.1184731E+04  0.7818609E-02  0.9126327E-01
       -3   -1    0    0    0  501  0.00000000000E+00  0.00000000000E+00  0.25864167377E+03  0.25864169349E+03  0.10100000352E+00 0. -1.
        3   -1    0    0  501    0  0.00000000000E+00  0.00000000000E+00 -0.13566919192E+04  0.13566919230E+04  0.10100000352E+00 0.  1.
    10030    2    1    2    0    0  0.00000000000E+00  0.00000000000E+00 -0.10980502455E+04  0.16153336165E+04  0.11847313413E+04 0.  0.
        1    1    3    3  502    0  0.57608122834E+03 -0.11530230696E+03 -0.65226059135E+03  0.87784285763E+03  0.50400001928E-02 0.  1.
       -1    1    3    3    0  502 -0.57608122834E+03  0.11530230696E+03 -0.44578965411E+03  0.73749075884E+03  0.50400001928E-02 0. -1.
</event>
<event>
 5   0  0.5606965E-04  0.1490932E+04  0.7818609E-02  0.8890506E-01
        1   -1    0    0  501    0  0.00000000000E+00  0.00000000000E+00  0.20347804635E+04  0.20347804635E+04  0.50400001928E-02 0. -1.
       -1   -1    0    0    0  501  0.00000000000E+00  0.00000000000E+00 -0.27311028016E+03  0.27311028020E+03  0.50400001928E-02 0.  1.
    10030    2    1    2    0    0  0.00000000000E+00  0.00000000000E+00  0.17616701833E+04  0.23078907437E+04  0.14909318730E+04 0.  0.
        4    1    3    3  502    0 -0.34367717396E+03 -0.27343902280E+03 -0.51585816433E+02  0.44220539170E+03  0.12699999809E+01 0.  1.
       -4    1    3    3    0  502  0.34367717396E+03  0.27343902280E+03  0.18132559998E+04  0.18656853520E+04  0.12699999809E+01 0. -1.
</event>
<event>
 5   0  0.5606965E-04  0.1502477E+04  0.7818609E-02  0.8882807E-01
        1   -1    0    0  501    0  0.00000000000E+00  0.00000000000E+00  0.69169842635E+03  0.69169842637E+03  0.50400001928E-02 0. -1.
       -1   -1    0    0    0  501  0.00000000000E+00  0.00000000000E+00 -0.81590383566E+03  0.81590383567E+03  0.50400001928E-02 0.  1.
    10030    2    1    2    0    0  0.00000000000E+00  0.00000000000E+00 -0.12420540930E+03  0.15076022620E+04  0.15024771535E+04 0.  0.
        4    1    3    3  502    0  0.83930493844E+02 -0.74554370268E+03 -0.23526200918E+02  0.75062296490E+03  0.12699999809E+01 0. -1.
       -4    1    3    3    0  502 -0.83930493844E+02  0.74554370268E+03 -0.10067920839E+03  0.75697929714E+03  0.12699999809E+01 0.  1.
</event>
<event>
 5   0  0.1149716E-03  0.1506736E+04  0.7818609E-02  0.8879986E-01
       -2   -1    0    0    0  501  0.00000000000E+00  0.00000000000E+00  0.42598439090E+03  0.42598439090E+03  0.25500000920E-02 0. -1.
        2   -1    0    0  501    0  0.00000000000E+00  0.00000000000E+00 -0.13323570887E+04  0.13323570887E+04  0.25500000920E-02 0.  1.
    10030    2    1    2    0    0  0.00000000000E+00  0.00000000000E+00 -0.90637269781E+03  0.17583414796E+04  0.15067359728E+04 0.  0.
        1    1    3    3  502    0  0.38201105592E+03 -0.51448201548E+03  0.91219474346E+01  0.64086457310E+03  0.50400001928E-02 0. -1.
       -1    1    3    3    0  502 -0.38201105592E+03  0.51448201548E+03 -0.91549464524E+03  0.11174769065E+04  0.50400001928E-02 0.  1.
</event>
<event>
 5   0  0.1126175E-03  0.1526191E+04  0.7818609E-02  0.8867221E-01
       -2   -1    0    0    0  501  0.00000000000E+00  0.00000000000E+00  0.10047708971E+04  0.10047708971E+04  0.25500000920E-02 0.  1.
        2   -1    0    0  501    0  0.00000000000E+00  0.00000000000E+00 -0.57954941076E+03  0.57954941077E+03  0.25500000920E-02 0. -1.
    10030    2    1    2    0    0  0.00000000000E+00  0.00000000000E+00  0.42522148636E+03  0.15843203079E+04  0.15261905273E+04 0.  0.
        3    1    3    3  502    0  0.76715371924E+02  0.70285541225E+03 -0.85418910406E+02  0.71217089190E+03  0.10100000352E+00 0. -1.
       -3    1    3    3    0  502 -0.76715371924E+02 -0.70285541225E+03  0.51064039677E+03  0.87214941600E+03  0.10100000352E+00 0.  1.
</event>
<event>
 5   0  0.4070625E-04  0.1601039E+04  0.7818609E-02  0.8819910E-01
        3   -1    0    0  501    0  0.00000000000E+00  0.00000000000E+00  0.94039264920E+03  0.94039265462E+03  0.10100000352E+00 0.  1.
       -3   -1    0    0    0  501  0.00000000000E+00  0.00000000000E+00 -0.68145122824E+03  0.68145123572E+03  0.10100000352E+00 0. -1.
    10030    2    1    2    0    0  0.00000000000E+00  0.00000000000E+00  0.25894142096E+03  0.16218438903E+04  0.16010393328E+04 0.  0.
        4    1    3    3  502    0 -0.11890202022E+03 -0.21709514706E+03 -0.64171157981E+03  0.68779601471E+03  0.12699999809E+01 0. -1.
       -4    1    3    3    0  502  0.11890202022E+03  0.21709514706E+03  0.90065300077E+03  0.93404787563E+03  0.12699999809E+01 0.  1.
</event>
<event>
 5   0  0.1097156E-03  0.1493759E+04  0.7818609E-02  0.8888613E-01
       -2   -1    0    0    0  501  0.00000000000E+00  0.00000000000E+00  0.77900933127E+03  0.77900933128E+03  0.25500000920E-02 0. -1.
        2   -1    0    0  501    0  0.00000000000E+00  0.00000000000E+00 -0.71607523418E+03  0.71607523418E+03  0.25500000920E-02 0.  1.
    10030    2    1    2    0    0  0.00000000000E+00  0.00000000000E+00  0.62934097098E+02  0.14950845655E+04  0.14937594041E+04 0.  0.
        2    1    3    3  502    0 -0.14732628254E+03  0.34699006573E+03 -0.61387013299E+03  0.72037745622E+03  0.25500000920E-02 0. -1.
       -2    1    3    3    0  502  0.14732628254E+03 -0.34699006573E+03  0.67680423009E+03  0.77470710924E+03  0.25500000920E-02 0.  1.
</event>
<event>
 5   0  0.1147755E-03  0.1536510E+04  0.7818609E-02  0.8860531E-01
        2   -1    0    0  501    0  0.00000000000E+00  0.00000000000E+00  0.11455812084E+04  0.11455812084E+04  0.25500000920E-02 0. -1.
       -2   -1    0    0    0  501  0.00000000000E+00  0.00000000000E+00 -0.51521062676E+03  0.51521062677E+03  0.25500000920E-02 0.  1.
    10030    2    1    2    0    0  0.00000000000E+00  0.00000000000E+00  0.63037058168E+03  0.16607918352E+04  0.15365098274E+04 0.  0.
        4    1    3    3  502    0  0.50213956865E+03  0.34736924805E+03  0.81916619582E+03  0.10216870412E+04  0.12699999809E+01 0. -1.
       -4    1    3    3    0  502 -0.50213956865E+03 -0.34736924805E+03 -0.18879561414E+03  0.63910479400E+03  0.12699999809E+01 0.  1.
</event>
<event>
 5   0  0.5606965E-04  0.1503542E+04  0.7818609E-02  0.8882101E-01
       -1   -1    0    0    0  501  0.00000000000E+00  0.00000000000E+00  0.93672763802E+03  0.93672763803E+03  0.50400001928E-02 0.  1.
        1   -1    0    0  501    0  0.00000000000E+00  0.00000000000E+00 -0.60333395081E+03  0.60333395083E+03  0.50400001928E-02 0. -1.
    10030    2    1    2    0    0  0.00000000000E+00  0.00000000000E+00  0.33339368721E+03  0.15400615889E+04  0.15035419338E+04 0.  0.
        4    1    3    3  502    0  0.45407851336E+03 -0.50611400830E+03 -0.16174602784E+03  0.69892923541E+03  0.12699999809E+01 0. -1.
       -4    1    3    3    0  502 -0.45407851336E+03  0.50611400830E+03  0.49513971506E+03  0.84113235345E+03  0.12699999809E+01 0.  1.
</event>
<event>
 5   0  0.1082667E-03  0.1482236E+04  0.7818609E-02  0.8896352E-01
        2   -1    0    0  501    0  0.00000000000E+00  0.00000000000E+00  0.78639714202E+03  0.78639714202E+03  0.25500000920E-02 0.  1.
       -2   -1    0    0    0  501  0.00000000000E+00  0.00000000000E+00 -0.69844619715E+03  0.69844619715E+03  0.25500000920E-02 0. -1.
    10030    2    1    2    0    0  0.00000000000E+00  0.00000000000E+00  0.87950944869E+02  0.14848433392E+04  0.14822362744E+04 0.  0.
        5    1    3    3  502    0  0.44360326931E+03 -0.58910809576E+03  0.11760164379E+03  0.74678272989E+03  0.46999998093E+01 0.  1.
       -5    1    3    3    0  502 -0.44360326931E+03  0.58910809576E+03 -0.29650698919E+02  0.73806060929E+03  0.46999998093E+01 0. -1.
</event>
<event>
 5   0  0.1126175E-03  0.1479281E+04  0.7818609E-02  0.8898349E-01
       -2   -1    0    0    0  501  0.00000000000E+00  0.00000000000E+00  0.10518996587E+04  0.10518996587E+04  0.25500000920E-02 0.  1.
        2   -1    0    0  501    0  0.00000000000E+00  0.00000000000E+00 -0.52007624150E+03  0.52007624151E+03  0.25500000920E-02 0. -1.
    10030    2    1    2    0    0  0.00000000000E+00  0.00000000000E+00  0.53182341717E+03  0.15719759002E+04  0.14792809347E+04 0.  0.
        3    1    3    3  502    0  0.44915936527E+03 -0.38244263159E+03  0.74003235674E+03  0.94639019495E+03  0.10100000352E+00 0.  1.
       -3    1    3    3    0  502 -0.44915936527E+03  0.38244263159E+03 -0.20820893957E+03  0.62558570523E+03  0.10100000352E+00 0. -1.
</event>
<event>
 5   0  0.5606965E-04  0.1492881E+04  0.7818609E-02  0.8889201E-01
        1   -1    0    0  501    0  0.00000000000E+00  0.00000000000E+00  0.56212154545E+03  0.56212154547E+03  0.50400001928E-02 0. -1.
       -1   -1    0    0    0  501  0.00000000000E+00  0.00000000000E+00 -0.99119793103E+03  0.99119793104E+03  0.50400001928E-02 0.  1.
    10030    2    1    2    0    0  0.00000000000E+00  0.00000000000E+00 -0.42907638558E+03  0.15533194765E+04  0.14928813923E+04 0.  0.
        4    1    3    3  502    0 -0.64553063022E+02 -0.73601990818E+03 -0.10403261611E+03  0.74613457319E+03  0.12699999809E+01 0. -1.
       -4    1    3    3    0  502  0.64553063022E+02  0.73601990818E+03 -0.32504376947E+03  0.80718490333E+03  0.12699999809E+01 0.  1.
</event>
<event>
 5   0  0.5840834E-04  0.1496926E+04  0.7818609E-02  0.8886500E-01
        1   -1    0    0  501    0  0.00000000000E+00  0.00000000000E+00  0.12047156102E+04  0.12047156102E+04  0.50400001928E-02 0. -1.
       -1   -1    0    0    0  501  0.00000000000E+00  0.00000000000E+00 -0.46500355010E+03  0.46500355013E+03  0.50400001928E-02 0.  1.
    10030    2    1    2    0    0  0.00000000000E+00  0.00000000000E+00  0.73971206008E+03  0.16697191603E+04  0.14969262315E+04 0.  0.
        3    1    3    3  502    0  0.27226092165E+02  0.50396730013E+03 -0.24663853468E+03  0.56174271396E+03  0.10100000352E+00 0.  1.
       -3    1    3    3    0  502 -0.27226092165E+02 -0.50396730013E+03  0.98635059477E+03  0.11079764464E+04  0.10100000352E+00 0. -1.
</event>
<event>
 5   0  0.1147755E-03  0.1499549E+04  0.7818609E-02  0.8884753E-01
        2   -1    0    0  501    0  0.00000000000E+00  0.00000000000E+00  0.69678142904E+03  0.69678142905E+03  0.25500000920E-02 0. -1.
       -2   -1    0    0    0  501  0.00000000000E+00  0.00000000000E+00 -0.80679802751E+03  0.80679802751E+03  0.25500000920E-02 0.  1.
    10030    2    1    2    0    0  0.00000000000E+00  0.00000000000E+00 -0.11001659846E+03  0.15035794566E+04  0.14995491090E+04 0.  0.
        4    1    3    3  502    0  0.37084445020E+03 -0.65152313444E+03 -0.42635413015E+02  0.75088440675E+03  0.12699999809E+01 0. -1.
       -4    1    3    3    0  502 -0.37084445020E+03  0.65152313444E+03 -0.67381185447E+02  0.75269504981E+03  0.12699999809E+01 0.  1.
</event>
<event>
 5   0  0.1082667E-03  0.1479804E+04  0.7818609E-02  0.8897995E-01
       -2   -1    0    0    0  501  0.00000000000E+00  0.00000000000E+00  0.10039695819E+04  0.10039695819E+04  0.25500000920E-02 0. -1.
        2   -1    0    0  501    0  0.00000000000E+00  0.00000000000E+00 -0.54529054764E+03  0.54529054765E+03  0.25500000920E-02 0.  1.
    10030    2    1    2    0    0  0.00000000000E+00  0.00000000000E+00  0.45867903426E+03  0.15492601296E+04  0.14798042075E+04 0.  0.
        5    1    3    3  502    0 -0.47620956778E+03 -0.39442580049E+03 -0.19603836496E+03  0.64869129412E+03  0.46999998093E+01 0.  1.
       -5    1    3    3    0  502  0.47620956778E+03  0.39442580049E+03  0.65471739922E+03  0.90056883544E+03  0.46999998093E+01 0. -1.
</event>
<event>
 5   0  0.1097156E-03  0.1498758E+04  0.7818609E-02  0.8885279E-01
       -2   -1    0    0    0  501  0.00000000000E+00  0.00000000000E+00  0.11433438575E+04  0.11433438575E+04  0.25500000920E-02 0. -1.
        2   -1    0    0  501    0  0.00000000000E+00  0.00000000000E+00 -0.49116391791E+03  0.49116391792E+03  0.25500000920E-02 0.  1.
    10030    2    1    2    0    0  0.00000000000E+00  0.00000000000E+00  0.65217993961E+03  0.16345077754E+04  0.14987584843E+04 0.  0.
        2    1    3    3  502    0  0.61592156658E+03 -0.35720027805E+03  0.58096223098E+03  0.91894968777E+03  0.25500000920E-02 0. -1.
       -2    1    3    3    0  502 -0.61592156658E+03  0.35720027805E+03  0.71217708634E+02  0.71555808768E+03  0.25500000920E-02 0.  1.
</event>
<event>
 5   0  0.1097156E-03  0.1474179E+04  0.7818609E-02  0.8901807E-01
       -2   -1    0    0    0  501  0.00000000000E+00  0.00000000000E+00  0.32929643265E+03  0.32929643266E+03  0.25500000920E-02 0.  1.
        2   -1    0    0  501    0  0.00000000000E+00  0.00000000000E+00 -0.16498847737E+04  0.16498847737E+04  0.25500000920E-02 0. -1.
    10030    2    1    2    0    0  0.00000000000E+00  0.00000000000E+00 -0.13205883410E+04  0.19791812063E+04  0.14741793246E+04 0.  0.
        2    1    3    3  502    0 -0.19207961030E+03  0.46131067604E+03 -0.13877599494E+04  0.14749846757E+04  0.25500000920E-02 0. -1.
       -2    1    3    3    0  502  0.19207961030E+03 -0.46131067604E+03  0.67171608333E+02  0.50419653062E+03  0.25500000920E-02 0.  1.
</event>
<event>
 5   0  0.1147755E-03  0.1510239E+04  0.7818609E-02  0.8877673E-01
       -2   -1    0    0    0  501  0.00000000000E+00  0.00000000000E+00  0.67222153216E+03  0.67222153217E+03  0.25500000920E-02 0. -1.
        2   -1    0    0  501    0  0.00000000000E+00  0.00000000000E+00 -0.84823986947E+03  0.84823986947E+03  0.25500000920E-02 0.  1.
    10030    2    1    2    0    0  0.00000000000E+00  0.00000000000E+00 -0.17601833730E+03  0.15204614016E+04  0.15102385304E+04 0.  0.
        4    1    3    3  502    0 -0.11469785481E+03  0.15924668238E+03 -0.82211460677E+03  0.84521544195E+03  0.12699999809E+01 0.  1.
       -4    1    3    3    0  502  0.11469785481E+03 -0.15924668238E+03  0.64609626947E+03  0.67524595968E+03  0.12699999809E+01 0. -1.
</event>
<event>
 5   0  0.1082667E-03  0.1498992E+04  0.7818609E-02  0.8885123E-01
        2   -1    0    0  501    0  0.00000000000E+00  0.00000000000E+00  0.76194002565E+03  0.76194002566E+03  0.25500000920E-02 0. -1.
       -2   -1    0    0    0  501  0.00000000000E+00  0.00000000000E+00 -0.73725538018E+03  0.73725538018E+03  0.25500000920E-02 0.  1.
    10030    2    1    2    0    0  0.00000000000E+00  0.00000000000E+00  0.24684645475E+02  0.14991954058E+04  0.14989921725E+04 0.  0.
        5    1    3    3  502    0 -0.31357223887E+03  0.49995139622E+03 -0.44971960703E+03  0.74198973208E+03  0.46999998093E+01 0.  1.
       -5    1    3    3    0  502  0.31357223887E+03 -0.49995139622E+03  0.47440425251E+03  0.75720567375E+03  0.46999998093E+01 0. -1.
</event>
<event>
 5   0  0.4070625E-04  0.1506936E+04  0.7818609E-02  0.8879854E-01
       -4   -1    0    0    0  501  0.00000000000E+00  0.00000000000E+00  0.53491757691E+03  0.53491908453E+03  0.12699999809E+01 0.  1.
        4   -1    0    0  501    0  0.00000000000E+00  0.00000000000E+00 -0.10613077474E+04  0.10613085073E+04  0.12699999809E+01 0. -1.
    10030    2    1    2    0    0  0.00000000000E+00  0.00000000000E+00 -0.52639017050E+03  0.15962275918E+04  0.15069359353E+04 0.  0.
        2    1    3    3  502    0 -0.12763976135E+03  0.27956089166E+03  0.46551283920E+03  0.55780678043E+03  0.25500000920E-02 0.  1.
       -2    1    3    3    0  502  0.12763976135E+03 -0.27956089166E+03 -0.99190300971E+03  0.10384208114E+04  0.25500000920E-02 0. -1.
</event>
<event>
 5   0  0.1126175E-03  0.1513307E+04  0.7818609E-02  0.8875652E-01
        2   -1    0    0  501    0  0.00000000000E+00  0.00000000000E+00  0.20803906516E+04  0.20803906516E+04  0.25500000920E-02 0.  1.
       -2   -1    0    0    0  501  0.00000000000E+00  0.00000000000E+00 -0.27520057871E+03  0.27520057872E+03  0.25500000920E-02 0. -1.
    10030    2    1    2    0    0  0.00000000000E+00  0.00000000000E+00  0.18051900728E+04  0.23555912303E+04  0.15133072540E+04 0.  0.
        3    1    3    3  502    0  0.20217761473E+03 -0.47102242961E+02  0.20351967336E+04  0.20457566238E+04  0.10100000352E+00 0.  1.
       -3    1    3    3    0  502 -0.20217761473E+03  0.47102242961E+02 -0.23000666074E+03  0.30983460648E+03  0.10100000352E+00 0. -1.
</event>
<event>
 5   0  0.5924403E-04  0.1500552E+04  0.7818609E-02  0.8884086E-01
        1   -1    0    0  501    0  0.00000000000E+00  0.00000000000E+00  0.59005392334E+03  0.59005392336E+03  0.50400001928E-02 0.  1.
       -1   -1    0    0    0  501  0.00000000000E+00  0.00000000000E+00 -0.95400435779E+03  0.95400435780E+03  0.50400001928E-02 0. -1.
    10030    2    1    2    0    0  0.00000000000E+00  0.00000000000E+00 -0.36395043445E+03  0.15440582812E+04  0.15005519174E+04 0.  0.
        1    1    3    3  502    0  0.35714551700E+03  0.34616044350E+03  0.39603534256E+03  0.63578610046E+03  0.50400001928E-02 0.  1.
       -1    1    3    3    0  502 -0.35714551700E+03 -0.34616044350E+03 -0.75998577701E+03  0.90827218070E+03  0.50400001928E-02 0. -1.
</event>
<event>
 5   0  0.5924403E-04  0.1632136E+04  0.7818609E-02  0.8801046E-01
        1   -1    0    0  501    0  0.00000000000E+00  0.00000000000E+00  0.11259510115E+04  0.11259510115E+04  0.50400001928E-02 0.  1.
       -1   -1    0    0    0  501  0.00000000000E+00  0.00000000000E+00 -0.59147034201E+03  0.59147034203E+03  0.50400001928E-02 0. -1.
    10030    2    1    2    0    0  0.00000000000E+00  0.00000000000E+00  0.53448066950E+03  0.17174213536E+04  0.16321355702E+04 0.  0.
        1    1    3    3  502    0  0.13655114909E+03 -0.73993007570E+03  0.59969917681E+03  0.96217557438E+03  0.50400001928E-02 0.  1.
       -1    1    3    3    0  502 -0.13655114909E+03  0.73993007570E+03 -0.65218507304E+02  0.75524577918E+03  0.50400001928E-02 0. -1.
</event>
<event>
 5   0  0.1097156E-03  0.1518120E+04  0.7818609E-02  0.8872492E-01
       -2   -1    0    0    0  501  0.00000000000E+00  0.00000000000E+00  0.49610237492E+03  0.49610237492E+03  0.25500000920E-02 0.  1.
        2   -1    0    0  501    0  0.00000000000E+00  0.00000000000E+00 -0.11613975920E+04  0.11613975920E+04  0.25500000920E-02 0. -1.
    10030    2    1    2    0    0  0.00000000000E+00  0.00000000000E+00 -0.66529521706E+03  0.16574999669E+04  0.15181200264E+04 0.  0.
        2    1    3    3  502    0  0.11486067055E+03 -0.69567727721E+03 -0.25749190334E+02  0.70556563725E+03  0.25500000920E-02 0.  1.
       -2    1    3    3    0  502 -0.11486067055E+03  0.69567727721E+03 -0.63954602673E+03  0.95193432965E+03  0.25500000920E-02 0. -1.
</event>
<event>
 5   0  0.1147755E-03  0.1553967E+04  0.7818609E-02  0.8849338E-01
       -2   -1    0    0    0  501  0.00000000000E+00  0.00000000000E+00  0.61451822715E+03  0.61451822716E+03  0.25500000920E-02 0. -1.
        2   -1    0    0  501    0  0.00000000000E+00  0.00000000000E+00 -0.98240129382E+03  0.98240129382E+03  0.25500000920E-02 0.  1.
    10030    2    1    2    0    0  0.00000000000E+00  0.00000000000E+00 -0.36788306667E+03  0.15969195210E+04  0.15539671830E+04 0.  0.
        4    1    3    3  502    0 -0.69291040473E+03 -0.11474166358E+03  0.15752501547E+03  0.71979595841E+03  0.12699999809E+01 0. -1.
       -4    1    3    3    0  502  0.69291040473E+03  0.11474166358E+03 -0.52540808214E+03  0.87712356257E+03  0.12699999809E+01 0.  1.
</event>
<event>
 5   0  0.6146552E-04  0.1646373E+04  0.7818609E-02  0.8792555E-01
        1   -1    0    0  501    0  0.00000000000E+00  0.00000000000E+00  0.91147136094E+03  0.91147136096E+03  0.50400001928E-02 0.  1.
       -1   -1    0    0    0  501  0.00000000000E+00  0.00000000000E+00 -0.74345283951E+03  0.74345283952E+03  0.50400001928E-02 0. -1.
    10030    2    1    2    0    0  0.00000000000E+00  0.00000000000E+00  0.16801852143E+03  0.16549242005E+04  0.16463729486E+04 0.  0.
        5    1    3    3  502    0  0.16715403906E+03 -0.45413093663E+03 -0.58536126311E+03  0.75950331054E+03  0.46999998093E+01 0. -1.
       -5    1    3    3    0  502 -0.16715403906E+03  0.45413093663E+03  0.75337978454E+03  0.89542088994E+03  0.46999998093E+01 0.  1.
</event>
<event>
 5   0  0.1149716E-03  0.1495266E+04  0.7818609E-02  0.8887607E-01
       -2   -1    0    0    0  501  0.00000000000E+00  0.00000000000E+00  0.37426380830E+03  0.37426380830E+03  0.25500000920E-02 0. -1.
        2   -1    0    0  501    0  0.00000000000E+00  0.00000000000E+00 -0.14934797008E+04  0.14934797008E+04  0.25500000920E-02 0.  1.
    10030    2    1    2    0    0  0.00000000000E+00  0.00000000000E+00 -0.11192158925E+04  0.18677435091E+04  0.14952663983E+04 0.  0.
        1    1    3    3  502    0 -0.16974499560E+03 -0.72682417364E+03 -0.61360418591E+03  0.96622815106E+03  0.50400001928E-02 0.  1.
       -1    1    3    3    0  502  0.16974499560E+03  0.72682417364E+03 -0.50561170661E+03  0.90151535805E+03  0.50400001928E-02 0. -1.
</event>
<event>
 5   0  0.6146552E-04  0.1506995E+04  0.7818609E-02  0.8879814E-01
        1   -1    0    0  501    0  0.00000000000E+00  0.00000000000E+00  0.98617911312E+03  0.98617911313E+03  0.50400001928E-02 0.  1.
       -1   -1    0    0    0  501  0.00000000000E+00  0.00000000000E+00 -0.57571559519E+03  0.57571559521E+03  0.50400001928E-02 0. -1.
    10030    2    1    2    0    0  0.00000000000E+00  0.00000000000E+00  0.41046351793E+03  0.15618947083E+04  0.15069952821E+04 0.  0.
        5    1    3    3  502    0  0.39517175582E+03  0.28377977399E+03  0.80155718931E+03  0.93766075659E+03  0.46999998093E+01 0.  1.
       -5    1    3    3    0  502 -0.39517175582E+03 -0.28377977399E+03 -0.39109367138E+03  0.62423395175E+03  0.46999998093E+01 0. -1.
</event>
<event>
 5   0  0.5606965E-04  0.1525645E+04  0.7818609E-02  0.8867576E-01
       -1   -1    0    0    0  501  0.00000000000E+00  0.00000000000E+00  0.42344675822E+03  0.42344675825E+03  0.50400001928E-02 0.  1.
        1   -1    0    0  501    0  0.00000000000E+00  0.00000000000E+00 -0.13741942325E+04  0.13741942325E+04  0.50400001928E-02 0. -1.
    10030    2    1    2    0    0  0.00000000000E+00  0.00000000000E+00 -0.95074747432E+03  0.17976409908E+04  0.15256449036E+04 0.  0.
        4    1    3    3  502    0 -0.25214088812E+03 -0.29258660584E+03 -0.12504603565E+04  0.13087530957E+04  0.12699999809E+01 0. -1.
       -4    1    3    3    0  502  0.25214088812E+03  0.29258660584E+03  0.29971288215E+03  0.48888789513E+03  0.12699999809E+01 0.  1.
</event>
<event>
 5   0  0.5924403E-04  0.1498875E+04  0.7818609E-02  0.8885201E-01
       -1   -1    0    0    0  501  0.00000000000E+00  0.00000000000E+00  0.10298638044E+04  0.10298638044E+04  0.50400001928E-02 0.  1.
        1   -1    0    0  501    0  0.00000000000E+00  0.00000000000E+00 -0.54536965918E+03  0.54536965920E+03  0.50400001928E-02 0. -1.
    10030    2    1    2    0    0  0.00000000000E+00  0.00000000000E+00  0.48449414519E+03  0.15752334636E+04  0.14988748741E+04 0.  0.
        1    1    3    3  502    0  0.72153438541E+03  0.19384324027E+03  0.18034477184E+03  0.76857745731E+03  0.50400001928E-02 0.  1.
       -1    1    3    3    0  502 -0.72153438541E+03 -0.19384324027E+03  0.30414937335E+03  0.80665600628E+03  0.50400001928E-02 0. -1.
</event>
<event>
 5   0  0.5924403E-04  0.1530862E+04  0.7818609E-02  0.8864185E-01
       -1   -1    0    0    0  501  0.00000000000E+00  0.00000000000E+00  0.85463636400E+03  0.85463636401E+03  0.50400001928E-02 0.  1.
        1   -1    0    0  501    0  0.00000000000E+00  0.00000000000E+00 -0.68553703673E+03  0.68553703675E+03  0.50400001928E-02 0. -1.
    10030    2    1    2    0    0  0.00000000000E+00  0.00000000000E+00  0.16909932726E+03  0.15401734008E+04  0.15308623459E+04 0.  0.
        1    1    3    3  502    0 -0.74367564029E+03  0.18073545203E+03  0.71582560270E+02  0.76866301104E+03  0.50400001928E-02 0.  1.
       -1    1    3    3    0  502  0.74367564029E+03 -0.18073545203E+03  0.97516766994E+02  0.77151038972E+03  0.50400001928E-02 0. -1.
</event>
<event>
 5   0  0.5924403E-04  0.1302527E+04  0.7818609E-02  0.9027564E-01
       -1   -1    0    0    0  501  0.00000000000E+00  0.00000000000E+00  0.38658360823E+03  0.38658360827E+03  0.50400001928E-02 0. -1.
        1   -1    0    0  501    0  0.00000000000E+00  0.00000000000E+00 -0.10971597677E+04  0.10971597677E+04  0.50400001928E-02 0.  1.
    10030    2    1    2    0    0  0.00000000000E+00  0.00000000000E+00 -0.71057615947E+03  0.14837433760E+04  0.13025267473E+04 0.  0.
        1    1    3    3  502    0  0.30037051945E+03 -0.24675016284E+02 -0.10129429767E+04  0.10568276962E+04  0.50400001928E-02 0.  1.
       -1    1    3    3    0  502 -0.30037051945E+03  0.24675016284E+02  0.30236681728E+03  0.42691567973E+03  0.50400001928E-02 0. -1.
</event>
<event>
 5   0  0.5914645E-04  0.1473271E+04  0.7818609E-02  0.8902424E-01
       -1   -1    0    0    0  501  0.00000000000E+00  0.00000000000E+00  0.43569296840E+03  0.43569296843E+03  0.50400001928E-02 0. -1.
        1   -1    0    0  501    0  0.00000000000E+00  0.00000000000E+00 -0.12454460206E+04  0.12454460206E+04  0.50400001928E-02 0.  1.
    10030    2    1    2    0    0  0.00000000000E+00  0.00000000000E+00 -0.80975305220E+03  0.16811389890E+04  0.14732712903E+04 0.  0.
        2    1    3    3  502    0 -0.60284330676E+03 -0.38033565551E+03 -0.61699950603E+03  0.94274262331E+03  0.25500000920E-02 0.  1.
       -2    1    3    3    0  502  0.60284330676E+03  0.38033565551E+03 -0.19275354617E+03  0.73839636573E+03  0.25500000920E-02 0. -1.
</event>
<event>
 5   0  0.6146552E-04  0.1486586E+04  0.7818609E-02  0.8893422E-01
        1   -1    0    0  501    0  0.00000000000E+00  0.00000000000E+00  0.13142894813E+04  0.13142894813E+04  0.50400001928E-02 0. -1.
       -1   -1    0    0    0  501  0.00000000000E+00  0.00000000000E+00 -0.42036755047E+03  0.42036755050E+03  0.50400001928E-02 0.  1.
    10030    2    1    2    0    0  0.00000000000E+00  0.00000000000E+00  0.89392193082E+03  0.17346570318E+04  0.14865862234E+04 0.  0.
        5    1    3    3  502    0  0.61990945890E+03 -0.19776211188E+03  0.27754753818E+02  0.65129870758E+03  0.46999998093E+01 0.  1.
       -5    1    3    3    0  502 -0.61990945890E+03  0.19776211188E+03  0.86616717700E+03  0.10833583242E+04  0.46999998093E+01 0. -1.
</event>
<event>
 5   0  0.1126175E-03  0.1490967E+04  0.7818609E-02  0.8890482E-01
       -2   -1    0    0    0  501  0.00000000000E+00  0.00000000000E+00  0.45943678941E+03  0.45943678942E+03  0.25500000920E-02 0.  1.
        2   -1    0    0  501    0  0.00000000000E+00  0.00000000000E+00 -0.12096240450E+04  0.12096240450E+04  0.25500000920E-02 0. -1.
    10030    2    1    2    0    0  0.00000000000E+00  0.00000000000E+00 -0.75018725561E+03  0.16690608345E+04  0.14909671863E+04 0.  0.
        3    1    3    3  502    0 -0.43990514614E+03 -0.17335533980E+03  0.27009836453E+03  0.54453810533E+03  0.10100000352E+00 0.  1.
       -3    1    3    3    0  502  0.43990514614E+03  0.17335533980E+03 -0.10202856201E+04  0.11245227291E+04  0.10100000352E+00 0. -1.
</event>
<event>
 5   0  0.5840834E-04  0.1433564E+04  0.7818609E-02  0.8929875E-01
        1   -1    0    0  501    0  0.00000000000E+00  0.00000000000E+00  0.59261824476E+03  0.59261824478E+03  0.50400001928E-02 0. -1.
       -1   -1    0    0    0  501  0.00000000000E+00  0.00000000000E+00 -0.86695977130E+03  0.86695977131E+03  0.50400001928E-02 0.  1.
    10030    2    1    2    0    0  0.00000000000E+00  0.00000000000E+00 -0.27434152654E+03  0.14595780161E+04  0.14335636407E+04 0.  0.
        3    1    3    3  502    0  0.50271372851E+02 -0.64711922300E+03  0.17246246086E+03  0.67159050791E+03  0.10100000352E+00 0. -1.
       -3    1    3    3    0  502 -0.50271372851E+02  0.64711922300E+03 -0.44680398740E+03  0.78798750819E+03  0.10100000352E+00 0.  1.
</event>
<event>
 5   0  0.5914645E-04  0.1510676E+04  0.7818609E-02  0.8877385E-01
        1   -1    0    0  501    0  0.00000000000E+00  0.00000000000E+00  0.24370267013E+04  0.24370267013E+04  0.50400001928E-02 0. -1.
       -1   -1    0    0    0  501  0.00000000000E+00  0.00000000000E+00 -0.23411115478E+03  0.23411115483E+03  0.50400001928E-02 0.  1.
    10030    2    1    2    0    0  0.00000000000E+00  0.00000000000E+00  0.22029155465E+04  0.26711378561E+04  0.15106755248E+04 0.  0.
        2    1    3    3  502    0  0.63317768147E+03  0.46077611627E+02  0.37780548682E+03  0.73876525939E+03  0.25500000920E-02 0.  1.
       -2    1    3    3    0  502 -0.63317768147E+03 -0.46077611627E+02  0.18251100597E+04  0.19323725967E+04  0.25500000920E-02 0. -1.
</event>
<event>
 5   0  0.1082667E-03  0.1488936E+04  0.7818609E-02  0.8891844E-01
       -2   -1    0    0    0  501  0.00000000000E+00  0.00000000000E+00  0.45290976979E+03  0.45290976980E+03  0.25500000920E-02 0. -1.
        2   -1    0    0  501    0  0.00000000000E+00  0.00000000000E+00 -0.12237154716E+04  0.12237154716E+04  0.25500000920E-02 0.  1.
    10030    2    1    2    0    0  0.00000000000E+00  0.00000000000E+00 -0.77080570177E+03  0.16766252414E+04  0.14889361202E+04 0.  0.
        5    1    3    3  502    0 -0.14814533401E+03  0.33399431319E+03 -0.11157882027E+04  0.11740973743E+04  0.46999998093E+01 0.  1.
       -5    1    3    3    0  502  0.14814533401E+03 -0.33399431319E+03  0.34498250089E+03  0.50252786703E+03  0.46999998093E+01 0. -1.
</event>
<event>
 5   0  0.1126175E-03  0.1487238E+04  0.7818609E-02  0.8892984E-01
       -2   -1    0    0    0  501  0.00000000000E+00  0.00000000000E+00  0.44087272183E+03  0.44087272184E+03  0.25500000920E-02 0.  1.
        2   -1    0    0  501    0  0.00000000000E+00  0.00000000000E+00 -0.12542609062E+04  0.12542609062E+04  0.25500000920E-02 0. -1.
    10030    2    1    2    0    0  0.00000000000E+00  0.00000000000E+00 -0.81338818438E+03  0.16951336281E+04  0.14872382723E+04 0.  0.
        3    1    3    3  502    0 -0.17018350402E+02  0.66721825253E+03 -0.32990917077E+02  0.66825012650E+03  0.10100000352E+00 0. -1.
       -3    1    3    3    0  502  0.17018350402E+02 -0.66721825253E+03 -0.78039726730E+03  0.10268835016E+04  0.10100000352E+00 0.  1.
</event>
<event>
 5   0  0.5924403E-04  0.1509292E+04  0.7818609E-02  0.8878297E-01
        1   -1    0    0  501    0  0.00000000000E+00  0.00000000000E+00  0.12790205225E+04  0.12790205225E+04  0.50400001928E-02 0. -1.
       -1   -1    0    0    0  501  0.00000000000E+00  0.00000000000E+00 -0.44525517485E+03  0.44525517488E+03  0.50400001928E-02 0.  1.
    10030    2    1    2    0    0  0.00000000000E+00  0.00000000000E+00  0.83376534763E+03  0.17242756974E+04  0.15092918954E+04 0.  0.
        1    1    3    3  502    0  0.29411973244E+03 -0.60629277743E+03  0.28800677642E+02  0.67448263731E+03  0.50400001928E-02 0.  1.
       -1    1    3    3    0  502 -0.29411973244E+03  0.60629277743E+03  0.80496466998E+03  0.10497930600E+04  0.50400001928E-02 0. -1.
</event>
<event>
 5   0  0.1147755E-03  0.1497743E+04  0.7818609E-02  0.8885955E-01
       -2   -1    0    0    0  501  0.00000000000E+00  0.00000000000E+00  0.43683761096E+03  0.43683761097E+03  0.25500000920E-02 0.  1.
        2   -1    0    0  501    0  0.00000000000E+00  0.00000000000E+00 -0.12837909561E+04  0.12837909561E+04  0.25500000920E-02 0. -1.
    10030    2    1    2    0    0  0.00000000000E+00  0.00000000000E+00 -0.84695334514E+03  0.17206285671E+04  0.14977425336E+04 0.  0.
        4    1    3    3  502    0 -0.54849031543E+03  0.48852785516E+03 -0.59116217829E+03  0.94285493334E+03  0.12699999809E+01 0. -1.
       -4    1    3    3    0  502  0.54849031543E+03 -0.48852785516E+03 -0.25579116685E+03  0.77777363373E+03  0.12699999809E+01 0.  1.
</event>
<event>
 5   0  0.1149716E-03  0.1502932E+04  0.7818609E-02  0.8882505E-01
        2   -1    0    0  501    0  0.00000000000E+00  0.00000000000E+00  0.21597114941E+04  0.21597114941E+04  0.25500000920E-02 0. -1.
       -2   -1    0    0    0  501  0.00000000000E+00  0.00000000000E+00 -0.26147073782E+03  0.26147073784E+03  0.25500000920E-02 0.  1.
    10030    2    1    2    0    0  0.00000000000E+00  0.00000000000E+00  0.18982407563E+04  0.24211822320E+04  0.15029322777E+04 0.  0.
        1    1    3    3  502    0 -0.24015893290E+03  0.15510173861E+03  0.20686806207E+04  0.20883420153E+04  0.50400001928E-02 0. -1.
       -1    1    3    3    0  502  0.24015893290E+03 -0.15510173861E+03 -0.17043986445E+03  0.33284021661E+03  0.50400001928E-02 0.  1.
</event>
<event>
 5   0  0.1126175E-03  0.1498329E+04  0.7818609E-02  0.8885565E-01
        2   -1    0    0  501    0  0.00000000000E+00  0.00000000000E+00  0.11278993399E+04  0.11278993399E+04  0.25500000920E-02 0. -1.
       -2   -1    0    0    0  501  0.00000000000E+00  0.00000000000E+00 -0.49760422978E+03  0.49760422979E+03  0.25500000920E-02 0.  1.
    10030    2    1    2    0    0  0.00000000000E+00  0.00000000000E+00  0.63029511010E+03  0.16255035697E+04  0.14983290457E+04 0.  0.
        3    1    3    3  502    0 -0.12964962788E+03 -0.30073226393E+03  0.10461317091E+04  0.10961936341E+04  0.10100000352E+00 0. -1.
       -3    1    3    3    0  502  0.12964962788E+03  0.30073226393E+03 -0.41583659899E+03  0.52930993552E+03  0.10100000352E+00 0.  1.
</event>
<event>
 5   0  0.6146552E-04  0.1497839E+04  0.7818609E-02  0.8885891E-01
        1   -1    0    0  501    0  0.00000000000E+00  0.00000000000E+00  0.45915241894E+03  0.45915241897E+03  0.50400001928E-02 0. -1.
       -1   -1    0    0    0  501  0.00000000000E+00  0.00000000000E+00 -0.12215556003E+04  0.12215556003E+04  0.50400001928E-02 0.  1.
    10030    2    1    2    0    0  0.00000000000E+00  0.00000000000E+00 -0.76240318136E+03  0.16807080193E+04  0.14978387213E+04 0.  0.
        5    1    3    3  502    0  0.34208998947E+02 -0.63112941345E+03 -0.83194554169E+03  0.10448205906E+04  0.46999998093E+01 0.  1.
       -5    1    3    3    0  502 -0.34208998947E+02  0.63112941345E+03  0.69542360333E+02  0.63588742872E+03  0.46999998093E+01 0. -1.
</event>
<event>
 5   0  0.5914645E-04  0.1360541E+04  0.7818609E-02  0.8982887E-01
        1   -1    0    0  501    0  0.00000000000E+00  0.00000000000E+00  0.74622959087E+03  0.74622959089E+03  0.50400001928E-02 0.  1.
       -1   -1    0    0    0  501  0.00000000000E+00  0.00000000000E+00 -0.62014193308E+03  0.62014193310E+03  0.50400001928E-02 0. -1.
    10030    2    1    2    0    0  0.00000000000E+00  0.00000000000E+00  0.12608765780E+03  0.13663715240E+04  0.13605414525E+04 0.  0.
        2    1    3    3  502    0  0.11688215972E+03 -0.51397460155E+03  0.49492955127E+03  0.72303982673E+03  0.25500000920E-02 0.  1.
       -2    1    3    3    0  502 -0.11688215972E+03  0.51397460155E+03 -0.36884189348E+03  0.64333169726E+03  0.25500000920E-02 0. -1.
</event>
<event>
 5   0  0.5840834E-04  0.1641373E+04  0.7818609E-02  0.8795527E-01
       -1   -1    0    0    0  501  0.00000000000E+00  0.00000000000E+00  0.82172093041E+03  0.82172093043E+03  0.50400001928E-02 0.  1.
        1   -1    0    0  501    0  0.00000000000E+00  0.00000000000E+00 -0.81965314788E+03  0.81965314790E+03  0.50400001928E-02 0. -1.
    10030    2    1    2    0    0  0.00000000000E+00  0.00000000000E+00  0.20677825340E+01  0.16413740783E+04  0.16413727758E+04 0.  0.
        3    1    3    3  502    0 -0.36471280814E+03  0.56844995147E+03  0.46726956382E+03  0.82127439703E+03  0.10100000352E+00 0.  1.
       -3    1    3    3    0  502  0.36471280814E+03 -0.56844995147E+03 -0.46520178128E+03  0.82009968129E+03  0.10100000352E+00 0. -1.
</event>
<event>
 5   0  0.1097156E-03  0.1228746E+04  0.7818609E-02  0.9088060E-01
       -2   -1    0    0    0  501  0.00000000000E+00  0.00000000000E+00  0.18987295527E+04  0.18987295527E+04  0.25500000920E-02 0.  1.
        2   -1    0    0  501    0  0.00000000000E+00  0.00000000000E+00 -0.19879314830E+03  0.19879314832E+03  0.25500000920E-02 0. -1.
    10030    2    1    2    0    0  0.00000000000E+00  0.00000000000E+00  0.16999364044E+04  0.20975227010E+04  0.12287463946E+04 0.  0.
        2    1    3    3  502    0  0.52403202653E+03  0.32068632606E+03  0.84609768916E+03  0.10456244948E+04  0.25500000920E-02 0.  1.
       -2    1    3    3    0  502 -0.52403202653E+03 -0.32068632606E+03  0.85383871523E+03  0.10518982062E+04  0.25500000920E-02 0. -1.
</event>
<event>
 5   0  0.1147755E-03  0.1500016E+04  0.7818609E-02  0.8884442E-01
       -2   -1    0    0    0  501  0.00000000000E+00  0.00000000000E+00  0.36706373422E+03  0.36706373423E+03  0.25500000920E-02 0. -1.
        2   -1    0    0  501    0  0.00000000000E+00  0.00000000000E+00 -0.15324644279E+04  0.15324644279E+04  0.25500000920E-02 0.  1.
    10030    2    1    2    0    0  0.00000000000E+00  0.00000000000E+00 -0.11654006937E+04  0.18995281621E+04  0.15000161539E+04 0.  0.
        4    1    3    3  502    0 -0.53318835346E+03 -0.45390571089E+03 -0.24245735572E+03  0.74101781145E+03  0.12699999809E+01 0. -1.
       -4    1    3    3    0  502  0.53318835346E+03  0.45390571089E+03 -0.92294333798E+03  0.11585103507E+04  0.12699999809E+01 0.  1.
</event>
<event>
 5   0  0.5914645E-04  0.1484029E+04  0.7818609E-02  0.8895143E-01
       -1   -1    0    0    0  501  0.00000000000E+00  0.00000000000E+00  0.11171582155E+04  0.11171582155E+04  0.50400001928E-02 0. -1.
        1   -1    0    0  501    0  0.00000000000E+00  0.00000000000E+00 -0.49284497123E+03  0.49284497126E+03  0.50400001928E-02 0.  1.
    10030    2    1    2    0    0  0.00000000000E+00  0.00000000000E+00  0.62431324430E+03  0.16100031868E+04  0.14840293914E+04 0.  0.
        2    1    3    3  502    0 -0.21986749108E+03  0.68085670320E+03  0.98794357848E+02  0.72226580224E+03  0.25500000920E-02 0.  1.
       -2    1    3    3    0  502  0.21986749108E+03 -0.68085670320E+03  0.52551888646E+03  0.88773738457E+03  0.25500000920E-02 0. -1.
</event>
<event>
 5   0  0.6146552E-04  0.1477641E+04  0.7818609E-02  0.8899459E-01
        1   -1    0    0  501    0  0.00000000000E+00  0.00000000000E+00  0.57361375643E+03  0.57361375645E+03  0.50400001928E-02 0.  1.
       -1   -1    0    0    0  501  0.00000000000E+00  0.00000000000E+00 -0.95160908304E+03  0.95160908306E+03  0.50400001928E-02 0. -1.
    10030    2    1    2    0    0  0.00000000000E+00  0.00000000000E+00 -0.37799532662E+03  0.15252228395E+04  0.14776414461E+04 0.  0.
        5    1    3    3  502    0  0.29702607544E+03  0.48883381359E+03 -0.67165615795E+03  0.88222846888E+03  0.46999998093E+01 0. -1.
       -5    1    3    3    0  502 -0.29702607544E+03 -0.48883381359E+03  0.29366083133E+03  0.64299437062E+03  0.46999998093E+01 0.  1.
</event>
<event>
 5   0  0.5914645E-04  0.1500775E+04  0.7818609E-02  0.8883938E-01
       -1   -1    0    0    0  501  0.00000000000E+00  0.00000000000E+00  0.31455219267E+03  0.31455219271E+03  0.50400001928E-02 0. -1.
        1   -1    0    0  501    0  0.00000000000E+00  0.00000000000E+00 -0.17901048132E+04  0.17901048132E+04  0.50400001928E-02 0.  1.
    10030    2    1    2    0    0  0.00000000000E+00  0.00000000000E+00 -0.14755526206E+04  0.21046570059E+04  0.15007749920E+04 0.  0.
        2    1    3    3  502    0 -0.63481665010E+03  0.39921098360E+03 -0.70015158641E+03  0.10259502096E+04  0.25500000920E-02 0. -1.
       -2    1    3    3    0  502  0.63481665010E+03 -0.39921098360E+03 -0.77540103414E+03  0.10787067963E+04  0.25500000920E-02 0.  1.
</event>
<event>
 5   0  0.1097156E-03  0.1504506E+04  0.7818609E-02  0.8881462E-01
        2   -1    0    0  501    0  0.00000000000E+00  0.00000000000E+00  0.13143573086E+04  0.13143573086E+04  0.25500000920E-02 0.  1.
       -2   -1    0    0    0  501  0.00000000000E+00  0.00000000000E+00 -0.43054085761E+03  0.43054085761E+03  0.25500000920E-02 0. -1.
    10030    2    1    2    0    0  0.00000000000E+00  0.00000000000E+00  0.88381645098E+03  0.17448981662E+04  0.15045059293E+04 0.  0.
        2    1    3    3  502    0 -0.28254291345E+03  0.35153664111E+03 -0.25634961318E+03  0.51877127153E+03  0.25500000920E-02 0. -1.
       -2    1    3    3    0  502  0.28254291345E+03 -0.35153664111E+03  0.11401660642E+04  0.12261268947E+04  0.25500000920E-02 0.  1.
</event>
<event>
 5   0  0.1126175E-03  0.1607860E+04  0.7818609E-02  0.8815734E-01
        2   -1    0    0  501    0  0.00000000000E+00  0.00000000000E+00  0.90095521772E+03  0.90095521772E+03  0.25500000920E-02 0.  1.
       -2   -1    0    0    0  501  0.00000000000E+00  0.00000000000E+00 -0.71735365048E+03  0.71735365049E+03  0.25500000920E-02 0. -1.
    10030    2    1    2    0    0  0.00000000000E+00  0.00000000000E+00  0.18360156724E+03  0.16183088682E+04  0.16078600864E+04 0.  0.
        3    1    3    3  502    0 -0.22536635863E+03 -0.76444350941E+03  0.19803111411E+03  0.82120655564E+03  0.10100000352E+00 0.  1.
       -3    1    3    3    0  502  0.22536635863E+03  0.76444350941E+03 -0.14429546869E+02  0.79710231257E+03  0.10100000352E+00 0. -1.
</event>
<event>
 5   0  0.1097156E-03  0.1524549E+04  0.7818609E-02  0.8868290E-01
       -2   -1    0    0    0  501  0.00000000000E+00  0.00000000000E+00  0.59079348988E+03  0.59079348988E+03  0.25500000920E-02 0.  1.
        2   -1    0    0  501    0  0.00000000000E+00  0.00000000000E+00 -0.98352873499E+03  0.98352873499E+03  0.25500000920E-02 0. -1.
    10030    2    1    2    0    0  0.00000000000E+00  0.00000000000E+00 -0.39273524511E+03  0.15743222249E+04  0.15245489480E+04 0.  0.
        2    1    3    3  502    0 -0.47185679514E+03 -0.25749312352E+03 -0.75448569182E+03  0.92639095578E+03  0.25500000920E-02 0. -1.
       -2    1    3    3    0  502  0.47185679514E+03  0.25749312352E+03  0.36175044670E+03  0.64793126910E+03  0.25500000920E-02 0.  1.
</event>
<event>
 5   0  0.5840834E-04  0.1513318E+04  0.7818609E-02  0.8875645E-01
       -1   -1    0    0    0  501  0.00000000000E+00  0.00000000000E+00  0.55941989166E+03  0.55941989169E+03  0.50400001928E-02 0. -1.
        1   -1    0    0  501    0  0.00000000000E+00  0.00000000000E+00 -0.10234398737E+04  0.10234398737E+04  0.50400001928E-02 0.  1.
    10030    2    1    2    0    0  0.00000000000E+00  0.00000000000E+00 -0.46401998201E+03  0.15828597654E+04  0.15133177106E+04 0.  0.
        3    1    3    3  502    0 -0.31780928230E+03 -0.22693592830E+03 -0.90988942547E+03  0.99015222681E+03  0.10100000352E+00 0.  1.
       -3    1    3    3    0  502  0.31780928230E+03  0.22693592830E+03  0.44586944345E+03  0.59270753857E+03  0.10100000352E+00 0. -1.
</event>
<event>
 5   0  0.6146552E-04  0.1551808E+04  0.7818609E-02  0.8850714E-01
        1   -1    0    0  501    0  0.00000000000E+00  0.00000000000E+00  0.13387606446E+04  0.13387606447E+04  0.50400001928E-02 0.  1.
       -1   -1    0    0    0  501  0.00000000000E+00  0.00000000000E+00 -0.44968988186E+03  0.44968988189E+03  0.50400001928E-02 0. -1.
    10030    2    1    2    0    0  0.00000000000E+00  0.00000000000E+00  0.88907076279E+03  0.17884505265E+04  0.15518081275E+04 0.  0.
        5    1    3    3  502    0  0.46562186570E+03 -0.58511289068E+03  0.20598233009E+03  0.77563627233E+03  0.46999998093E+01 0. -1.
       -5    1    3    3    0  502 -0.46562186570E+03  0.58511289068E+03  0.68308843270E+03  0.10128142542E+04  0.46999998093E+01 0.  1.
</event>
<event>
 5   0  0.1082667E-03  0.1498127E+04  0.7818609E-02  0.8885699E-01
        2   -1    0    0  501    0  0.00000000000E+00  0.00000000000E+00  0.16130767498E+04  0.16130767498E+04  0.25500000920E-02 0. -1.
       -2   -1    0    0    0  501  0.00000000000E+00  0.00000000000E+00 -0.34784211256E+03  0.34784211257E+03  0.25500000920E-02 0.  1.
    10030    2    1    2    0    0  0.00000000000E+00  0.00000000000E+00  0.12652346373E+04  0.19609188624E+04  0.14981268630E+04 0.  0.
        5    1    3    3  502    0 -0.47221510469E+03  0.31927456645E+03 -0.34536021335E+01  0.57005032343E+03  0.46999998093E+01 0.  1.
       -5    1    3    3    0  502  0.47221510469E+03 -0.31927456645E+03  0.12686882394E+04  0.13908685389E+04  0.46999998093E+01 0. -1.
</event>
<event>
 5   0  0.6146552E-04  0.1496892E+04  0.7818609E-02  0.8886522E-01
       -1   -1    0    0    0  501  0.00000000000E+00  0.00000000000E+00  0.78989480972E+03  0.78989480974E+03  0.50400001928E-02 0.  1.
        1   -1    0    0  501    0  0.00000000000E+00  0.00000000000E+00 -0.70917223441E+03  0.70917223443E+03  0.50400001928E-02 0. -1.
    10030    2    1    2    0    0  0.00000000000E+00  0.00000000000E+00  0.80722575313E+02  0.14990670442E+04  0.14968920698E+04 0.  0.
        5    1    3    3  502    0  0.67040353534E+03  0.20457748150E+03 -0.22242526563E+03  0.73538284922E+03  0.46999998093E+01 0. -1.
       -5    1    3    3    0  502 -0.67040353534E+03 -0.20457748150E+03  0.30314784094E+03  0.76368419494E+03  0.46999998093E+01 0.  1.
</event>
<event>
 5   0  0.5914645E-04  0.1510867E+04  0.7818609E-02  0.8877258E-01
        1   -1    0    0  501    0  0.00000000000E+00  0.00000000000E+00  0.47772519520E+03  0.47772519523E+03  0.50400001928E-02 0. -1.
       -1   -1    0    0    0  501  0.00000000000E+00  0.00000000000E+00 -0.11945780858E+04  0.11945780859E+04  0.50400001928E-02 0.  1.
    10030    2    1    2    0    0  0.00000000000E+00  0.00000000000E+00 -0.71685289064E+03  0.16723032811E+04  0.15108673658E+04 0.  0.
        2    1    3    3  502    0 -0.38411900989E+03 -0.48478200002E+03 -0.83849702000E+03  0.10419396594E+04  0.25500000920E-02 0.  1.
       -2    1    3    3    0  502  0.38411900989E+03  0.48478200002E+03  0.12164412936E+03  0.63036362166E+03  0.25500000920E-02 0. -1.
</event>
<event>
 5   0  0.1082667E-03  0.1454047E+04  0.7818609E-02  0.8915599E-01
        2   -1    0    0  501    0  0.00000000000E+00  0.00000000000E+00  0.82959522916E+03  0.82959522916E+03  0.25500000920E-02 0. -1.
       -2   -1    0    0    0  501  0.00000000000E+00  0.00000000000E+00 -0.63713397024E+03  0.63713397025E+03  0.25500000920E-02 0.  1.
    10030    2    1    2    0    0  0.00000000000E+00  0.00000000000E+00  0.19246125892E+03  0.14667291994E+04  0.14540471823E+04 0.  0.
        5    1    3    3  502    0 -0.70959429853E+03  0.64264387715E+02 -0.49554049360E+02  0.71423502703E+03  0.46999998093E+01 0.  1.
       -5    1    3    3    0  502  0.70959429853E+03 -0.64264387715E+02  0.24201530828E+03  0.75249417238E+03  0.46999998093E+01 0. -1.
</event>
<event>
 5   0  0.5924403E-04  0.1499457E+04  0.7818609E-02  0.8884814E-01
       -1   -1    0    0    0  501  0.00000000000E+00  0.00000000000E+00  0.25485176002E+03  0.25485176007E+03  0.50400001928E-02 0. -1.
        1   -1    0    0  501    0  0.00000000000E+00  0.00000000000E+00 -0.22055685146E+04  0.22055685146E+04  0.50400001928E-02 0.  1.
    10030    2    1    2    0    0  0.00000000000E+00  0.00000000000E+00 -0.19507167546E+04  0.24604202747E+04  0.14994572590E+04 0.  0.
        1    1    3    3  502    0  0.67170505199E+03 -0.32620460454E+03 -0.86533540310E+03  0.11429796502E+04  0.50400001928E-02 0.  1.
       -1    1    3    3    0  502 -0.67170505199E+03  0.32620460454E+03 -0.10853813515E+04  0.13174406245E+04  0.50400001928E-02 0. -1.
</event>
<event>
 5   0  0.1126175E-03  0.1502170E+04  0.7818609E-02  0.8883011E-01
       -2   -1    0    0    0  501  0.00000000000E+00  0.00000000000E+00  0.34389325044E+03  0.34389325045E+03  0.25500000920E-02 0. -1.
        2   -1    0    0  501    0  0.00000000000E+00  0.00000000000E+00 -0.16404173604E+04  0.16404173604E+04  0.25500000920E-02 0.  1.
    10030    2    1    2    0    0  0.00000000000E+00  0.00000000000E+00 -0.12965241100E+04  0.19843106109E+04  0.15021697083E+04 0.  0.
        3    1    3    3  502    0 -0.65321830734E+03  0.22766549765E+03 -0.26177547643E+03  0.73962973583E+03  0.10100000352E+00 0. -1.
       -3    1    3    3    0  502  0.65321830734E+03 -0.22766549765E+03 -0.10347486336E+04  0.12446808751E+04  0.10100000352E+00 0.  1.
</event>
<event>
 5   0  0.1149716E-03  0.1507811E+04  0.7818609E-02  0.8879275E-01
        2   -1    0    0  501    0  0.00000000000E+00  0.00000000000E+00  0.14527506778E+04  0.14527506778E+04  0.25500000920E-02 0. -1.
       -2   -1    0    0    0  501  0.00000000000E+00  0.00000000000E+00 -0.39123968182E+03  0.39123968183E+03  0.25500000920E-02 0.  1.
    10030    2    1    2    0    0  0.00000000000E+00  0.00000000000E+00  0.10615109959E+04  0.18439903596E+04  0.15078112786E+04 0.  0.
        1    1    3    3  502    0 -0.25582044460E+03  0.69019296408E+03  0.73007626630E+03  0.10367361198E+04  0.50400001928E-02 0. -1.
       -1    1    3    3    0  502  0.25582044460E+03 -0.69019296408E+03  0.33143472964E+03  0.80725423974E+03  0.50400001928E-02 0.  1.
</event>
<event>
 5   0  0.1126175E-03  0.1492513E+04  0.7818609E-02  0.8889447E-01
       -2   -1    0    0    0  501  0.00000000000E+00  0.00000000000E+00  0.35961522119E+03  0.35961522120E+03  0.25500000920E-02 0.  1.
        2   -1    0    0  501    0  0.00000000000E+00  0.00000000000E+00 -0.15485968268E+04  0.15485968268E+04  0.25500000920E-02 0. -1.
    10030    2    1    2    0    0  0.00000000000E+00  0.00000000000E+00 -0.11889816056E+04  0.19082120480E+04  0.14925133037E+04 0.  0.
        3    1    3    3  502    0  0.13340266658E+03  0.57143775329E+03 -0.50355654762E+01  0.58682428755E+03  0.10100000352E+00 0.  1.
       -3    1    3    3    0  502 -0.13340266658E+03 -0.57143775329E+03 -0.11839460401E+04  0.13213877605E+04  0.10100000352E+00 0. -1.
</event>
<event>
 5   0  0.5914645E-04  0.1488535E+04  0.7818609E-02  0.8892113E-01
       -1   -1    0    0    0  501  0.00000000000E+00  0.00000000000E+00  0.47236265609E+03  0.47236265612E+03  0.50400001928E-02 0.  1.
        1   -1    0    0  501    0  0.00000000000E+00  0.00000000000E+00 -0.11726875733E+04  0.11726875733E+04  0.50400001928E-02 0. -1.
    10030    2    1    2    0    0  0.00000000000E+00  0.00000000000E+00 -0.70032491722E+03  0.16450502294E+04  0.14885346041E+04 0.  0.
        2    1    3    3  502    0  0.22751663152E+03 -0.60477363634E+03 -0.75834781175E+03  0.99629632762E+03  0.25500000920E-02 0. -1.
       -2    1    3    3    0  502 -0.22751663152E+03  0.60477363634E+03  0.58022894524E+02  0.64875390182E+03  0.25500000920E-02 0.  1.
</event>
<event>
 5   0  0.1147755E-03  0.1497225E+04  0.7818609E-02  0.8886300E-01
       -2   -1    0    0    0  501  0.00000000000E+00  0.00000000000E+00  0.82954714302E+03  0.82954714303E+03  0.25500000920E-02 0. -1.
        2   -1    0    0  501    0  0.00000000000E+00  0.00000000000E+00 -0.67557432790E+03  0.67557432791E+03  0.25500000920E-02 0.  1.
    10030    2    1    2    0    0  0.00000000000E+00  0.00000000000E+00  0.15397281512E+03  0.15051214709E+04  0.14972251048E+04 0.  0.
        4    1    3    3  502    0 -0.22022953732E+02 -0.70207228005E+03 -0.18327793197E+03  0.72593588571E+03  0.12699999809E+01 0.  1.
       -4    1    3    3    0  502  0.22022953732E+02  0.70207228005E+03  0.33725074709E+03  0.77918558522E+03  0.12699999809E+01 0. -1.
</event>
<event>
 5   0  0.6146552E-04  0.1459779E+04  0.7818609E-02  0.8911649E-01
        1   -1    0    0  501    0  0.00000000000E+00  0.00000000000E+00  0.15340121442E+04  0.15340121442E+04  0.50400001928E-02 0.  1.
       -1   -1    0    0    0  501  0.00000000000E+00  0.00000000000E+00 -0.34728473399E+03  0.34728473403E+03  0.50400001928E-02 0. -1.
    10030    2    1    2    0    0  0.00000000000E+00  0.00000000000E+00  0.11867274102E+04  0.18812968783E+04  0.14597794347E+04 0.  0.
        5    1    3    3  502    0  0.68661682467E+03  0.24686846017E+03  0.61678249879E+03  0.95542108065E+03  0.46999998093E+01 0. -1.
       -5    1    3    3    0  502 -0.68661682467E+03 -0.24686846017E+03  0.56994491145E+03  0.92587579763E+03  0.46999998093E+01 0.  1.
</event>
<event>
 5   0  0.5914645E-04  0.1500509E+04  0.7818609E-02  0.8884115E-01
        1   -1    0    0  501    0  0.00000000000E+00  0.00000000000E+00  0.13144358392E+04  0.13144358392E+04  0.50400001928E-02 0. -1.
       -1   -1    0    0    0  501  0.00000000000E+00  0.00000000000E+00 -0.42823050685E+03  0.42823050688E+03  0.50400001928E-02 0.  1.
    10030    2    1    2    0    0  0.00000000000E+00  0.00000000000E+00  0.88620533234E+03  0.17426663461E+04  0.15005086147E+04 0.  0.
        2    1    3    3  502    0  0.29993137055E+03  0.52784807801E+03 -0.68828006555E+02  0.61099894844E+03  0.25500000920E-02 0.  1.
       -2    1    3    3    0  502 -0.29993137055E+03 -0.52784807801E+03  0.95503333890E+03  0.11316673977E+04  0.25500000920E-02 0. -1.
</event>
<event>
 5   0  0.4070625E-04  0.1474330E+04  0.7818609E-02  0.8901705E-01
        3   -1    0    0  501    0  0.00000000000E+00  0.00000000000E+00  0.53423413204E+03  0.53423414159E+03  0.10100000352E+00 0.  1.
       -3   -1    0    0    0  501  0.00000000000E+00  0.00000000000E+00 -0.10171799391E+04  0.10171799441E+04  0.10100000352E+00 0. -1.
    10030    2    1    2    0    0  0.00000000000E+00  0.00000000000E+00 -0.48294580708E+03  0.15514140857E+04  0.14743300217E+04 0.  0.
        5    1    3    3  502    0 -0.67999116793E+03 -0.92834276396E+02  0.41636455236E+02  0.68757681443E+03  0.46999998093E+01 0.  1.
       -5    1    3    3    0  502  0.67999116793E+03  0.92834276396E+02 -0.52458226231E+03  0.86383727129E+03  0.46999998093E+01 0. -1.
</event>
<event>
 5   0  0.5914645E-04  0.1493514E+04  0.7818609E-02  0.8888778E-01
       -1   -1    0    0    0  501  0.00000000000E+00  0.00000000000E+00  0.22691709975E+03  0.22691709981E+03  0.50400001928E-02 0.  1.
        1   -1    0    0  501    0  0.00000000000E+00  0.00000000000E+00 -0.24574862777E+04  0.24574862777E+04  0.50400001928E-02 0. -1.
    10030    2    1    2    0    0  0.00000000000E+00  0.00000000000E+00 -0.22305691779E+04  0.26844033775E+04  0.14935135204E+04 0.  0.
        2    1    3    3  502    0 -0.29246378373E+03  0.45585796359E+03 -0.19124500208E+03  0.57438332026E+03  0.25500000920E-02 0.  1.
       -2    1    3    3    0  502  0.29246378373E+03 -0.45585796359E+03 -0.20393241759E+04  0.21100200573E+04  0.25500000920E-02 0. -1.
</event>
<event>
 5   0  0.5840834E-04  0.1492405E+04  0.7818609E-02  0.8889520E-01
       -1   -1    0    0    0  501  0.00000000000E+00  0.00000000000E+00  0.11036882594E+04  0.11036882594E+04  0.50400001928E-02 0.  1.
        1   -1    0    0  501    0  0.00000000000E+00  0.00000000000E+00 -0.50450642222E+03  0.50450642224E+03  0.50400001928E-02 0. -1.
    10030    2    1    2    0    0  0.00000000000E+00  0.00000000000E+00  0.59918183716E+03  0.16081946816E+04  0.14924045229E+04 0.  0.
        3    1    3    3  502    0 -0.60891621231E+03  0.23819811154E+03 -0.87891663740E+02  0.65972892063E+03  0.10100000352E+00 0. -1.
       -3    1    3    3    0  502  0.60891621231E+03 -0.23819811154E+03  0.68707350090E+03  0.94846576101E+03  0.10100000352E+00 0.  1.
</event>
<event>
 5   0  0.6146552E-04  0.1528974E+04  0.7818609E-02  0.8865411E-01
        1   -1    0    0  501    0  0.00000000000E+00  0.00000000000E+00  0.76240751741E+03  0.76240751743E+03  0.50400001928E-02 0.  1.
       -1   -1    0    0    0  501  0.00000000000E+00  0.00000000000E+00 -0.76657240778E+03  0.76657240780E+03  0.50400001928E-02 0. -1.
    10030    2    1    2    0    0  0.00000000000E+00  0.00000000000E+00 -0.41648903711E+01  0.15289799252E+04  0.15289742527E+04 0.  0.
        5    1    3    3  502    0  0.74061111322E+03  0.11306600380E+03  0.15000274718E+03  0.76407568761E+03  0.46999998093E+01 0.  1.
       -5    1    3    3    0  502 -0.74061111322E+03 -0.11306600380E+03 -0.15416763755E+03  0.76490423761E+03  0.46999998093E+01 0. -1.
</event>
<event>
 5   0  0.1082667E-03  0.1506635E+04  0.7818609E-02  0.8880053E-01
        2   -1    0    0  501    0  0.00000000000E+00  0.00000000000E+00  0.87345674919E+03  0.87345674919E+03  0.25500000920E-02 0. -1.
       -2   -1    0    0    0  501  0.00000000000E+00  0.00000000000E+00 -0.64970255449E+03  0.64970255449E+03  0.25500000920E-02 0.  1.
    10030    2    1    2    0    0  0.00000000000E+00  0.00000000000E+00  0.22375419470E+03  0.15231593037E+04  0.15066347682E+04 0.  0.
        5    1    3    3  502    0  0.26063424237E+03  0.50210075184E+03 -0.39100153724E+03  0.68770608941E+03  0.46999998093E+01 0.  1.
       -5    1    3    3    0  502 -0.26063424237E+03 -0.50210075184E+03  0.61475573194E+03  0.83545321427E+03  0.46999998093E+01 0. -1.
</event>
<event>
 5   0  0.5924403E-04  0.1513365E+04  0.7818609E-02  0.8875614E-01
        1   -1    0    0  501    0  0.00000000000E+00  0.00000000000E+00  0.21888149036E+04  0.21888149036E+04  0.50400001928E-02 0. -1.
       -1   -1    0    0    0  501  0.00000000000E+00  0.00000000000E+00 -0.26158839034E+03  0.26158839039E+03  0.50400001928E-02 0.  1.
    10030    2    1    2    0    0  0.00000000000E+00  0.00000000000E+00  0.19272265133E+04  0.24504032940E+04  0.15133652136E+04 0.  0.
        1    1    3    3  502    0  0.87401747640E+02 -0.61917689518E+03  0.16535214753E+04  0.17678100470E+04  0.50400001928E-02 0. -1.
       -1    1    3    3    0  502 -0.87401747640E+02  0.61917689518E+03  0.27370503799E+03  0.68259324701E+03  0.50400001928E-02 0.  1.
</event>
<event>
 5   0  0.6146552E-04  0.1512327E+04  0.7818609E-02  0.8876297E-01
        1   -1    0    0  501    0  0.00000000000E+00  0.00000000000E+00  0.55668930583E+03  0.55668930585E+03  0.50400001928E-02 0. -1.
       -1   -1    0    0    0  501  0.00000000000E+00  0.00000000000E+00 -0.10271135445E+04  0.10271135446E+04  0.50400001928E-02 0.  1.
    10030    2    1    2    0    0  0.00000000000E+00  0.00000000000E+00 -0.47042423872E+03  0.15838028504E+04  0.15123268511E+04 0.  0.
        5    1    3    3  502    0 -0.32027158366E+03  0.39529825252E+03  0.35062459737E+03  0.61789505098E+03  0.46999998093E+01 0. -1.
       -5    1    3    3    0  502  0.32027158366E+03 -0.39529825252E+03 -0.82104883608E+03  0.96590779942E+03  0.46999998093E+01 0.  1.
</event>
<event>
 5   0  0.5606965E-04  0.1502989E+04  0.7818609E-02  0.8882467E-01
        1   -1    0    0  501    0  0.00000000000E+00  0.00000000000E+00  0.17638055022E+04  0.17638055023E+04  0.50400001928E-02 0. -1.
       -1   -1    0    0    0  501  0.00000000000E+00  0.00000000000E+00 -0.32018515935E+03  0.32018515939E+03  0.50400001928E-02 0.  1.
    10030    2    1    2    0    0  0.00000000000E+00  0.00000000000E+00  0.14436203429E+04  0.20839906616E+04  0.15029894821E+04 0.  0.
        4    1    3    3  502    0  0.18402674226E+03  0.57814102850E+03  0.13366536097E+04  0.14679091852E+04  0.12699999809E+01 0. -1.
       -4    1    3    3    0  502 -0.18402674226E+03 -0.57814102850E+03  0.10696673316E+03  0.61608147643E+03  0.12699999809E+01 0.  1.
</event>
<event>
 5   0  0.5914645E-04  0.1529002E+04  0.7818609E-02  0.8865392E-01
       -1   -1    0    0    0  501  0.00000000000E+00  0.00000000000E+00  0.70930897752E+03  0.70930897754E+03  0.50400001928E-02 0.  1.
        1   -1    0    0  501    0  0.00000000000E+00  0.00000000000E+00 -0.82398799597E+03  0.82398799599E+03  0.50400001928E-02 0. -1.
    10030    2    1    2    0    0  0.00000000000E+00  0.00000000000E+00 -0.11467901845E+03  0.15332969735E+04  0.15290023976E+04 0.  0.
        2    1    3    3  502    0 -0.13876298609E+03 -0.28948481994E+03  0.63844317425E+03  0.71460920372E+03  0.25500000920E-02 0.  1.
       -2    1    3    3    0  502  0.13876298609E+03  0.28948481994E+03 -0.75312219271E+03  0.81868776981E+03  0.25500000920E-02 0. -1.
</event>
<event>
 5   0  0.1097156E-03  0.1509706E+04  0.7818609E-02  0.8878024E-01
       -2   -1    0    0    0  501  0.00000000000E+00  0.00000000000E+00  0.36435786355E+03  0.36435786356E+03  0.25500000920E-02 0. -1.
        2   -1    0    0  501    0  0.00000000000E+00  0.00000000000E+00 -0.15638561717E+04  0.15638561717E+04  0.25500000920E-02 0.  1.
    10030    2    1    2    0    0  0.00000000000E+00  0.00000000000E+00 -0.11994983081E+04  0.19282140353E+04  0.15097063206E+04 0.  0.
        2    1    3    3  502    0 -0.72847400456E+03 -0.12757648072E+03 -0.79282853397E+03  0.10842173297E+04  0.25500000920E-02 0. -1.
       -2    1    3    3    0  502  0.72847400456E+03  0.12757648072E+03 -0.40666977418E+03  0.84399670556E+03  0.25500000920E-02 0.  1.
</event>
<event>
 5   0  0.1126175E-03  0.1487620E+04  0.7818609E-02  0.8892727E-01
       -2   -1    0    0    0  501  0.00000000000E+00  0.00000000000E+00  0.40830694654E+03  0.40830694655E+03  0.25500000920E-02 0. -1.
        2   -1    0    0  501    0  0.00000000000E+00  0.00000000000E+00 -0.13549939916E+04  0.13549939916E+04  0.25500000920E-02 0.  1.
    10030    2    1    2    0    0  0.00000000000E+00  0.00000000000E+00 -0.94668704506E+03  0.17633009382E+04  0.14876201925E+04 0.  0.
        3    1    3    3  502    0 -0.29119842435E+03  0.67848946292E+03 -0.58008110628E+03  0.93895610850E+03  0.10100000352E+00 0. -1.
       -3    1    3    3    0  502  0.29119842435E+03 -0.67848946292E+03 -0.36660593878E+03  0.82434482966E+03  0.10100000352E+00 0.  1.
</event>
<event>
 5   0  0.1147755E-03  0.1535103E+04  0.7818609E-02  0.8861440E-01
        2   -1    0    0  501    0  0.00000000000E+00  0.00000000000E+00  0.10665704387E+04  0.10665704387E+04  0.25500000920E-02 0.  1.
       -2   -1    0    0    0  501  0.00000000000E+00  0.00000000000E+00 -0.55236387273E+03  0.55236387273E+03  0.25500000920E-02 0. -1.
    10030    2    1    2    0    0  0.00000000000E+00  0.00000000000E+00  0.51420656598E+03  0.16189343114E+04  0.15351025739E+04 0.  0.
        4    1    3    3  502    0 -0.58660460114E+03 -0.45935093064E+03  0.45163558309E+03  0.87125458298E+03  0.12699999809E+01 0.  1.
       -4    1    3    3    0  502  0.58660460114E+03  0.45935093064E+03  0.62570982892E+02  0.74767972846E+03  0.12699999809E+01 0. -1.
</event>
<event>
 5   0  0.6146552E-04  0.1523259E+04  0.7818609E-02  0.8869132E-01
        1   -1    0    0  501    0  0.00000000000E+00  0.00000000000E+00  0.99233564280E+03  0.99233564281E+03  0.50400001928E-02 0. -1.
       -1   -1    0    0    0  501  0.00000000000E+00  0.00000000000E+00 -0.58455947893E+03  0.58455947895E+03  0.50400001928E-02 0.  1.
    10030    2    1    2    0    0  0.00000000000E+00  0.00000000000E+00  0.40777616387E+03  0.15768951218E+04  0.15232586206E+04 0.  0.
        5    1    3    3  502    0 -0.13901950054E+03 -0.18586332943E+02  0.97883598982E+03  0.98884470887E+03  0.46999998093E+01 0. -1.
       -5    1    3    3    0  502  0.13901950054E+03  0.18586332943E+02 -0.57105982594E+03  0.58805041290E+03  0.46999998093E+01 0.  1.
</event>
<event>
 5   0  0.1149716E-03  0.1518215E+04  0.7818609E-02  0.8872429E-01
        2   -1    0    0  501    0  0.00000000000E+00  0.00000000000E+00  0.12981361111E+04  0.12981361111E+04  0.25500000920E-02 0.  1.
       -2   -1    0    0    0  501  0.00000000000E+00  0.00000000000E+00 -0.44390141127E+03  0.44390141128E+03  0.25500000920E-02 0. -1.
    10030    2    1    2    0    0  0.00000000000E+00  0.00000000000E+00  0.85423469983E+03  0.17420375224E+04  0.15182153362E+04 0.  0.
        1    1    3    3  502    0  0.45216583719E+03 -0.60893965578E+03  0.46309241241E+03  0.88865968242E+03  0.50400001928E-02 0.  1.
       -1    1    3    3    0  502 -0.45216583719E+03  0.60893965578E+03  0.39114228743E+03  0.85337783996E+03  0.50400001928E-02 0. -1.
</event>
<event>
 5   0  0.1082667E-03  0.1575224E+04  0.7818609E-02  0.8835915E-01
        2   -1    0    0  501    0  0.00000000000E+00  0.00000000000E+00  0.70747018484E+03  0.70747018485E+03  0.25500000920E-02 0.  1.
       -2   -1    0    0    0  501  0.00000000000E+00  0.00000000000E+00 -0.87683234965E+03  0.87683234965E+03  0.25500000920E-02 0. -1.
    10030    2    1    2    0    0  0.00000000000E+00  0.00000000000E+00 -0.16936216481E+03  0.15843025345E+04  0.15752241040E+04 0.  0.
        5    1    3    3  502    0 -0.39475952007E+03  0.35602667670E+03 -0.66916764654E+03  0.85463296355E+03  0.46999998093E+01 0. -1.
       -5    1    3    3    0  502  0.39475952007E+03 -0.35602667670E+03  0.49980548173E+03  0.72966957095E+03  0.46999998093E+01 0.  1.
</event>
<event>
 5   0  0.5606965E-04  0.1499076E+04  0.7818609E-02  0.8885067E-01
       -1   -1    0    0    0  501  0.00000000000E+00  0.00000000000E+00  0.34184310650E+03  0.34184310654E+03  0.50400001928E-02 0.  1.
        1   -1    0    0  501    0  0.00000000000E+00  0.00000000000E+00 -0.16434661246E+04  0.16434661246E+04  0.50400001928E-02 0. -1.
    10030    2    1    2    0    0  0.00000000000E+00  0.00000000000E+00 -0.13016230181E+04  0.19853092311E+04  0.14990764697E+04 0.  0.
        4    1    3    3  502    0  0.36692915167E+03 -0.76347246775E+02  0.20883666477E+03  0.42904576666E+03  0.12699999809E+01 0.  1.
       -4    1    3    3    0  502 -0.36692915167E+03  0.76347246775E+02 -0.15104596829E+04  0.15562634645E+04  0.12699999809E+01 0. -1.
</event>
<event>
 5   0  0.5914645E-04  0.1492845E+04  0.7818609E-02  0.8889225E-01
        1   -1    0    0  501    0  0.00000000000E+00  0.00000000000E+00  0.97998407428E+03  0.97998407429E+03  0.50400001928E-02 0. -1.
       -1   -1    0    0    0  501  0.00000000000E+00  0.00000000000E+00 -0.56852601550E+03  0.56852601552E+03  0.50400001928E-02 0.  1.
    10030    2    1    2    0    0  0.00000000000E+00  0.00000000000E+00  0.41145805878E+03  0.15485100898E+04  0.14928448560E+04 0.  0.
        2    1    3    3  502    0  0.28576903302E+03  0.37976239813E+03 -0.39128679563E+03  0.61562064269E+03  0.25500000920E-02 0.  1.
       -2    1    3    3    0  502 -0.28576903302E+03 -0.37976239813E+03  0.80274485441E+03  0.93288944713E+03  0.25500000920E-02 0. -1.
</event>
<event>
 5   0  0.5914645E-04  0.1513946E+04  0.7818609E-02  0.8875232E-01
       -1   -1    0    0    0  501  0.00000000000E+00  0.00000000000E+00  0.41765692645E+03  0.41765692648E+03  0.50400001928E-02 0.  1.
        1   -1    0    0  501    0  0.00000000000E+00  0.00000000000E+00 -0.13719585453E+04  0.13719585454E+04  0.50400001928E-02 0. -1.
    10030    2    1    2    0    0  0.00000000000E+00  0.00000000000E+00 -0.95430161890E+03  0.17896154718E+04  0.15139458237E+04 0.  0.
        2    1    3    3  502    0 -0.29339128765E+03  0.64803156796E+03 -0.78309130665E+03  0.10579486544E+04  0.25500000920E-02 0. -1.
       -2    1    3    3    0  502  0.29339128765E+03 -0.64803156796E+03 -0.17121031225E+03  0.73166681745E+03  0.25500000920E-02 0.  1.
</event>
<event>
 5   0  0.6146552E-04  0.1482306E+04  0.7818609E-02  0.8896305E-01
        1   -1    0    0  501    0  0.00000000000E+00  0.00000000000E+00  0.61100108791E+03  0.61100108793E+03  0.50400001928E-02 0. -1.
       -1   -1    0    0    0  501  0.00000000000E+00  0.00000000000E+00 -0.89902897771E+03  0.89902897772E+03  0.50400001928E-02 0.  1.
    10030    2    1    2    0    0  0.00000000000E+00  0.00000000000E+00 -0.28802788980E+03  0.15100300657E+04  0.14823058840E+04 0.  0.
        5    1    3    3  502    0  0.70077255962E+02  0.56534416452E+03 -0.62697042277E+03  0.84713567224E+03  0.46999998093E+01 0.  1.
       -5    1    3    3    0  502 -0.70077255962E+02 -0.56534416452E+03  0.33894253297E+03  0.66289439341E+03  0.46999998093E+01 0. -1.
</event>
<event>
 5   0  0.5914645E-04  0.1502059E+04  0.7818609E-02  0.8883085E-01
       -1   -1    0    0    0  501  0.00000000000E+00  0.00000000000E+00  0.15006366635E+04  0.15006366635E+04  0.50400001928E-02 0. -1.
        1   -1    0    0  501    0  0.00000000000E+00  0.00000000000E+00 -0.37587085961E+03  0.37587085964E+03  0.50400001928E-02 0.  1.
    10030    2    1    2    0    0  0.00000000000E+00  0.00000000000E+00  0.11247658038E+04  0.18765075231E+04  0.15020593766E+04 0.  0.
        2    1    3    3  502    0  0.61477368517E+03  0.41003190992E+03  0.39490003984E+03  0.83786567694E+03  0.25500000920E-02 0.  1.
       -2    1    3    3    0  502 -0.61477368517E+03 -0.41003190992E+03  0.72986576400E+03  0.10386418462E+04  0.25500000920E-02 0. -1.
</event>
<event>
 5   0  0.1097156E-03  0.1506223E+04  0.7818609E-02  0.8880325E-01
       -2   -1    0    0    0  501  0.00000000000E+00  0.00000000000E+00  0.29825847671E+03  0.29825847672E+03  0.25500000920E-02 0. -1.
        2   -1    0    0  501    0  0.00000000000E+00  0.00000000000E+00 -0.19016294250E+04  0.19016294250E+04  0.25500000920E-02 0.  1.
    10030    2    1    2    0    0  0.00000000000E+00  0.00000000000E+00 -0.16033709483E+04  0.21998879017E+04  0.15062232180E+04 0.  0.
        2    1    3    3  502    0 -0.34675953485E+02  0.73207742871E+03 -0.54855656488E+03  0.91545294158E+03  0.25500000920E-02 0. -1.
       -2    1    3    3    0  502  0.34675953485E+02 -0.73207742871E+03 -0.10548143834E+04  0.12844349601E+04  0.25500000920E-02 0.  1.
</event>
<event>
 5   0  0.1097156E-03  0.1436999E+04  0.7818609E-02  0.8927464E-01
       -2   -1    0    0    0  501  0.00000000000E+00  0.00000000000E+00  0.60924785398E+03  0.60924785398E+03  0.25500000920E-02 0.  1.
        2   -1    0    0  501    0  0.00000000000E+00  0.00000000000E+00 -0.84734259364E+03  0.84734259364E+03  0.25500000920E-02 0. -1.
    10030    2    1    2    0    0  0.00000000000E+00  0.00000000000E+00 -0.23809473966E+03  0.14565904476E+04  0.14369991743E+04 0.  0.
        2    1    3    3  502    0  0.39332109151E+03 -0.22425263463E+03  0.44645739545E+03  0.63585763432E+03  0.25500000920E-02 0.  1.
       -2    1    3    3    0  502 -0.39332109151E+03  0.22425263463E+03 -0.68455213511E+03  0.82073281331E+03  0.25500000920E-02 0. -1.
</event>
<event>
 5   0  0.1126175E-03  0.1470471E+04  0.7818609E-02  0.8904331E-01
       -2   -1    0    0    0  501  0.00000000000E+00  0.00000000000E+00  0.44888095842E+03  0.44888095843E+03  0.25500000920E-02 0. -1.
        2   -1    0    0  501    0  0.00000000000E+00  0.00000000000E+00 -0.12042636378E+04  0.12042636378E+04  0.25500000920E-02 0.  1.
    10030    2    1    2    0    0  0.00000000000E+00  0.00000000000E+00 -0.75538267942E+03  0.16531445963E+04  0.14704706946E+04 0.  0.
        3    1    3    3  502    0  0.73193906267E+03  0.32617380093E+02 -0.30864211964E+03  0.79502116523E+03  0.10100000352E+00 0. -1.
       -3    1    3    3    0  502 -0.73193906267E+03 -0.32617380093E+02 -0.44674055978E+03  0.85812343104E+03  0.10100000352E+00 0.  1.
</event>
<event>
 5   0  0.5924403E-04  0.1506274E+04  0.7818609E-02  0.8880292E-01
       -1   -1    0    0    0  501  0.00000000000E+00  0.00000000000E+00  0.73981369849E+03  0.73981369850E+03  0.50400001928E-02 0.  1.
        1   -1    0    0  501    0  0.00000000000E+00  0.00000000000E+00 -0.76669974254E+03  0.76669974256E+03  0.50400001928E-02 0. -1.
    10030    2    1    2    0    0  0.00000000000E+00  0.00000000000E+00 -0.26886044058E+02  0.15065134411E+04  0.15062735106E+04 0.  0.
        1    1    3    3  502    0 -0.12302917747E+03  0.49456403573E+03 -0.56804483692E+03  0.76315444094E+03  0.50400001928E-02 0. -1.
       -1    1    3    3    0  502  0.12302917747E+03 -0.49456403573E+03  0.54115879287E+03  0.74335900013E+03  0.50400001928E-02 0.  1.
</event>
<event>
 5   0  0.5914645E-04  0.1502517E+04  0.7818609E-02  0.8882781E-01
       -1   -1    0    0    0  501  0.00000000000E+00  0.00000000000E+00  0.10256734794E+04  0.10256734794E+04  0.50400001928E-02 0.  1.
        1   -1    0    0  501    0  0.00000000000E+00  0.00000000000E+00 -0.55026187178E+03  0.55026187180E+03  0.50400001928E-02 0. -1.
    10030    2    1    2    0    0  0.00000000000E+00  0.00000000000E+00  0.47541160765E+03  0.15759353512E+04  0.15025165672E+04 0.  0.
        2    1    3    3  502    0  0.48574145012E+03 -0.10727934428E+03  0.82818486219E+03  0.96609718975E+03  0.25500000920E-02 0. -1.
       -2    1    3    3    0  502 -0.48574145012E+03  0.10727934428E+03 -0.35277325455E+03  0.60983816149E+03  0.25500000920E-02 0.  1.
</event>
<event>
 5   0  0.5914645E-04  0.1494177E+04  0.7818609E-02  0.8888334E-01
       -1   -1    0    0    0  501  0.00000000000E+00  0.00000000000E+00  0.26566796181E+03  0.26566796186E+03  0.50400001928E-02 0. -1.
        1   -1    0    0  501    0  0.00000000000E+00  0.00000000000E+00 -0.21008982717E+04  0.21008982717E+04  0.50400001928E-02 0.  1.
    10030    2    1    2    0    0  0.00000000000E+00  0.00000000000E+00 -0.18352303099E+04  0.23665662336E+04  0.14941771808E+04 0.  0.
        2    1    3    3  502    0 -0.22424662714E+03 -0.17436550975E+03  0.17679770243E+03  0.33458527816E+03  0.25500000920E-02 0. -1.
       -2    1    3    3    0  502  0.22424662714E+03  0.17436550975E+03 -0.20120280123E+04  0.20319809554E+04  0.25500000920E-02 0.  1.
</event>
<event>
 5   0  0.1126175E-03  0.1681710E+04  0.7818609E-02  0.8771865E-01
        2   -1    0    0  501    0  0.00000000000E+00  0.00000000000E+00  0.89212861428E+03  0.89212861428E+03  0.25500000920E-02 0.  1.
       -2   -1    0    0    0  501  0.00000000000E+00  0.00000000000E+00 -0.79252839490E+03  0.79252839490E+03  0.25500000920E-02 0. -1.
    10030    2    1    2    0    0  0.00000000000E+00  0.00000000000E+00  0.99600219377E+02  0.16846570092E+04  0.16817101519E+04 0.  0.
        3    1    3    3  502    0  0.25901289881E+03  0.24847957881E+03 -0.71193188036E+03  0.79729341858E+03  0.10100000352E+00 0. -1.
       -3    1    3    3    0  502 -0.25901289881E+03 -0.24847957881E+03  0.81153209973E+03  0.88736359061E+03  0.10100000352E+00 0.  1.
</event>
<event>
 5   0  0.1097156E-03  0.1485885E+04  0.7818609E-02  0.8893894E-01
        2   -1    0    0  501    0  0.00000000000E+00  0.00000000000E+00  0.49590884189E+03  0.49590884190E+03  0.25500000920E-02 0. -1.
       -2   -1    0    0    0  501  0.00000000000E+00  0.00000000000E+00 -0.11130341816E+04  0.11130341816E+04  0.25500000920E-02 0.  1.
    10030    2    1    2    0    0  0.00000000000E+00  0.00000000000E+00 -0.61712533969E+03  0.16089430235E+04  0.14858849107E+04 0.  0.
        2    1    3    3  502    0 -0.73257212286E+03 -0.67005727174E+02 -0.42115393032E+03  0.84765695638E+03  0.25500000920E-02 0.  1.
       -2    1    3    3    0  502  0.73257212286E+03  0.67005727174E+02 -0.19597140937E+03  0.76128606710E+03  0.25500000920E-02 0. -1.
</event>
<event>
 5   0  0.1097156E-03  0.1436825E+04  0.7818609E-02  0.8927585E-01
       -2   -1    0    0    0  501  0.00000000000E+00  0.00000000000E+00  0.68859419545E+03  0.68859419545E+03  0.25500000920E-02 0.  1.
        2   -1    0    0  501    0  0.00000000000E+00  0.00000000000E+00 -0.74952243085E+03  0.74952243085E+03  0.25500000920E-02 0. -1.
    10030    2    1    2    0    0  0.00000000000E+00  0.00000000000E+00 -0.60928235401E+02  0.14381166263E+04  0.14368253829E+04 0.  0.
        2    1    3    3  502    0 -0.44066858939E+03 -0.41062071978E+03  0.36144697682E+03  0.70245433891E+03  0.25500000920E-02 0. -1.
       -2    1    3    3    0  502  0.44066858939E+03  0.41062071978E+03 -0.42237521222E+03  0.73566228740E+03  0.25500000920E-02 0.  1.
</event>
<event>
 5   0  0.5606965E-04  0.1506081E+04  0.7818609E-02  0.8880419E-01
       -1   -1    0    0    0  501  0.00000000000E+00  0.00000000000E+00  0.53654959462E+03  0.53654959464E+03  0.50400001928E-02 0. -1.
        1   -1    0    0  501    0  0.00000000000E+00  0.00000000000E+00 -0.10568829059E+04  0.10568829059E+04  0.50400001928E-02 0.  1.
    10030    2    1    2    0    0  0.00000000000E+00  0.00000000000E+00 -0.52033331127E+03  0.15934325005E+04  0.15060811329E+04 0.  0.
        4    1    3    3  502    0  0.32520167264E+03  0.39413634081E+02  0.45721519437E+03  0.56245613989E+03  0.12699999809E+01 0. -1.
       -4    1    3    3    0  502 -0.32520167264E+03 -0.39413634081E+02 -0.97754850564E+03  0.10309763606E+04  0.12699999809E+01 0.  1.
</event>
<event>
 5   0  0.4070625E-04  0.1513645E+04  0.7818609E-02  0.8875429E-01
       -3   -1    0    0    0  501  0.00000000000E+00  0.00000000000E+00  0.75400622455E+03  0.75400623131E+03  0.10100000352E+00 0.  1.
        3   -1    0    0  501    0  0.00000000000E+00  0.00000000000E+00 -0.75964957578E+03  0.75964958249E+03  0.10100000352E+00 0. -1.
    10030    2    1    2    0    0  0.00000000000E+00  0.00000000000E+00 -0.56433512274E+01  0.15136558138E+04  0.15136452937E+04 0.  0.
        1    1    3    3  502    0 -0.73293700607E+03  0.12604506560E+03  0.13752353856E+03  0.75630465893E+03  0.50400001928E-02 0. -1.
       -1    1    3    3    0  502  0.73293700607E+03 -0.12604506560E+03 -0.14316688979E+03  0.75735115487E+03  0.50400001928E-02 0.  1.
</event>
<event>
 5   0  0.1149716E-03  0.1500923E+04  0.7818609E-02  0.8883839E-01
       -2   -1    0    0    0  501  0.00000000000E+00  0.00000000000E+00  0.92271388522E+03  0.92271388523E+03  0.25500000920E-02 0.  1.
        2   -1    0    0  501    0  0.00000000000E+00  0.00000000000E+00 -0.61036517470E+03  0.61036517471E+03  0.25500000920E-02 0. -1.
    10030    2    1    2    0    0  0.00000000000E+00  0.00000000000E+00  0.31234871052E+03  0.15330790599E+04  0.15009229451E+04 0.  0.
        1    1    3    3  502    0 -0.11760971878E+03 -0.15051875252E+03 -0.58511823906E+03  0.61550897192E+03  0.50400001928E-02 0. -1.
       -1    1    3    3    0  502  0.11760971878E+03  0.15051875252E+03  0.89746694958E+03  0.91757008802E+03  0.50400001928E-02 0.  1.
</event>
<event>
 5   0  0.1126175E-03  0.1404443E+04  0.7818609E-02  0.8950608E-01
        2   -1    0    0  501    0  0.00000000000E+00  0.00000000000E+00  0.14551213070E+04  0.14551213070E+04  0.25500000920E-02 0. -1.
       -2   -1    0    0    0  501  0.00000000000E+00  0.00000000000E+00 -0.33888264494E+03  0.33888264495E+03  0.25500000920E-02 0.  1.
    10030    2    1    2    0    0  0.00000000000E+00  0.00000000000E+00  0.11162386620E+04  0.17940039519E+04  0.14044434588E+04 0.  0.
        3    1    3    3  502    0  0.44030132945E+03 -0.23426876396E+03 -0.73334364909E+02  0.50410817664E+03  0.10100000352E+00 0.  1.
       -3    1    3    3    0  502 -0.44030132945E+03  0.23426876396E+03  0.11895730269E+04  0.12898957753E+04  0.10100000352E+00 0. -1.
</event>
<event>
 5   0  0.5914645E-04  0.1472479E+04  0.7818609E-02  0.8902963E-01
       -1   -1    0    0    0  501  0.00000000000E+00  0.00000000000E+00  0.38568469965E+03  0.38568469968E+03  0.50400001928E-02 0.  1.
        1   -1    0    0  501    0  0.00000000000E+00  0.00000000000E+00 -0.14054193541E+04  0.14054193541E+04  0.50400001928E-02 0. -1.
    10030    2    1    2    0    0  0.00000000000E+00  0.00000000000E+00 -0.10197346544E+04  0.17911040538E+04  0.14724791904E+04 0.  0.
        2    1    3    3  502    0  0.13408445117E+03 -0.64923870290E+03 -0.12032111987E+03  0.67377051381E+03  0.25500000920E-02 0.  1.
       -2    1    3    3    0  502 -0.13408445117E+03  0.64923870290E+03 -0.89941353457E+03  0.11173335400E+04  0.25500000920E-02 0. -1.
</event>
<event>
 5   0  0.1126175E-03  0.1516927E+04  0.7818609E-02  0.8873274E-01
       -2   -1    0    0    0  501  0.00000000000E+00  0.00000000000E+00  0.39738135137E+03  0.39738135138E+03  0.25500000920E-02 0.  1.
        2   -1    0    0  501    0  0.00000000000E+00  0.00000000000E+00 -0.14476442855E+04  0.14476442855E+04  0.25500000920E-02 0. -1.
    10030    2    1    2    0    0  0.00000000000E+00  0.00000000000E+00 -0.10502629341E+04  0.18450256368E+04  0.15169269494E+04 0.  0.
        3    1    3    3  502    0 -0.38417716765E+01 -0.48182670308E+03  0.18730312234E+03  0.51696634402E+03  0.10100000352E+00 0.  1.
       -3    1    3    3    0  502  0.38417716765E+01  0.48182670308E+03 -0.12375660564E+04  0.13280592928E+04  0.10100000352E+00 0. -1.
</event>
<event>
 5   0  0.1097156E-03  0.1472911E+04  0.7818609E-02  0.8902670E-01
       -2   -1    0    0    0  501  0.00000000000E+00  0.00000000000E+00  0.87084782084E+03  0.87084782084E+03  0.25500000920E-02 0. -1.
        2   -1    0    0  501    0  0.00000000000E+00  0.00000000000E+00 -0.62280268897E+03  0.62280268897E+03  0.25500000920E-02 0.  1.
    10030    2    1    2    0    0  0.00000000000E+00  0.00000000000E+00  0.24804513187E+03  0.14936505098E+04  0.14729105397E+04 0.  0.
        2    1    3    3  502    0  0.10261495965E+03 -0.54229349260E+03  0.61848899806E+03  0.82893950490E+03  0.25500000920E-02 0. -1.
       -2    1    3    3    0  502 -0.10261495965E+03  0.54229349260E+03 -0.37044386619E+03  0.66471100492E+03  0.25500000920E-02 0.  1.
</event>
<event>
 5   0  0.1082667E-03  0.1513842E+04  0.7818609E-02  0.8875300E-01
        2   -1    0    0  501    0  0.00000000000E+00  0.00000000000E+00  0.78314013884E+03  0.78314013884E+03  0.25500000920E-02 0.  1.
       -2   -1    0    0    0  501  0.00000000000E+00  0.00000000000E+00 -0.73157971475E+03  0.73157971475E+03  0.25500000920E-02 0. -1.
    10030    2    1    2    0    0  0.00000000000E+00  0.00000000000E+00  0.51560424092E+02  0.15147198536E+04  0.15138420517E+04 0.  0.
        5    1    3    3  502    0 -0.95594483049E+02 -0.53794506616E+03 -0.49834042841E+03  0.73951908155E+03  0.46999998093E+01 0. -1.
       -5    1    3    3    0  502  0.95594483049E+02  0.53794506616E+03  0.54990085250E+03  0.77520077204E+03  0.46999998093E+01 0.  1.
</event>
<event>
 5   0  0.6146552E-04  0.1562519E+04  0.7818609E-02  0.8843911E-01
        1   -1    0    0  501    0  0.00000000000E+00  0.00000000000E+00  0.71652065564E+03  0.71652065566E+03  0.50400001928E-02 0.  1.
       -1   -1    0    0    0  501  0.00000000000E+00  0.00000000000E+00 -0.85184743253E+03  0.85184743255E+03  0.50400001928E-02 0. -1.
    10030    2    1    2    0    0  0.00000000000E+00  0.00000000000E+00 -0.13532677689E+03  0.15683680882E+04  0.15625188394E+04 0.  0.
        5    1    3    3  502    0  0.29888506243E+03  0.72180514577E+03 -0.70714816932E+02  0.78444733688E+03  0.46999998093E+01 0.  1.
       -5    1    3    3    0  502 -0.29888506243E+03 -0.72180514577E+03 -0.64611959959E+02  0.78392075133E+03  0.46999998093E+01 0. -1.
</event>
<event>
 5   0  0.6146552E-04  0.1504801E+04  0.7818609E-02  0.8881267E-01
        1   -1    0    0  501    0  0.00000000000E+00  0.00000000000E+00  0.73763665983E+03  0.73763665984E+03  0.50400001928E-02 0. -1.
       -1   -1    0    0    0  501  0.00000000000E+00  0.00000000000E+00 -0.76745962597E+03  0.76745962599E+03  0.50400001928E-02 0.  1.
    10030    2    1    2    0    0  0.00000000000E+00  0.00000000000E+00 -0.29822966144E+02  0.15050962858E+04  0.15048007909E+04 0.  0.
        5    1    3    3  502    0 -0.63510076248E+03  0.58555508707E+02  0.38429411434E+03  0.74463802107E+03  0.46999998093E+01 0. -1.
       -5    1    3    3    0  502  0.63510076248E+03 -0.58555508707E+02 -0.41411708048E+03  0.76045826476E+03  0.46999998093E+01 0.  1.
</event>
<event>
 5   0  0.1149716E-03  0.1497600E+04  0.7818609E-02  0.8886051E-01
       -2   -1    0    0    0  501  0.00000000000E+00  0.00000000000E+00  0.70715933028E+03  0.70715933028E+03  0.25500000920E-02 0. -1.
        2   -1    0    0  501    0  0.00000000000E+00  0.00000000000E+00 -0.79289220372E+03  0.79289220373E+03  0.25500000920E-02 0.  1.
    10030    2    1    2    0    0  0.00000000000E+00  0.00000000000E+00 -0.85732873444E+02  0.15000515340E+04  0.14975995724E+04 0.  0.
        1    1    3    3  502    0  0.33349023611E+03  0.50837233272E+03  0.39493379174E+03  0.72500404560E+03  0.50400001928E-02 0. -1.
       -1    1    3    3    0  502 -0.33349023611E+03 -0.50837233272E+03 -0.48066666518E+03  0.77504748841E+03  0.50400001928E-02 0.  1.
</event>
<event>
 5   0  0.5606965E-04  0.1506794E+04  0.7818609E-02  0.8879948E-01
        1   -1    0    0  501    0  0.00000000000E+00  0.00000000000E+00  0.10656310874E+04  0.10656310874E+04  0.50400001928E-02 0. -1.
       -1   -1    0    0    0  501  0.00000000000E+00  0.00000000000E+00 -0.53264870021E+03  0.53264870023E+03  0.50400001928E-02 0.  1.
    10030    2    1    2    0    0  0.00000000000E+00  0.00000000000E+00  0.53298238717E+03  0.15982797876E+04  0.15067939655E+04 0.  0.
        4    1    3    3  502    0 -0.42977928848E+03 -0.60559312902E+03  0.13168377827E+03  0.75418532542E+03  0.12699999809E+01 0. -1.
       -4    1    3    3    0  502  0.42977928848E+03  0.60559312902E+03  0.40129860890E+03  0.84409446220E+03  0.12699999809E+01 0.  1.
</event>
<event>
 5   0  0.1097156E-03  0.1516293E+04  0.7818609E-02  0.8873690E-01
       -2   -1    0    0    0  501  0.00000000000E+00  0.00000000000E+00  0.53320740094E+03  0.53320740095E+03  0.25500000920E-02 0. -1.
        2   -1    0    0  501    0  0.00000000000E+00  0.00000000000E+00 -0.10779779592E+04  0.10779779592E+04  0.25500000920E-02 0.  1.
    10030    2    1    2    0    0  0.00000000000E+00  0.00000000000E+00 -0.54477055829E+03  0.16111853602E+04  0.15162926181E+04 0.  0.
        2    1    3    3  502    0  0.42707895491E+03  0.56770729356E+03  0.89438783011E+01  0.71047026529E+03  0.25500000920E-02 0. -1.
       -2    1    3    3    0  502 -0.42707895491E+03 -0.56770729356E+03 -0.55371443659E+03  0.90071509490E+03  0.25500000920E-02 0.  1.
</event>
<event>
 5   0  0.5924403E-04  0.1504053E+04  0.7818609E-02  0.8881762E-01
       -1   -1    0    0    0  501  0.00000000000E+00  0.00000000000E+00  0.39482388324E+03  0.39482388327E+03  0.50400001928E-02 0.  1.
        1   -1    0    0  501    0  0.00000000000E+00  0.00000000000E+00 -0.14323946315E+04  0.14323946315E+04  0.50400001928E-02 0. -1.
    10030    2    1    2    0    0  0.00000000000E+00  0.00000000000E+00 -0.10375707483E+04  0.18272185148E+04  0.15040526730E+04 0.  0.
        1    1    3    3  502    0  0.24165740779E+03  0.27598946805E+03 -0.13163273351E+04  0.13664867882E+04  0.50400001928E-02 0. -1.
       -1    1    3    3    0  502 -0.24165740779E+03 -0.27598946805E+03  0.27875658679E+03  0.46073172662E+03  0.50400001928E-02 0.  1.
</event>
<event>
 5   0  0.1147755E-03  0.1504457E+04  0.7818609E-02  0.8881495E-01
       -2   -1    0    0    0  501  0.00000000000E+00  0.00000000000E+00  0.41379122765E+03  0.41379122766E+03  0.25500000920E-02 0.  1.
        2   -1    0    0  501    0  0.00000000000E+00  0.00000000000E+00 -0.13674706406E+04  0.13674706406E+04  0.25500000920E-02 0. -1.
    10030    2    1    2    0    0  0.00000000000E+00  0.00000000000E+00 -0.95367941297E+03  0.17812618683E+04  0.15044565200E+04 0.  0.
        4    1    3    3  502    0  0.18292193989E+03  0.49072633310E+03 -0.11161648166E+04  0.12329226581E+04  0.12699999809E+01 0. -1.
       -4    1    3    3    0  502 -0.18292193989E+03 -0.49072633310E+03  0.16248540367E+03  0.54833921016E+03  0.12699999809E+01 0.  1.
</event>
<event>
 5   0  0.5606965E-04  0.1526615E+04  0.7818609E-02  0.8866945E-01
       -1   -1    0    0    0  501  0.00000000000E+00  0.00000000000E+00  0.77214821460E+03  0.77214821462E+03  0.50400001928E-02 0.  1.
        1   -1    0    0  501    0  0.00000000000E+00  0.00000000000E+00 -0.75456800425E+03  0.75456800427E+03  0.50400001928E-02 0. -1.
    10030    2    1    2    0    0  0.00000000000E+00  0.00000000000E+00  0.17580210351E+02  0.15267162189E+04  0.15266149970E+04 0.  0.
        4    1    3    3  502    0  0.33085851869E+03  0.28048886523E+02  0.69613664767E+03  0.77127293779E+03  0.12699999809E+01 0.  1.
       -4    1    3    3    0  502 -0.33085851869E+03 -0.28048886523E+02 -0.67855643732E+03  0.75544328110E+03  0.12699999809E+01 0. -1.
</event>
<event>
 5   0  0.4070625E-04  0.1503758E+04  0.7818609E-02  0.8881958E-01
        4   -1    0    0  501    0  0.00000000000E+00  0.00000000000E+00  0.49695862248E+03  0.49696024525E+03  0.12699999809E+01 0.  1.
       -4   -1    0    0    0  501  0.00000000000E+00  0.00000000000E+00 -0.11375595269E+04  0.11375602358E+04  0.12699999809E+01 0. -1.
    10030    2    1    2    0    0  0.00000000000E+00  0.00000000000E+00 -0.64060090443E+03  0.16345204811E+04  0.15037578543E+04 0.  0.
        3    1    3    3  502    0  0.20884147371E+03  0.26032331552E+03 -0.10526377760E+04  0.11042777221E+04  0.10100000352E+00 0. -1.
       -3    1    3    3    0  502 -0.20884147371E+03 -0.26032331552E+03  0.41203687159E+03  0.53024275902E+03  0.10100000352E+00 0.  1.
</event>
<event>
 5   0  0.5606965E-04  0.1505486E+04  0.7818609E-02  0.8880813E-01
        1   -1    0    0  501    0  0.00000000000E+00  0.00000000000E+00  0.17484418787E+04  0.17484418787E+04  0.50400001928E-02 0.  1.
       -1   -1    0    0    0  501  0.00000000000E+00  0.00000000000E+00 -0.32407274630E+03  0.32407274634E+03  0.50400001928E-02 0. -1.
    10030    2    1    2    0    0  0.00000000000E+00  0.00000000000E+00  0.14243691324E+04  0.20725146250E+04  0.15054864482E+04 0.  0.
        4    1    3    3  502    0  0.77359106754E+02 -0.27933572697E+03 -0.24416783520E+03  0.37898868639E+03  0.12699999809E+01 0. -1.
       -4    1    3    3    0  502 -0.77359106754E+02  0.27933572697E+03  0.16685369676E+04  0.16935259386E+04  0.12699999809E+01 0.  1.
</event>
<event>
 5   0  0.6146552E-04  0.1504443E+04  0.7818609E-02  0.8881504E-01
        1   -1    0    0  501    0  0.00000000000E+00  0.00000000000E+00  0.49614179608E+03  0.49614179611E+03  0.50400001928E-02 0. -1.
       -1   -1    0    0    0  501  0.00000000000E+00  0.00000000000E+00 -0.11404745012E+04  0.11404745013E+04  0.50400001928E-02 0.  1.
    10030    2    1    2    0    0  0.00000000000E+00  0.00000000000E+00 -0.64433270517E+03  0.16366162974E+04  0.15044428437E+04 0.  0.
        5    1    3    3  502    0  0.32171608605E+03  0.28005298639E+03  0.35185122050E+03  0.55294871966E+03  0.46999998093E+01 0. -1.
       -5    1    3    3    0  502 -0.32171608605E+03 -0.28005298639E+03 -0.99618392567E+03  0.10836675777E+04  0.46999998093E+01 0.  1.
</event>
<event>
 5   0  0.1149716E-03  0.1485873E+04  0.7818609E-02  0.8893902E-01
        2   -1    0    0  501    0  0.00000000000E+00  0.00000000000E+00  0.17762307993E+04  0.17762307993E+04  0.25500000920E-02 0.  1.
       -2   -1    0    0    0  501  0.00000000000E+00  0.00000000000E+00 -0.31074503154E+03  0.31074503155E+03  0.25500000920E-02 0. -1.
    10030    2    1    2    0    0  0.00000000000E+00  0.00000000000E+00  0.14654857678E+04  0.20869758309E+04  0.14858733402E+04 0.  0.
        1    1    3    3  502    0  0.16521251733E+03 -0.40848181836E+03 -0.10740784301E+03  0.45352951015E+03  0.50400001928E-02 0. -1.
       -1    1    3    3    0  502 -0.16521251733E+03  0.40848181836E+03  0.15728936108E+04  0.16334463207E+04  0.50400001928E-02 0.  1.
</event>
<event>
 5   0  0.6146552E-04  0.1491660E+04  0.7818609E-02  0.8890018E-01
        1   -1    0    0  501    0  0.00000000000E+00  0.00000000000E+00  0.16745419752E+04  0.16745419752E+04  0.50400001928E-02 0. -1.
       -1   -1    0    0    0  501  0.00000000000E+00  0.00000000000E+00 -0.33218790523E+03  0.33218790527E+03  0.50400001928E-02 0.  1.
    10030    2    1    2    0    0  0.00000000000E+00  0.00000000000E+00  0.13423540700E+04  0.20067298805E+04  0.14916602710E+04 0.  0.
        5    1    3    3  502    0  0.82952030284E+02 -0.57770032601E+03  0.12958681416E+04  0.14212371499E+04  0.46999998093E+01 0. -1.
       -5    1    3    3    0  502 -0.82952030284E+02  0.57770032601E+03  0.46485928403E+02  0.58549273056E+03  0.46999998093E+01 0.  1.
</event>
<event>
 5   0  0.1149716E-03  0.1481774E+04  0.7818609E-02  0.8896664E-01
        2   -1    0    0  501    0  0.00000000000E+00  0.00000000000E+00  0.90938227857E+03  0.90938227857E+03  0.25500000920E-02 0. -1.
       -2   -1    0    0    0  501  0.00000000000E+00  0.00000000000E+00 -0.60361146871E+03  0.60361146872E+03  0.25500000920E-02 0.  1.
    10030    2    1    2    0    0  0.00000000000E+00  0.00000000000E+00  0.30577080986E+03  0.15129937473E+04  0.14817740351E+04 0.  0.
        1    1    3    3  502    0  0.49938451828E+02 -0.49414457439E+03 -0.40846203117E+03  0.64305049592E+03  0.50400001928E-02 0.  1.
       -1    1    3    3    0  502 -0.49938451828E+02  0.49414457439E+03  0.71423284103E+03  0.86994325137E+03  0.50400001928E-02 0. -1.
</event>
<event>
 5   0  0.5840834E-04  0.1516149E+04  0.7818609E-02  0.8873785E-01
        1   -1    0    0  501    0  0.00000000000E+00  0.00000000000E+00  0.48765967842E+03  0.48765967845E+03  0.50400001928E-02 0. -1.
       -1   -1    0    0    0  501  0.00000000000E+00  0.00000000000E+00 -0.11784383431E+04  0.11784383431E+04  0.50400001928E-02 0.  1.
    10030    2    1    2    0    0  0.00000000000E+00  0.00000000000E+00 -0.69077866467E+03  0.16660980215E+04  0.15161488891E+04 0.  0.
        3    1    3    3  502    0 -0.34716415808E+03 -0.77760932212E+02  0.39022406060E+03  0.52805732918E+03  0.10100000352E+00 0. -1.
       -3    1    3    3    0  502  0.34716415808E+03  0.77760932212E+02 -0.10810027253E+04  0.11380406924E+04  0.10100000352E+00 0.  1.
</event>
<event>
 5   0  0.6146552E-04  0.1485149E+04  0.7818609E-02  0.8894389E-01
       -1   -1    0    0    0  501  0.00000000000E+00  0.00000000000E+00  0.11650100354E+04  0.11650100354E+04  0.50400001928E-02 0.  1.
        1   -1    0    0  501    0  0.00000000000E+00  0.00000000000E+00 -0.47331503303E+03  0.47331503305E+03  0.50400001928E-02 0. -1.
    10030    2    1    2    0    0  0.00000000000E+00  0.00000000000E+00  0.69169500236E+03  0.16383250685E+04  0.14851488321E+04 0.  0.
        5    1    3    3  502    0 -0.65827517261E+03 -0.32540424816E+03  0.46759596024E+03  0.87056429954E+03  0.46999998093E+01 0. -1.
       -5    1    3    3    0  502  0.65827517261E+03  0.32540424816E+03  0.22409904212E+03  0.76776076891E+03  0.46999998093E+01 0.  1.
</event>
<event>
 5   0  0.1147755E-03  0.1547297E+04  0.7818609E-02  0.8853596E-01
        2   -1    0    0  501    0  0.00000000000E+00  0.00000000000E+00  0.17306809090E+04  0.17306809090E+04  0.25500000920E-02 0. -1.
       -2   -1    0    0    0  501  0.00000000000E+00  0.00000000000E+00 -0.34583634965E+03  0.34583634966E+03  0.25500000920E-02 0.  1.
    10030    2    1    2    0    0  0.00000000000E+00  0.00000000000E+00  0.13848445593E+04  0.20765172586E+04  0.15472974736E+04 0.  0.
        4    1    3    3  502    0  0.34209372718E+03  0.69381068059E+03  0.70768701486E+03  0.10484387930E+04  0.12699999809E+01 0. -1.
       -4    1    3    3    0  502 -0.34209372718E+03 -0.69381068059E+03  0.67715754446E+03  0.10280784657E+04  0.12699999809E+01 0.  1.
</event>
<event>
 5   0  0.1097156E-03  0.1493837E+04  0.7818609E-02  0.8888562E-01
        2   -1    0    0  501    0  0.00000000000E+00  0.00000000000E+00  0.96894773507E+03  0.96894773507E+03  0.25500000920E-02 0. -1.
       -2   -1    0    0    0  501  0.00000000000E+00  0.00000000000E+00 -0.57576609526E+03  0.57576609527E+03  0.25500000920E-02 0.  1.
    10030    2    1    2    0    0  0.00000000000E+00  0.00000000000E+00  0.39318163981E+03  0.15447138303E+04  0.14938370111E+04 0.  0.
        2    1    3    3  502    0  0.61906395589E+03  0.72781328311E+02 -0.22894620896E+03  0.66404342466E+03  0.25500000920E-02 0.  1.
       -2    1    3    3    0  502 -0.61906395589E+03 -0.72781328311E+02  0.62212784877E+03  0.88067040568E+03  0.25500000920E-02 0. -1.
</event>
<event>
 5   0  0.5606965E-04  0.1496494E+04  0.7818609E-02  0.8886788E-01
        1   -1    0    0  501    0  0.00000000000E+00  0.00000000000E+00  0.19904047461E+04  0.19904047461E+04  0.50400001928E-02 0.  1.
       -1   -1    0    0    0  501  0.00000000000E+00  0.00000000000E+00 -0.28128636115E+03  0.28128636119E+03  0.50400001928E-02 0. -1.
    10030    2    1    2    0    0  0.00000000000E+00  0.00000000000E+00  0.17091183850E+04  0.22716911073E+04  0.14964941808E+04 0.  0.
        4    1    3    3  502    0  0.59658025414E+03  0.81888501663E+02  0.15287641857E+04  0.16430871172E+04  0.12699999809E+01 0.  1.
       -4    1    3    3    0  502 -0.59658025414E+03 -0.81888501663E+02  0.18035419932E+03  0.62860399016E+03  0.12699999809E+01 0. -1.
</event>
<event>
 5   0  0.1082667E-03  0.1354758E+04  0.7818609E-02  0.8987234E-01
        2   -1    0    0  501    0  0.00000000000E+00  0.00000000000E+00  0.90575980364E+03  0.90575980364E+03  0.25500000920E-02 0.  1.
       -2   -1    0    0    0  501  0.00000000000E+00  0.00000000000E+00 -0.50658302815E+03  0.50658302816E+03  0.25500000920E-02 0. -1.
    10030    2    1    2    0    0  0.00000000000E+00  0.00000000000E+00  0.39917677548E+03  0.14123428318E+04  0.13547583461E+04 0.  0.
        5    1    3    3  502    0  0.26846534012E+03  0.27037935490E+03 -0.38425353640E+03  0.54115755990E+03  0.46999998093E+01 0. -1.
       -5    1    3    3    0  502 -0.26846534012E+03 -0.27037935490E+03  0.78343031188E+03  0.87118527190E+03  0.46999998093E+01 0.  1.
</event>
<event>
 5   0  0.5924403E-04  0.1510960E+04  0.7818609E-02  0.8877197E-01
       -1   -1    0    0    0  501  0.00000000000E+00  0.00000000000E+00  0.71024768510E+03  0.71024768512E+03  0.50400001928E-02 0.  1.
        1   -1    0    0  501    0  0.00000000000E+00  0.00000000000E+00 -0.80359287243E+03  0.80359287244E+03  0.50400001928E-02 0. -1.
    10030    2    1    2    0    0  0.00000000000E+00  0.00000000000E+00 -0.93345187328E+02  0.15138405576E+04  0.15109599299E+04 0.  0.
        1    1    3    3  502    0 -0.67226536374E+03 -0.29471944944E+03 -0.22575817058E+03  0.76796290585E+03  0.50400001928E-02 0.  1.
       -1    1    3    3    0  502  0.67226536374E+03  0.29471944944E+03  0.13241298325E+03  0.74587765171E+03  0.50400001928E-02 0. -1.
</event>
<event>
 5   0  0.1147755E-03  0.1509982E+04  0.7818609E-02  0.8877842E-01
       -2   -1    0    0    0  501  0.00000000000E+00  0.00000000000E+00  0.94726194320E+03  0.94726194321E+03  0.25500000920E-02 0.  1.
        2   -1    0    0  501    0  0.00000000000E+00  0.00000000000E+00 -0.60174630128E+03  0.60174630128E+03  0.25500000920E-02 0. -1.
    10030    2    1    2    0    0  0.00000000000E+00  0.00000000000E+00  0.34551564193E+03  0.15490082445E+04  0.15099819478E+04 0.  0.
        4    1    3    3  502    0  0.37086338418E+03 -0.99737441814E+02  0.83957521587E+03  0.92324176846E+03  0.12699999809E+01 0.  1.
       -4    1    3    3    0  502 -0.37086338418E+03  0.99737441814E+02 -0.49405957394E+03  0.62576647603E+03  0.12699999809E+01 0. -1.
</event>
<event>
 5   0  0.5914645E-04  0.1492964E+04  0.7818609E-02  0.8889145E-01
        1   -1    0    0  501    0  0.00000000000E+00  0.00000000000E+00  0.17120472055E+04  0.17120472056E+04  0.50400001928E-02 0. -1.
       -1   -1    0    0    0  501  0.00000000000E+00  0.00000000000E+00 -0.32547890728E+03  0.32547890732E+03  0.50400001928E-02 0.  1.
    10030    2    1    2    0    0  0.00000000000E+00  0.00000000000E+00  0.13865682983E+04  0.20375261129E+04  0.14929638358E+04 0.  0.
        2    1    3    3  502    0  0.63457318907E+03 -0.16937301530E+03  0.20910484893E+03  0.68927149111E+03  0.25500000920E-02 0.  1.
       -2    1    3    3    0  502 -0.63457318907E+03  0.16937301530E+03  0.11774634493E+04  0.13482546218E+04  0.25500000920E-02 0. -1.
</event>
<event>
 5   0  0.5914645E-04  0.1503151E+04  0.7818609E-02  0.8882361E-01
        1   -1    0    0  501    0  0.00000000000E+00  0.00000000000E+00  0.49520491828E+03  0.49520491830E+03  0.50400001928E-02 0. -1.
       -1   -1    0    0    0  501  0.00000000000E+00  0.00000000000E+00 -0.11406700160E+04  0.11406700160E+04  0.50400001928E-02 0.  1.
    10030    2    1    2    0    0  0.00000000000E+00  0.00000000000E+00 -0.64546509770E+03  0.16358749343E+04  0.15031505608E+04 0.  0.
        2    1    3    3  502    0 -0.32514516092E+03 -0.65211634840E+03 -0.12238442196E+03  0.73888636086E+03  0.25500000920E-02 0. -1.
       -2    1    3    3    0  502  0.32514516092E+03  0.65211634840E+03 -0.52308067574E+03  0.89698857343E+03  0.25500000920E-02 0.  1.
</event>
<event>
 5   0  0.1097156E-03  0.1506793E+04  0.7818609E-02  0.8879948E-01
        2   -1    0    0  501    0  0.00000000000E+00  0.00000000000E+00  0.50601947896E+03  0.50601947897E+03  0.25500000920E-02 0.  1.
       -2   -1    0    0    0  501  0.00000000000E+00  0.00000000000E+00 -0.11217082500E+04  0.11217082500E+04  0.25500000920E-02 0. -1.
    10030    2    1    2    0    0  0.00000000000E+00  0.00000000000E+00 -0.61568877103E+03  0.16277277290E+04  0.15067929177E+04 0.  0.
        2    1    3    3  502    0  0.47517202974E+03 -0.54328776553E+03 -0.54118091543E+03  0.90212351552E+03  0.25500000920E-02 0. -1.
       -2    1    3    3    0  502 -0.47517202974E+03  0.54328776553E+03 -0.74507855595E+02  0.72560421345E+03  0.25500000920E-02 0.  1.
</event>
<event>
 5   0  0.6146552E-04  0.1526092E+04  0.7818609E-02  0.8867285E-01
       -1   -1    0    0    0  501  0.00000000000E+00  0.00000000000E+00  0.69635389287E+03  0.69635389289E+03  0.50400001928E-02 0. -1.
        1   -1    0    0  501    0  0.00000000000E+00  0.00000000000E+00 -0.83612529804E+03  0.83612529805E+03  0.50400001928E-02 0.  1.
    10030    2    1    2    0    0  0.00000000000E+00  0.00000000000E+00 -0.13977140516E+03  0.15324791909E+04  0.15260918796E+04 0.  0.
        5    1    3    3  502    0 -0.25716555143E+03  0.57871901479E+03 -0.49730456837E+03  0.80522279069E+03  0.46999998093E+01 0.  1.
       -5    1    3    3    0  502  0.25716555143E+03 -0.57871901479E+03  0.35753316321E+03  0.72725640025E+03  0.46999998093E+01 0. -1.
</event>
<event>
 5   0  0.5924403E-04  0.1500618E+04  0.7818609E-02  0.8884042E-01
       -1   -1    0    0    0  501  0.00000000000E+00  0.00000000000E+00  0.40166197266E+03  0.40166197269E+03  0.50400001928E-02 0.  1.
        1   -1    0    0  501    0  0.00000000000E+00  0.00000000000E+00 -0.14015855470E+04  0.14015855470E+04  0.50400001928E-02 0. -1.
    10030    2    1    2    0    0  0.00000000000E+00  0.00000000000E+00 -0.99992357431E+03  0.18032475197E+04  0.15006180269E+04 0.  0.
        1    1    3    3  502    0  0.32142455088E+03 -0.59517991086E+03 -0.10981536317E+03  0.68528262944E+03  0.50400001928E-02 0.  1.
       -1    1    3    3    0  502 -0.32142455088E+03  0.59517991086E+03 -0.89010821115E+03  0.11179648902E+04  0.50400001928E-02 0. -1.
</event>
<event>
 5   0  0.6146552E-04  0.1357841E+04  0.7818609E-02  0.8984914E-01
        1   -1    0    0  501    0  0.00000000000E+00  0.00000000000E+00  0.23000378818E+04  0.23000378818E+04  0.50400001928E-02 0. -1.
       -1   -1    0    0    0  501  0.00000000000E+00  0.00000000000E+00 -0.20040242012E+03  0.20040242018E+03  0.50400001928E-02 0.  1.
    10030    2    1    2    0    0  0.00000000000E+00  0.00000000000E+00  0.20996354617E+04  0.25004403020E+04  0.13578411659E+04 0.  0.
        5    1    3    3  502    0  0.49796942644E+02  0.43054716241E+02 -0.19448149497E+03  0.20537425830E+03  0.46999998093E+01 0.  1.
       -5    1    3    3    0  502 -0.49796942644E+02 -0.43054716241E+02  0.22941169566E+04  0.22950660437E+04  0.46999998093E+01 0. -1.
</event>
<event>
 5   0  0.1097156E-03  0.1114432E+04  0.7818609E-02  0.9191238E-01
       -2   -1    0    0    0  501  0.00000000000E+00  0.00000000000E+00  0.14394453034E+03  0.14394453037E+03  0.25500000920E-02 0. -1.
        2   -1    0    0  501    0  0.00000000000E+00  0.00000000000E+00 -0.21570098271E+04  0.21570098271E+04  0.25500000920E-02 0.  1.
    10030    2    1    2    0    0  0.00000000000E+00  0.00000000000E+00 -0.20130652968E+04  0.23009543575E+04  0.11144321721E+04 0.  0.
        2    1    3    3  502    0  0.42315822219E+03  0.16459672612E+02 -0.17542688130E+04  0.18046586575E+04  0.25500000920E-02 0.  1.
       -2    1    3    3    0  502 -0.42315822219E+03 -0.16459672612E+02 -0.25879648384E+03  0.49629570004E+03  0.25500000920E-02 0. -1.
</event>
<event>
 5   0  0.1097156E-03  0.1478613E+04  0.7818609E-02  0.8898801E-01
        2   -1    0    0  501    0  0.00000000000E+00  0.00000000000E+00  0.10764178563E+04  0.10764178564E+04  0.25500000920E-02 0.  1.
       -2   -1    0    0    0  501  0.00000000000E+00  0.00000000000E+00 -0.50777125603E+03  0.50777125604E+03  0.25500000920E-02 0. -1.
    10030    2    1    2    0    0  0.00000000000E+00  0.00000000000E+00  0.56864660032E+03  0.15841891124E+04  0.14786129270E+04 0.  0.
        2    1    3    3  502    0  0.29697466433E+03  0.60909207917E+03 -0.32396911148E+02  0.67840745280E+03  0.25500000920E-02 0. -1.
       -2    1    3    3    0  502 -0.29697466433E+03 -0.60909207917E+03  0.60104351147E+03  0.90578165959E+03  0.25500000920E-02 0.  1.
</event>
<event>
 5   0  0.5924403E-04  0.1343360E+04  0.7818609E-02  0.8995870E-01
        1   -1    0    0  501    0  0.00000000000E+00  0.00000000000E+00  0.93720112844E+03  0.93720112845E+03  0.50400001928E-02 0. -1.
       -1   -1    0    0    0  501  0.00000000000E+00  0.00000000000E+00 -0.48138465920E+03  0.48138465923E+03  0.50400001928E-02 0.  1.
    10030    2    1    2    0    0  0.00000000000E+00  0.00000000000E+00  0.45581646924E+03  0.14185857877E+04  0.13433603327E+04 0.  0.
        1    1    3    3  502    0  0.18464402744E+02 -0.32370655555E+03  0.84908945133E+03  0.90888930276E+03  0.50400001928E-02 0. -1.
       -1    1    3    3    0  502 -0.18464402744E+02  0.32370655555E+03 -0.39327298209E+03  0.50969648492E+03  0.50400001928E-02 0.  1.
</event>
<event>
 5   0  0.1126175E-03  0.1461244E+04  0.7818609E-02  0.8910642E-01
        2   -1    0    0  501    0  0.00000000000E+00  0.00000000000E+00  0.91828958978E+03  0.91828958978E+03  0.25500000920E-02 0.  1.
       -2   -1    0    0    0  501  0.00000000000E+00  0.00000000000E+00 -0.58130755877E+03  0.58130755877E+03  0.25500000920E-02 0. -1.
    10030    2    1    2    0    0  0.00000000000E+00  0.00000000000E+00  0.33698203101E+03  0.14995971486E+04  0.14612442365E+04 0.  0.
        3    1    3    3  502    0  0.33166607002E+03  0.19557114833E+03 -0.46873980716E+03  0.60660322541E+03  0.10100000352E+00 0. -1.
       -3    1    3    3    0  502 -0.33166607002E+03 -0.19557114833E+03  0.80572183817E+03  0.89299392314E+03  0.10100000352E+00 0.  1.
</event>
<event>
 5   0  0.1126175E-03  0.1449763E+04  0.7818609E-02  0.8918565E-01
       -2   -1    0    0    0  501  0.00000000000E+00  0.00000000000E+00  0.60062857666E+03  0.60062857666E+03  0.25500000920E-02 0. -1.
        2   -1    0    0  501    0  0.00000000000E+00  0.00000000000E+00 -0.87483863298E+03  0.87483863299E+03  0.25500000920E-02 0.  1.
    10030    2    1    2    0    0  0.00000000000E+00  0.00000000000E+00 -0.27421005632E+03  0.14754672096E+04  0.14497628536E+04 0.  0.
        3    1    3    3  502    0 -0.61200424448E+02  0.71995391196E+03 -0.19622056292E+03  0.74872000561E+03  0.10100000352E+00 0. -1.
       -3    1    3    3    0  502  0.61200424448E+02 -0.71995391196E+03 -0.77989493405E+02  0.72674720404E+03  0.10100000352E+00 0.  1.
</event>
<event>
 5   0  0.1147755E-03  0.1500216E+04  0.7818609E-02  0.8884309E-01
       -2   -1    0    0    0  501  0.00000000000E+00  0.00000000000E+00  0.29425409112E+03  0.29425409113E+03  0.25500000920E-02 0. -1.
        2   -1    0    0  501    0  0.00000000000E+00  0.00000000000E+00 -0.19121647536E+04  0.19121647536E+04  0.25500000920E-02 0.  1.
    10030    2    1    2    0    0  0.00000000000E+00  0.00000000000E+00 -0.16179106625E+04  0.22064188448E+04  0.15002163866E+04 0.  0.
        4    1    3    3  502    0  0.26978689423E+03  0.61783653362E+03 -0.12926316458E+04  0.14578769273E+04  0.12699999809E+01 0.  1.
       -4    1    3    3    0  502 -0.26978689423E+03 -0.61783653362E+03 -0.32527901673E+03  0.74854191746E+03  0.12699999809E+01 0. -1.
</event>
<event>
 5   0  0.5606965E-04  0.1511842E+04  0.7818609E-02  0.8876616E-01
        1   -1    0    0  501    0  0.00000000000E+00  0.00000000000E+00  0.11811846220E+04  0.11811846220E+04  0.50400001928E-02 0. -1.
       -1   -1    0    0    0  501  0.00000000000E+00  0.00000000000E+00 -0.48376593684E+03  0.48376593686E+03  0.50400001928E-02 0.  1.
    10030    2    1    2    0    0  0.00000000000E+00  0.00000000000E+00  0.69741868513E+03  0.16649505588E+04  0.15118424326E+04 0.  0.
        4    1    3    3  502    0  0.22916160276E+03 -0.69051474516E+03  0.57464371534E+03  0.92711523876E+03  0.12699999809E+01 0. -1.
       -4    1    3    3    0  502 -0.22916160276E+03  0.69051474516E+03  0.12277496979E+03  0.73783532009E+03  0.12699999809E+01 0.  1.
</event>
<event>
 5   0  0.5606965E-04  0.1497472E+04  0.7818609E-02  0.8886136E-01
       -1   -1    0    0    0  501  0.00000000000E+00  0.00000000000E+00  0.50000086821E+03  0.50000086824E+03  0.50400001928E-02 0. -1.
        1   -1    0    0  501    0  0.00000000000E+00  0.00000000000E+00 -0.11212085506E+04  0.11212085506E+04  0.50400001928E-02 0.  1.
    10030    2    1    2    0    0  0.00000000000E+00  0.00000000000E+00 -0.62120768238E+03  0.16212094188E+04  0.14974715340E+04 0.  0.
        4    1    3    3  502    0  0.26469786027E+02 -0.68485675840E+03  0.15759115719E+02  0.68555042974E+03  0.12699999809E+01 0.  1.
       -4    1    3    3    0  502 -0.26469786027E+02  0.68485675840E+03 -0.63696679810E+03  0.93565898909E+03  0.12699999809E+01 0. -1.
</event>
<event>
 5   0  0.1082667E-03  0.1477412E+04  0.7818609E-02  0.8899614E-01
        2   -1    0    0  501    0  0.00000000000E+00  0.00000000000E+00  0.72485728115E+03  0.72485728115E+03  0.25500000920E-02 0. -1.
       -2   -1    0    0    0  501  0.00000000000E+00  0.00000000000E+00 -0.75281910899E+03  0.75281910899E+03  0.25500000920E-02 0.  1.
    10030    2    1    2    0    0  0.00000000000E+00  0.00000000000E+00 -0.27961827840E+02  0.14776763901E+04  0.14774118079E+04 0.  0.
        5    1    3    3  502    0 -0.68668027146E+02  0.10044358633E+03  0.71475104346E+03  0.72504851983E+03  0.46999998093E+01 0. -1.
       -5    1    3    3    0  502  0.68668027146E+02 -0.10044358633E+03 -0.74271287130E+03  0.75262787031E+03  0.46999998093E+01 0.  1.
</event>
<event>
 5   0  0.5606965E-04  0.1505565E+04  0.7818609E-02  0.8880760E-01
       -1   -1    0    0    0  501  0.00000000000E+00  0.00000000000E+00  0.24061575769E+03  0.24061575774E+03  0.50400001928E-02 0. -1.
        1   -1    0    0  501    0  0.00000000000E+00  0.00000000000E+00 -0.23551317169E+04  0.23551317169E+04  0.50400001928E-02 0.  1.
    10030    2    1    2    0    0  0.00000000000E+00  0.00000000000E+00 -0.21145159592E+04  0.25957474746E+04  0.15055654122E+04 0.  0.
        4    1    3    3  502    0  0.10829614036E+02  0.64315159567E+03 -0.17314652668E+04  0.18470882054E+04  0.12699999809E+01 0.  1.
       -4    1    3    3    0  502 -0.10829614036E+02 -0.64315159567E+03 -0.38305069240E+03  0.74865926923E+03  0.12699999809E+01 0. -1.
</event>
<event>
 5   0  0.1126175E-03  0.1497381E+04  0.7818609E-02  0.8886196E-01
       -2   -1    0    0    0  501  0.00000000000E+00  0.00000000000E+00  0.42318622086E+03  0.42318622087E+03  0.25500000920E-02 0. -1.
        2   -1    0    0  501    0  0.00000000000E+00  0.00000000000E+00 -0.13245645767E+04  0.13245645767E+04  0.25500000920E-02 0.  1.
    10030    2    1    2    0    0  0.00000000000E+00  0.00000000000E+00 -0.90137835582E+03  0.17477507976E+04  0.14973810170E+04 0.  0.
        3    1    3    3  502    0  0.63402676589E+03  0.28777793908E+03 -0.77189627781E+03  0.10395335281E+04  0.10100000352E+00 0.  1.
       -3    1    3    3    0  502 -0.63402676589E+03 -0.28777793908E+03 -0.12948207801E+03  0.70821726949E+03  0.10100000352E+00 0. -1.
</event>
<event>
 5   0  0.1082667E-03  0.1477706E+04  0.7818609E-02  0.8899415E-01
        2   -1    0    0  501    0  0.00000000000E+00  0.00000000000E+00  0.84416275120E+03  0.84416275120E+03  0.25500000920E-02 0. -1.
       -2   -1    0    0    0  501  0.00000000000E+00  0.00000000000E+00 -0.64668090085E+03  0.64668090085E+03  0.25500000920E-02 0.  1.
    10030    2    1    2    0    0  0.00000000000E+00  0.00000000000E+00  0.19748185035E+03  0.14908436521E+04  0.14777062339E+04 0.  0.
        5    1    3    3  502    0  0.27965888469E+03 -0.81736651525E+01 -0.59115567332E+03  0.65403594755E+03  0.46999998093E+01 0.  1.
       -5    1    3    3    0  502 -0.27965888469E+03  0.81736651525E+01  0.78863752367E+03  0.83680770451E+03  0.46999998093E+01 0. -1.
</event>
<event>
 5   0  0.5606965E-04  0.1512705E+04  0.7818609E-02  0.8876048E-01
        1   -1    0    0  501    0  0.00000000000E+00  0.00000000000E+00  0.65246481378E+03  0.65246481380E+03  0.50400001928E-02 0. -1.
       -1   -1    0    0    0  501  0.00000000000E+00  0.00000000000E+00 -0.87678125522E+03  0.87678125524E+03  0.50400001928E-02 0.  1.
    10030    2    1    2    0    0  0.00000000000E+00  0.00000000000E+00 -0.22431644144E+03  0.15292460690E+04  0.15127047543E+04 0.  0.
        4    1    3    3  502    0  0.14344777529E+03  0.81836932364E+02  0.63401363428E+03  0.65517131278E+03  0.12699999809E+01 0. -1.
       -4    1    3    3    0  502 -0.14344777529E+03 -0.81836932364E+02 -0.85833007572E+03  0.87407475626E+03  0.12699999809E+01 0.  1.
</event>
<event>
 5   0  0.5840834E-04  0.1693167E+04  0.7818609E-02  0.8765271E-01
       -1   -1    0    0    0  501  0.00000000000E+00  0.00000000000E+00  0.78188966155E+03  0.78188966157E+03  0.50400001928E-02 0. -1.
        1   -1    0    0  501    0  0.00000000000E+00  0.00000000000E+00 -0.91663039239E+03  0.91663039241E+03  0.50400001928E-02 0.  1.
    10030    2    1    2    0    0  0.00000000000E+00  0.00000000000E+00 -0.13474073084E+03  0.16985200540E+04  0.16931672420E+04 0.  0.
        3    1    3    3  502    0  0.64439222445E+03 -0.53112614051E+03 -0.20697750062E+03  0.86033482554E+03  0.10100000352E+00 0.  1.
       -3    1    3    3    0  502 -0.64439222445E+03  0.53112614051E+03  0.72236769784E+02  0.83818522844E+03  0.10100000352E+00 0. -1.
</event>
<event>
 5   0  0.5606965E-04  0.1502197E+04  0.7818609E-02  0.8882993E-01
        1   -1    0    0  501    0  0.00000000000E+00  0.00000000000E+00  0.62064565221E+03  0.62064565223E+03  0.50400001928E-02 0.  1.
       -1   -1    0    0    0  501  0.00000000000E+00  0.00000000000E+00 -0.90897085609E+03  0.90897085610E+03  0.50400001928E-02 0. -1.
    10030    2    1    2    0    0  0.00000000000E+00  0.00000000000E+00 -0.28832520388E+03  0.15296165083E+04  0.15021968045E+04 0.  0.
        4    1    3    3  502    0 -0.36477898770E+03 -0.59006024914E+03 -0.43736359973E+03  0.82007520311E+03  0.12699999809E+01 0.  1.
       -4    1    3    3    0  502  0.36477898770E+03  0.59006024914E+03  0.14903839585E+03  0.70954130522E+03  0.12699999809E+01 0. -1.
</event>
<event>
 5   0  0.1082667E-03  0.1519907E+04  0.7818609E-02  0.8871322E-01
       -2   -1    0    0    0  501  0.00000000000E+00  0.00000000000E+00  0.52259409449E+03  0.52259409450E+03  0.25500000920E-02 0. -1.
        2   -1    0    0  501    0  0.00000000000E+00  0.00000000000E+00 -0.11051207944E+04  0.11051207944E+04  0.25500000920E-02 0.  1.
    10030    2    1    2    0    0  0.00000000000E+00  0.00000000000E+00 -0.58252669991E+03  0.16277148889E+04  0.15199073667E+04 0.  0.
        5    1    3    3  502    0 -0.85431976565E+00 -0.53746672484E+03  0.28409270907E+03  0.60794898431E+03  0.46999998093E+01 0. -1.
       -5    1    3    3    0  502  0.85431976565E+00  0.53746672484E+03 -0.86661940897E+03  0.10197659046E+04  0.46999998093E+01 0.  1.
</event>
<event>
 5   0  0.5606965E-04  0.1508354E+04  0.7818609E-02  0.8878917E-01
       -1   -1    0    0    0  501  0.00000000000E+00  0.00000000000E+00  0.35349364895E+03  0.35349364898E+03  0.50400001928E-02 0. -1.
        1   -1    0    0  501    0  0.00000000000E+00  0.00000000000E+00 -0.16090319517E+04  0.16090319517E+04  0.50400001928E-02 0.  1.
    10030    2    1    2    0    0  0.00000000000E+00  0.00000000000E+00 -0.12555383027E+04  0.19625256006E+04  0.15083535075E+04 0.  0.
        4    1    3    3  502    0 -0.41407138306E+03 -0.28125254365E+03  0.10620012361E+03  0.51170126317E+03  0.12699999809E+01 0. -1.
       -4    1    3    3    0  502  0.41407138306E+03  0.28125254365E+03 -0.13617384263E+04  0.14508243375E+04  0.12699999809E+01 0.  1.
</event>
<event>
 5   0  0.5914645E-04  0.1504189E+04  0.7818609E-02  0.8881672E-01
        1   -1    0    0  501    0  0.00000000000E+00  0.00000000000E+00  0.17634787695E+04  0.17634787695E+04  0.50400001928E-02 0. -1.
       -1   -1    0    0    0  501  0.00000000000E+00  0.00000000000E+00 -0.32075582200E+03  0.32075582204E+03  0.50400001928E-02 0.  1.
    10030    2    1    2    0    0  0.00000000000E+00  0.00000000000E+00  0.14427229475E+04  0.20842345915E+04  0.15041889274E+04 0.  0.
        2    1    3    3  502    0  0.29589608396E+03  0.46432266101E+03  0.14312752493E+04  0.15335249804E+04  0.25500000920E-02 0. -1.
       -2    1    3    3    0  502 -0.29589608396E+03 -0.46432266101E+03  0.11447698144E+02  0.55070961117E+03  0.25500000920E-02 0.  1.
</event>
<event>
 5   0  0.6146552E-04  0.1520847E+04  0.7818609E-02  0.8870707E-01
       -1   -1    0    0    0  501  0.00000000000E+00  0.00000000000E+00  0.52362582236E+03  0.52362582239E+03  0.50400001928E-02 0.  1.
        1   -1    0    0  501    0  0.00000000000E+00  0.00000000000E+00 -0.11043068084E+04  0.11043068084E+04  0.50400001928E-02 0. -1.
    10030    2    1    2    0    0  0.00000000000E+00  0.00000000000E+00 -0.58068098599E+03  0.16279326307E+04  0.15208465546E+04 0.  0.
        5    1    3    3  502    0 -0.39297836804E+03 -0.52760181693E+03 -0.69853932199E+03  0.95957018990E+03  0.46999998093E+01 0. -1.
       -5    1    3    3    0  502  0.39297836804E+03  0.52760181693E+03  0.11785833600E+03  0.66836244085E+03  0.46999998093E+01 0.  1.
</event>
<event>
 5   0  0.1097156E-03  0.1131255E+04  0.7818609E-02  0.9175253E-01
       -2   -1    0    0    0  501  0.00000000000E+00  0.00000000000E+00  0.19867027478E+03  0.19867027480E+03  0.25500000920E-02 0. -1.
        2   -1    0    0  501    0  0.00000000000E+00  0.00000000000E+00 -0.16103782054E+04  0.16103782054E+04  0.25500000920E-02 0.  1.
    10030    2    1    2    0    0  0.00000000000E+00  0.00000000000E+00 -0.14117079306E+04  0.18090484802E+04  0.11312546673E+04 0.  0.
        2    1    3    3  502    0 -0.52187346241E+03 -0.16330189998E+03 -0.47458503328E+03  0.72405136222E+03  0.25500000920E-02 0.  1.
       -2    1    3    3    0  502  0.52187346241E+03  0.16330189998E+03 -0.93712289736E+03  0.10849971180E+04  0.25500000920E-02 0. -1.
</event>
<event>
 5   0  0.1147755E-03  0.1470900E+04  0.7818609E-02  0.8904038E-01
        2   -1    0    0  501    0  0.00000000000E+00  0.00000000000E+00  0.67130842358E+03  0.67130842359E+03  0.25500000920E-02 0.  1.
       -2   -1    0    0    0  501  0.00000000000E+00  0.00000000000E+00 -0.80572039001E+03  0.80572039002E+03  0.25500000920E-02 0. -1.
    10030    2    1    2    0    0  0.00000000000E+00  0.00000000000E+00 -0.13441196643E+03  0.14770288136E+04  0.14709002480E+04 0.  0.
        4    1    3    3  502    0 -0.45509951443E+03  0.54526133050E+03  0.12453405096E+03  0.72106575936E+03  0.12699999809E+01 0.  1.
       -4    1    3    3    0  502  0.45509951443E+03 -0.54526133050E+03 -0.25894601739E+03  0.75596305425E+03  0.12699999809E+01 0. -1.
</event>
<event>
 5   0  0.1126175E-03  0.1488763E+04  0.7818609E-02  0.8891960E-01
        2   -1    0    0  501    0  0.00000000000E+00  0.00000000000E+00  0.94204296649E+03  0.94204296649E+03  0.25500000920E-02 0.  1.
       -2   -1    0    0    0  501  0.00000000000E+00  0.00000000000E+00 -0.58819407739E+03  0.58819407740E+03  0.25500000920E-02 0. -1.
    10030    2    1    2    0    0  0.00000000000E+00  0.00000000000E+00  0.35384888910E+03  0.15302370439E+04  0.14887633708E+04 0.  0.
        3    1    3    3  502    0 -0.68781772800E+02  0.33522651225E+03  0.85639702255E+03  0.92223837332E+03  0.10100000352E+00 0.  1.
       -3    1    3    3    0  502  0.68781772800E+02 -0.33522651225E+03 -0.50254813345E+03  0.60799867057E+03  0.10100000352E+00 0. -1.
</event>
<event>
 5   0  0.5924403E-04  0.1486281E+04  0.7818609E-02  0.8893627E-01
        1   -1    0    0  501    0  0.00000000000E+00  0.00000000000E+00  0.12896943288E+04  0.12896943288E+04  0.50400001928E-02 0.  1.
       -1   -1    0    0    0  501  0.00000000000E+00  0.00000000000E+00 -0.42820849487E+03  0.42820849490E+03  0.50400001928E-02 0. -1.
    10030    2    1    2    0    0  0.00000000000E+00  0.00000000000E+00  0.86148583395E+03  0.17179028237E+04  0.14862813562E+04 0.  0.
        1    1    3    3  502    0  0.73472003252E+03  0.10867339622E+03  0.40162506828E+03  0.84434952996E+03  0.50400001928E-02 0.  1.
       -1    1    3    3    0  502 -0.73472003252E+03 -0.10867339622E+03  0.45986076567E+03  0.87355329377E+03  0.50400001928E-02 0. -1.
</event>
<event>
 5   0  0.5840834E-04  0.1496448E+04  0.7818609E-02  0.8886819E-01
       -1   -1    0    0    0  501  0.00000000000E+00  0.00000000000E+00  0.94314630403E+03  0.94314630404E+03  0.50400001928E-02 0. -1.
        1   -1    0    0  501    0  0.00000000000E+00  0.00000000000E+00 -0.59358649212E+03  0.59358649214E+03  0.50400001928E-02 0.  1.
    10030    2    1    2    0    0  0.00000000000E+00  0.00000000000E+00  0.34955981191E+03  0.15367327962E+04  0.14964476686E+04 0.  0.
        3    1    3    3  502    0 -0.26528659312E+02 -0.40448470418E+03 -0.47106023006E+03  0.62145747741E+03  0.10100000352E+00 0.  1.
       -3    1    3    3    0  502  0.26528659312E+02  0.40448470418E+03  0.82062004197E+03  0.91527531878E+03  0.10100000352E+00 0. -1.
</event>
<event>
 5   0  0.6146552E-04  0.1350416E+04  0.7818609E-02  0.8990513E-01
        1   -1    0    0  501    0  0.00000000000E+00  0.00000000000E+00  0.10545024594E+04  0.10545024594E+04  0.50400001928E-02 0.  1.
       -1   -1    0    0    0  501  0.00000000000E+00  0.00000000000E+00 -0.43234240333E+03  0.43234240336E+03  0.50400001928E-02 0. -1.
    10030    2    1    2    0    0  0.00000000000E+00  0.00000000000E+00  0.62216005610E+03  0.14868448628E+04  0.13504164212E+04 0.  0.
        5    1    3    3  502    0 -0.32374021819E+03 -0.50945991581E+03  0.64417826182E+03  0.88280510742E+03  0.46999998093E+01 0.  1.
       -5    1    3    3    0  502  0.32374021819E+03  0.50945991581E+03 -0.22018205721E+02  0.60403975537E+03  0.46999998093E+01 0. -1.
</event>
<event>
 5   0  0.6146552E-04  0.1423216E+04  0.7818609E-02  0.8937183E-01
        1   -1    0    0  501    0  0.00000000000E+00  0.00000000000E+00  0.79488910432E+03  0.79488910433E+03  0.50400001928E-02 0.  1.
       -1   -1    0    0    0  501  0.00000000000E+00  0.00000000000E+00 -0.63705196119E+03  0.63705196121E+03  0.50400001928E-02 0. -1.
    10030    2    1    2    0    0  0.00000000000E+00  0.00000000000E+00  0.15783714312E+03  0.14319410655E+04  0.14232156026E+04 0.  0.
        5    1    3    3  502    0  0.33106114218E+03 -0.46792133951E+03  0.50318105599E+03  0.76273529152E+03  0.46999998093E+01 0.  1.
       -5    1    3    3    0  502 -0.33106114218E+03  0.46792133951E+03 -0.34534391286E+03  0.66920577402E+03  0.46999998093E+01 0. -1.
</event>
<event>
 5   0  0.1097156E-03  0.1485716E+04  0.7818609E-02  0.8894007E-01
       -2   -1    0    0    0  501  0.00000000000E+00  0.00000000000E+00  0.94670120565E+03  0.94670120566E+03  0.25500000920E-02 0.  1.
        2   -1    0    0  501    0  0.00000000000E+00  0.00000000000E+00 -0.58290633581E+03  0.58290633582E+03  0.25500000920E-02 0. -1.
    10030    2    1    2    0    0  0.00000000000E+00  0.00000000000E+00  0.36379486984E+03  0.15296075415E+04  0.14857161652E+04 0.  0.
        2    1    3    3  502    0  0.73899572614E+02  0.31556932261E+03 -0.50627510838E+03  0.60113195687E+03  0.25500000920E-02 0. -1.
       -2    1    3    3    0  502 -0.73899572614E+02 -0.31556932261E+03  0.87006997822E+03  0.92847558460E+03  0.25500000920E-02 0.  1.
</event>
<event>
 5   0  0.1097156E-03  0.1509165E+04  0.7818609E-02  0.8878381E-01
       -2   -1    0    0    0  501  0.00000000000E+00  0.00000000000E+00  0.33265429965E+03  0.33265429966E+03  0.25500000920E-02 0.  1.
        2   -1    0    0  501    0  0.00000000000E+00  0.00000000000E+00 -0.17116705185E+04  0.17116705185E+04  0.25500000920E-02 0. -1.
    10030    2    1    2    0    0  0.00000000000E+00  0.00000000000E+00 -0.13790162188E+04  0.20443248181E+04  0.15091647459E+04 0.  0.
        2    1    3    3  502    0 -0.43141106337E+03 -0.18431821313E+03 -0.14901092010E+04  0.15622144988E+04  0.25500000920E-02 0. -1.
       -2    1    3    3    0  502  0.43141106337E+03  0.18431821313E+03  0.11109298222E+03  0.48211031932E+03  0.25500000920E-02 0.  1.
</event>
<event>
 5   0  0.5840834E-04  0.1477140E+04  0.7818609E-02  0.8899798E-01
       -1   -1    0    0    0  501  0.00000000000E+00  0.00000000000E+00  0.83632025242E+03  0.83632025243E+03  0.50400001928E-02 0.  1.
        1   -1    0    0  501    0  0.00000000000E+00  0.00000000000E+00 -0.65224506954E+03  0.65224506956E+03  0.50400001928E-02 0. -1.
    10030    2    1    2    0    0  0.00000000000E+00  0.00000000000E+00  0.18407518288E+03  0.14885653220E+04  0.14771401575E+04 0.  0.
        3    1    3    3  502    0  0.32580473171E+03 -0.26824516661E+03 -0.51877062206E+03  0.66875044757E+03  0.10100000352E+00 0. -1.
       -3    1    3    3    0  502 -0.32580473171E+03  0.26824516661E+03  0.70284580493E+03  0.81981487442E+03  0.10100000352E+00 0.  1.
</event>
<event>
 5   0  0.5924403E-04  0.1514286E+04  0.7818609E-02  0.8875008E-01
       -1   -1    0    0    0  501  0.00000000000E+00  0.00000000000E+00  0.78801578512E+03  0.78801578514E+03  0.50400001928E-02 0.  1.
        1   -1    0    0  501    0  0.00000000000E+00  0.00000000000E+00 -0.72747985630E+03  0.72747985632E+03  0.50400001928E-02 0. -1.
    10030    2    1    2    0    0  0.00000000000E+00  0.00000000000E+00  0.60535928819E+02  0.15154956415E+04  0.15142861158E+04 0.  0.
        1    1    3    3  502    0 -0.28396931748E+03 -0.59790745147E+03  0.39816696794E+03  0.77244341422E+03  0.50400001928E-02 0.  1.
       -1    1    3    3    0  502  0.28396931748E+03  0.59790745147E+03 -0.33763103912E+03  0.74305222723E+03  0.50400001928E-02 0. -1.
</event>
<event>
 5   0  0.1126175E-03  0.1494129E+04  0.7818609E-02  0.8888366E-01
       -2   -1    0    0    0  501  0.00000000000E+00  0.00000000000E+00  0.78024579986E+03  0.78024579987E+03  0.25500000920E-02 0. -1.
        2   -1    0    0  501    0  0.00000000000E+00  0.00000000000E+00 -0.71529469323E+03  0.71529469324E+03  0.25500000920E-02 0.  1.
    10030    2    1    2    0    0  0.00000000000E+00  0.00000000000E+00  0.64951106631E+02  0.14955404931E+04  0.14941294188E+04 0.  0.
        3    1    3    3  502    0 -0.33201429661E+03 -0.21528331457E+03 -0.60178310066E+03  0.72022448523E+03  0.10100000352E+00 0.  1.
       -3    1    3    3    0  502  0.33201429661E+03  0.21528331457E+03  0.66673420729E+03  0.77531600787E+03  0.10100000352E+00 0. -1.
</event>
<event>
 5   0  0.1082667E-03  0.1495849E+04  0.7818609E-02  0.8887218E-01
       -2   -1    0    0    0  501  0.00000000000E+00  0.00000000000E+00  0.39745280450E+03  0.39745280451E+03  0.25500000920E-02 0.  1.
        2   -1    0    0  501    0  0.00000000000E+00  0.00000000000E+00 -0.14074393933E+04  0.14074393933E+04  0.25500000920E-02 0. -1.
    10030    2    1    2    0    0  0.00000000000E+00  0.00000000000E+00 -0.10099865888E+04  0.18048921978E+04  0.14958485672E+04 0.  0.
        5    1    3    3  502    0  0.43338585545E+03 -0.59394293337E+03 -0.67033344020E+03  0.99496759688E+03  0.46999998093E+01 0. -1.
       -5    1    3    3    0  502 -0.43338585545E+03  0.59394293337E+03 -0.33965314858E+03  0.80992460090E+03  0.46999998093E+01 0.  1.
</event>
<event>
 5   0  0.5914645E-04  0.1441124E+04  0.7818609E-02  0.8924577E-01
        1   -1    0    0  501    0  0.00000000000E+00  0.00000000000E+00  0.67407593241E+03  0.67407593243E+03  0.50400001928E-02 0.  1.
       -1   -1    0    0    0  501  0.00000000000E+00  0.00000000000E+00 -0.77025395080E+03  0.77025395081E+03  0.50400001928E-02 0. -1.
    10030    2    1    2    0    0  0.00000000000E+00  0.00000000000E+00 -0.96178018383E+02  0.14443298832E+04  0.14411240753E+04 0.  0.
        2    1    3    3  502    0  0.43582745447E+03  0.34724332694E+03  0.40974899408E+03  0.69167747999E+03  0.25500000920E-02 0.  1.
       -2    1    3    3    0  502 -0.43582745447E+03 -0.34724332694E+03 -0.50592701247E+03  0.75265240325E+03  0.25500000920E-02 0. -1.
</event>
<event>
 5   0  0.5914645E-04  0.1391755E+04  0.7818609E-02  0.8959809E-01
        1   -1    0    0  501    0  0.00000000000E+00  0.00000000000E+00  0.13276634942E+04  0.13276634942E+04  0.50400001928E-02 0.  1.
       -1   -1    0    0    0  501  0.00000000000E+00  0.00000000000E+00 -0.36473502267E+03  0.36473502271E+03  0.50400001928E-02 0. -1.
    10030    2    1    2    0    0  0.00000000000E+00  0.00000000000E+00  0.96292847154E+03  0.16923985169E+04  0.13917548271E+04 0.  0.
        2    1    3    3  502    0  0.22521471722E+03 -0.65520705084E+03  0.56052807992E+03  0.89118442351E+03  0.25500000920E-02 0. -1.
       -2    1    3    3    0  502 -0.22521471722E+03  0.65520705084E+03  0.40240039163E+03  0.80121409343E+03  0.25500000920E-02 0.  1.
</event>
<event>
 5   0  0.5840834E-04  0.1463257E+04  0.7818609E-02  0.8909261E-01
        1   -1    0    0  501    0  0.00000000000E+00  0.00000000000E+00  0.13226008383E+04  0.13226008383E+04  0.50400001928E-02 0.  1.
       -1   -1    0    0    0  501  0.00000000000E+00  0.00000000000E+00 -0.40471769583E+03  0.40471769586E+03  0.50400001928E-02 0. -1.
    10030    2    1    2    0    0  0.00000000000E+00  0.00000000000E+00  0.91788314243E+03  0.17273185341E+04  0.14632565924E+04 0.  0.
        3    1    3    3  502    0  0.18172299726E+03  0.14770822260E+03  0.12771634062E+04  0.12984557532E+04  0.10100000352E+00 0.  1.
       -3    1    3    3    0  502 -0.18172299726E+03 -0.14770822260E+03 -0.35928026374E+03  0.42886278093E+03  0.10100000352E+00 0. -1.
</event>
<event>
 5   0  0.1126175E-03  0.1480766E+04  0.7818609E-02  0.8897345E-01
        2   -1    0    0  501    0  0.00000000000E+00  0.00000000000E+00  0.12678221597E+04  0.12678221597E+04  0.25500000920E-02 0. -1.
       -2   -1    0    0    0  501  0.00000000000E+00  0.00000000000E+00 -0.43236902993E+03  0.43236902993E+03  0.25500000920E-02 0.  1.
    10030    2    1    2    0    0  0.00000000000E+00  0.00000000000E+00  0.83545312972E+03  0.17001911896E+04  0.14807660684E+04 0.  0.
        3    1    3    3  502    0 -0.26297533050E+03 -0.65262292099E+03  0.15315975426E+03  0.72009070400E+03  0.10100000352E+00 0.  1.
       -3    1    3    3    0  502  0.26297533050E+03  0.65262292099E+03  0.68229337546E+03  0.98010048559E+03  0.10100000352E+00 0. -1.
</event>
<event>
 5   0  0.6146552E-04  0.1465696E+04  0.7818609E-02  0.8907591E-01
       -1   -1    0    0    0  501  0.00000000000E+00  0.00000000000E+00  0.51727775174E+03  0.51727775177E+03  0.50400001928E-02 0. -1.
        1   -1    0    0  501    0  0.00000000000E+00  0.00000000000E+00 -0.10382552254E+04  0.10382552255E+04  0.50400001928E-02 0.  1.
    10030    2    1    2    0    0  0.00000000000E+00  0.00000000000E+00 -0.52097747370E+03  0.15555329772E+04  0.14656961879E+04 0.  0.
        5    1    3    3  502    0 -0.39606475460E+03 -0.58389112830E+03 -0.50234585829E+02  0.70734838881E+03  0.46999998093E+01 0.  1.
       -5    1    3    3    0  502  0.39606475460E+03  0.58389112830E+03 -0.47074288788E+03  0.84818458842E+03  0.46999998093E+01 0. -1.
</event>
<event>
 5   0  0.5606965E-04  0.1594213E+04  0.7818609E-02  0.8824111E-01
       -1   -1    0    0    0  501  0.00000000000E+00  0.00000000000E+00  0.56668775636E+03  0.56668775638E+03  0.50400001928E-02 0.  1.
        1   -1    0    0  501    0  0.00000000000E+00  0.00000000000E+00 -0.11212153593E+04  0.11212153593E+04  0.50400001928E-02 0. -1.
    10030    2    1    2    0    0  0.00000000000E+00  0.00000000000E+00 -0.55452760293E+03  0.16879031157E+04  0.15942133062E+04 0.  0.
        4    1    3    3  502    0 -0.13835536239E+03  0.55455020548E+03  0.31100513801E+03  0.65068728701E+03  0.12699999809E+01 0.  1.
       -4    1    3    3    0  502  0.13835536239E+03 -0.55455020548E+03 -0.86553274094E+03  0.10372158287E+04  0.12699999809E+01 0. -1.
</event>
<event>
 5   0  0.1126175E-03  0.1617029E+04  0.7818609E-02  0.8810154E-01
        2   -1    0    0  501    0  0.00000000000E+00  0.00000000000E+00  0.61150479654E+03  0.61150479655E+03  0.25500000920E-02 0.  1.
       -2   -1    0    0    0  501  0.00000000000E+00  0.00000000000E+00 -0.10689950510E+04  0.10689950510E+04  0.25500000920E-02 0. -1.
    10030    2    1    2    0    0  0.00000000000E+00  0.00000000000E+00 -0.45749025449E+03  0.16804998476E+04  0.16170288819E+04 0.  0.
        3    1    3    3  502    0 -0.25793042958E+03 -0.76446183889E+03 -0.28339811655E+03  0.85512836013E+03  0.10100000352E+00 0. -1.
       -3    1    3    3    0  502  0.25793042958E+03  0.76446183889E+03 -0.17409213794E+03  0.82537148746E+03  0.10100000352E+00 0.  1.
</event>
<event>
 5   0  0.1082667E-03  0.1463107E+04  0.7818609E-02  0.8909364E-01
        2   -1    0    0  501    0  0.00000000000E+00  0.00000000000E+00  0.15755396944E+04  0.15755396944E+04  0.25500000920E-02 0. -1.
       -2   -1    0    0    0  501  0.00000000000E+00  0.00000000000E+00 -0.33967419438E+03  0.33967419439E+03  0.25500000920E-02 0.  1.
    10030    2    1    2    0    0  0.00000000000E+00  0.00000000000E+00  0.12358655000E+04  0.19152138888E+04  0.14631065258E+04 0.  0.
        5    1    3    3  502    0 -0.37199330863E+03 -0.45004162342E+03  0.11948337360E+04  0.13298745171E+04  0.46999998093E+01 0. -1.
       -5    1    3    3    0  502  0.37199330863E+03  0.45004162342E+03  0.41031764058E+02  0.58533937176E+03  0.46999998093E+01 0.  1.
</event>
<event>
 5   0  0.1082667E-03  0.1513505E+04  0.7818609E-02  0.8875522E-01
       -2   -1    0    0    0  501  0.00000000000E+00  0.00000000000E+00  0.42656858196E+03  0.42656858197E+03  0.25500000920E-02 0.  1.
        2   -1    0    0  501    0  0.00000000000E+00  0.00000000000E+00 -0.13425141758E+04  0.13425141758E+04  0.25500000920E-02 0. -1.
    10030    2    1    2    0    0  0.00000000000E+00  0.00000000000E+00 -0.91594559386E+03  0.17690827578E+04  0.15135050291E+04 0.  0.
        5    1    3    3  502    0  0.10540133028E+03  0.29877861190E+03 -0.12612424911E+04  0.13004356234E+04  0.46999998093E+01 0. -1.
       -5    1    3    3    0  502 -0.10540133028E+03 -0.29877861190E+03  0.34529689721E+03  0.46864713439E+03  0.46999998093E+01 0.  1.
</event>
<event>
 5   0  0.1082667E-03  0.1477490E+04  0.7818609E-02  0.8899561E-01
        2   -1    0    0  501    0  0.00000000000E+00  0.00000000000E+00  0.10168680445E+04  0.10168680445E+04  0.25500000920E-02 0.  1.
       -2   -1    0    0    0  501  0.00000000000E+00  0.00000000000E+00 -0.53669129949E+03  0.53669129949E+03  0.25500000920E-02 0. -1.
    10030    2    1    2    0    0  0.00000000000E+00  0.00000000000E+00  0.48017674504E+03  0.15535593440E+04  0.14774900774E+04 0.  0.
        5    1    3    3  502    0  0.10666128362E+03  0.52482877641E+03  0.77510776602E+03  0.94214436947E+03  0.46999998093E+01 0.  1.
       -5    1    3    3    0  502 -0.10666128362E+03 -0.52482877641E+03 -0.29493102098E+03  0.61141497456E+03  0.46999998093E+01 0. -1.
</event>
<event>
 5   0  0.1097156E-03  0.1503804E+04  0.7818609E-02  0.8881927E-01
       -2   -1    0    0    0  501  0.00000000000E+00  0.00000000000E+00  0.68498317021E+03  0.68498317022E+03  0.25500000920E-02 0.  1.
        2   -1    0    0  501    0  0.00000000000E+00  0.00000000000E+00 -0.82535882808E+03  0.82535882808E+03  0.25500000920E-02 0. -1.
    10030    2    1    2    0    0  0.00000000000E+00  0.00000000000E+00 -0.14037565787E+03  0.15103419983E+04  0.15038043844E+04 0.  0.
        2    1    3    3  502    0 -0.49301267514E+03  0.67986909669E+02 -0.63626316578E+03  0.80778371727E+03  0.25500000920E-02 0. -1.
       -2    1    3    3    0  502  0.49301267514E+03 -0.67986909669E+02  0.49588750792E+03  0.70255828104E+03  0.25500000920E-02 0.  1.
</event>
<event>
 5   0  0.1147755E-03  0.1498903E+04  0.7818609E-02  0.8885183E-01
        2   -1    0    0  501    0  0.00000000000E+00  0.00000000000E+00  0.18405222472E+04  0.18405222472E+04  0.25500000920E-02 0.  1.
       -2   -1    0    0    0  501  0.00000000000E+00  0.00000000000E+00 -0.30517304790E+03  0.30517304791E+03  0.25500000920E-02 0. -1.
    10030    2    1    2    0    0  0.00000000000E+00  0.00000000000E+00  0.15353491993E+04  0.21456952951E+04  0.14989033110E+04 0.  0.
        4    1    3    3  502    0 -0.49570401582E+03 -0.29780511243E+03  0.85239293688E+02  0.58453204050E+03  0.12699999809E+01 0. -1.
       -4    1    3    3    0  502  0.49570401582E+03  0.29780511243E+03  0.14501099056E+04  0.15611632546E+04  0.12699999809E+01 0.  1.
</event>
<event>
 5   0  0.1082667E-03  0.1500133E+04  0.7818609E-02  0.8884365E-01
       -2   -1    0    0    0  501  0.00000000000E+00  0.00000000000E+00  0.64656026311E+03  0.64656026311E+03  0.25500000920E-02 0. -1.
        2   -1    0    0  501    0  0.00000000000E+00  0.00000000000E+00 -0.87014232616E+03  0.87014232617E+03  0.25500000920E-02 0.  1.
    10030    2    1    2    0    0  0.00000000000E+00  0.00000000000E+00 -0.22358206305E+03  0.15167025893E+04  0.15001325959E+04 0.  0.
        5    1    3    3  502    0  0.16366600951E+03 -0.60532762535E+03 -0.52788180084E+03  0.81968858863E+03  0.46999998093E+01 0.  1.
       -5    1    3    3    0  502 -0.16366600951E+03  0.60532762535E+03  0.30429973779E+03  0.69701400065E+03  0.46999998093E+01 0. -1.
</event>
<event>
 5   0  0.1082667E-03  0.1425848E+04  0.7818609E-02  0.8935318E-01
        2   -1    0    0  501    0  0.00000000000E+00  0.00000000000E+00  0.53038160236E+03  0.53038160236E+03  0.25500000920E-02 0.  1.
       -2   -1    0    0    0  501  0.00000000000E+00  0.00000000000E+00 -0.95829255332E+03  0.95829255333E+03  0.25500000920E-02 0. -1.
    10030    2    1    2    0    0  0.00000000000E+00  0.00000000000E+00 -0.42791095097E+03  0.14886741557E+04  0.14258481546E+04 0.  0.
        5    1    3    3  502    0 -0.13585139735E+03  0.49885113556E+03 -0.72643007549E+03  0.89164499785E+03  0.46999998093E+01 0. -1.
       -5    1    3    3    0  502  0.13585139735E+03 -0.49885113556E+03  0.29851912452E+03  0.59702915784E+03  0.46999998093E+01 0.  1.
</event>
<event>
 5   0  0.1149716E-03  0.1465835E+04  0.7818609E-02  0.8907495E-01
       -2   -1    0    0    0  501  0.00000000000E+00  0.00000000000E+00  0.61095819837E+03  0.61095819837E+03  0.25500000920E-02 0. -1.
        2   -1    0    0  501    0  0.00000000000E+00  0.00000000000E+00 -0.87922243016E+03  0.87922243017E+03  0.25500000920E-02 0.  1.
    10030    2    1    2    0    0  0.00000000000E+00  0.00000000000E+00 -0.26826423179E+03  0.14901806285E+04  0.14658351229E+04 0.  0.
        1    1    3    3  502    0  0.50328345635E+03 -0.49578094077E+03 -0.33250154056E+03  0.78080103302E+03  0.50400001928E-02 0.  1.
       -1    1    3    3    0  502 -0.50328345635E+03  0.49578094077E+03  0.64237308765E+02  0.70937959552E+03  0.50400001928E-02 0. -1.
</event>
<event>
 5   0  0.4070625E-04  0.1483380E+04  0.7818609E-02  0.8895581E-01
        3   -1    0    0  501    0  0.00000000000E+00  0.00000000000E+00  0.54856117180E+03  0.54856118110E+03  0.10100000352E+00 0.  1.
       -3   -1    0    0    0  501  0.00000000000E+00  0.00000000000E+00 -0.10028130609E+04  0.10028130660E+04  0.10100000352E+00 0. -1.
    10030    2    1    2    0    0  0.00000000000E+00  0.00000000000E+00 -0.45425188906E+03  0.15513742471E+04  0.14833803544E+04 0.  0.
        5    1    3    3  502    0 -0.64052066569E+03  0.35184852909E+03 -0.35948992035E+03  0.81444410700E+03  0.46999998093E+01 0.  1.
       -5    1    3    3    0  502  0.64052066569E+03 -0.35184852909E+03 -0.94761968716E+02  0.73693014005E+03  0.46999998093E+01 0. -1.
</event>
<event>
 5   0  0.1149716E-03  0.1488408E+04  0.7818609E-02  0.8892198E-01
       -2   -1    0    0    0  501  0.00000000000E+00  0.00000000000E+00  0.31531614078E+03  0.31531614079E+03  0.25500000920E-02 0.  1.
        2   -1    0    0  501    0  0.00000000000E+00  0.00000000000E+00 -0.17564576308E+04  0.17564576308E+04  0.25500000920E-02 0. -1.
    10030    2    1    2    0    0  0.00000000000E+00  0.00000000000E+00 -0.14411414900E+04  0.20717737716E+04  0.14884077957E+04 0.  0.
        1    1    3    3  502    0  0.15844435965E+03  0.67169603938E+03 -0.33292304191E+03  0.76623621442E+03  0.50400001928E-02 0.  1.
       -1    1    3    3    0  502 -0.15844435965E+03 -0.67169603938E+03 -0.11082184481E+04  0.13055375572E+04  0.50400001928E-02 0. -1.
</event>
<event>
 5   0  0.5914645E-04  0.1504945E+04  0.7818609E-02  0.8881171E-01
       -1   -1    0    0    0  501  0.00000000000E+00  0.00000000000E+00  0.12530422003E+04  0.12530422003E+04  0.50400001928E-02 0. -1.
        1   -1    0    0  501    0  0.00000000000E+00  0.00000000000E+00 -0.45187204087E+03  0.45187204090E+03  0.50400001928E-02 0.  1.
    10030    2    1    2    0    0  0.00000000000E+00  0.00000000000E+00  0.80117015940E+03  0.17049142412E+04  0.15049448314E+04 0.  0.
        2    1    3    3  502    0 -0.48231498217E+02  0.61294399117E+03 -0.90863476549E+02  0.62151652039E+03  0.25500000920E-02 0.  1.
       -2    1    3    3    0  502  0.48231498217E+02 -0.61294399117E+03  0.89203363594E+03  0.10833977208E+04  0.25500000920E-02 0. -1.
</event>
<event>
 5   0  0.1126175E-03  0.1454080E+04  0.7818609E-02  0.8915577E-01
        2   -1    0    0  501    0  0.00000000000E+00  0.00000000000E+00  0.85943725296E+03  0.85943725296E+03  0.25500000920E-02 0.  1.
       -2   -1    0    0    0  501  0.00000000000E+00  0.00000000000E+00 -0.61503853897E+03  0.61503853897E+03  0.25500000920E-02 0. -1.
    10030    2    1    2    0    0  0.00000000000E+00  0.00000000000E+00  0.24439871399E+03  0.14744757919E+04  0.14540798223E+04 0.  0.
        3    1    3    3  502    0  0.28112652923E+03  0.28173706432E+03 -0.49475830205E+03  0.63497534321E+03  0.10100000352E+00 0. -1.
       -3    1    3    3    0  502 -0.28112652923E+03 -0.28173706432E+03  0.73915701604E+03  0.83950044872E+03  0.10100000352E+00 0.  1.
</event>
<event>
 5   0  0.5606965E-04  0.1500667E+04  0.7818609E-02  0.8884010E-01
        1   -1    0    0  501    0  0.00000000000E+00  0.00000000000E+00  0.91225268784E+03  0.91225268785E+03  0.50400001928E-02 0.  1.
       -1   -1    0    0    0  501  0.00000000000E+00  0.00000000000E+00 -0.61715363741E+03  0.61715363743E+03  0.50400001928E-02 0. -1.
    10030    2    1    2    0    0  0.00000000000E+00  0.00000000000E+00  0.29509905043E+03  0.15294063253E+04  0.15006666046E+04 0.  0.
        4    1    3    3  502    0  0.16166276135E+03 -0.29272899927E+03  0.83210772478E+03  0.89678871199E+03  0.12699999809E+01 0.  1.
       -4    1    3    3    0  502 -0.16166276135E+03  0.29272899927E+03 -0.53700867434E+03  0.63261761329E+03  0.12699999809E+01 0. -1.
</event>
<event>
 5   0  0.5924403E-04  0.1551133E+04  0.7818609E-02  0.8851144E-01
        1   -1    0    0  501    0  0.00000000000E+00  0.00000000000E+00  0.98674725641E+03  0.98674725642E+03  0.50400001928E-02 0. -1.
       -1   -1    0    0    0  501  0.00000000000E+00  0.00000000000E+00 -0.60958212867E+03  0.60958212869E+03  0.50400001928E-02 0.  1.
    10030    2    1    2    0    0  0.00000000000E+00  0.00000000000E+00  0.37716512774E+03  0.15963293851E+04  0.15511331252E+04 0.  0.
        1    1    3    3  502    0  0.28487160024E+03 -0.13727485084E+02  0.93082068563E+03  0.97353347209E+03  0.50400001928E-02 0. -1.
       -1    1    3    3    0  502 -0.28487160024E+03  0.13727485084E+02 -0.55365555789E+03  0.62279591302E+03  0.50400001928E-02 0.  1.
</event>
<event>
 5   0  0.6146552E-04  0.1487470E+04  0.7818609E-02  0.8892828E-01
        1   -1    0    0  501    0  0.00000000000E+00  0.00000000000E+00  0.31431118876E+03  0.31431118880E+03  0.50400001928E-02 0.  1.
       -1   -1    0    0    0  501  0.00000000000E+00  0.00000000000E+00 -0.17598544848E+04  0.17598544848E+04  0.50400001928E-02 0. -1.
    10030    2    1    2    0    0  0.00000000000E+00  0.00000000000E+00 -0.14455432960E+04  0.20741656736E+04  0.14874702756E+04 0.  0.
        5    1    3    3  502    0  0.29981377410E+02  0.70438158905E+03 -0.39259148930E+03  0.80697117263E+03  0.46999998093E+01 0.  1.
       -5    1    3    3    0  502 -0.29981377410E+02 -0.70438158905E+03 -0.10529518067E+04  0.12671945010E+04  0.46999998093E+01 0. -1.
</event>
<event>
 5   0  0.1147755E-03  0.1505023E+04  0.7818609E-02  0.8881119E-01
       -2   -1    0    0    0  501  0.00000000000E+00  0.00000000000E+00  0.33739869812E+03  0.33739869813E+03  0.25500000920E-02 0.  1.
        2   -1    0    0  501    0  0.00000000000E+00  0.00000000000E+00 -0.16783520925E+04  0.16783520925E+04  0.25500000920E-02 0. -1.
    10030    2    1    2    0    0  0.00000000000E+00  0.00000000000E+00 -0.13409533944E+04  0.20157507907E+04  0.15050233367E+04 0.  0.
        4    1    3    3  502    0 -0.50225343225E+03 -0.46621286889E+03 -0.25407229470E+03  0.73086749357E+03  0.12699999809E+01 0.  1.
       -4    1    3    3    0  502  0.50225343225E+03  0.46621286889E+03 -0.10868810997E+04  0.12848832971E+04  0.12699999809E+01 0. -1.
</event>
<event>
 5   0  0.5606965E-04  0.1500270E+04  0.7818609E-02  0.8884273E-01
        1   -1    0    0  501    0  0.00000000000E+00  0.00000000000E+00  0.25794509127E+04  0.25794509127E+04  0.50400001928E-02 0. -1.
       -1   -1    0    0    0  501  0.00000000000E+00  0.00000000000E+00 -0.21814815647E+03  0.21814815653E+03  0.50400001928E-02 0.  1.
    10030    2    1    2    0    0  0.00000000000E+00  0.00000000000E+00  0.23613027562E+04  0.27975990692E+04  0.15002699243E+04 0.  0.
        4    1    3    3  502    0 -0.16652558858E+02  0.36382068184E+03  0.24035194711E+04  0.24309566547E+04  0.12699999809E+01 0. -1.
       -4    1    3    3    0  502  0.16652558858E+02 -0.36382068184E+03 -0.42216714822E+02  0.36664241457E+03  0.12699999809E+01 0.  1.
</event>
<event>
 5   0  0.1097156E-03  0.1511722E+04  0.7818609E-02  0.8876695E-01
       -2   -1    0    0    0  501  0.00000000000E+00  0.00000000000E+00  0.40198458680E+03  0.40198458681E+03  0.25500000920E-02 0. -1.
        2   -1    0    0  501    0  0.00000000000E+00  0.00000000000E+00 -0.14212621709E+04  0.14212621709E+04  0.25500000920E-02 0.  1.
    10030    2    1    2    0    0  0.00000000000E+00  0.00000000000E+00 -0.10192775841E+04  0.18232467578E+04  0.15117215174E+04 0.  0.
        2    1    3    3  502    0 -0.62217222264E+02 -0.47232482096E+03 -0.12173928700E+04  0.13072899904E+04  0.25500000920E-02 0.  1.
       -2    1    3    3    0  502  0.62217222264E+02  0.47232482096E+03  0.19811528584E+03  0.51595676731E+03  0.25500000920E-02 0. -1.
</event>
<event>
 5   0  0.1126175E-03  0.1510934E+04  0.7818609E-02  0.8877215E-01
        2   -1    0    0  501    0  0.00000000000E+00  0.00000000000E+00  0.28022361072E+03  0.28022361073E+03  0.25500000920E-02 0.  1.
       -2   -1    0    0    0  501  0.00000000000E+00  0.00000000000E+00 -0.20366949572E+04  0.20366949572E+04  0.25500000920E-02 0. -1.
    10030    2    1    2    0    0  0.00000000000E+00  0.00000000000E+00 -0.17564713465E+04  0.23169185679E+04  0.15109335060E+04 0.  0.
        3    1    3    3  502    0 -0.23086616790E+03 -0.50675667622E+03 -0.16610817158E+04  0.17519400655E+04  0.10100000352E+00 0. -1.
       -3    1    3    3    0  502  0.23086616790E+03  0.50675667622E+03 -0.95389630697E+02  0.56497850244E+03  0.10100000352E+00 0.  1.
</event>
<event>
 5   0  0.1082667E-03  0.1477851E+04  0.7818609E-02  0.8899317E-01
        2   -1    0    0  501    0  0.00000000000E+00  0.00000000000E+00  0.73660069833E+03  0.73660069833E+03  0.25500000920E-02 0. -1.
       -2   -1    0    0    0  501  0.00000000000E+00  0.00000000000E+00 -0.74125772471E+03  0.74125772471E+03  0.25500000920E-02 0.  1.
    10030    2    1    2    0    0  0.00000000000E+00  0.00000000000E+00 -0.46570263776E+01  0.14778584230E+04  0.14778510854E+04 0.  0.
        5    1    3    3  502    0 -0.25174847122E+03 -0.61008701723E+03 -0.33460325290E+03  0.73997627544E+03  0.46999998093E+01 0.  1.
       -5    1    3    3    0  502  0.25174847122E+03  0.61008701723E+03  0.32994622653E+03  0.73788214761E+03  0.46999998093E+01 0. -1.
</event>
<event>
 5   0  0.5914645E-04  0.1501831E+04  0.7818609E-02  0.8883236E-01
       -1   -1    0    0    0  501  0.00000000000E+00  0.00000000000E+00  0.66543589430E+03  0.66543589432E+03  0.50400001928E-02 0.  1.
        1   -1    0    0  501    0  0.00000000000E+00  0.00000000000E+00 -0.84737603095E+03  0.84737603097E+03  0.50400001928E-02 0. -1.
    10030    2    1    2    0    0  0.00000000000E+00  0.00000000000E+00 -0.18194013665E+03  0.15128119253E+04  0.15018314512E+04 0.  0.
        2    1    3    3  502    0  0.33288718521E+02  0.57388360914E+03  0.39570197231E+03  0.69787576725E+03  0.25500000920E-02 0.  1.
       -2    1    3    3    0  502 -0.33288718521E+02 -0.57388360914E+03 -0.57764210896E+03  0.81493615803E+03  0.25500000920E-02 0. -1.
</event>
<event>
 5   0  0.5606965E-04  0.1468335E+04  0.7818609E-02  0.8905787E-01
        1   -1    0    0  501    0  0.00000000000E+00  0.00000000000E+00  0.72694760669E+03  0.72694760671E+03  0.50400001928E-02 0.  1.
       -1   -1    0    0    0  501  0.00000000000E+00  0.00000000000E+00 -0.74145901871E+03  0.74145901873E+03  0.50400001928E-02 0. -1.
    10030    2    1    2    0    0  0.00000000000E+00  0.00000000000E+00 -0.14511412023E+02  0.14684066254E+04  0.14683349197E+04 0.  0.
        4    1    3    3  502    0 -0.71999783115E+03 -0.81493814287E+02  0.11091151157E+03  0.73303553456E+03  0.12699999809E+01 0.  1.
       -4    1    3    3    0  502  0.71999783115E+03  0.81493814287E+02 -0.12542292360E+03  0.73537109087E+03  0.12699999809E+01 0. -1.
</event>
<event>
 5   0  0.1147755E-03  0.1489377E+04  0.7818609E-02  0.8891548E-01
       -2   -1    0    0    0  501  0.00000000000E+00  0.00000000000E+00  0.23472182682E+03  0.23472182683E+03  0.25500000920E-02 0. -1.
        2   -1    0    0  501    0  0.00000000000E+00  0.00000000000E+00 -0.23626300942E+04  0.23626300942E+04  0.25500000920E-02 0.  1.
    10030    2    1    2    0    0  0.00000000000E+00  0.00000000000E+00 -0.21279082674E+04  0.25973519210E+04  0.14893768520E+04 0.  0.
        4    1    3    3  502    0 -0.59137817586E+03 -0.39461138693E+03 -0.14504316090E+04  0.16153017547E+04  0.12699999809E+01 0.  1.
       -4    1    3    3    0  502  0.59137817586E+03  0.39461138693E+03 -0.67747665839E+03  0.98205016631E+03  0.12699999809E+01 0. -1.
</event>
<event>
 5   0  0.1126175E-03  0.1468237E+04  0.7818609E-02  0.8905854E-01
        2   -1    0    0  501    0  0.00000000000E+00  0.00000000000E+00  0.57845356077E+03  0.57845356077E+03  0.25500000920E-02 0. -1.
       -2   -1    0    0    0  501  0.00000000000E+00  0.00000000000E+00 -0.93167370560E+03  0.93167370561E+03  0.25500000920E-02 0.  1.
    10030    2    1    2    0    0  0.00000000000E+00  0.00000000000E+00 -0.35322014483E+03  0.15101272664E+04  0.14682370006E+04 0.  0.
        3    1    3    3  502    0  0.38218598647E+03 -0.55775734485E+03  0.11750407768E+03  0.68627006525E+03  0.10100000352E+00 0. -1.
       -3    1    3    3    0  502 -0.38218598647E+03  0.55775734485E+03 -0.47072422251E+03  0.82385720113E+03  0.10100000352E+00 0.  1.
</event>
<event>
 5   0  0.5924403E-04  0.1499354E+04  0.7818609E-02  0.8884882E-01
        1   -1    0    0  501    0  0.00000000000E+00  0.00000000000E+00  0.57953031544E+03  0.57953031546E+03  0.50400001928E-02 0.  1.
       -1   -1    0    0    0  501  0.00000000000E+00  0.00000000000E+00 -0.96977798677E+03  0.96977798678E+03  0.50400001928E-02 0. -1.
    10030    2    1    2    0    0  0.00000000000E+00  0.00000000000E+00 -0.39024767133E+03  0.15493083022E+04  0.14993541844E+04 0.  0.
        1    1    3    3  502    0  0.27218592857E+03  0.28876390690E+03 -0.85235409601E+03  0.94020065872E+03  0.50400001928E-02 0. -1.
       -1    1    3    3    0  502 -0.27218592857E+03 -0.28876390690E+03  0.46210642468E+03  0.60910764352E+03  0.50400001928E-02 0.  1.
</event>
<event>
 5   0  0.5840834E-04  0.1530896E+04  0.7818609E-02  0.8864163E-01
        1   -1    0    0  501    0  0.00000000000E+00  0.00000000000E+00  0.52535006264E+03  0.52535006267E+03  0.50400001928E-02 0.  1.
       -1   -1    0    0    0  501  0.00000000000E+00  0.00000000000E+00 -0.11152769027E+04  0.11152769027E+04  0.50400001928E-02 0. -1.
    10030    2    1    2    0    0  0.00000000000E+00  0.00000000000E+00 -0.58992684002E+03  0.16406269653E+04  0.15308961960E+04 0.  0.
        3    1    3    3  502    0  0.42442444465E+03  0.55967576990E+03 -0.62096781954E+03  0.93753619650E+03  0.10100000352E+00 0. -1.
       -3    1    3    3    0  502 -0.42442444465E+03 -0.55967576990E+03  0.31040979518E+02  0.70309076885E+03  0.10100000352E+00 0.  1.
</event>
<event>
 5   0  0.5914645E-04  0.1497318E+04  0.7818609E-02  0.8886239E-01
        1   -1    0    0  501    0  0.00000000000E+00  0.00000000000E+00  0.74247443337E+03  0.74247443339E+03  0.50400001928E-02 0. -1.
       -1   -1    0    0    0  501  0.00000000000E+00  0.00000000000E+00 -0.75489465998E+03  0.75489466000E+03  0.50400001928E-02 0.  1.
    10030    2    1    2    0    0  0.00000000000E+00  0.00000000000E+00 -0.12420226608E+02  0.14973690934E+04  0.14973175815E+04 0.  0.
        2    1    3    3  502    0  0.70901048622E+03  0.14816332943E+03  0.18311555674E+03  0.74711414716E+03  0.25500000920E-02 0. -1.
       -2    1    3    3    0  502 -0.70901048622E+03 -0.14816332943E+03 -0.19553578335E+03  0.75025494623E+03  0.25500000920E-02 0.  1.
</event>
<event>
 5   0  0.5914645E-04  0.1508430E+04  0.7818609E-02  0.8878866E-01
       -1   -1    0    0    0  501  0.00000000000E+00  0.00000000000E+00  0.34080684465E+03  0.34080684469E+03  0.50400001928E-02 0. -1.
        1   -1    0    0  501    0  0.00000000000E+00  0.00000000000E+00 -0.16690994664E+04  0.16690994664E+04  0.50400001928E-02 0.  1.
    10030    2    1    2    0    0  0.00000000000E+00  0.00000000000E+00 -0.13282926217E+04  0.20099063111E+04  0.15084303399E+04 0.  0.
        2    1    3    3  502    0 -0.98553568683E+02 -0.32485245229E+03  0.23325439752E+03  0.41188534282E+03  0.25500000920E-02 0. -1.
       -2    1    3    3    0  502  0.98553568683E+02  0.32485245229E+03 -0.15615470193E+04  0.15980209683E+04  0.25500000920E-02 0.  1.
</event>
<event>
 5   0  0.1082667E-03  0.1502697E+04  0.7818609E-02  0.8882661E-01
        2   -1    0    0  501    0  0.00000000000E+00  0.00000000000E+00  0.61951933342E+03  0.61951933343E+03  0.25500000920E-02 0.  1.
       -2   -1    0    0    0  501  0.00000000000E+00  0.00000000000E+00 -0.91123051919E+03  0.91123051919E+03  0.25500000920E-02 0. -1.
    10030    2    1    2    0    0  0.00000000000E+00  0.00000000000E+00 -0.29171118576E+03  0.15307498526E+04  0.15026974730E+04 0.  0.
        5    1    3    3  502    0  0.97263642997E+02  0.69051372805E+03  0.13906825288E+03  0.71107769887E+03  0.46999998093E+01 0.  1.
       -5    1    3    3    0  502 -0.97263642997E+02 -0.69051372805E+03 -0.43077943864E+03  0.81967215375E+03  0.46999998093E+01 0. -1.
</event>
<event>
 5   0  0.6146552E-04  0.1535633E+04  0.7818609E-02  0.8861097E-01
       -1   -1    0    0    0  501  0.00000000000E+00  0.00000000000E+00  0.74723743117E+03  0.74723743119E+03  0.50400001928E-02 0.  1.
        1   -1    0    0  501    0  0.00000000000E+00  0.00000000000E+00 -0.78896188983E+03  0.78896188984E+03  0.50400001928E-02 0. -1.
    10030    2    1    2    0    0  0.00000000000E+00  0.00000000000E+00 -0.41724458660E+02  0.15361993210E+04  0.15356325809E+04 0.  0.
        5    1    3    3  502    0  0.58782837860E+03  0.45635404966E+03 -0.20992548321E+03  0.77323477665E+03  0.46999998093E+01 0. -1.
       -5    1    3    3    0  502 -0.58782837860E+03 -0.45635404966E+03  0.16820102455E+03  0.76296454438E+03  0.46999998093E+01 0.  1.
</event>
<event>
 5   0  0.5840834E-04  0.1927791E+04  0.7818609E-02  0.8641145E-01
       -1   -1    0    0    0  501  0.00000000000E+00  0.00000000000E+00  0.10648753234E+04  0.10648753234E+04  0.50400001928E-02 0.  1.
        1   -1    0    0  501    0  0.00000000000E+00  0.00000000000E+00 -0.87249137935E+03  0.87249137936E+03  0.50400001928E-02 0. -1.
    10030    2    1    2    0    0  0.00000000000E+00  0.00000000000E+00  0.19238394404E+03  0.19373667028E+04  0.19277910050E+04 0.  0.
        3    1    3    3  502    0  0.49881618126E+03 -0.27069689426E+03 -0.68678010970E+03  0.89093283728E+03  0.10100000352E+00 0. -1.
       -3    1    3    3    0  502 -0.49881618126E+03  0.27069689426E+03  0.87916405374E+03  0.10464338655E+04  0.10100000352E+00 0.  1.
</event>
<event>
 5   0  0.6146552E-04  0.1493988E+04  0.7818609E-02  0.8888461E-01
       -1   -1    0    0    0  501  0.00000000000E+00  0.00000000000E+00  0.73578321254E+03  0.73578321255E+03  0.50400001928E-02 0.  1.
        1   -1    0    0  501    0  0.00000000000E+00  0.00000000000E+00 -0.75837585985E+03  0.75837585987E+03  0.50400001928E-02 0. -1.
    10030    2    1    2    0    0  0.00000000000E+00  0.00000000000E+00 -0.22592647314E+02  0.14941590724E+04  0.14939882550E+04 0.  0.
        5    1    3    3  502    0 -0.28317318844E+03 -0.65592810757E+03 -0.22937950375E+03  0.75037709433E+03  0.46999998093E+01 0. -1.
       -5    1    3    3    0  502  0.28317318844E+03  0.65592810757E+03  0.20678685643E+03  0.74378197810E+03  0.46999998093E+01 0.  1.
</event>
<event>
 5   0  0.5924403E-04  0.1458178E+04  0.7818609E-02  0.8912751E-01
        1   -1    0    0  501    0  0.00000000000E+00  0.00000000000E+00  0.16240422798E+04  0.16240422798E+04  0.50400001928E-02 0.  1.
       -1   -1    0    0    0  501  0.00000000000E+00  0.00000000000E+00 -0.32731334760E+03  0.32731334764E+03  0.50400001928E-02 0. -1.
    10030    2    1    2    0    0  0.00000000000E+00  0.00000000000E+00  0.12967289322E+04  0.19513556274E+04  0.14581779251E+04 0.  0.
        1    1    3    3  502    0  0.66865693243E+02 -0.49841852621E+03  0.13548085105E+04  0.14451291113E+04  0.50400001928E-02 0. -1.
       -1    1    3    3    0  502 -0.66865693243E+02  0.49841852621E+03 -0.58079578303E+02  0.50622651614E+03  0.50400001928E-02 0.  1.
</event>
<event>
 5   0  0.1097156E-03  0.1515833E+04  0.7818609E-02  0.8873992E-01
        2   -1    0    0  501    0  0.00000000000E+00  0.00000000000E+00  0.12118882220E+04  0.12118882220E+04  0.25500000920E-02 0.  1.
       -2   -1    0    0    0  501  0.00000000000E+00  0.00000000000E+00 -0.47400206890E+03  0.47400206890E+03  0.25500000920E-02 0. -1.
    10030    2    1    2    0    0  0.00000000000E+00  0.00000000000E+00  0.73788615312E+03  0.16858902909E+04  0.15158331366E+04 0.  0.
        2    1    3    3  502    0 -0.25072096958E+03 -0.69610909988E+03  0.55172333160E+03  0.92294502445E+03  0.25500000920E-02 0. -1.
       -2    1    3    3    0  502  0.25072096958E+03  0.69610909988E+03  0.18616282152E+03  0.76294526648E+03  0.25500000920E-02 0.  1.
</event>
<event>
 5   0  0.1149716E-03  0.1413099E+04  0.7818609E-02  0.8944391E-01
        2   -1    0    0  501    0  0.00000000000E+00  0.00000000000E+00  0.11223613476E+04  0.11223613476E+04  0.25500000920E-02 0. -1.
       -2   -1    0    0    0  501  0.00000000000E+00  0.00000000000E+00 -0.44478758217E+03  0.44478758218E+03  0.25500000920E-02 0.  1.
    10030    2    1    2    0    0  0.00000000000E+00  0.00000000000E+00  0.67757376538E+03  0.15671489297E+04  0.14130992748E+04 0.  0.
        1    1    3    3  502    0  0.70619341795E+02 -0.10400579891E+03 -0.43228444666E+03  0.45019344785E+03  0.50400001928E-02 0.  1.
       -1    1    3    3    0  502 -0.70619341795E+02  0.10400579891E+03  0.11098582120E+04  0.11169554819E+04  0.50400001928E-02 0. -1.
</event>
<event>
 5   0  0.4070625E-04  0.1519675E+04  0.7818609E-02  0.8871474E-01
        3   -1    0    0  501    0  0.00000000000E+00  0.00000000000E+00  0.88087475569E+03  0.88087476148E+03  0.10100000352E+00 0. -1.
       -3   -1    0    0    0  501  0.00000000000E+00  0.00000000000E+00 -0.65543105994E+03  0.65543106773E+03  0.10100000352E+00 0.  1.
    10030    2    1    2    0    0  0.00000000000E+00  0.00000000000E+00  0.22544369575E+03  0.15363058292E+04  0.15196745510E+04 0.  0.
        2    1    3    3  502    0  0.57385004229E+03 -0.14052218675E+03 -0.37031722141E+03  0.69726981900E+03  0.25500000920E-02 0. -1.
       -2    1    3    3    0  502 -0.57385004229E+03  0.14052218675E+03  0.59576091716E+03  0.83903601021E+03  0.25500000920E-02 0.  1.
</event>
<event>
 5   0  0.5914645E-04  0.1502491E+04  0.7818609E-02  0.8882798E-01
       -1   -1    0    0    0  501  0.00000000000E+00  0.00000000000E+00  0.16754136403E+04  0.16754136403E+04  0.50400001928E-02 0.  1.
        1   -1    0    0  501    0  0.00000000000E+00  0.00000000000E+00 -0.33685415987E+03  0.33685415990E+03  0.50400001928E-02 0. -1.
    10030    2    1    2    0    0  0.00000000000E+00  0.00000000000E+00  0.13385594804E+04  0.20122678002E+04  0.15024913368E+04 0.  0.
        2    1    3    3  502    0  0.58712537199E+03  0.46053066955E+03  0.78576968380E+03  0.10836229492E+04  0.25500000920E-02 0. -1.
       -2    1    3    3    0  502 -0.58712537199E+03 -0.46053066955E+03  0.55278979661E+03  0.92864485100E+03  0.25500000920E-02 0.  1.
</event>
<event>
 5   0  0.5840834E-04  0.1495493E+04  0.7818609E-02  0.8887456E-01
        1   -1    0    0  501    0  0.00000000000E+00  0.00000000000E+00  0.94626511249E+03  0.94626511250E+03  0.50400001928E-02 0.  1.
       -1   -1    0    0    0  501  0.00000000000E+00  0.00000000000E+00 -0.59087520955E+03  0.59087520957E+03  0.50400001928E-02 0. -1.
    10030    2    1    2    0    0  0.00000000000E+00  0.00000000000E+00  0.35538990294E+03  0.15371403221E+04  0.14954926903E+04 0.  0.
        3    1    3    3  502    0 -0.22076153803E+03 -0.48625977193E+03  0.71566393185E+03  0.89294966041E+03  0.10100000352E+00 0.  1.
       -3    1    3    3    0  502  0.22076153803E+03  0.48625977193E+03 -0.36027402890E+03  0.64419066167E+03  0.10100000352E+00 0. -1.
</event>
<event>
 5   0  0.1097156E-03  0.1529495E+04  0.7818609E-02  0.8865072E-01
       -2   -1    0    0    0  501  0.00000000000E+00  0.00000000000E+00  0.92003921902E+03  0.92003921902E+03  0.25500000920E-02 0. -1.
        2   -1    0    0  501    0  0.00000000000E+00  0.00000000000E+00 -0.63566751207E+03  0.63566751208E+03  0.25500000920E-02 0.  1.
    10030    2    1    2    0    0  0.00000000000E+00  0.00000000000E+00  0.28437170695E+03  0.15557067311E+04  0.15294953957E+04 0.  0.
        2    1    3    3  502    0 -0.39788125670E+03 -0.57005769317E+03  0.46633805143E+03  0.83710599460E+03  0.25500000920E-02 0. -1.
       -2    1    3    3    0  502  0.39788125670E+03  0.57005769317E+03 -0.18196634448E+03  0.71860073650E+03  0.25500000920E-02 0.  1.
</event>
<event>
 5   0  0.1126175E-03  0.1504262E+04  0.7818609E-02  0.8881623E-01
        2   -1    0    0  501    0  0.00000000000E+00  0.00000000000E+00  0.41280293202E+03  0.41280293203E+03  0.25500000920E-02 0.  1.
       -2   -1    0    0    0  501  0.00000000000E+00  0.00000000000E+00 -0.13703909290E+04  0.13703909290E+04  0.25500000920E-02 0. -1.
    10030    2    1    2    0    0  0.00000000000E+00  0.00000000000E+00 -0.95758799693E+03  0.17831938610E+04  0.15042624685E+04 0.  0.
        3    1    3    3  502    0 -0.70812582848E+03  0.81024433662E+02 -0.19405880353E+03  0.73869207200E+03  0.10100000352E+00 0.  1.
       -3    1    3    3    0  502  0.70812582848E+03 -0.81024433662E+02 -0.76352919340E+03  0.10445017890E+04  0.10100000352E+00 0. -1.
</event>
<event>
 5   0  0.5924403E-04  0.1525686E+04  0.7818609E-02  0.8867549E-01
       -1   -1    0    0    0  501  0.00000000000E+00  0.00000000000E+00  0.43788297713E+03  0.43788297716E+03  0.50400001928E-02 0.  1.
        1   -1    0    0  501    0  0.00000000000E+00  0.00000000000E+00 -0.13289613643E+04  0.13289613643E+04  0.50400001928E-02 0. -1.
    10030    2    1    2    0    0  0.00000000000E+00  0.00000000000E+00 -0.89107838713E+03  0.17668443414E+04  0.15256861521E+04 0.  0.
        1    1    3    3  502    0 -0.39982748639E+03 -0.64327937005E+03 -0.55078428832E+03  0.93650077367E+03  0.50400001928E-02 0. -1.
       -1    1    3    3    0  502  0.39982748639E+03  0.64327937005E+03 -0.34029409881E+03  0.83034356775E+03  0.50400001928E-02 0.  1.
</event>
<event>
 5   0  0.1097156E-03  0.1511167E+04  0.7818609E-02  0.8877060E-01
       -2   -1    0    0    0  501  0.00000000000E+00  0.00000000000E+00  0.36287758090E+03  0.36287758091E+03  0.25500000920E-02 0.  1.
        2   -1    0    0  501    0  0.00000000000E+00  0.00000000000E+00 -0.15732764578E+04  0.15732764578E+04  0.25500000920E-02 0. -1.
    10030    2    1    2    0    0  0.00000000000E+00  0.00000000000E+00 -0.12103988769E+04  0.19361540387E+04  0.15111674363E+04 0.  0.
        2    1    3    3  502    0  0.60383305473E+03 -0.10137551304E+03 -0.37952162188E+02  0.61345881626E+03  0.25500000920E-02 0.  1.
       -2    1    3    3    0  502 -0.60383305473E+03  0.10137551304E+03 -0.11724467147E+04  0.13226952225E+04  0.25500000920E-02 0. -1.
</event>
<event>
 5   0  0.5606965E-04  0.1506260E+04  0.7818609E-02  0.8880301E-01
        1   -1    0    0  501    0  0.00000000000E+00  0.00000000000E+00  0.16630161287E+04  0.16630161287E+04  0.50400001928E-02 0.  1.
       -1   -1    0    0    0  501  0.00000000000E+00  0.00000000000E+00 -0.34106996356E+03  0.34106996360E+03  0.50400001928E-02 0. -1.
    10030    2    1    2    0    0  0.00000000000E+00  0.00000000000E+00  0.13219461652E+04  0.20040860923E+04  0.15062600711E+04 0.  0.
        4    1    3    3  502    0  0.18562664752E+03  0.29160726363E+03  0.15512300569E+04  0.15892791922E+04  0.12699999809E+01 0.  1.
       -4    1    3    3    0  502 -0.18562664752E+03 -0.29160726363E+03 -0.22928389174E+03  0.41480690011E+03  0.12699999809E+01 0. -1.
</event>
<event>
 5   0  0.5840834E-04  0.1511524E+04  0.7818609E-02  0.8876826E-01
       -1   -1    0    0    0  501  0.00000000000E+00  0.00000000000E+00  0.67513377184E+03  0.67513377186E+03  0.50400001928E-02 0.  1.
        1   -1    0    0  501    0  0.00000000000E+00  0.00000000000E+00 -0.84601894881E+03  0.84601894882E+03  0.50400001928E-02 0. -1.
    10030    2    1    2    0    0  0.00000000000E+00  0.00000000000E+00 -0.17088517697E+03  0.15211527207E+04  0.15115236869E+04 0.  0.
        3    1    3    3  502    0  0.32040865352E+03  0.48127781136E+03 -0.57525240217E+03  0.81560123428E+03  0.10100000352E+00 0. -1.
       -3    1    3    3    0  502 -0.32040865352E+03 -0.48127781136E+03  0.40436722519E+03  0.70555148640E+03  0.10100000352E+00 0.  1.
</event>
<event>
 5   0  0.1082667E-03  0.1494482E+04  0.7818609E-02  0.8888131E-01
        2   -1    0    0  501    0  0.00000000000E+00  0.00000000000E+00  0.10193846151E+04  0.10193846151E+04  0.25500000920E-02 0.  1.
       -2   -1    0    0    0  501  0.00000000000E+00  0.00000000000E+00 -0.54775113999E+03  0.54775114000E+03  0.25500000920E-02 0. -1.
    10030    2    1    2    0    0  0.00000000000E+00  0.00000000000E+00  0.47163347512E+03  0.15671357551E+04  0.14944819638E+04 0.  0.
        5    1    3    3  502    0 -0.23775756363E+03 -0.50001271950E+03  0.76201407657E+03  0.94192829962E+03  0.46999998093E+01 0.  1.
       -5    1    3    3    0  502  0.23775756363E+03  0.50001271950E+03 -0.29038060145E+03  0.62520745550E+03  0.46999998093E+01 0. -1.
</event>
<event>
 5   0  0.1097156E-03  0.1513218E+04  0.7818609E-02  0.8875710E-01
        2   -1    0    0  501    0  0.00000000000E+00  0.00000000000E+00  0.12542914244E+04  0.12542914244E+04  0.25500000920E-02 0. -1.
       -2   -1    0    0    0  501  0.00000000000E+00  0.00000000000E+00 -0.45639915273E+03  0.45639915274E+03  0.25500000920E-02 0.  1.
    10030    2    1    2    0    0  0.00000000000E+00  0.00000000000E+00  0.79789227162E+03  0.17106905771E+04  0.15132184817E+04 0.  0.
        2    1    3    3  502    0  0.40611547088E+03  0.51746156632E+03  0.82157901883E+03  0.10524677347E+04  0.25500000920E-02 0.  1.
       -2    1    3    3    0  502 -0.40611547088E+03 -0.51746156632E+03 -0.23686747210E+02  0.65822284244E+03  0.25500000920E-02 0. -1.
</event>
<event>
 5   0  0.4070625E-04  0.1377499E+04  0.7818609E-02  0.8970269E-01
        3   -1    0    0  501    0  0.00000000000E+00  0.00000000000E+00  0.80018165434E+03  0.80018166071E+03  0.10100000352E+00 0.  1.
       -3   -1    0    0    0  501  0.00000000000E+00  0.00000000000E+00 -0.59283511314E+03  0.59283512175E+03  0.10100000352E+00 0. -1.
    10030    2    1    2    0    0  0.00000000000E+00  0.00000000000E+00  0.20734654120E+03  0.13930167825E+04  0.13774988813E+04 0.  0.
        3    1    3    3  502    0  0.51223132520E+03  0.24139753196E+03  0.50016417047E+03  0.75552492121E+03  0.10100000352E+00 0.  1.
       -3    1    3    3    0  502 -0.51223132520E+03 -0.24139753196E+03 -0.29281762927E+03  0.63749186125E+03  0.10100000352E+00 0. -1.
</event>
<event>
 5   0  0.6146552E-04  0.1515904E+04  0.7818609E-02  0.8873946E-01
        1   -1    0    0  501    0  0.00000000000E+00  0.00000000000E+00  0.17248994528E+04  0.17248994528E+04  0.50400001928E-02 0. -1.
       -1   -1    0    0    0  501  0.00000000000E+00  0.00000000000E+00 -0.33305759295E+03  0.33305759299E+03  0.50400001928E-02 0.  1.
    10030    2    1    2    0    0  0.00000000000E+00  0.00000000000E+00  0.13918418598E+04  0.20579570458E+04  0.15159035060E+04 0.  0.
        5    1    3    3  502    0  0.39427030533E+03  0.19579247787E+02  0.15743025014E+04  0.16230474042E+04  0.46999998093E+01 0. -1.
       -5    1    3    3    0  502 -0.39427030533E+03 -0.19579247787E+02 -0.18246064152E+03  0.43490964155E+03  0.46999998093E+01 0.  1.
</event>
<event>
 5   0  0.5914645E-04  0.1488089E+04  0.7818609E-02  0.8892412E-01
       -1   -1    0    0    0  501  0.00000000000E+00  0.00000000000E+00  0.46306989322E+03  0.46306989325E+03  0.50400001928E-02 0.  1.
        1   -1    0    0  501    0  0.00000000000E+00  0.00000000000E+00 -0.11955046282E+04  0.11955046282E+04  0.50400001928E-02 0. -1.
    10030    2    1    2    0    0  0.00000000000E+00  0.00000000000E+00 -0.73243473494E+03  0.16585745214E+04  0.14880889766E+04 0.  0.
        2    1    3    3  502    0 -0.23656792136E+03  0.67775676343E+02  0.41639922455E+03  0.48367989201E+03  0.25500000920E-02 0.  1.
       -2    1    3    3    0  502  0.23656792136E+03 -0.67775676343E+02 -0.11488339595E+04  0.11748946294E+04  0.25500000920E-02 0. -1.
</event>
<event>
 5   0  0.5924403E-04  0.1510715E+04  0.7818609E-02  0.8877358E-01
        1   -1    0    0  501    0  0.00000000000E+00  0.00000000000E+00  0.10143667994E+04  0.10143667994E+04  0.50400001928E-02 0. -1.
       -1   -1    0    0    0  501  0.00000000000E+00  0.00000000000E+00 -0.56248410524E+03  0.56248410526E+03  0.50400001928E-02 0.  1.
    10030    2    1    2    0    0  0.00000000000E+00  0.00000000000E+00  0.45188269415E+03  0.15768509047E+04  0.15107153293E+04 0.  0.
        1    1    3    3  502    0 -0.32930430508E+03  0.37443825606E+03  0.81815973318E+03  0.95813917672E+03  0.50400001928E-02 0. -1.
       -1    1    3    3    0  502  0.32930430508E+03 -0.37443825606E+03 -0.36627703902E+03  0.61871172794E+03  0.50400001928E-02 0.  1.
</event>
<event>
 5   0  0.1097156E-03  0.1506028E+04  0.7818609E-02  0.8880454E-01
       -2   -1    0    0    0  501  0.00000000000E+00  0.00000000000E+00  0.74507466476E+03  0.74507466477E+03  0.25500000920E-02 0. -1.
        2   -1    0    0  501    0  0.00000000000E+00  0.00000000000E+00 -0.76103842323E+03  0.76103842324E+03  0.25500000920E-02 0.  1.
    10030    2    1    2    0    0  0.00000000000E+00  0.00000000000E+00 -0.15963758470E+02  0.15061130880E+04  0.15060284832E+04 0.  0.
        2    1    3    3  502    0  0.57142357136E+03  0.36785031105E+03  0.31636903865E+03  0.74961864830E+03  0.25500000920E-02 0.  1.
       -2    1    3    3    0  502 -0.57142357136E+03 -0.36785031105E+03 -0.33233279712E+03  0.75649443970E+03  0.25500000920E-02 0. -1.
</event>
<event>
 5   0  0.5924403E-04  0.1565951E+04  0.7818609E-02  0.8841743E-01
        1   -1    0    0  501    0  0.00000000000E+00  0.00000000000E+00  0.78203871734E+03  0.78203871736E+03  0.50400001928E-02 0. -1.
       -1   -1    0    0    0  501  0.00000000000E+00  0.00000000000E+00 -0.78391370732E+03  0.78391370734E+03  0.50400001928E-02 0.  1.
    10030    2    1    2    0    0  0.00000000000E+00  0.00000000000E+00 -0.18749899771E+01  0.15659524247E+04  0.15659513022E+04 0.  0.
        1    1    3    3  502    0 -0.95519264666E+02 -0.58377620481E+03 -0.51390207485E+03  0.78359040945E+03  0.50400001928E-02 0.  1.
       -1    1    3    3    0  502  0.95519264666E+02  0.58377620481E+03  0.51202708488E+03  0.78236201524E+03  0.50400001928E-02 0. -1.
</event>
<event>
 5   0  0.4070625E-04  0.1534847E+04  0.7818609E-02  0.8861605E-01
        4   -1    0    0  501    0  0.00000000000E+00  0.00000000000E+00  0.13327534355E+04  0.13327540406E+04  0.12699999809E+01 0.  1.
       -4   -1    0    0    0  501  0.00000000000E+00  0.00000000000E+00 -0.44189455131E+03  0.44189637629E+03  0.12699999809E+01 0. -1.
    10030    2    1    2    0    0  0.00000000000E+00  0.00000000000E+00  0.89085888416E+03  0.17746504169E+04  0.15348467515E+04 0.  0.
        1    1    3    3  502    0 -0.26772481570E+03  0.58576294945E+03  0.92793446543E+03  0.11295384819E+04  0.50400001928E-02 0.  1.
       -1    1    3    3    0  502  0.26772481570E+03 -0.58576294945E+03 -0.37075581272E+02  0.64511193497E+03  0.50400001928E-02 0. -1.
</event>
<event>
 5   0  0.5840834E-04  0.1479940E+04  0.7818609E-02  0.8897903E-01
        1   -1    0    0  501    0  0.00000000000E+00  0.00000000000E+00  0.10866907196E+04  0.10866907196E+04  0.50400001928E-02 0.  1.
       -1   -1    0    0    0  501  0.00000000000E+00  0.00000000000E+00 -0.50387434485E+03  0.50387434488E+03  0.50400001928E-02 0. -1.
    10030    2    1    2    0    0  0.00000000000E+00  0.00000000000E+00  0.58281637472E+03  0.15905650645E+04  0.14799399642E+04 0.  0.
        3    1    3    3  502    0  0.58971470598E+02  0.27053974969E+03  0.10289137675E+04  0.10655200335E+04  0.10100000352E+00 0.  1.
       -3    1    3    3    0  502 -0.58971470598E+02 -0.27053974969E+03 -0.44609739280E+03  0.52504503100E+03  0.10100000352E+00 0. -1.
</event>
<event>
 5   0  0.4070625E-04  0.1522881E+04  0.7818609E-02  0.8869378E-01
        3   -1    0    0  501    0  0.00000000000E+00  0.00000000000E+00  0.65556587005E+03  0.65556587783E+03  0.10100000352E+00 0.  1.
       -3   -1    0    0    0  501  0.00000000000E+00  0.00000000000E+00 -0.88441440976E+03  0.88441441553E+03  0.10100000352E+00 0. -1.
    10030    2    1    2    0    0  0.00000000000E+00  0.00000000000E+00 -0.22884853972E+03  0.15399802934E+04  0.15228813643E+04 0.  0.
        1    1    3    3  502    0  0.31504390633E+03 -0.18040552001E+03 -0.79126229968E+03  0.87057156023E+03  0.50400001928E-02 0. -1.
       -1    1    3    3    0  502 -0.31504390633E+03  0.18040552001E+03  0.56241375996E+03  0.66940873313E+03  0.50400001928E-02 0.  1.
</event>
<event>
 5   0  0.6146552E-04  0.1474679E+04  0.7818609E-02  0.8901468E-01
       -1   -1    0    0    0  501  0.00000000000E+00  0.00000000000E+00  0.68305583695E+03  0.68305583696E+03  0.50400001928E-02 0. -1.
        1   -1    0    0  501    0  0.00000000000E+00  0.00000000000E+00 -0.79593744844E+03  0.79593744845E+03  0.50400001928E-02 0.  1.
    10030    2    1    2    0    0  0.00000000000E+00  0.00000000000E+00 -0.11288161149E+03  0.14789932854E+04  0.14746792465E+04 0.  0.
        5    1    3    3  502    0  0.23218502278E+03  0.33507886895E+03 -0.67261576121E+03  0.78652513338E+03  0.46999998093E+01 0.  1.
       -5    1    3    3    0  502 -0.23218502278E+03 -0.33507886895E+03  0.55973414972E+03  0.69246815203E+03  0.46999998093E+01 0. -1.
</event>
<event>
 5   0  0.1097156E-03  0.1510111E+04  0.7818609E-02  0.8877757E-01
       -2   -1    0    0    0  501  0.00000000000E+00  0.00000000000E+00  0.58528895434E+03  0.58528895434E+03  0.25500000920E-02 0.  1.
        2   -1    0    0  501    0  0.00000000000E+00  0.00000000000E+00 -0.97406384914E+03  0.97406384915E+03  0.25500000920E-02 0. -1.
    10030    2    1    2    0    0  0.00000000000E+00  0.00000000000E+00 -0.38877489481E+03  0.15593528035E+04  0.15101110048E+04 0.  0.
        2    1    3    3  502    0  0.70181138786E+03 -0.15646186545E+03  0.43536906708E+02  0.72035755130E+03  0.25500000920E-02 0. -1.
       -2    1    3    3    0  502 -0.70181138786E+03  0.15646186545E+03 -0.43231180151E+03  0.83899525219E+03  0.25500000920E-02 0.  1.
</event>
<event>
 5   0  0.4070625E-04  0.1505585E+04  0.7818609E-02  0.8880747E-01
       -3   -1    0    0    0  501  0.00000000000E+00  0.00000000000E+00  0.62250212053E+03  0.62250212872E+03  0.10100000352E+00 0.  1.
        3   -1    0    0  501    0  0.00000000000E+00  0.00000000000E+00 -0.91035293505E+03  0.91035294066E+03  0.10100000352E+00 0. -1.
    10030    2    1    2    0    0  0.00000000000E+00  0.00000000000E+00 -0.28785081453E+03  0.15328550694E+04  0.15055851262E+04 0.  0.
        3    1    3    3  502    0 -0.21141214681E+03 -0.59625622464E+03  0.27148452848E+03  0.68841879743E+03  0.10100000352E+00 0.  1.
       -3    1    3    3    0  502  0.21141214681E+03  0.59625622464E+03 -0.55933534301E+03  0.84443627195E+03  0.10100000352E+00 0. -1.
</event>
<event>
 5   0  0.5924403E-04  0.1484914E+04  0.7818609E-02  0.8894547E-01
        1   -1    0    0  501    0  0.00000000000E+00  0.00000000000E+00  0.10059001217E+04  0.10059001217E+04  0.50400001928E-02 0. -1.
       -1   -1    0    0    0  501  0.00000000000E+00  0.00000000000E+00 -0.54800914454E+03  0.54800914457E+03  0.50400001928E-02 0.  1.
    10030    2    1    2    0    0  0.00000000000E+00  0.00000000000E+00  0.45789097713E+03  0.15539092663E+04  0.14849140921E+04 0.  0.
        1    1    3    3  502    0  0.44929336129E+03 -0.21401338761E+03  0.80552365865E+03  0.94685512052E+03  0.50400001928E-02 0. -1.
       -1    1    3    3    0  502 -0.44929336129E+03  0.21401338761E+03 -0.34763268152E+03  0.60705414574E+03  0.50400001928E-02 0.  1.
</event>
<event>
 5   0  0.1097156E-03  0.1515021E+04  0.7818609E-02  0.8874525E-01
        2   -1    0    0  501    0  0.00000000000E+00  0.00000000000E+00  0.19933996552E+04  0.19933996552E+04  0.25500000920E-02 0. -1.
       -2   -1    0    0    0  501  0.00000000000E+00  0.00000000000E+00 -0.28786098842E+03  0.28786098844E+03  0.25500000920E-02 0.  1.
    10030    2    1    2    0    0  0.00000000000E+00  0.00000000000E+00  0.17055386667E+04  0.22812606436E+04  0.15150207854E+04 0.  0.
        2    1    3    3  502    0 -0.37113760333E+03  0.54168939414E+03  0.14214840279E+04  0.15658184320E+04  0.25500000920E-02 0. -1.
       -2    1    3    3    0  502  0.37113760333E+03 -0.54168939414E+03  0.28405463885E+03  0.71544221163E+03  0.25500000920E-02 0.  1.
</event>
<event>
 5   0  0.5914645E-04  0.1498188E+04  0.7818609E-02  0.8885659E-01
       -1   -1    0    0    0  501  0.00000000000E+00  0.00000000000E+00  0.64205750039E+03  0.64205750041E+03  0.50400001928E-02 0.  1.
        1   -1    0    0  501    0  0.00000000000E+00  0.00000000000E+00 -0.87397462470E+03  0.87397462472E+03  0.50400001928E-02 0. -1.
    10030    2    1    2    0    0  0.00000000000E+00  0.00000000000E+00 -0.23191712432E+03  0.15160321251E+04  0.14981881897E+04 0.  0.
        2    1    3    3  502    0  0.16444063182E+03  0.24089228083E+03  0.58223915321E+03  0.65120829532E+03  0.25500000920E-02 0.  1.
       -2    1    3    3    0  502 -0.16444063182E+03 -0.24089228083E+03 -0.81415627753E+03  0.86482382981E+03  0.25500000920E-02 0. -1.
</event>
<event>
 5   0  0.5914645E-04  0.1422560E+04  0.7818609E-02  0.8937648E-01
        1   -1    0    0  501    0  0.00000000000E+00  0.00000000000E+00  0.12894892075E+04  0.12894892075E+04  0.50400001928E-02 0.  1.
       -1   -1    0    0    0  501  0.00000000000E+00  0.00000000000E+00 -0.39234088611E+03  0.39234088614E+03  0.50400001928E-02 0. -1.
    10030    2    1    2    0    0  0.00000000000E+00  0.00000000000E+00  0.89714832143E+03  0.16818300937E+04  0.14225601405E+04 0.  0.
        2    1    3    3  502    0 -0.22200347762E+03  0.17346342888E+03  0.12207096617E+04  0.12527997379E+04  0.25500000920E-02 0.  1.
       -2    1    3    3    0  502  0.22200347762E+03 -0.17346342888E+03 -0.32356134026E+03  0.42903035574E+03  0.25500000920E-02 0. -1.
</event>
<event>
 5   0  0.5606965E-04  0.1339234E+04  0.7818609E-02  0.8999018E-01
       -1   -1    0    0    0  501  0.00000000000E+00  0.00000000000E+00  0.82617204468E+03  0.82617204469E+03  0.50400001928E-02 0. -1.
        1   -1    0    0  501    0  0.00000000000E+00  0.00000000000E+00 -0.54272832722E+03  0.54272832724E+03  0.50400001928E-02 0.  1.
    10030    2    1    2    0    0  0.00000000000E+00  0.00000000000E+00  0.28344371746E+03  0.13689003719E+04  0.13392340674E+04 0.  0.
        4    1    3    3  502    0 -0.33015638442E+03 -0.21618788651E+03  0.69467183889E+03  0.79894368831E+03  0.12699999809E+01 0. -1.
       -4    1    3    3    0  502  0.33015638442E+03  0.21618788651E+03 -0.41122812143E+03  0.56995668362E+03  0.12699999809E+01 0.  1.
</event>
<event>
 5   0  0.5606965E-04  0.1495943E+04  0.7818609E-02  0.8887156E-01
       -1   -1    0    0    0  501  0.00000000000E+00  0.00000000000E+00  0.26040811483E+04  0.26040811483E+04  0.50400001928E-02 0. -1.
        1   -1    0    0  501    0  0.00000000000E+00  0.00000000000E+00 -0.21484010991E+03  0.21484010996E+03  0.50400001928E-02 0.  1.
    10030    2    1    2    0    0  0.00000000000E+00  0.00000000000E+00  0.23892410384E+04  0.28189212582E+04  0.14959426195E+04 0.  0.
        4    1    3    3  502    0  0.70781198667E+03  0.69132719797E+02  0.16312204589E+04  0.17795108709E+04  0.12699999809E+01 0. -1.
       -4    1    3    3    0  502 -0.70781198667E+03 -0.69132719797E+02  0.75802057950E+03  0.10394103873E+04  0.12699999809E+01 0.  1.
</event>
<event>
 5   0  0.6146552E-04  0.1493972E+04  0.7818609E-02  0.8888471E-01
        1   -1    0    0  501    0  0.00000000000E+00  0.00000000000E+00  0.13333416639E+04  0.13333416639E+04  0.50400001928E-02 0.  1.
       -1   -1    0    0    0  501  0.00000000000E+00  0.00000000000E+00 -0.41848837414E+03  0.41848837417E+03  0.50400001928E-02 0. -1.
    10030    2    1    2    0    0  0.00000000000E+00  0.00000000000E+00  0.91485328972E+03  0.17518300380E+04  0.14939718674E+04 0.  0.
        5    1    3    3  502    0  0.57536335985E+03 -0.14916856252E+03 -0.73064798448E+02  0.59887795975E+03  0.46999998093E+01 0. -1.
       -5    1    3    3    0  502 -0.57536335985E+03  0.14916856252E+03  0.98791808817E+03  0.11529520783E+04  0.46999998093E+01 0.  1.
</event>
<event>
 5   0  0.5840834E-04  0.1520569E+04  0.7818609E-02  0.8870889E-01
       -1   -1    0    0    0  501  0.00000000000E+00  0.00000000000E+00  0.62223189418E+03  0.62223189420E+03  0.50400001928E-02 0.  1.
        1   -1    0    0  501    0  0.00000000000E+00  0.00000000000E+00 -0.92896600200E+03  0.92896600202E+03  0.50400001928E-02 0. -1.
    10030    2    1    2    0    0  0.00000000000E+00  0.00000000000E+00 -0.30673410782E+03  0.15511978962E+04  0.15205686766E+04 0.  0.
        3    1    3    3  502    0  0.64320869306E+03 -0.25601055508E+03  0.16724603764E+03  0.71220086664E+03  0.10100000352E+00 0.  1.
       -3    1    3    3    0  502 -0.64320869306E+03  0.25601055508E+03 -0.47398014547E+03  0.83899702957E+03  0.10100000352E+00 0. -1.
</event>
<event>
 5   0  0.1082667E-03  0.1685577E+04  0.7818609E-02  0.8769633E-01
       -2   -1    0    0    0  501  0.00000000000E+00  0.00000000000E+00  0.67128420224E+03  0.67128420225E+03  0.25500000920E-02 0. -1.
        2   -1    0    0  501    0  0.00000000000E+00  0.00000000000E+00 -0.10581096649E+04  0.10581096649E+04  0.25500000920E-02 0.  1.
    10030    2    1    2    0    0  0.00000000000E+00  0.00000000000E+00 -0.38682546269E+03  0.17293938672E+04  0.16855768180E+04 0.  0.
        5    1    3    3  502    0  0.81129574128E+03 -0.12737710787E+03  0.83531421521E+00  0.82124813252E+03  0.46999998093E+01 0. -1.
       -5    1    3    3    0  502 -0.81129574128E+03  0.12737710787E+03 -0.38766077690E+03  0.90814573466E+03  0.46999998093E+01 0.  1.
</event>
<event>
 5   0  0.6146552E-04  0.1501016E+04  0.7818609E-02  0.8883778E-01
       -1   -1    0    0    0  501  0.00000000000E+00  0.00000000000E+00  0.52886037424E+03  0.52886037427E+03  0.50400001928E-02 0. -1.
        1   -1    0    0  501    0  0.00000000000E+00  0.00000000000E+00 -0.10650491821E+04  0.10650491821E+04  0.50400001928E-02 0.  1.
    10030    2    1    2    0    0  0.00000000000E+00  0.00000000000E+00 -0.53618880785E+03  0.15939095564E+04  0.15010160680E+04 0.  0.
        5    1    3    3  502    0  0.63330770827E+03 -0.40221432540E+03 -0.24725320591E+03  0.78994383012E+03  0.46999998093E+01 0.  1.
       -5    1    3    3    0  502 -0.63330770827E+03  0.40221432540E+03 -0.28893560195E+03  0.80396572625E+03  0.46999998093E+01 0. -1.
</event>
<event>
 5   0  0.1149716E-03  0.1511036E+04  0.7818609E-02  0.8877147E-01
        2   -1    0    0  501    0  0.00000000000E+00  0.00000000000E+00  0.19207665251E+04  0.19207665251E+04  0.25500000920E-02 0. -1.
       -2   -1    0    0    0  501  0.00000000000E+00  0.00000000000E+00 -0.29717683026E+03  0.29717683027E+03  0.25500000920E-02 0.  1.
    10030    2    1    2    0    0  0.00000000000E+00  0.00000000000E+00  0.16235896948E+04  0.22179433554E+04  0.15110358138E+04 0.  0.
        1    1    3    3  502    0  0.39585657855E+03  0.35419505459E+03  0.23185300739E+02  0.53168987735E+03  0.50400001928E-02 0.  1.
       -1    1    3    3    0  502 -0.39585657855E+03 -0.35419505459E+03  0.16004043941E+04  0.16862534780E+04  0.50400001928E-02 0. -1.
</event>
<event>
 5   0  0.5840834E-04  0.1462441E+04  0.7818609E-02  0.8909821E-01
        1   -1    0    0  501    0  0.00000000000E+00  0.00000000000E+00  0.62277934137E+03  0.62277934139E+03  0.50400001928E-02 0.  1.
       -1   -1    0    0    0  501  0.00000000000E+00  0.00000000000E+00 -0.85854382950E+03  0.85854382952E+03  0.50400001928E-02 0. -1.
    10030    2    1    2    0    0  0.00000000000E+00  0.00000000000E+00 -0.23576448814E+03  0.14813231709E+04  0.14624409194E+04 0.  0.
        3    1    3    3  502    0  0.12365820320E+03  0.34243105222E+03 -0.76020946715E+03  0.84289312543E+03  0.10100000352E+00 0. -1.
       -3    1    3    3    0  502 -0.12365820320E+03 -0.34243105222E+03  0.52444497902E+03  0.63843004547E+03  0.10100000352E+00 0.  1.
</event>
<event>
 5   0  0.5606965E-04  0.1136843E+04  0.7818609E-02  0.9170008E-01
        1   -1    0    0  501    0  0.00000000000E+00  0.00000000000E+00  0.15880111814E+04  0.15880111814E+04  0.50400001928E-02 0. -1.
       -1   -1    0    0    0  501  0.00000000000E+00  0.00000000000E+00 -0.20346391512E+03  0.20346391518E+03  0.50400001928E-02 0.  1.
    10030    2    1    2    0    0  0.00000000000E+00  0.00000000000E+00  0.13845472663E+04  0.17914750966E+04  0.11368429483E+04 0.  0.
        4    1    3    3  502    0  0.37535541832E+03  0.41788902906E+03  0.55509076210E+03  0.78971532703E+03  0.12699999809E+01 0.  1.
       -4    1    3    3    0  502 -0.37535541832E+03 -0.41788902906E+03  0.82945650417E+03  0.10017597695E+04  0.12699999809E+01 0. -1.
</event>
<event>
 5   0  0.1149716E-03  0.1494095E+04  0.7818609E-02  0.8888389E-01
       -2   -1    0    0    0  501  0.00000000000E+00  0.00000000000E+00  0.39998596911E+03  0.39998596911E+03  0.25500000920E-02 0. -1.
        2   -1    0    0  501    0  0.00000000000E+00  0.00000000000E+00 -0.13952493339E+04  0.13952493339E+04  0.25500000920E-02 0.  1.
    10030    2    1    2    0    0  0.00000000000E+00  0.00000000000E+00 -0.99526336478E+03  0.17952353030E+04  0.14940952539E+04 0.  0.
        1    1    3    3  502    0 -0.36979344831E+03 -0.64646403943E+03 -0.42739260193E+03  0.85867769559E+03  0.50400001928E-02 0.  1.
       -1    1    3    3    0  502  0.36979344831E+03  0.64646403943E+03 -0.56787076285E+03  0.93655760741E+03  0.50400001928E-02 0. -1.
</event>
<event>
 5   0  0.1082667E-03  0.1537724E+04  0.7818609E-02  0.8859747E-01
       -2   -1    0    0    0  501  0.00000000000E+00  0.00000000000E+00  0.11646532298E+04  0.11646532298E+04  0.25500000920E-02 0.  1.
        2   -1    0    0  501    0  0.00000000000E+00  0.00000000000E+00 -0.50757503119E+03  0.50757503120E+03  0.25500000920E-02 0. -1.
    10030    2    1    2    0    0  0.00000000000E+00  0.00000000000E+00  0.65707819857E+03  0.16722282610E+04  0.15377241618E+04 0.  0.
        5    1    3    3  502    0 -0.54340191480E+03  0.35652170279E+03 -0.11816270409E+03  0.66058904033E+03  0.46999998093E+01 0. -1.
       -5    1    3    3    0  502  0.54340191480E+03 -0.35652170279E+03  0.77524090266E+03  0.10116392206E+04  0.46999998093E+01 0.  1.
</event>
<event>
 5   0  0.1149716E-03  0.1518459E+04  0.7818609E-02  0.8872270E-01
        2   -1    0    0  501    0  0.00000000000E+00  0.00000000000E+00  0.11935992862E+04  0.11935992862E+04  0.25500000920E-02 0. -1.
       -2   -1    0    0    0  501  0.00000000000E+00  0.00000000000E+00 -0.48293387069E+03  0.48293387069E+03  0.25500000920E-02 0.  1.
    10030    2    1    2    0    0  0.00000000000E+00  0.00000000000E+00  0.71066541550E+03  0.16765331569E+04  0.15184591181E+04 0.  0.
        1    1    3    3  502    0  0.31821379809E+03 -0.78668964628E+01  0.11163684225E+04  0.11608619057E+04  0.50400001928E-02 0. -1.
       -1    1    3    3    0  502 -0.31821379809E+03  0.78668964628E+01 -0.40570300701E+03  0.51567125116E+03  0.50400001928E-02 0.  1.
</event>
<event>
 5   0  0.1126175E-03  0.1459752E+04  0.7818609E-02  0.8911667E-01
       -2   -1    0    0    0  501  0.00000000000E+00  0.00000000000E+00  0.90235005327E+03  0.90235005327E+03  0.25500000920E-02 0.  1.
        2   -1    0    0  501    0  0.00000000000E+00  0.00000000000E+00 -0.59036842022E+03  0.59036842022E+03  0.25500000920E-02 0. -1.
    10030    2    1    2    0    0  0.00000000000E+00  0.00000000000E+00  0.31198163305E+03  0.14927184735E+04  0.14597520001E+04 0.  0.
        3    1    3    3  502    0 -0.27435821519E+03  0.16940810315E+03 -0.51358474360E+03  0.60641638724E+03  0.10100000352E+00 0. -1.
       -3    1    3    3    0  502  0.27435821519E+03 -0.16940810315E+03  0.82556637664E+03  0.88630208626E+03  0.10100000352E+00 0.  1.
</event>
<event>
 5   0  0.1097156E-03  0.1556085E+04  0.7818609E-02  0.8847991E-01
       -2   -1    0    0    0  501  0.00000000000E+00  0.00000000000E+00  0.27801154160E+03  0.27801154161E+03  0.25500000920E-02 0.  1.
        2   -1    0    0  501    0  0.00000000000E+00  0.00000000000E+00 -0.21774269518E+04  0.21774269518E+04  0.25500000920E-02 0. -1.
    10030    2    1    2    0    0  0.00000000000E+00  0.00000000000E+00 -0.18994154102E+04  0.24554384934E+04  0.15560846039E+04 0.  0.
        2    1    3    3  502    0  0.42271827072E+03  0.42112458235E+03 -0.16181248197E+03  0.61823937887E+03  0.25500000920E-02 0.  1.
       -2    1    3    3    0  502 -0.42271827072E+03 -0.42112458235E+03 -0.17376029282E+04  0.18371991145E+04  0.25500000920E-02 0. -1.
</event>
<event>
 5   0  0.1149716E-03  0.1523041E+04  0.7818609E-02  0.8869274E-01
        2   -1    0    0  501    0  0.00000000000E+00  0.00000000000E+00  0.14112194194E+04  0.14112194195E+04  0.25500000920E-02 0.  1.
       -2   -1    0    0    0  501  0.00000000000E+00  0.00000000000E+00 -0.41093060502E+03  0.41093060502E+03  0.25500000920E-02 0. -1.
    10030    2    1    2    0    0  0.00000000000E+00  0.00000000000E+00  0.10002888144E+04  0.18221500245E+04  0.15230407084E+04 0.  0.
        1    1    3    3  502    0  0.30229990494E+02  0.36950254468E+03  0.12959613733E+04  0.13479472778E+04  0.50400001928E-02 0.  1.
       -1    1    3    3    0  502 -0.30229990494E+02 -0.36950254468E+03 -0.29567255882E+03  0.47420274663E+03  0.50400001928E-02 0. -1.
</event>
<event>
 5   0  0.6146552E-04  0.1541301E+04  0.7818609E-02  0.8857444E-01
       -1   -1    0    0    0  501  0.00000000000E+00  0.00000000000E+00  0.50241172280E+03  0.50241172283E+03  0.50400001928E-02 0. -1.
        1   -1    0    0  501    0  0.00000000000E+00  0.00000000000E+00 -0.11821022648E+04  0.11821022648E+04  0.50400001928E-02 0.  1.
    10030    2    1    2    0    0  0.00000000000E+00  0.00000000000E+00 -0.67969054198E+03  0.16845139876E+04  0.15413007953E+04 0.  0.
        5    1    3    3  502    0 -0.64892100811E+03  0.40335912856E+03 -0.23010156915E+03  0.79797611711E+03  0.46999998093E+01 0. -1.
       -5    1    3    3    0  502  0.64892100811E+03 -0.40335912856E+03 -0.44958897283E+03  0.88653787051E+03  0.46999998093E+01 0.  1.
</event>
<event>
 5   0  0.6146552E-04  0.1430811E+04  0.7818609E-02  0.8931813E-01
       -1   -1    0    0    0  501  0.00000000000E+00  0.00000000000E+00  0.48136993328E+03  0.48136993330E+03  0.50400001928E-02 0.  1.
        1   -1    0    0  501    0  0.00000000000E+00  0.00000000000E+00 -0.10632257180E+04  0.10632257180E+04  0.50400001928E-02 0. -1.
    10030    2    1    2    0    0  0.00000000000E+00  0.00000000000E+00 -0.58185578475E+03  0.15445956513E+04  0.14308108093E+04 0.  0.
        5    1    3    3  502    0 -0.29113727876E+03  0.27751441185E+03 -0.92959030454E+03  0.10128846865E+04  0.46999998093E+01 0. -1.
       -5    1    3    3    0  502  0.29113727876E+03 -0.27751441185E+03  0.34773451979E+03  0.53171096483E+03  0.46999998093E+01 0.  1.
</event>
<event>
 5   0  0.1097156E-03  0.1483406E+04  0.7818609E-02  0.8895563E-01
        2   -1    0    0  501    0  0.00000000000E+00  0.00000000000E+00  0.51238696033E+03  0.51238696033E+03  0.25500000920E-02 0. -1.
       -2   -1    0    0    0  501  0.00000000000E+00  0.00000000000E+00 -0.10736487526E+04  0.10736487526E+04  0.25500000920E-02 0.  1.
    10030    2    1    2    0    0  0.00000000000E+00  0.00000000000E+00 -0.56126179227E+03  0.15860357129E+04  0.14834063783E+04 0.  0.
        2    1    3    3  502    0 -0.66305586011E+03  0.32544231750E+03 -0.20836914075E+03  0.76744607267E+03  0.25500000920E-02 0. -1.
       -2    1    3    3    0  502  0.66305586011E+03 -0.32544231750E+03 -0.35289265153E+03  0.81858964026E+03  0.25500000920E-02 0.  1.
</event>
<event>
 5   0  0.5840834E-04  0.1487685E+04  0.7818609E-02  0.8892684E-01
        1   -1    0    0  501    0  0.00000000000E+00  0.00000000000E+00  0.39462083648E+03  0.39462083651E+03  0.50400001928E-02 0.  1.
       -1   -1    0    0    0  501  0.00000000000E+00  0.00000000000E+00 -0.14021092807E+04  0.14021092807E+04  0.50400001928E-02 0. -1.
    10030    2    1    2    0    0  0.00000000000E+00  0.00000000000E+00 -0.10074884442E+04  0.17967301172E+04  0.14876848285E+04 0.  0.
        3    1    3    3  502    0  0.19707493565E+03  0.30550121334E+03  0.28001206516E+03  0.45888592096E+03  0.10100000352E+00 0.  1.
       -3    1    3    3    0  502 -0.19707493565E+03 -0.30550121334E+03 -0.12875005093E+04  0.13378441962E+04  0.10100000352E+00 0. -1.
</event>
<event>
 5   0  0.6146552E-04  0.1507423E+04  0.7818609E-02  0.8879532E-01
        1   -1    0    0  501    0  0.00000000000E+00  0.00000000000E+00  0.91821070514E+03  0.91821070515E+03  0.50400001928E-02 0. -1.
       -1   -1    0    0    0  501  0.00000000000E+00  0.00000000000E+00 -0.61868247251E+03  0.61868247253E+03  0.50400001928E-02 0.  1.
    10030    2    1    2    0    0  0.00000000000E+00  0.00000000000E+00  0.29952823262E+03  0.15368931777E+04  0.15074227932E+04 0.  0.
        5    1    3    3  502    0 -0.73287432523E+03  0.10656068049E+03  0.70313729184E+01  0.74062911461E+03  0.46999998093E+01 0. -1.
       -5    1    3    3    0  502  0.73287432523E+03 -0.10656068049E+03  0.29249685971E+03  0.79626406307E+03  0.46999998093E+01 0.  1.
</event>
<event>
 5   0  0.4070625E-04  0.1501298E+04  0.7818609E-02  0.8883590E-01
        4   -1    0    0  501    0  0.00000000000E+00  0.00000000000E+00  0.86243289650E+03  0.86243383158E+03  0.12699999809E+01 0.  1.
       -4   -1    0    0    0  501  0.00000000000E+00  0.00000000000E+00 -0.65335216794E+03  0.65335340227E+03  0.12699999809E+01 0. -1.
    10030    2    1    2    0    0  0.00000000000E+00  0.00000000000E+00  0.20908072855E+03  0.15157872339E+04  0.15012981673E+04 0.  0.
        5    1    3    3  502    0 -0.96585844644E+02  0.15249077025E+03  0.84018023305E+03  0.85936440140E+03  0.46999998093E+01 0.  1.
       -5    1    3    3    0  502  0.96585844644E+02 -0.15249077025E+03 -0.63109950449E+03  0.65642283245E+03  0.46999998093E+01 0. -1.
</event>
<event>
 5   0  0.1126175E-03  0.1145048E+04  0.7818609E-02  0.9162364E-01
        2   -1    0    0  501    0  0.00000000000E+00  0.00000000000E+00  0.87876675031E+03  0.87876675031E+03  0.25500000920E-02 0.  1.
       -2   -1    0    0    0  501  0.00000000000E+00  0.00000000000E+00 -0.37300445816E+03  0.37300445817E+03  0.25500000920E-02 0. -1.
    10030    2    1    2    0    0  0.00000000000E+00  0.00000000000E+00  0.50576229215E+03  0.12517712085E+04  0.11450483231E+04 0.  0.
        3    1    3    3  502    0  0.13700173210E+03 -0.11151947056E+03 -0.34246629463E+03  0.38534301611E+03  0.10100000352E+00 0. -1.
       -3    1    3    3    0  502 -0.13700173210E+03  0.11151947056E+03  0.84822858677E+03  0.86642819237E+03  0.10100000352E+00 0.  1.
</event>
<event>
 5   0  0.4070625E-04  0.1507799E+04  0.7818609E-02  0.8879283E-01
        3   -1    0    0  501    0  0.00000000000E+00  0.00000000000E+00  0.51957512048E+03  0.51957513030E+03  0.10100000352E+00 0.  1.
       -3   -1    0    0    0  501  0.00000000000E+00  0.00000000000E+00 -0.10939020667E+04  0.10939020714E+04  0.10100000352E+00 0. -1.
    10030    2    1    2    0    0  0.00000000000E+00  0.00000000000E+00 -0.57432694625E+03  0.16134772017E+04  0.15077988059E+04 0.  0.
        2    1    3    3  502    0  0.13639926577E+03 -0.72441034935E+03 -0.45632265597E+03  0.86695183274E+03  0.25500000920E-02 0. -1.
       -2    1    3    3    0  502 -0.13639926577E+03  0.72441034935E+03 -0.11800429028E+03  0.74652536894E+03  0.25500000920E-02 0.  1.
</event>
<event>
 5   0  0.1097156E-03  0.1505817E+04  0.7818609E-02  0.8880594E-01
       -2   -1    0    0    0  501  0.00000000000E+00  0.00000000000E+00  0.51332167549E+03  0.51332167549E+03  0.25500000920E-02 0.  1.
        2   -1    0    0  501    0  0.00000000000E+00  0.00000000000E+00 -0.11043194498E+04  0.11043194498E+04  0.25500000920E-02 0. -1.
    10030    2    1    2    0    0  0.00000000000E+00  0.00000000000E+00 -0.59099777432E+03  0.16176411253E+04  0.15058168684E+04 0.  0.
        2    1    3    3  502    0 -0.41748163375E+03 -0.55852041999E+03  0.95519235358E+01  0.69737164648E+03  0.25500000920E-02 0.  1.
       -2    1    3    3    0  502  0.41748163375E+03  0.55852041999E+03 -0.60054969786E+03  0.92026947883E+03  0.25500000920E-02 0. -1.
</event>
<event>
 5   0  0.5924403E-04  0.1497418E+04  0.7818609E-02  0.8886172E-01
        1   -1    0    0  501    0  0.00000000000E+00  0.00000000000E+00  0.82155810211E+03  0.82155810212E+03  0.50400001928E-02 0. -1.
       -1   -1    0    0    0  501  0.00000000000E+00  0.00000000000E+00 -0.68231976175E+03  0.68231976177E+03  0.50400001928E-02 0.  1.
    10030    2    1    2    0    0  0.00000000000E+00  0.00000000000E+00  0.13923834036E+03  0.15038778639E+04  0.14974182162E+04 0.  0.
        1    1    3    3  502    0 -0.24324770710E+03 -0.41112046352E+03 -0.50938832102E+03  0.69833082715E+03  0.50400001928E-02 0.  1.
       -1    1    3    3    0  502  0.24324770710E+03  0.41112046352E+03  0.64862666137E+03  0.80554703674E+03  0.50400001928E-02 0. -1.
</event>
<event>
 5   0  0.1126175E-03  0.1483352E+04  0.7818609E-02  0.8895600E-01
        2   -1    0    0  501    0  0.00000000000E+00  0.00000000000E+00  0.95935680766E+03  0.95935680767E+03  0.25500000920E-02 0.  1.
       -2   -1    0    0    0  501  0.00000000000E+00  0.00000000000E+00 -0.57338721765E+03  0.57338721765E+03  0.25500000920E-02 0. -1.
    10030    2    1    2    0    0  0.00000000000E+00  0.00000000000E+00  0.38596959002E+03  0.15327440253E+04  0.14833515169E+04 0.  0.
        3    1    3    3  502    0 -0.42367159107E+03  0.48983284171E+02 -0.43400309482E+03  0.60848638089E+03  0.10100000352E+00 0. -1.
       -3    1    3    3    0  502  0.42367159107E+03 -0.48983284171E+02  0.81997268484E+03  0.92425764443E+03  0.10100000352E+00 0.  1.
</event>
<event>
 5   0  0.5914645E-04  0.1508837E+04  0.7818609E-02  0.8878598E-01
        1   -1    0    0  501    0  0.00000000000E+00  0.00000000000E+00  0.22711272364E+04  0.22711272364E+04  0.50400001928E-02 0.  1.
       -1   -1    0    0    0  501  0.00000000000E+00  0.00000000000E+00 -0.25060107162E+03  0.25060107167E+03  0.50400001928E-02 0. -1.
    10030    2    1    2    0    0  0.00000000000E+00  0.00000000000E+00  0.20205261647E+04  0.25217283080E+04  0.15088365310E+04 0.  0.
        2    1    3    3  502    0 -0.24094187474E+03  0.85497705084E+02 -0.17599264075E+03  0.31038082122E+03  0.25500000920E-02 0. -1.
       -2    1    3    3    0  502  0.24094187474E+03 -0.85497705084E+02  0.21965188055E+04  0.22113474868E+04  0.25500000920E-02 0.  1.
</event>
<event>
 5   0  0.5840834E-04  0.1502642E+04  0.7818609E-02  0.8882698E-01
       -1   -1    0    0    0  501  0.00000000000E+00  0.00000000000E+00  0.47798882655E+03  0.47798882657E+03  0.50400001928E-02 0. -1.
        1   -1    0    0  501    0  0.00000000000E+00  0.00000000000E+00 -0.11809541394E+04  0.11809541394E+04  0.50400001928E-02 0.  1.
    10030    2    1    2    0    0  0.00000000000E+00  0.00000000000E+00 -0.70296531286E+03  0.16589429660E+04  0.15026415186E+04 0.  0.
        3    1    3    3  502    0  0.15611801541E+03  0.66327681607E+03 -0.70090717058E+03  0.97753764196E+03  0.10100000352E+00 0.  1.
       -3    1    3    3    0  502 -0.15611801541E+03 -0.66327681607E+03 -0.20581422761E+01  0.68140532403E+03  0.10100000352E+00 0. -1.
</event>
<event>
 5   0  0.6146552E-04  0.1477761E+04  0.7818609E-02  0.8899378E-01
       -1   -1    0    0    0  501  0.00000000000E+00  0.00000000000E+00  0.86374972367E+03  0.86374972369E+03  0.50400001928E-02 0. -1.
        1   -1    0    0  501    0  0.00000000000E+00  0.00000000000E+00 -0.63206309180E+03  0.63206309182E+03  0.50400001928E-02 0.  1.
    10030    2    1    2    0    0  0.00000000000E+00  0.00000000000E+00  0.23168663187E+03  0.14958128155E+04  0.14777609021E+04 0.  0.
        5    1    3    3  502    0 -0.92845641873E+01 -0.18784383885E+03  0.83910011378E+03  0.85993174257E+03  0.46999998093E+01 0. -1.
       -5    1    3    3    0  502  0.92845641873E+01  0.18784383885E+03 -0.60741348191E+03  0.63588107295E+03  0.46999998093E+01 0.  1.
</event>
<event>
 5   0  0.5914645E-04  0.1474609E+04  0.7818609E-02  0.8901515E-01
        1   -1    0    0  501    0  0.00000000000E+00  0.00000000000E+00  0.88222779287E+03  0.88222779288E+03  0.50400001928E-02 0.  1.
       -1   -1    0    0    0  501  0.00000000000E+00  0.00000000000E+00 -0.61618786833E+03  0.61618786835E+03  0.50400001928E-02 0. -1.
    10030    2    1    2    0    0  0.00000000000E+00  0.00000000000E+00  0.26603992454E+03  0.14984156612E+04  0.14746091863E+04 0.  0.
        2    1    3    3  502    0  0.42251995820E+02  0.64163749899E+03  0.49958497551E+03  0.81429052495E+03  0.25500000920E-02 0. -1.
       -2    1    3    3    0  502 -0.42251995820E+02 -0.64163749899E+03 -0.23354505097E+03  0.68412513628E+03  0.25500000920E-02 0.  1.
</event>
<event>
 5   0  0.1147755E-03  0.1461933E+04  0.7818609E-02  0.8910170E-01
        2   -1    0    0  501    0  0.00000000000E+00  0.00000000000E+00  0.11310323326E+04  0.11310323326E+04  0.25500000920E-02 0. -1.
       -2   -1    0    0    0  501  0.00000000000E+00  0.00000000000E+00 -0.47241065443E+03  0.47241065444E+03  0.25500000920E-02 0.  1.
    10030    2    1    2    0    0  0.00000000000E+00  0.00000000000E+00  0.65862167821E+03  0.16034429871E+04  0.14619325900E+04 0.  0.
        4    1    3    3  502    0  0.62430488371E+03 -0.37928548654E+03  0.35824722876E+03  0.81360725042E+03  0.12699999809E+01 0. -1.
       -4    1    3    3    0  502 -0.62430488371E+03  0.37928548654E+03  0.30037444946E+03  0.78983573667E+03  0.12699999809E+01 0.  1.
</event>
<event>
 5   0  0.5606965E-04  0.1505222E+04  0.7818609E-02  0.8880988E-01
        1   -1    0    0  501    0  0.00000000000E+00  0.00000000000E+00  0.33317251581E+04  0.33317251581E+04  0.50400001928E-02 0. -1.
       -1   -1    0    0    0  501  0.00000000000E+00  0.00000000000E+00 -0.17000897263E+03  0.17000897270E+03  0.50400001928E-02 0.  1.
    10030    2    1    2    0    0  0.00000000000E+00  0.00000000000E+00  0.31617161854E+04  0.35017341308E+04  0.15052218060E+04 0.  0.
        4    1    3    3  502    0  0.47991201972E+03 -0.44827912908E+03  0.72560699572E+03  0.97866074274E+03  0.12699999809E+01 0.  1.
       -4    1    3    3    0  502 -0.47991201972E+03  0.44827912908E+03  0.24361091897E+04  0.25230733880E+04  0.12699999809E+01 0. -1.
</event>
<event>
 5   0  0.6146552E-04  0.1131465E+04  0.7818609E-02  0.9175055E-01
        1   -1    0    0  501    0  0.00000000000E+00  0.00000000000E+00  0.73790919202E+03  0.73790919204E+03  0.50400001928E-02 0.  1.
       -1   -1    0    0    0  501  0.00000000000E+00  0.00000000000E+00 -0.43372993441E+03  0.43372993444E+03  0.50400001928E-02 0. -1.
    10030    2    1    2    0    0  0.00000000000E+00  0.00000000000E+00  0.30417925761E+03  0.11716391265E+04  0.11314650776E+04 0.  0.
        5    1    3    3  502    0  0.12698479825E+03  0.13251453091E+03  0.70620252023E+03  0.72967755170E+03  0.46999998093E+01 0.  1.
       -5    1    3    3    0  502 -0.12698479825E+03 -0.13251453091E+03 -0.40202326262E+03  0.44196157477E+03  0.46999998093E+01 0. -1.
</event>
<event>
 5   0  0.5914645E-04  0.1433555E+04  0.7818609E-02  0.8929881E-01
        1   -1    0    0  501    0  0.00000000000E+00  0.00000000000E+00  0.59669585322E+03  0.59669585324E+03  0.50400001928E-02 0.  1.
       -1   -1    0    0    0  501  0.00000000000E+00  0.00000000000E+00 -0.86102527930E+03  0.86102527932E+03  0.50400001928E-02 0. -1.
    10030    2    1    2    0    0  0.00000000000E+00  0.00000000000E+00 -0.26432942608E+03  0.14577211326E+04  0.14335553198E+04 0.  0.
        2    1    3    3  502    0 -0.56324431866E+03  0.70527651604E+02 -0.57720899646E+03  0.80956070665E+03  0.25500000920E-02 0. -1.
       -2    1    3    3    0  502  0.56324431866E+03 -0.70527651604E+02  0.31287957038E+03  0.64816042591E+03  0.25500000920E-02 0.  1.
</event>
<event>
 5   0  0.1149716E-03  0.1510230E+04  0.7818609E-02  0.8877679E-01
       -2   -1    0    0    0  501  0.00000000000E+00  0.00000000000E+00  0.33269250422E+03  0.33269250423E+03  0.25500000920E-02 0. -1.
        2   -1    0    0  501    0  0.00000000000E+00  0.00000000000E+00 -0.17138902378E+04  0.17138902378E+04  0.25500000920E-02 0.  1.
    10030    2    1    2    0    0  0.00000000000E+00  0.00000000000E+00 -0.13811977336E+04  0.20465827420E+04  0.15102296980E+04 0.  0.
        1    1    3    3  502    0 -0.48354764103E+03 -0.42235909354E+03 -0.15195080601E+03  0.65976857496E+03  0.50400001928E-02 0. -1.
       -1    1    3    3    0  502  0.48354764103E+03  0.42235909354E+03 -0.12292469276E+04  0.13868141671E+04  0.50400001928E-02 0.  1.
</event>
<event>
 5   0  0.1126175E-03  0.1464897E+04  0.7818609E-02  0.8908137E-01
       -2   -1    0    0    0  501  0.00000000000E+00  0.00000000000E+00  0.89966022498E+03  0.89966022498E+03  0.25500000920E-02 0. -1.
        2   -1    0    0  501    0  0.00000000000E+00  0.00000000000E+00 -0.59631488949E+03  0.59631488949E+03  0.25500000920E-02 0.  1.
    10030    2    1    2    0    0  0.00000000000E+00  0.00000000000E+00  0.30334533549E+03  0.14959751145E+04  0.14648969761E+04 0.  0.
        3    1    3    3  502    0 -0.32176801185E+03 -0.30611638467E+03  0.74647148859E+03  0.86859748324E+03  0.10100000352E+00 0. -1.
       -3    1    3    3    0  502  0.32176801185E+03  0.30611638467E+03 -0.44312615310E+03  0.62737763123E+03  0.10100000352E+00 0.  1.
</event>
<event>
 5   0  0.1126175E-03  0.1510916E+04  0.7818609E-02  0.8877226E-01
       -2   -1    0    0    0  501  0.00000000000E+00  0.00000000000E+00  0.14344080935E+04  0.14344080935E+04  0.25500000920E-02 0.  1.
        2   -1    0    0  501    0  0.00000000000E+00  0.00000000000E+00 -0.39787621341E+03  0.39787621342E+03  0.25500000920E-02 0. -1.
    10030    2    1    2    0    0  0.00000000000E+00  0.00000000000E+00  0.10365318800E+04  0.18322843069E+04  0.15109160939E+04 0.  0.
        3    1    3    3  502    0 -0.62288285966E+03 -0.64394088059E+02  0.57850531608E+01  0.62622929704E+03  0.10100000352E+00 0. -1.
       -3    1    3    3    0  502  0.62288285966E+03  0.64394088059E+02  0.10307468269E+04  0.12060550098E+04  0.10100000352E+00 0.  1.
</event>
<event>
 5   0  0.5606965E-04  0.1535241E+04  0.7818609E-02  0.8861350E-01
        1   -1    0    0  501    0  0.00000000000E+00  0.00000000000E+00  0.11174797536E+04  0.11174797536E+04  0.50400001928E-02 0.  1.
       -1   -1    0    0    0  501  0.00000000000E+00  0.00000000000E+00 -0.52729492615E+03  0.52729492618E+03  0.50400001928E-02 0. -1.
    10030    2    1    2    0    0  0.00000000000E+00  0.00000000000E+00  0.59018482742E+03  0.16447746798E+04  0.15352412243E+04 0.  0.
        4    1    3    3  502    0  0.15843879158E+03  0.27329015917E+02  0.10992374406E+04  0.11109339717E+04  0.12699999809E+01 0.  1.
       -4    1    3    3    0  502 -0.15843879158E+03 -0.27329015917E+02 -0.50905261313E+03  0.53384070810E+03  0.12699999809E+01 0. -1.
</event>
<event>
 5   0  0.1149716E-03  0.1489478E+04  0.7818609E-02  0.8891480E-01
        2   -1    0    0  501    0  0.00000000000E+00  0.00000000000E+00  0.61352340776E+03  0.61352340777E+03  0.25500000920E-02 0.  1.
       -2   -1    0    0    0  501  0.00000000000E+00  0.00000000000E+00 -0.90401838184E+03  0.90401838185E+03  0.25500000920E-02 0. -1.
    10030    2    1    2    0    0  0.00000000000E+00  0.00000000000E+00 -0.29049497408E+03  0.15175417896E+04  0.14894783494E+04 0.  0.
        1    1    3    3  502    0 -0.52800507751E+03  0.19875810426E+03  0.35006261581E+03  0.66395630948E+03  0.50400001928E-02 0.  1.
       -1    1    3    3    0  502  0.52800507751E+03 -0.19875810426E+03 -0.64055758990E+03  0.85358548013E+03  0.50400001928E-02 0. -1.
</event>
<event>
 5   0  0.5914645E-04  0.1501500E+04  0.7818609E-02  0.8883456E-01
       -1   -1    0    0    0  501  0.00000000000E+00  0.00000000000E+00  0.10825690828E+04  0.10825690828E+04  0.50400001928E-02 0. -1.
        1   -1    0    0  501    0  0.00000000000E+00  0.00000000000E+00 -0.52063731340E+03  0.52063731342E+03  0.50400001928E-02 0.  1.
    10030    2    1    2    0    0  0.00000000000E+00  0.00000000000E+00  0.56193176941E+03  0.16032063962E+04  0.15015003948E+04 0.  0.
        2    1    3    3  502    0  0.25112541128E+03 -0.44398362675E+03  0.86913295465E+03  0.10077586645E+04  0.25500000920E-02 0. -1.
       -2    1    3    3    0  502 -0.25112541128E+03  0.44398362675E+03 -0.30720118524E+03  0.59544773174E+03  0.25500000920E-02 0.  1.
</event>
<event>
 5   0  0.5924403E-04  0.1514041E+04  0.7818609E-02  0.8875169E-01
       -1   -1    0    0    0  501  0.00000000000E+00  0.00000000000E+00  0.70284311368E+03  0.70284311370E+03  0.50400001928E-02 0.  1.
        1   -1    0    0  501    0  0.00000000000E+00  0.00000000000E+00 -0.81537435215E+03  0.81537435216E+03  0.50400001928E-02 0. -1.
    10030    2    1    2    0    0  0.00000000000E+00  0.00000000000E+00 -0.11253123847E+03  0.15182174659E+04  0.15140412788E+04 0.  0.
        1    1    3    3  502    0 -0.59169964668E+03  0.17724727163E+01 -0.52976362574E+03  0.79420470454E+03  0.50400001928E-02 0. -1.
       -1    1    3    3    0  502  0.59169964668E+03 -0.17724727163E+01  0.41723238727E+03  0.72401276132E+03  0.50400001928E-02 0.  1.
</event>
<event>
 5   0  0.6146552E-04  0.1375171E+04  0.7818609E-02  0.8971989E-01
        1   -1    0    0  501    0  0.00000000000E+00  0.00000000000E+00  0.11530759492E+04  0.11530759492E+04  0.50400001928E-02 0. -1.
       -1   -1    0    0    0  501  0.00000000000E+00  0.00000000000E+00 -0.41001128707E+03  0.41001128710E+03  0.50400001928E-02 0.  1.
    10030    2    1    2    0    0  0.00000000000E+00  0.00000000000E+00  0.74306466213E+03  0.15630872363E+04  0.13751714861E+04 0.  0.
        5    1    3    3  502    0  0.48728119169E+02 -0.65537168219E+03  0.14175601682E+03  0.67231192888E+03  0.46999998093E+01 0.  1.
       -5    1    3    3    0  502 -0.48728119169E+02  0.65537168219E+03  0.60130864531E+03  0.89077530744E+03  0.46999998093E+01 0. -1.
</event>
<event>
 5   0  0.1097156E-03  0.1470910E+04  0.7818609E-02  0.8904031E-01
        2   -1    0    0  501    0  0.00000000000E+00  0.00000000000E+00  0.14195188636E+04  0.14195188636E+04  0.25500000920E-02 0. -1.
       -2   -1    0    0    0  501  0.00000000000E+00  0.00000000000E+00 -0.38104065605E+03  0.38104065606E+03  0.25500000920E-02 0.  1.
    10030    2    1    2    0    0  0.00000000000E+00  0.00000000000E+00  0.10384782076E+04  0.18005595197E+04  0.14709104651E+04 0.  0.
        2    1    3    3  502    0  0.58720155093E+03 -0.40606315312E+03  0.73546547309E+03  0.10249889794E+04  0.25500000920E-02 0. -1.
       -2    1    3    3    0  502 -0.58720155093E+03  0.40606315312E+03  0.30301273450E+03  0.77557054032E+03  0.25500000920E-02 0.  1.
</event>
<event>
 5   0  0.1149716E-03  0.1517137E+04  0.7818609E-02  0.8873137E-01
        2   -1    0    0  501    0  0.00000000000E+00  0.00000000000E+00  0.13635737484E+04  0.13635737484E+04  0.25500000920E-02 0.  1.
       -2   -1    0    0    0  501  0.00000000000E+00  0.00000000000E+00 -0.42199837457E+03  0.42199837458E+03  0.25500000920E-02 0. -1.
    10030    2    1    2    0    0  0.00000000000E+00  0.00000000000E+00  0.94157537385E+03  0.17855721230E+04  0.15171366523E+04 0.  0.
        1    1    3    3  502    0 -0.72214568290E+03 -0.12818208923E+03  0.24287244561E+03  0.77260084144E+03  0.50400001928E-02 0. -1.
       -1    1    3    3    0  502  0.72214568290E+03  0.12818208923E+03  0.69870292824E+03  0.10129712816E+04  0.50400001928E-02 0.  1.
</event>
<event>
 5   0  0.1082667E-03  0.1489698E+04  0.7818609E-02  0.8891333E-01
       -2   -1    0    0    0  501  0.00000000000E+00  0.00000000000E+00  0.77023667233E+03  0.77023667233E+03  0.25500000920E-02 0. -1.
        2   -1    0    0  501    0  0.00000000000E+00  0.00000000000E+00 -0.72029823997E+03  0.72029823997E+03  0.25500000920E-02 0.  1.
    10030    2    1    2    0    0  0.00000000000E+00  0.00000000000E+00  0.49938432362E+02  0.14905349123E+04  0.14896981163E+04 0.  0.
        5    1    3    3  502    0 -0.54240024757E+03  0.48764236924E+03 -0.12606232147E+03  0.74020734105E+03  0.46999998093E+01 0.  1.
       -5    1    3    3    0  502  0.54240024757E+03 -0.48764236924E+03  0.17600075383E+03  0.75032757126E+03  0.46999998093E+01 0. -1.
</event>
<event>
 5   0  0.4070625E-04  0.1479620E+04  0.7818609E-02  0.8898119E-01
        3   -1    0    0  501    0  0.00000000000E+00  0.00000000000E+00  0.72332467819E+03  0.72332468525E+03  0.10100000352E+00 0.  1.
       -3   -1    0    0    0  501  0.00000000000E+00  0.00000000000E+00 -0.75667129548E+03  0.75667130222E+03  0.10100000352E+00 0. -1.
    10030    2    1    2    0    0  0.00000000000E+00  0.00000000000E+00 -0.33346617284E+02  0.14799959875E+04  0.14796202641E+04 0.  0.
        5    1    3    3  502    0 -0.23280556699E+02 -0.68606711201E+03  0.25919896538E+03  0.73378216124E+03  0.46999998093E+01 0.  1.
       -5    1    3    3    0  502  0.23280556699E+02  0.68606711201E+03 -0.29254558267E+03  0.74621382622E+03  0.46999998093E+01 0. -1.
</event>
<event>
 5   0  0.5914645E-04  0.1382661E+04  0.7818609E-02  0.8966466E-01
       -1   -1    0    0    0  501  0.00000000000E+00  0.00000000000E+00  0.45276915316E+03  0.45276915319E+03  0.50400001928E-02 0. -1.
        1   -1    0    0  501    0  0.00000000000E+00  0.00000000000E+00 -0.10555888999E+04  0.10555888999E+04  0.50400001928E-02 0.  1.
    10030    2    1    2    0    0  0.00000000000E+00  0.00000000000E+00 -0.60281974671E+03  0.15083580531E+04  0.13826613357E+04 0.  0.
        2    1    3    3  502    0 -0.95179117868E+02 -0.32027145265E+03 -0.96166257083E+03  0.10180509653E+04  0.25500000920E-02 0.  1.
       -2    1    3    3    0  502  0.95179117868E+02  0.32027145265E+03  0.35884282412E+03  0.49030708774E+03  0.25500000920E-02 0. -1.
</event>
<event>
 5   0  0.1147755E-03  0.1493065E+04  0.7818609E-02  0.8889078E-01
        2   -1    0    0  501    0  0.00000000000E+00  0.00000000000E+00  0.39607812179E+03  0.39607812180E+03  0.25500000920E-02 0. -1.
       -2   -1    0    0    0  501  0.00000000000E+00  0.00000000000E+00 -0.14070724784E+04  0.14070724784E+04  0.25500000920E-02 0.  1.
    10030    2    1    2    0    0  0.00000000000E+00  0.00000000000E+00 -0.10109943566E+04  0.18031506002E+04  0.14930648003E+04 0.  0.
        4    1    3    3  502    0  0.13908060617E+03  0.47403883380E+03 -0.11814257603E+04  0.12805563912E+04  0.12699999809E+01 0.  1.
       -4    1    3    3    0  502 -0.13908060617E+03 -0.47403883380E+03  0.17043140375E+03  0.52259420897E+03  0.12699999809E+01 0. -1.
</event>
<event>
 5   0  0.1149716E-03  0.1513928E+04  0.7818609E-02  0.8875243E-01
        2   -1    0    0  501    0  0.00000000000E+00  0.00000000000E+00  0.21894197353E+04  0.21894197353E+04  0.25500000920E-02 0. -1.
       -2   -1    0    0    0  501  0.00000000000E+00  0.00000000000E+00 -0.26171080768E+03  0.26171080769E+03  0.25500000920E-02 0.  1.
    10030    2    1    2    0    0  0.00000000000E+00  0.00000000000E+00  0.19277089276E+04  0.24511305430E+04  0.15139284095E+04 0.  0.
        1    1    3    3  502    0  0.33864048653E+03 -0.30551917036E+03 -0.14267335185E+02  0.45631447430E+03  0.50400001928E-02 0.  1.
       -1    1    3    3    0  502 -0.33864048653E+03  0.30551917036E+03  0.19419762628E+04  0.19948160687E+04  0.50400001928E-02 0. -1.
</event>
<event>
 5   0  0.5924403E-04  0.1490723E+04  0.7818609E-02  0.8890646E-01
       -1   -1    0    0    0  501  0.00000000000E+00  0.00000000000E+00  0.87653538877E+03  0.87653538878E+03  0.50400001928E-02 0.  1.
        1   -1    0    0  501    0  0.00000000000E+00  0.00000000000E+00 -0.63381769536E+03  0.63381769538E+03  0.50400001928E-02 0. -1.
    10030    2    1    2    0    0  0.00000000000E+00  0.00000000000E+00  0.24271769341E+03  0.15103530842E+04  0.14907228314E+04 0.  0.
        1    1    3    3  502    0 -0.24367656744E+03  0.25156933738E+03  0.78797294333E+03  0.86230317202E+03  0.50400001928E-02 0.  1.
       -1    1    3    3    0  502  0.24367656744E+03 -0.25156933738E+03 -0.54525524992E+03  0.64804991214E+03  0.50400001928E-02 0. -1.
</event>
<event>
 5   0  0.6146552E-04  0.1501627E+04  0.7818609E-02  0.8883372E-01
        1   -1    0    0  501    0  0.00000000000E+00  0.00000000000E+00  0.12801568947E+04  0.12801568947E+04  0.50400001928E-02 0. -1.
       -1   -1    0    0    0  501  0.00000000000E+00  0.00000000000E+00 -0.44035314124E+03  0.44035314127E+03  0.50400001928E-02 0.  1.
    10030    2    1    2    0    0  0.00000000000E+00  0.00000000000E+00  0.83980375342E+03  0.17205100359E+04  0.15016272638E+04 0.  0.
        5    1    3    3  502    0  0.31049016970E+02  0.37583725989E+02  0.12783247247E+04  0.12792625882E+04  0.46999998093E+01 0. -1.
       -5    1    3    3    0  502 -0.31049016970E+02 -0.37583725989E+02 -0.43852097124E+03  0.44124744773E+03  0.46999998093E+01 0.  1.
</event>
<event>
 5   0  0.1082667E-03  0.1565060E+04  0.7818609E-02  0.8842305E-01
       -2   -1    0    0    0  501  0.00000000000E+00  0.00000000000E+00  0.50816978792E+03  0.50816978793E+03  0.25500000920E-02 0. -1.
        2   -1    0    0  501    0  0.00000000000E+00  0.00000000000E+00 -0.12050170389E+04  0.12050170389E+04  0.25500000920E-02 0.  1.
    10030    2    1    2    0    0  0.00000000000E+00  0.00000000000E+00 -0.69684725098E+03  0.17131868268E+04  0.15650600667E+04 0.  0.
        5    1    3    3  502    0  0.76456525762E+03 -0.25045220915E+01 -0.53082219963E+03  0.93078493940E+03  0.46999998093E+01 0.  1.
       -5    1    3    3    0  502 -0.76456525762E+03  0.25045220915E+01 -0.16602505135E+03  0.78240188743E+03  0.46999998093E+01 0. -1.
</event>
<event>
 5   0  0.1082667E-03  0.1480712E+04  0.7818609E-02  0.8897382E-01
        2   -1    0    0  501    0  0.00000000000E+00  0.00000000000E+00  0.15791753092E+04  0.15791753092E+04  0.25500000920E-02 0. -1.
       -2   -1    0    0    0  501  0.00000000000E+00  0.00000000000E+00 -0.34709685489E+03  0.34709685490E+03  0.25500000920E-02 0.  1.
    10030    2    1    2    0    0  0.00000000000E+00  0.00000000000E+00  0.12320784543E+04  0.19262721641E+04  0.14807116980E+04 0.  0.
        5    1    3    3  502    0  0.12625570460E+03  0.72949073671E+03  0.61959127102E+03  0.96540803344E+03  0.46999998093E+01 0. -1.
       -5    1    3    3    0  502 -0.12625570460E+03 -0.72949073671E+03  0.61248718328E+03  0.96086413066E+03  0.46999998093E+01 0.  1.
</event>
<event>
 5   0  0.1082667E-03  0.1499562E+04  0.7818609E-02  0.8884744E-01
        2   -1    0    0  501    0  0.00000000000E+00  0.00000000000E+00  0.63574564310E+03  0.63574564311E+03  0.25500000920E-02 0.  1.
       -2   -1    0    0    0  501  0.00000000000E+00  0.00000000000E+00 -0.88427147011E+03  0.88427147012E+03  0.25500000920E-02 0. -1.
    10030    2    1    2    0    0  0.00000000000E+00  0.00000000000E+00 -0.24852582701E+03  0.15200171132E+04  0.14995622487E+04 0.  0.
        5    1    3    3  502    0  0.39064757509E+03  0.19043788393E+01  0.52441991486E+03  0.65394762152E+03  0.46999998093E+01 0.  1.
       -5    1    3    3    0  502 -0.39064757509E+03 -0.19043788393E+01 -0.77294574187E+03  0.86606949171E+03  0.46999998093E+01 0. -1.
</event>
<event>
 5   0  0.1147755E-03  0.1496993E+04  0.7818609E-02  0.8886455E-01
        2   -1    0    0  501    0  0.00000000000E+00  0.00000000000E+00  0.84655524782E+03  0.84655524782E+03  0.25500000920E-02 0. -1.
       -2   -1    0    0    0  501  0.00000000000E+00  0.00000000000E+00 -0.66179621548E+03  0.66179621548E+03  0.25500000920E-02 0.  1.
    10030    2    1    2    0    0  0.00000000000E+00  0.00000000000E+00  0.18475903234E+03  0.15083514633E+04  0.14969930651E+04 0.  0.
        4    1    3    3  502    0  0.30418025464E+03 -0.69930012940E+02 -0.59309818150E+03  0.67021108602E+03  0.12699999809E+01 0.  1.
       -4    1    3    3    0  502 -0.30418025464E+03  0.69930012940E+02  0.77785721384E+03  0.83814037729E+03  0.12699999809E+01 0. -1.
</event>
<event>
 5   0  0.1147755E-03  0.1491833E+04  0.7818609E-02  0.8889902E-01
       -2   -1    0    0    0  501  0.00000000000E+00  0.00000000000E+00  0.29542617746E+03  0.29542617747E+03  0.25500000920E-02 0. -1.
        2   -1    0    0  501    0  0.00000000000E+00  0.00000000000E+00 -0.18833523780E+04  0.18833523780E+04  0.25500000920E-02 0.  1.
    10030    2    1    2    0    0  0.00000000000E+00  0.00000000000E+00 -0.15879262005E+04  0.21787785555E+04  0.14918332264E+04 0.  0.
        4    1    3    3  502    0 -0.55151768078E+03  0.19378713681E+03 -0.11729888694E+03  0.59622633989E+03  0.12699999809E+01 0. -1.
       -4    1    3    3    0  502  0.55151768078E+03 -0.19378713681E+03 -0.14706273136E+04  0.15825522156E+04  0.12699999809E+01 0.  1.
</event>
<event>
 5   0  0.6146552E-04  0.1505899E+04  0.7818609E-02  0.8880540E-01
       -1   -1    0    0    0  501  0.00000000000E+00  0.00000000000E+00  0.59654412396E+03  0.59654412398E+03  0.50400001928E-02 0. -1.
        1   -1    0    0  501    0  0.00000000000E+00  0.00000000000E+00 -0.95036218823E+03  0.95036218824E+03  0.50400001928E-02 0.  1.
    10030    2    1    2    0    0  0.00000000000E+00  0.00000000000E+00 -0.35381806427E+03  0.15469063122E+04  0.15058990392E+04 0.  0.
        5    1    3    3  502    0 -0.13251957126E+03  0.53442732115E+03  0.35062878301E+03  0.65279141525E+03  0.46999998093E+01 0. -1.
       -5    1    3    3    0  502  0.13251957126E+03 -0.53442732115E+03 -0.70444684728E+03  0.89411489697E+03  0.46999998093E+01 0.  1.
</event>
<event>
 5   0  0.1126175E-03  0.1495121E+04  0.7818609E-02  0.8887704E-01
        2   -1    0    0  501    0  0.00000000000E+00  0.00000000000E+00  0.11371634496E+04  0.11371634496E+04  0.25500000920E-02 0.  1.
       -2   -1    0    0    0  501  0.00000000000E+00  0.00000000000E+00 -0.49143935400E+03  0.49143935400E+03  0.25500000920E-02 0. -1.
    10030    2    1    2    0    0  0.00000000000E+00  0.00000000000E+00  0.64572409564E+03  0.16286028036E+04  0.14951212273E+04 0.  0.
        3    1    3    3  502    0 -0.72783447844E+03 -0.17012880757E+03  0.30908271375E+03  0.80883803898E+03  0.10100000352E+00 0. -1.
       -3    1    3    3    0  502  0.72783447844E+03  0.17012880757E+03  0.33664138189E+03  0.81976476466E+03  0.10100000352E+00 0.  1.
</event>
<event>
 5   0  0.1097156E-03  0.1505399E+04  0.7818609E-02  0.8880871E-01
        2   -1    0    0  501    0  0.00000000000E+00  0.00000000000E+00  0.24855794152E+04  0.24855794152E+04  0.25500000920E-02 0. -1.
       -2   -1    0    0    0  501  0.00000000000E+00  0.00000000000E+00 -0.22793742866E+03  0.22793742867E+03  0.25500000920E-02 0.  1.
    10030    2    1    2    0    0  0.00000000000E+00  0.00000000000E+00  0.22576419865E+04  0.27135168439E+04  0.15053990576E+04 0.  0.
        2    1    3    3  502    0 -0.14330630258E+03 -0.30102236498E+03  0.23452309869E+04  0.23688097311E+04  0.25500000920E-02 0. -1.
       -2    1    3    3    0  502  0.14330630258E+03  0.30102236498E+03 -0.87589000335E+02  0.34470711273E+03  0.25500000920E-02 0.  1.
</event>
<event>
 5   0  0.5840834E-04  0.1506753E+04  0.7818609E-02  0.8879975E-01
       -1   -1    0    0    0  501  0.00000000000E+00  0.00000000000E+00  0.50773016980E+03  0.50773016982E+03  0.50400001928E-02 0.  1.
        1   -1    0    0  501    0  0.00000000000E+00  0.00000000000E+00 -0.11178698761E+04  0.11178698761E+04  0.50400001928E-02 0. -1.
    10030    2    1    2    0    0  0.00000000000E+00  0.00000000000E+00 -0.61013970627E+03  0.16256000459E+04  0.15067531477E+04 0.  0.
        3    1    3    3  502    0 -0.27435525683E+03  0.70130303441E+03 -0.32869450170E+03  0.82166710940E+03  0.10100000352E+00 0.  1.
       -3    1    3    3    0  502  0.27435525683E+03 -0.70130303441E+03 -0.28144520457E+03  0.80393293650E+03  0.10100000352E+00 0. -1.
</event>
<event>
 5   0  0.1082667E-03  0.1548187E+04  0.7818609E-02  0.8853026E-01
       -2   -1    0    0    0  501  0.00000000000E+00  0.00000000000E+00  0.31064100751E+03  0.31064100752E+03  0.25500000920E-02 0. -1.
        2   -1    0    0  501    0  0.00000000000E+00  0.00000000000E+00 -0.19289825220E+04  0.19289825220E+04  0.25500000920E-02 0.  1.
    10030    2    1    2    0    0  0.00000000000E+00  0.00000000000E+00 -0.16183415145E+04  0.22396235295E+04  0.15481874229E+04 0.  0.
        5    1    3    3  502    0  0.17713665534E+03  0.29740665654E+03  0.19241307716E+03  0.39607195846E+03  0.46999998093E+01 0. -1.
       -5    1    3    3    0  502 -0.17713665534E+03 -0.29740665654E+03 -0.18107545916E+04  0.18435515711E+04  0.46999998093E+01 0.  1.
</event>
<event>
 5   0  0.1097156E-03  0.1469422E+04  0.7818609E-02  0.8905045E-01
       -2   -1    0    0    0  501  0.00000000000E+00  0.00000000000E+00  0.37474240544E+03  0.37474240544E+03  0.25500000920E-02 0. -1.
        2   -1    0    0  501    0  0.00000000000E+00  0.00000000000E+00 -0.14404567703E+04  0.14404567703E+04  0.25500000920E-02 0.  1.
    10030    2    1    2    0    0  0.00000000000E+00  0.00000000000E+00 -0.10657143649E+04  0.18151991758E+04  0.14694219749E+04 0.  0.
        2    1    3    3  502    0 -0.44985984341E+03 -0.41764605722E+03 -0.34123083213E+02  0.61478979549E+03  0.25500000920E-02 0. -1.
       -2    1    3    3    0  502  0.44985984341E+03  0.41764605722E+03 -0.10315912817E+04  0.12004093803E+04  0.25500000920E-02 0.  1.
</event>
<event>
 5   0  0.5924403E-04  0.1526906E+04  0.7818609E-02  0.8866755E-01
        1   -1    0    0  501    0  0.00000000000E+00  0.00000000000E+00  0.49240967551E+03  0.49240967554E+03  0.50400001928E-02 0.  1.
       -1   -1    0    0    0  501  0.00000000000E+00  0.00000000000E+00 -0.11836905597E+04  0.11836905597E+04  0.50400001928E-02 0. -1.
    10030    2    1    2    0    0  0.00000000000E+00  0.00000000000E+00 -0.69128088419E+03  0.16761002353E+04  0.15269062636E+04 0.  0.
        1    1    3    3  502    0  0.69862657625E+03 -0.16113242666E+03 -0.63360459006E+03  0.95681635048E+03  0.50400001928E-02 0.  1.
       -1    1    3    3    0  502 -0.69862657625E+03  0.16113242666E+03 -0.57676294122E+02  0.71928388477E+03  0.50400001928E-02 0. -1.
</event>
<event>
 5   0  0.1082667E-03  0.1453131E+04  0.7818609E-02  0.8916233E-01
        2   -1    0    0  501    0  0.00000000000E+00  0.00000000000E+00  0.11377212626E+04  0.11377212626E+04  0.25500000920E-02 0. -1.
       -2   -1    0    0    0  501  0.00000000000E+00  0.00000000000E+00 -0.46399517812E+03  0.46399517812E+03  0.25500000920E-02 0.  1.
    10030    2    1    2    0    0  0.00000000000E+00  0.00000000000E+00  0.67372608445E+03  0.16017164407E+04  0.14531306615E+04 0.  0.
        5    1    3    3  502    0 -0.52765981489E+03  0.49940023530E+03  0.34462704664E+03  0.80412397461E+03  0.46999998093E+01 0. -1.
       -5    1    3    3    0  502  0.52765981489E+03 -0.49940023530E+03  0.32909903781E+03  0.79759246608E+03  0.46999998093E+01 0.  1.
</event>
<event>
 5   0  0.4070625E-04  0.1495012E+04  0.7818609E-02  0.8887777E-01
        4   -1    0    0  501    0  0.00000000000E+00  0.00000000000E+00  0.81288371615E+03  0.81288470824E+03  0.12699999809E+01 0. -1.
       -4   -1    0    0    0  501  0.00000000000E+00  0.00000000000E+00 -0.68738404537E+03  0.68738521858E+03  0.12699999809E+01 0.  1.
    10030    2    1    2    0    0  0.00000000000E+00  0.00000000000E+00  0.12549967079E+03  0.15002699268E+04  0.14950116006E+04 0.  0.
        5    1    3    3  502    0  0.16121487952E+03 -0.18555891446E+03  0.77115090917E+03  0.80939370076E+03  0.46999998093E+01 0. -1.
       -5    1    3    3    0  502 -0.16121487952E+03  0.18555891446E+03 -0.64565123838E+03  0.69087622606E+03  0.46999998093E+01 0.  1.
</event>
<event>
 5   0  0.1126175E-03  0.1467561E+04  0.7818609E-02  0.8906316E-01
       -2   -1    0    0    0  501  0.00000000000E+00  0.00000000000E+00  0.26604950447E+03  0.26604950448E+03  0.25500000920E-02 0.  1.
        2   -1    0    0  501    0  0.00000000000E+00  0.00000000000E+00 -0.20238112058E+04  0.20238112058E+04  0.25500000920E-02 0. -1.
    10030    2    1    2    0    0  0.00000000000E+00  0.00000000000E+00 -0.17577617014E+04  0.22898607103E+04  0.14675611994E+04 0.  0.
        3    1    3    3  502    0 -0.32321950476E+03  0.26676115996E+03 -0.18187068118E+04  0.18663672849E+04  0.10100000352E+00 0. -1.
       -3    1    3    3    0  502  0.32321950476E+03 -0.26676115996E+03  0.60945110377E+02  0.42349342545E+03  0.10100000352E+00 0.  1.
</event>
<event>
 5   0  0.5914645E-04  0.1549348E+04  0.7818609E-02  0.8852284E-01
       -1   -1    0    0    0  501  0.00000000000E+00  0.00000000000E+00  0.27443057508E+03  0.27443057513E+03  0.50400001928E-02 0.  1.
        1   -1    0    0  501    0  0.00000000000E+00  0.00000000000E+00 -0.21867810558E+04  0.21867810559E+04  0.50400001928E-02 0. -1.
    10030    2    1    2    0    0  0.00000000000E+00  0.00000000000E+00 -0.19123504808E+04  0.24612116310E+04  0.15493477115E+04 0.  0.
        2    1    3    3  502    0 -0.59412798086E+00  0.26940317746E+03  0.19761865772E+03  0.33411309298E+03  0.25500000920E-02 0.  1.
       -2    1    3    3    0  502  0.59412798086E+00 -0.26940317746E+03 -0.21099691385E+04  0.21270985380E+04  0.25500000920E-02 0. -1.
</event>
<event>
 5   0  0.6146552E-04  0.1482875E+04  0.7818609E-02  0.8895922E-01
        1   -1    0    0  501    0  0.00000000000E+00  0.00000000000E+00  0.17073749110E+04  0.17073749110E+04  0.50400001928E-02 0.  1.
       -1   -1    0    0    0  501  0.00000000000E+00  0.00000000000E+00 -0.32197339471E+03  0.32197339475E+03  0.50400001928E-02 0. -1.
    10030    2    1    2    0    0  0.00000000000E+00  0.00000000000E+00  0.13854015163E+04  0.20293483058E+04  0.14828746355E+04 0.  0.
        5    1    3    3  502    0 -0.15236257235E+03 -0.72447733572E+03  0.63752631016E+03  0.97700749719E+03  0.46999998093E+01 0.  1.
       -5    1    3    3    0  502  0.15236257235E+03  0.72447733572E+03  0.74787520614E+03  0.10523408086E+04  0.46999998093E+01 0. -1.
</event>
<event>
 5   0  0.1097156E-03  0.1492500E+04  0.7818609E-02  0.8889455E-01
        2   -1    0    0  501    0  0.00000000000E+00  0.00000000000E+00  0.74576323941E+03  0.74576323941E+03  0.25500000920E-02 0. -1.
       -2   -1    0    0    0  501  0.00000000000E+00  0.00000000000E+00 -0.74673740124E+03  0.74673740124E+03  0.25500000920E-02 0.  1.
    10030    2    1    2    0    0  0.00000000000E+00  0.00000000000E+00 -0.97416182538E+00  0.14925006407E+04  0.14925003227E+04 0.  0.
        2    1    3    3  502    0  0.25655317736E+03  0.41455241711E+03  0.56450513140E+03  0.74588154739E+03  0.25500000920E-02 0. -1.
       -2    1    3    3    0  502 -0.25655317736E+03 -0.41455241711E+03 -0.56547929323E+03  0.74661909326E+03  0.25500000920E-02 0.  1.
</event>
<event>
 5   0  0.1149716E-03  0.1531547E+04  0.7818609E-02  0.8863741E-01
       -2   -1    0    0    0  501  0.00000000000E+00  0.00000000000E+00  0.27175973479E+03  0.27175973481E+03  0.25500000920E-02 0. -1.
        2   -1    0    0  501    0  0.00000000000E+00  0.00000000000E+00 -0.21578221733E+04  0.21578221733E+04  0.25500000920E-02 0.  1.
    10030    2    1    2    0    0  0.00000000000E+00  0.00000000000E+00 -0.18860624385E+04  0.24295819081E+04  0.15315471675E+04 0.  0.
        1    1    3    3  502    0  0.66470685096E+02 -0.40576160109E+03 -0.19678581285E+04  0.20103548052E+04  0.50400001928E-02 0. -1.
       -1    1    3    3    0  502 -0.66470685096E+02  0.40576160109E+03  0.81795689972E+02  0.41922710292E+03  0.50400001928E-02 0.  1.
</event>
<event>
 5   0  0.5606965E-04  0.1485891E+04  0.7818609E-02  0.8893890E-01
       -1   -1    0    0    0  501  0.00000000000E+00  0.00000000000E+00  0.10607840893E+04  0.10607840893E+04  0.50400001928E-02 0. -1.
        1   -1    0    0  501    0  0.00000000000E+00  0.00000000000E+00 -0.52033940551E+03  0.52033940553E+03  0.50400001928E-02 0.  1.
    10030    2    1    2    0    0  0.00000000000E+00  0.00000000000E+00  0.54044468379E+03  0.15811234948E+04  0.14858906587E+04 0.  0.
        4    1    3    3  502    0  0.23380722913E+02  0.57435039226E+02  0.10580242794E+04  0.10598407572E+04  0.12699999809E+01 0. -1.
       -4    1    3    3    0  502 -0.23380722913E+02 -0.57435039226E+02 -0.51757959558E+03  0.52128273767E+03  0.12699999809E+01 0.  1.
</event>
<event>
 5   0  0.5840834E-04  0.1490509E+04  0.7818609E-02  0.8890789E-01
        1   -1    0    0  501    0  0.00000000000E+00  0.00000000000E+00  0.12314746017E+04  0.12314746017E+04  0.50400001928E-02 0. -1.
       -1   -1    0    0    0  501  0.00000000000E+00  0.00000000000E+00 -0.45100729614E+03  0.45100729617E+03  0.50400001928E-02 0.  1.
    10030    2    1    2    0    0  0.00000000000E+00  0.00000000000E+00  0.78046730553E+03  0.16824818979E+04  0.14905086788E+04 0.  0.
        3    1    3    3  502    0  0.36807594771E+03 -0.42016189417E+02 -0.33970521412E+03  0.50263794739E+03  0.10100000352E+00 0.  1.
       -3    1    3    3    0  502 -0.36807594771E+03  0.42016189417E+02  0.11201725196E+04  0.11798439505E+04  0.10100000352E+00 0. -1.
</event>
<event>
 5   0  0.1097156E-03  0.1549431E+04  0.7818609E-02  0.8852232E-01
       -2   -1    0    0    0  501  0.00000000000E+00  0.00000000000E+00  0.54756400509E+03  0.54756400510E+03  0.25500000920E-02 0. -1.
        2   -1    0    0  501    0  0.00000000000E+00  0.00000000000E+00 -0.10960978955E+04  0.10960978955E+04  0.25500000920E-02 0.  1.
    10030    2    1    2    0    0  0.00000000000E+00  0.00000000000E+00 -0.54853389043E+03  0.16436619006E+04  0.15494305453E+04 0.  0.
        2    1    3    3  502    0  0.15950530388E+03 -0.74764833958E+03 -0.40745658597E+03  0.86627989190E+03  0.25500000920E-02 0.  1.
       -2    1    3    3    0  502 -0.15950530388E+03  0.74764833958E+03 -0.14107730446E+03  0.77738200873E+03  0.25500000920E-02 0. -1.
</event>
<event>
 5   0  0.5924403E-04  0.1470931E+04  0.7818609E-02  0.8904017E-01
       -1   -1    0    0    0  501  0.00000000000E+00  0.00000000000E+00  0.16837409166E+04  0.16837409166E+04  0.50400001928E-02 0.  1.
        1   -1    0    0  501    0  0.00000000000E+00  0.00000000000E+00 -0.32125459713E+03  0.32125459717E+03  0.50400001928E-02 0. -1.
    10030    2    1    2    0    0  0.00000000000E+00  0.00000000000E+00  0.13624863195E+04  0.20049955138E+04  0.14709310111E+04 0.  0.
        1    1    3    3  502    0 -0.26592128812E+03  0.22618121037E+03  0.15636066181E+04  0.16021041563E+04  0.50400001928E-02 0.  1.
       -1    1    3    3    0  502  0.26592128812E+03 -0.22618121037E+03 -0.20112029863E+03  0.40289135750E+03  0.50400001928E-02 0. -1.
</event>
<event>
 5   0  0.5924403E-04  0.1485294E+04  0.7818609E-02  0.8894292E-01
        1   -1    0    0  501    0  0.00000000000E+00  0.00000000000E+00  0.90842221716E+03  0.90842221717E+03  0.50400001928E-02 0.  1.
       -1   -1    0    0    0  501  0.00000000000E+00  0.00000000000E+00 -0.60712358180E+03  0.60712358182E+03  0.50400001928E-02 0. -1.
    10030    2    1    2    0    0  0.00000000000E+00  0.00000000000E+00  0.30129863536E+03  0.15155457990E+04  0.14852939780E+04 0.  0.
        1    1    3    3  502    0  0.16209361206E+03 -0.41644193142E+03 -0.45458119270E+03  0.63744982712E+03  0.50400001928E-02 0. -1.
       -1    1    3    3    0  502 -0.16209361206E+03  0.41644193142E+03  0.75587982806E+03  0.87809597187E+03  0.50400001928E-02 0.  1.
</event>
<event>
 5   0  0.5914645E-04  0.1512676E+04  0.7818609E-02  0.8876067E-01
       -1   -1    0    0    0  501  0.00000000000E+00  0.00000000000E+00  0.45643791461E+03  0.45643791463E+03  0.50400001928E-02 0. -1.
        1   -1    0    0  501    0  0.00000000000E+00  0.00000000000E+00 -0.12532866479E+04  0.12532866479E+04  0.50400001928E-02 0.  1.
    10030    2    1    2    0    0  0.00000000000E+00  0.00000000000E+00 -0.79684873333E+03  0.17097245626E+04  0.15126764942E+04 0.  0.
        2    1    3    3  502    0  0.41241729739E+03  0.45362981659E+03 -0.89904288589E+03  0.10881847951E+04  0.25500000920E-02 0.  1.
       -2    1    3    3    0  502 -0.41241729739E+03 -0.45362981659E+03  0.10219415256E+03  0.62153976744E+03  0.25500000920E-02 0. -1.
</event>
<event>
 5   0  0.1147755E-03  0.1653215E+04  0.7818609E-02  0.8788507E-01
        2   -1    0    0  501    0  0.00000000000E+00  0.00000000000E+00  0.16088555474E+04  0.16088555474E+04  0.25500000920E-02 0.  1.
       -2   -1    0    0    0  501  0.00000000000E+00  0.00000000000E+00 -0.42469944533E+03  0.42469944534E+03  0.25500000920E-02 0. -1.
    10030    2    1    2    0    0  0.00000000000E+00  0.00000000000E+00  0.11841561020E+04  0.20335549927E+04  0.16532151204E+04 0.  0.
        4    1    3    3  502    0  0.32123113242E+03  0.42889560913E+03 -0.18211552739E+03  0.56595809225E+03  0.12699999809E+01 0. -1.
       -4    1    3    3    0  502 -0.32123113242E+03 -0.42889560913E+03  0.13662716294E+04  0.14675969005E+04  0.12699999809E+01 0.  1.
</event>
<event>
 5   0  0.4070625E-04  0.1499704E+04  0.7818609E-02  0.8884650E-01
       -4   -1    0    0    0  501  0.00000000000E+00  0.00000000000E+00  0.19000447300E+04  0.19000451544E+04  0.12699999809E+01 0. -1.
        4   -1    0    0  501    0  0.00000000000E+00  0.00000000000E+00 -0.29592712429E+03  0.29592984944E+03  0.12699999809E+01 0.  1.
    10030    2    1    2    0    0  0.00000000000E+00  0.00000000000E+00  0.16041176057E+04  0.21959750039E+04  0.14997042791E+04 0.  0.
        5    1    3    3  502    0 -0.46872082006E+02 -0.61766818422E+03  0.14207811563E+04  0.15499523096E+04  0.46999998093E+01 0. -1.
       -5    1    3    3    0  502  0.46872082006E+02  0.61766818422E+03  0.18333644942E+03  0.64602269431E+03  0.46999998093E+01 0.  1.
</event>
<event>
 5   0  0.1147755E-03  0.1151439E+04  0.7818609E-02  0.9156457E-01
       -2   -1    0    0    0  501  0.00000000000E+00  0.00000000000E+00  0.26400349040E+03  0.26400349042E+03  0.25500000920E-02 0. -1.
        2   -1    0    0  501    0  0.00000000000E+00  0.00000000000E+00 -0.12554875060E+04  0.12554875060E+04  0.25500000920E-02 0.  1.
    10030    2    1    2    0    0  0.00000000000E+00  0.00000000000E+00 -0.99148401557E+03  0.15194909964E+04  0.11514392450E+04 0.  0.
        4    1    3    3  502    0 -0.36848219149E+03  0.24244745160E+03 -0.98399562486E+03  0.10783361697E+04  0.12699999809E+01 0.  1.
       -4    1    3    3    0  502  0.36848219149E+03 -0.24244745160E+03 -0.74883907172E+01  0.44115482670E+03  0.12699999809E+01 0. -1.
</event>
<event>
 5   0  0.1149716E-03  0.1533936E+04  0.7818609E-02  0.8862194E-01
        2   -1    0    0  501    0  0.00000000000E+00  0.00000000000E+00  0.48019856191E+03  0.48019856192E+03  0.25500000920E-02 0. -1.
       -2   -1    0    0    0  501  0.00000000000E+00  0.00000000000E+00 -0.12249935992E+04  0.12249935992E+04  0.25500000920E-02 0.  1.
    10030    2    1    2    0    0  0.00000000000E+00  0.00000000000E+00 -0.74479503728E+03  0.17051921611E+04  0.15339363281E+04 0.  0.
        1    1    3    3  502    0  0.42851995681E+03 -0.20351669270E+03  0.29753952464E+03  0.55998050532E+03  0.50400001928E-02 0. -1.
       -1    1    3    3    0  502 -0.42851995681E+03  0.20351669270E+03 -0.10423345619E+04  0.11452116558E+04  0.50400001928E-02 0.  1.
</event>
<event>
 5   0  0.4070625E-04  0.1480786E+04  0.7818609E-02  0.8897331E-01
        4   -1    0    0  501    0  0.00000000000E+00  0.00000000000E+00  0.11040071314E+04  0.11040078619E+04  0.12699999809E+01 0. -1.
       -4   -1    0    0    0  501  0.00000000000E+00  0.00000000000E+00 -0.49653686432E+03  0.49653848847E+03  0.12699999809E+01 0.  1.
    10030    2    1    2    0    0  0.00000000000E+00  0.00000000000E+00  0.60747026708E+03  0.16005463503E+04  0.14807864445E+04 0.  0.
        3    1    3    3  502    0  0.12616244107E+03  0.61674610718E+03 -0.11751450949E+03  0.64039237378E+03  0.10100000352E+00 0.  1.
       -3    1    3    3    0  502 -0.12616244107E+03 -0.61674610718E+03  0.72498477657E+03  0.96015397656E+03  0.10100000352E+00 0. -1.
</event>
<event>
 5   0  0.1126175E-03  0.1525018E+04  0.7818609E-02  0.8867985E-01
        2   -1    0    0  501    0  0.00000000000E+00  0.00000000000E+00  0.83840007925E+03  0.83840007926E+03  0.25500000920E-02 0.  1.
       -2   -1    0    0    0  501  0.00000000000E+00  0.00000000000E+00 -0.69348754705E+03  0.69348754706E+03  0.25500000920E-02 0. -1.
    10030    2    1    2    0    0  0.00000000000E+00  0.00000000000E+00  0.14491253220E+03  0.15318876263E+04  0.15250180516E+04 0.  0.
        3    1    3    3  502    0 -0.60315075187E+03  0.55068122952E+02  0.53778880238E+03  0.80996304472E+03  0.10100000352E+00 0.  1.
       -3    1    3    3    0  502  0.60315075187E+03 -0.55068122952E+02 -0.39287627017E+03  0.72192458160E+03  0.10100000352E+00 0. -1.
</event>
<event>
 5   0  0.1147755E-03  0.1504564E+04  0.7818609E-02  0.8881423E-01
        2   -1    0    0  501    0  0.00000000000E+00  0.00000000000E+00  0.19112719106E+04  0.19112719106E+04  0.25500000920E-02 0. -1.
       -2   -1    0    0    0  501  0.00000000000E+00  0.00000000000E+00 -0.29610040167E+03  0.29610040169E+03  0.25500000920E-02 0.  1.
    10030    2    1    2    0    0  0.00000000000E+00  0.00000000000E+00  0.16151715090E+04  0.22073723123E+04  0.15045642299E+04 0.  0.
        4    1    3    3  502    0 -0.48430033131E+03  0.65845935401E+02 -0.31426163866E+02  0.48976700051E+03  0.12699999809E+01 0.  1.
       -4    1    3    3    0  502  0.48430033131E+03 -0.65845935401E+02  0.16465976728E+04  0.17176053118E+04  0.12699999809E+01 0. -1.
</event>
<event>
 5   0  0.5840834E-04  0.1464246E+04  0.7818609E-02  0.8908583E-01
        1   -1    0    0  501    0  0.00000000000E+00  0.00000000000E+00  0.77646642486E+03  0.77646642487E+03  0.50400001928E-02 0.  1.
       -1   -1    0    0    0  501  0.00000000000E+00  0.00000000000E+00 -0.69031203002E+03  0.69031203004E+03  0.50400001928E-02 0. -1.
    10030    2    1    2    0    0  0.00000000000E+00  0.00000000000E+00  0.86154394835E+02  0.14667784549E+04  0.14642460367E+04 0.  0.
        3    1    3    3  502    0  0.51828456470E+03  0.42381838079E+03  0.33983809423E+03  0.75082011853E+03  0.10100000352E+00 0.  1.
       -3    1    3    3    0  502 -0.51828456470E+03 -0.42381838079E+03 -0.25368369939E+03  0.71595833638E+03  0.10100000352E+00 0. -1.
</event>
<event>
 5   0  0.5914645E-04  0.1426667E+04  0.7818609E-02  0.8934739E-01
        1   -1    0    0  501    0  0.00000000000E+00  0.00000000000E+00  0.22918709275E+04  0.22918709275E+04  0.50400001928E-02 0.  1.
       -1   -1    0    0    0  501  0.00000000000E+00  0.00000000000E+00 -0.22202138838E+03  0.22202138843E+03  0.50400001928E-02 0. -1.
    10030    2    1    2    0    0  0.00000000000E+00  0.00000000000E+00  0.20698495391E+04  0.25138923159E+04  0.14266665558E+04 0.  0.
        2    1    3    3  502    0 -0.40778857087E+03  0.53886563276E+03  0.63242800209E+03  0.92554463238E+03  0.25500000920E-02 0. -1.
       -2    1    3    3    0  502  0.40778857087E+03 -0.53886563276E+03  0.14374215370E+04  0.15883476835E+04  0.25500000920E-02 0.  1.
</event>
<event>
 5   0  0.6146552E-04  0.1502841E+04  0.7818609E-02  0.8882566E-01
        1   -1    0    0  501    0  0.00000000000E+00  0.00000000000E+00  0.35830270898E+03  0.35830270901E+03  0.50400001928E-02 0. -1.
       -1   -1    0    0    0  501  0.00000000000E+00  0.00000000000E+00 -0.15758543791E+04  0.15758543792E+04  0.50400001928E-02 0.  1.
    10030    2    1    2    0    0  0.00000000000E+00  0.00000000000E+00 -0.12175516702E+04  0.19341570882E+04  0.15028411666E+04 0.  0.
        5    1    3    3  502    0 -0.13714739440E+03 -0.71111502822E+03 -0.86655147089E+03  0.11293482779E+04  0.46999998093E+01 0. -1.
       -5    1    3    3    0  502  0.13714739440E+03  0.71111502822E+03 -0.35100019929E+03  0.80480881025E+03  0.46999998093E+01 0.  1.
</event>
<event>
 5   0  0.1147755E-03  0.1519353E+04  0.7818609E-02  0.8871684E-01
        2   -1    0    0  501    0  0.00000000000E+00  0.00000000000E+00  0.74999205440E+03  0.74999205441E+03  0.25500000920E-02 0.  1.
       -2   -1    0    0    0  501  0.00000000000E+00  0.00000000000E+00 -0.76948616094E+03  0.76948616094E+03  0.25500000920E-02 0. -1.
    10030    2    1    2    0    0  0.00000000000E+00  0.00000000000E+00 -0.19494106536E+02  0.15194782154E+04  0.15193531606E+04 0.  0.
        4    1    3    3  502    0  0.61827333150E+02 -0.48012027830E+03  0.57576573095E+03  0.75222728653E+03  0.12699999809E+01 0.  1.
       -4    1    3    3    0  502 -0.61827333150E+02  0.48012027830E+03 -0.59525983749E+03  0.76725092882E+03  0.12699999809E+01 0. -1.
</event>
<event>
 5   0  0.5924403E-04  0.1511371E+04  0.7818609E-02  0.8876927E-01
       -1   -1    0    0    0  501  0.00000000000E+00  0.00000000000E+00  0.86280918835E+03  0.86280918836E+03  0.50400001928E-02 0.  1.
        1   -1    0    0  501    0  0.00000000000E+00  0.00000000000E+00 -0.66186164463E+03  0.66186164465E+03  0.50400001928E-02 0. -1.
    10030    2    1    2    0    0  0.00000000000E+00  0.00000000000E+00  0.20094754372E+03  0.15246708330E+04  0.15113706474E+04 0.  0.
        1    1    3    3  502    0 -0.34299851742E+03 -0.48124948595E+02  0.77802127385E+03  0.85163436768E+03  0.50400001928E-02 0.  1.
       -1    1    3    3    0  502  0.34299851742E+03  0.48124948595E+02 -0.57707373013E+03  0.67303646533E+03  0.50400001928E-02 0. -1.
</event>
<event>
 5   0  0.6146552E-04  0.1483730E+04  0.7818609E-02  0.8895345E-01
       -1   -1    0    0    0  501  0.00000000000E+00  0.00000000000E+00  0.40026593440E+03  0.40026593443E+03  0.50400001928E-02 0. -1.
        1   -1    0    0  501    0  0.00000000000E+00  0.00000000000E+00 -0.13749948654E+04  0.13749948654E+04  0.50400001928E-02 0.  1.
    10030    2    1    2    0    0  0.00000000000E+00  0.00000000000E+00 -0.97472893102E+03  0.17752607999E+04  0.14837299008E+04 0.  0.
        5    1    3    3  502    0  0.16690913029E+03 -0.42991696784E+03  0.20788942799E+03  0.50589263810E+03  0.46999998093E+01 0. -1.
       -5    1    3    3    0  502 -0.16690913029E+03  0.42991696784E+03 -0.11826183590E+04  0.12693681618E+04  0.46999998093E+01 0.  1.
</event>
<event>
 5   0  0.5924403E-04  0.1472745E+04  0.7818609E-02  0.8902782E-01
        1   -1    0    0  501    0  0.00000000000E+00  0.00000000000E+00  0.98780451486E+03  0.98780451488E+03  0.50400001928E-02 0. -1.
       -1   -1    0    0    0  501  0.00000000000E+00  0.00000000000E+00 -0.54893911997E+03  0.54893911999E+03  0.50400001928E-02 0.  1.
    10030    2    1    2    0    0  0.00000000000E+00  0.00000000000E+00  0.43886539489E+03  0.15367436349E+04  0.14727451118E+04 0.  0.
        1    1    3    3  502    0  0.29540347888E+03  0.23825859265E+03 -0.43903153206E+03  0.58032668255E+03  0.50400001928E-02 0.  1.
       -1    1    3    3    0  502 -0.29540347888E+03 -0.23825859265E+03  0.87789692696E+03  0.95641695232E+03  0.50400001928E-02 0. -1.
</event>
<event>
 5   0  0.5914645E-04  0.1472519E+04  0.7818609E-02  0.8902936E-01
       -1   -1    0    0    0  501  0.00000000000E+00  0.00000000000E+00  0.81312476206E+03  0.81312476208E+03  0.50400001928E-02 0. -1.
        1   -1    0    0  501    0  0.00000000000E+00  0.00000000000E+00 -0.66666034870E+03  0.66666034872E+03  0.50400001928E-02 0.  1.
    10030    2    1    2    0    0  0.00000000000E+00  0.00000000000E+00  0.14646441337E+03  0.14797851108E+04  0.14725189811E+04 0.  0.
        2    1    3    3  502    0 -0.11593997758E+02 -0.23509938327E+02  0.81265566957E+03  0.81307833280E+03  0.25500000920E-02 0. -1.
       -2    1    3    3    0  502  0.11593997758E+02  0.23509938327E+02 -0.66619125620E+03  0.66670677800E+03  0.25500000920E-02 0.  1.
</event>
<event>
 5   0  0.1082667E-03  0.1790786E+04  0.7818609E-02  0.8711215E-01
       -2   -1    0    0    0  501  0.00000000000E+00  0.00000000000E+00  0.46719099340E+03  0.46719099340E+03  0.25500000920E-02 0.  1.
        2   -1    0    0  501    0  0.00000000000E+00  0.00000000000E+00 -0.17160618208E+04  0.17160618208E+04  0.25500000920E-02 0. -1.
    10030    2    1    2    0    0  0.00000000000E+00  0.00000000000E+00 -0.12488708274E+04  0.21832528142E+04  0.17907860026E+04 0.  0.
        5    1    3    3  502    0  0.88157093870E+03  0.11403240655E+01 -0.81541158376E+03  0.12008691691E+04  0.46999998093E+01 0. -1.
       -5    1    3    3    0  502 -0.88157093870E+03 -0.11403240655E+01 -0.43345924361E+03  0.98238364510E+03  0.46999998093E+01 0.  1.
</event>
<event>
 5   0  0.1147755E-03  0.1563345E+04  0.7818609E-02  0.8843389E-01
        2   -1    0    0  501    0  0.00000000000E+00  0.00000000000E+00  0.13402040164E+04  0.13402040164E+04  0.25500000920E-02 0. -1.
       -2   -1    0    0    0  501  0.00000000000E+00  0.00000000000E+00 -0.45590938539E+03  0.45590938540E+03  0.25500000920E-02 0.  1.
    10030    2    1    2    0    0  0.00000000000E+00  0.00000000000E+00  0.88429463098E+03  0.17961134018E+04  0.15633446062E+04 0.  0.
        4    1    3    3  502    0  0.38407265834E+03  0.19334077195E+03 -0.30782240068E+03  0.52881821474E+03  0.12699999809E+01 0.  1.
       -4    1    3    3    0  502 -0.38407265834E+03 -0.19334077195E+03  0.11921170317E+04  0.12672951870E+04  0.12699999809E+01 0. -1.
</event>
<event>
 5   0  0.5840834E-04  0.1497456E+04  0.7818609E-02  0.8886147E-01
       -1   -1    0    0    0  501  0.00000000000E+00  0.00000000000E+00  0.70069726201E+03  0.70069726203E+03  0.50400001928E-02 0. -1.
        1   -1    0    0  501    0  0.00000000000E+00  0.00000000000E+00 -0.80005073286E+03  0.80005073287E+03  0.50400001928E-02 0.  1.
    10030    2    1    2    0    0  0.00000000000E+00  0.00000000000E+00 -0.99353470845E+02  0.15007479949E+04  0.14974556528E+04 0.  0.
        3    1    3    3  502    0 -0.36767526060E+03 -0.45866284723E+03  0.41506324791E+03  0.71960698624E+03  0.10100000352E+00 0. -1.
       -3    1    3    3    0  502  0.36767526060E+03  0.45866284723E+03 -0.51441671875E+03  0.78114100866E+03  0.10100000352E+00 0.  1.
</event>
<event>
 5   0  0.5914645E-04  0.1508249E+04  0.7818609E-02  0.8878986E-01
       -1   -1    0    0    0  501  0.00000000000E+00  0.00000000000E+00  0.83373842028E+03  0.83373842029E+03  0.50400001928E-02 0.  1.
        1   -1    0    0  501    0  0.00000000000E+00  0.00000000000E+00 -0.68211304016E+03  0.68211304018E+03  0.50400001928E-02 0. -1.
    10030    2    1    2    0    0  0.00000000000E+00  0.00000000000E+00  0.15162538012E+03  0.15158514605E+04  0.15082491155E+04 0.  0.
        2    1    3    3  502    0 -0.16463420810E+02 -0.31908210021E+03 -0.61072592705E+03  0.68925364626E+03  0.25500000920E-02 0. -1.
       -2    1    3    3    0  502  0.16463420810E+02  0.31908210021E+03  0.76235130717E+03  0.82659781421E+03  0.25500000920E-02 0.  1.
</event>
<event>
 5   0  0.1147755E-03  0.1548440E+04  0.7818609E-02  0.8852865E-01
       -2   -1    0    0    0  501  0.00000000000E+00  0.00000000000E+00  0.51873696230E+03  0.51873696231E+03  0.25500000920E-02 0. -1.
        2   -1    0    0  501    0  0.00000000000E+00  0.00000000000E+00 -0.11555311521E+04  0.11555311521E+04  0.25500000920E-02 0.  1.
    10030    2    1    2    0    0  0.00000000000E+00  0.00000000000E+00 -0.63679418977E+03  0.16742681144E+04  0.15484401437E+04 0.  0.
        4    1    3    3  502    0 -0.52743814039E+03 -0.45076378509E+02 -0.92927827151E+03  0.10694777186E+04  0.12699999809E+01 0.  1.
       -4    1    3    3    0  502  0.52743814039E+03  0.45076378509E+02  0.29248408174E+03  0.60479039576E+03  0.12699999809E+01 0. -1.
</event>
<event>
 5   0  0.5924403E-04  0.1398409E+04  0.7818609E-02  0.8954971E-01
        1   -1    0    0  501    0  0.00000000000E+00  0.00000000000E+00  0.35862786742E+03  0.35862786745E+03  0.50400001928E-02 0.  1.
       -1   -1    0    0    0  501  0.00000000000E+00  0.00000000000E+00 -0.13632157821E+04  0.13632157821E+04  0.50400001928E-02 0. -1.
    10030    2    1    2    0    0  0.00000000000E+00  0.00000000000E+00 -0.10045879147E+04  0.17218436496E+04  0.13984093375E+04 0.  0.
        1    1    3    3  502    0 -0.37019109823E+03 -0.59025878310E+03 -0.57451384911E+03  0.90305760784E+03  0.50400001928E-02 0. -1.
       -1    1    3    3    0  502  0.37019109823E+03  0.59025878310E+03 -0.43007406560E+03  0.81878604175E+03  0.50400001928E-02 0.  1.
</event>
<event>
 5   0  0.1149716E-03  0.1509948E+04  0.7818609E-02  0.8877864E-01
       -2   -1    0    0    0  501  0.00000000000E+00  0.00000000000E+00  0.37248598948E+03  0.37248598949E+03  0.25500000920E-02 0.  1.
        2   -1    0    0  501    0  0.00000000000E+00  0.00000000000E+00 -0.15302207876E+04  0.15302207876E+04  0.25500000920E-02 0. -1.
    10030    2    1    2    0    0  0.00000000000E+00  0.00000000000E+00 -0.11577347981E+04  0.19027067771E+04  0.15099480841E+04 0.  0.
        1    1    3    3  502    0  0.55931196124E+03 -0.14142799774E+03 -0.11925236009E+04  0.13247431023E+04  0.50400001928E-02 0. -1.
       -1    1    3    3    0  502 -0.55931196124E+03  0.14142799774E+03  0.34788802731E+02  0.57796367477E+03  0.50400001928E-02 0.  1.
</event>
<event>
 5   0  0.5924403E-04  0.1509117E+04  0.7818609E-02  0.8878413E-01
        1   -1    0    0  501    0  0.00000000000E+00  0.00000000000E+00  0.17178293214E+04  0.17178293214E+04  0.50400001928E-02 0.  1.
       -1   -1    0    0    0  501  0.00000000000E+00  0.00000000000E+00 -0.33144059519E+03  0.33144059523E+03  0.50400001928E-02 0. -1.
    10030    2    1    2    0    0  0.00000000000E+00  0.00000000000E+00  0.13863887262E+04  0.20492699166E+04  0.15091167917E+04 0.  0.
        1    1    3    3  502    0  0.71071587301E+03 -0.24600326728E+03  0.61033064472E+03  0.96857532261E+03  0.50400001928E-02 0.  1.
       -1    1    3    3    0  502 -0.71071587301E+03  0.24600326728E+03  0.77605808145E+03  0.10806945940E+04  0.50400001928E-02 0. -1.
</event>
<event>
 5   0  0.5924403E-04  0.1507638E+04  0.7818609E-02  0.8879390E-01
       -1   -1    0    0    0  501  0.00000000000E+00  0.00000000000E+00  0.42825407390E+03  0.42825407393E+03  0.50400001928E-02 0. -1.
        1   -1    0    0  501    0  0.00000000000E+00  0.00000000000E+00 -0.13268828852E+04  0.13268828852E+04  0.50400001928E-02 0.  1.
    10030    2    1    2    0    0  0.00000000000E+00  0.00000000000E+00 -0.89862881131E+03  0.17551369591E+04  0.15076378892E+04 0.  0.
        1    1    3    3  502    0 -0.71976168618E+03 -0.17213382095E+03 -0.28240379407E+03  0.79211037119E+03  0.50400001928E-02 0. -1.
       -1    1    3    3    0  502  0.71976168618E+03  0.17213382095E+03 -0.61622501724E+03  0.96302658795E+03  0.50400001928E-02 0.  1.
</event>
<event>
 5   0  0.1082667E-03  0.1487002E+04  0.7818609E-02  0.8893143E-01
       -2   -1    0    0    0  501  0.00000000000E+00  0.00000000000E+00  0.34248203303E+03  0.34248203304E+03  0.25500000920E-02 0.  1.
        2   -1    0    0  501    0  0.00000000000E+00  0.00000000000E+00 -0.16140801858E+04  0.16140801858E+04  0.25500000920E-02 0. -1.
    10030    2    1    2    0    0  0.00000000000E+00  0.00000000000E+00 -0.12715981527E+04  0.19565622188E+04  0.14870016322E+04 0.  0.
        5    1    3    3  502    0  0.71310285046E+03 -0.14878251551E+03 -0.44010869010E+03  0.85109909020E+03  0.46999998093E+01 0.  1.
       -5    1    3    3    0  502 -0.71310285046E+03  0.14878251551E+03 -0.83148946265E+03  0.11054631286E+04  0.46999998093E+01 0. -1.
</event>
<event>
 5   0  0.4070625E-04  0.1493116E+04  0.7818609E-02  0.8889043E-01
        3   -1    0    0  501    0  0.00000000000E+00  0.00000000000E+00  0.30685854382E+03  0.30685856044E+03  0.10100000352E+00 0.  1.
       -3   -1    0    0    0  501  0.00000000000E+00  0.00000000000E+00 -0.18163065051E+04  0.18163065079E+04  0.10100000352E+00 0. -1.
    10030    2    1    2    0    0  0.00000000000E+00  0.00000000000E+00 -0.15094479613E+04  0.21231650683E+04  0.14931164588E+04 0.  0.
        2    1    3    3  502    0  0.27541439526E+03  0.68651190373E+03 -0.89831824061E+03  0.11636697747E+04  0.25500000920E-02 0.  1.
       -2    1    3    3    0  502 -0.27541439526E+03 -0.68651190373E+03 -0.61112972066E+03  0.95949529366E+03  0.25500000920E-02 0. -1.
</event>
<event>
 5   0  0.1126175E-03  0.1489589E+04  0.7818609E-02  0.8891406E-01
       -2   -1    0    0    0  501  0.00000000000E+00  0.00000000000E+00  0.54775942128E+03  0.54775942129E+03  0.25500000920E-02 0. -1.
        2   -1    0    0  501    0  0.00000000000E+00  0.00000000000E+00 -0.10127048647E+04  0.10127048647E+04  0.25500000920E-02 0.  1.
    10030    2    1    2    0    0  0.00000000000E+00  0.00000000000E+00 -0.46494544340E+03  0.15604642860E+04  0.14895887092E+04 0.  0.
        3    1    3    3  502    0 -0.35241227050E+03 -0.15301726934E+02  0.45470349997E+03  0.57548573773E+03  0.10100000352E+00 0. -1.
       -3    1    3    3    0  502  0.35241227050E+03  0.15301726934E+02 -0.91964894337E+03  0.98497854824E+03  0.10100000352E+00 0.  1.
</event>
<event>
 5   0  0.1147755E-03  0.1513338E+04  0.7818609E-02  0.8875631E-01
       -2   -1    0    0    0  501  0.00000000000E+00  0.00000000000E+00  0.90987990432E+03  0.90987990432E+03  0.25500000920E-02 0. -1.
        2   -1    0    0  501    0  0.00000000000E+00  0.00000000000E+00 -0.62925685193E+03  0.62925685193E+03  0.25500000920E-02 0.  1.
    10030    2    1    2    0    0  0.00000000000E+00  0.00000000000E+00  0.28062305239E+03  0.15391367563E+04  0.15133382493E+04 0.  0.
        4    1    3    3  502    0  0.78414791393E+02  0.42695937977E+03  0.77063757314E+03  0.88449255142E+03  0.12699999809E+01 0. -1.
       -4    1    3    3    0  502 -0.78414791393E+02 -0.42695937977E+03 -0.49001452075E+03  0.65464420484E+03  0.12699999809E+01 0.  1.
</event>
<event>
 5   0  0.1126175E-03  0.1479990E+04  0.7818609E-02  0.8897869E-01
        2   -1    0    0  501    0  0.00000000000E+00  0.00000000000E+00  0.91664666467E+03  0.91664666468E+03  0.25500000920E-02 0. -1.
       -2   -1    0    0    0  501  0.00000000000E+00  0.00000000000E+00 -0.59738692253E+03  0.59738692254E+03  0.25500000920E-02 0.  1.
    10030    2    1    2    0    0  0.00000000000E+00  0.00000000000E+00  0.31925974214E+03  0.15140335872E+04  0.14799901757E+04 0.  0.
        3    1    3    3  502    0 -0.18437717135E+03  0.15220845820E+03  0.87604599621E+03  0.90808532294E+03  0.10100000352E+00 0. -1.
       -3    1    3    3    0  502  0.18437717135E+03 -0.15220845820E+03 -0.55678625407E+03  0.60594826428E+03  0.10100000352E+00 0.  1.
</event>
<event>
 5   0  0.1149716E-03  0.1510296E+04  0.7818609E-02  0.8877635E-01
       -2   -1    0    0    0  501  0.00000000000E+00  0.00000000000E+00  0.61535792990E+03  0.61535792990E+03  0.25500000920E-02 0. -1.
        2   -1    0    0  501    0  0.00000000000E+00  0.00000000000E+00 -0.92669436197E+03  0.92669436197E+03  0.25500000920E-02 0.  1.
    10030    2    1    2    0    0  0.00000000000E+00  0.00000000000E+00 -0.31133643207E+03  0.15420522919E+04  0.15102962944E+04 0.  0.
        1    1    3    3  502    0  0.43913010684E+03  0.27806038227E+03 -0.71499674749E+03  0.88395315254E+03  0.50400001928E-02 0.  1.
       -1    1    3    3    0  502 -0.43913010684E+03 -0.27806038227E+03  0.40366031542E+03  0.65809913934E+03  0.50400001928E-02 0. -1.
</event>
<event>
 5   0  0.5914645E-04  0.1479368E+04  0.7818609E-02  0.8898290E-01
       -1   -1    0    0    0  501  0.00000000000E+00  0.00000000000E+00  0.65447471137E+03  0.65447471139E+03  0.50400001928E-02 0. -1.
        1   -1    0    0  501    0  0.00000000000E+00  0.00000000000E+00 -0.83598738204E+03  0.83598738206E+03  0.50400001928E-02 0.  1.
    10030    2    1    2    0    0  0.00000000000E+00  0.00000000000E+00 -0.18151267067E+03  0.14904620935E+04  0.14793682444E+04 0.  0.
        2    1    3    3  502    0 -0.26278114510E+03 -0.34081542057E+03  0.51535589357E+03  0.67141699276E+03  0.25500000920E-02 0. -1.
       -2    1    3    3    0  502  0.26278114510E+03  0.34081542057E+03 -0.69686856425E+03  0.81904510069E+03  0.25500000920E-02 0.  1.
</event>
<event>
 5   0  0.5606965E-04  0.1489545E+04  0.7818609E-02  0.8891436E-01
       -1   -1    0    0    0  501  0.00000000000E+00  0.00000000000E+00  0.35487543445E+03  0.35487543448E+03  0.50400001928E-02 0. -1.
        1   -1    0    0  501    0  0.00000000000E+00  0.00000000000E+00 -0.15630435203E+04  0.15630435203E+04  0.50400001928E-02 0.  1.
    10030    2    1    2    0    0  0.00000000000E+00  0.00000000000E+00 -0.12081680859E+04  0.19179189548E+04  0.14895445591E+04 0.  0.
        4    1    3    3  502    0  0.68290855241E+03  0.29574248444E+03 -0.56640307651E+03  0.93522284298E+03  0.12699999809E+01 0. -1.
       -4    1    3    3    0  502 -0.68290855241E+03 -0.29574248444E+03 -0.64176500936E+03  0.98269611182E+03  0.12699999809E+01 0.  1.
</event>
<event>
 5   0  0.1082667E-03  0.1489957E+04  0.7818609E-02  0.8891159E-01
       -2   -1    0    0    0  501  0.00000000000E+00  0.00000000000E+00  0.29302785413E+03  0.29302785414E+03  0.25500000920E-02 0.  1.
        2   -1    0    0  501    0  0.00000000000E+00  0.00000000000E+00 -0.18939945526E+04  0.18939945526E+04  0.25500000920E-02 0. -1.
    10030    2    1    2    0    0  0.00000000000E+00  0.00000000000E+00 -0.16009666985E+04  0.21870224068E+04  0.14899572605E+04 0.  0.
        5    1    3    3  502    0 -0.41050671461E+03  0.21841343362E+03  0.53834808493E+02  0.46812441437E+03  0.46999998093E+01 0.  1.
       -5    1    3    3    0  502  0.41050671461E+03 -0.21841343362E+03 -0.16548015070E+04  0.17188979924E+04  0.46999998093E+01 0. -1.
</event>
<event>
 5   0  0.5924403E-04  0.1493714E+04  0.7818609E-02  0.8888644E-01
        1   -1    0    0  501    0  0.00000000000E+00  0.00000000000E+00  0.89446850756E+03  0.89446850757E+03  0.50400001928E-02 0.  1.
       -1   -1    0    0    0  501  0.00000000000E+00  0.00000000000E+00 -0.62360565550E+03  0.62360565552E+03  0.50400001928E-02 0. -1.
    10030    2    1    2    0    0  0.00000000000E+00  0.00000000000E+00  0.27086285206E+03  0.15180741631E+04  0.14937143234E+04 0.  0.
        1    1    3    3  502    0 -0.70023011774E+03  0.25875297809E+03  0.11224938140E+03  0.75490081806E+03  0.50400001928E-02 0.  1.
       -1    1    3    3    0  502  0.70023011774E+03 -0.25875297809E+03  0.15861347066E+03  0.76317334503E+03  0.50400001928E-02 0. -1.
</event>
<event>
 5   0  0.5606965E-04  0.1529010E+04  0.7818609E-02  0.8865387E-01
       -1   -1    0    0    0  501  0.00000000000E+00  0.00000000000E+00  0.40993763898E+03  0.40993763901E+03  0.50400001928E-02 0.  1.
        1   -1    0    0  501    0  0.00000000000E+00  0.00000000000E+00 -0.14257490547E+04  0.14257490548E+04  0.50400001928E-02 0. -1.
    10030    2    1    2    0    0  0.00000000000E+00  0.00000000000E+00 -0.10158114158E+04  0.18356866938E+04  0.15290104006E+04 0.  0.
        4    1    3    3  502    0  0.66744080456E+03 -0.16236763608E+03 -0.91081535440E+03  0.11408009027E+04  0.12699999809E+01 0. -1.
       -4    1    3    3    0  502 -0.66744080456E+03  0.16236763608E+03 -0.10499606137E+03  0.69488579108E+03  0.12699999809E+01 0.  1.
</event>
<event>
 5   0  0.6146552E-04  0.1495096E+04  0.7818609E-02  0.8887720E-01
        1   -1    0    0  501    0  0.00000000000E+00  0.00000000000E+00  0.10770241357E+04  0.10770241357E+04  0.50400001928E-02 0.  1.
       -1   -1    0    0    0  501  0.00000000000E+00  0.00000000000E+00 -0.51886334885E+03  0.51886334888E+03  0.50400001928E-02 0. -1.
    10030    2    1    2    0    0  0.00000000000E+00  0.00000000000E+00  0.55816078682E+03  0.15958874846E+04  0.14950964515E+04 0.  0.
        5    1    3    3  502    0  0.49840313036E+03  0.41859998985E+03 -0.11336627778E+03  0.66068573074E+03  0.46999998093E+01 0. -1.
       -5    1    3    3    0  502 -0.49840313036E+03 -0.41859998985E+03  0.67152706461E+03  0.93520175383E+03  0.46999998093E+01 0.  1.
</event>
<event>
 5   0  0.1147755E-03  0.1492462E+04  0.7818609E-02  0.8889481E-01
       -2   -1    0    0    0  501  0.00000000000E+00  0.00000000000E+00  0.33798565481E+03  0.33798565482E+03  0.25500000920E-02 0.  1.
        2   -1    0    0  501    0  0.00000000000E+00  0.00000000000E+00 -0.16475866449E+04  0.16475866449E+04  0.25500000920E-02 0. -1.
    10030    2    1    2    0    0  0.00000000000E+00  0.00000000000E+00 -0.13096009901E+04  0.19855722997E+04  0.14924619272E+04 0.  0.
        4    1    3    3  502    0 -0.24053442637E+03  0.31461630726E+03  0.18663852866E+03  0.43780793089E+03  0.12699999809E+01 0.  1.
       -4    1    3    3    0  502  0.24053442637E+03 -0.31461630726E+03 -0.14962395188E+04  0.15477643688E+04  0.12699999809E+01 0. -1.
</event>
<event>
 5   0  0.5924403E-04  0.1508856E+04  0.7818609E-02  0.8878585E-01
        1   -1    0    0  501    0  0.00000000000E+00  0.00000000000E+00  0.53915041511E+03  0.53915041514E+03  0.50400001928E-02 0.  1.
       -1   -1    0    0    0  501  0.00000000000E+00  0.00000000000E+00 -0.10556634446E+04  0.10556634446E+04  0.50400001928E-02 0. -1.
    10030    2    1    2    0    0  0.00000000000E+00  0.00000000000E+00 -0.51651302952E+03  0.15948138598E+04  0.15088557047E+04 0.  0.
        1    1    3    3  502    0  0.73276787999E+03 -0.17549450847E+01 -0.44795092954E+03  0.85884333907E+03  0.50400001928E-02 0. -1.
       -1    1    3    3    0  502 -0.73276787999E+03  0.17549450847E+01 -0.68562099981E+02  0.73597052071E+03  0.50400001928E-02 0.  1.
</event>
<event>
 5   0  0.1097156E-03  0.1504188E+04  0.7818609E-02  0.8881673E-01
       -2   -1    0    0    0  501  0.00000000000E+00  0.00000000000E+00  0.10007123101E+04  0.10007123101E+04  0.25500000920E-02 0. -1.
        2   -1    0    0  501    0  0.00000000000E+00  0.00000000000E+00 -0.56524263230E+03  0.56524263231E+03  0.25500000920E-02 0.  1.
    10030    2    1    2    0    0  0.00000000000E+00  0.00000000000E+00  0.43546967783E+03  0.15659549424E+04  0.15041878345E+04 0.  0.
        2    1    3    3  502    0 -0.22040440420E+03 -0.33787748669E+03 -0.44307885991E+03  0.59921463058E+03  0.25500000920E-02 0.  1.
       -2    1    3    3    0  502  0.22040440420E+03  0.33787748669E+03  0.87854853774E+03  0.96674031186E+03  0.25500000920E-02 0. -1.
</event>
<event>
 5   0  0.1082667E-03  0.1501094E+04  0.7818609E-02  0.8883725E-01
       -2   -1    0    0    0  501  0.00000000000E+00  0.00000000000E+00  0.46340291684E+03  0.46340291685E+03  0.25500000920E-02 0.  1.
        2   -1    0    0  501    0  0.00000000000E+00  0.00000000000E+00 -0.12156185121E+04  0.12156185121E+04  0.25500000920E-02 0. -1.
    10030    2    1    2    0    0  0.00000000000E+00  0.00000000000E+00 -0.75221559528E+03  0.16790214290E+04  0.15010944864E+04 0.  0.
        5    1    3    3  502    0  0.34806823875E+03 -0.22848637227E+03  0.32236254062E+03  0.52659018101E+03  0.46999998093E+01 0.  1.
       -5    1    3    3    0  502 -0.34806823875E+03  0.22848637227E+03 -0.10745781359E+04  0.11524312480E+04  0.46999998093E+01 0. -1.
</event>
<event>
 5   0  0.5840834E-04  0.1503976E+04  0.7818609E-02  0.8881814E-01
       -1   -1    0    0    0  501  0.00000000000E+00  0.00000000000E+00  0.81175351045E+03  0.81175351047E+03  0.50400001928E-02 0. -1.
        1   -1    0    0  501    0  0.00000000000E+00  0.00000000000E+00 -0.69662229099E+03  0.69662229101E+03  0.50400001928E-02 0.  1.
    10030    2    1    2    0    0  0.00000000000E+00  0.00000000000E+00  0.11513121946E+03  0.15083758015E+04  0.15039755187E+04 0.  0.
        3    1    3    3  502    0 -0.17257731877E+02  0.87225326667E+02  0.80646277358E+03  0.81134967941E+03  0.10100000352E+00 0. -1.
       -3    1    3    3    0  502  0.17257731877E+02 -0.87225326667E+02 -0.69133155411E+03  0.69702612206E+03  0.10100000352E+00 0.  1.
</event>
<event>
 5   0  0.6146552E-04  0.1470363E+04  0.7818609E-02  0.8904404E-01
       -1   -1    0    0    0  501  0.00000000000E+00  0.00000000000E+00  0.97889564466E+03  0.97889564467E+03  0.50400001928E-02 0. -1.
        1   -1    0    0  501    0  0.00000000000E+00  0.00000000000E+00 -0.55214475616E+03  0.55214475619E+03  0.50400001928E-02 0.  1.
    10030    2    1    2    0    0  0.00000000000E+00  0.00000000000E+00  0.42675088849E+03  0.15310404009E+04  0.14703633524E+04 0.  0.
        5    1    3    3  502    0 -0.56187128198E+03  0.28291005070E+03  0.60951218336E+03  0.87593642804E+03  0.46999998093E+01 0. -1.
       -5    1    3    3    0  502  0.56187128198E+03 -0.28291005070E+03 -0.18276129487E+03  0.65510397282E+03  0.46999998093E+01 0.  1.
</event>
<event>
 5   0  0.1097156E-03  0.1507942E+04  0.7818609E-02  0.8879189E-01
        2   -1    0    0  501    0  0.00000000000E+00  0.00000000000E+00  0.19810573784E+04  0.19810573784E+04  0.25500000920E-02 0.  1.
       -2   -1    0    0    0  501  0.00000000000E+00  0.00000000000E+00 -0.28695395719E+03  0.28695395720E+03  0.25500000920E-02 0. -1.
    10030    2    1    2    0    0  0.00000000000E+00  0.00000000000E+00  0.16941034212E+04  0.22680113356E+04  0.15079419805E+04 0.  0.
        2    1    3    3  502    0 -0.62767502712E+03 -0.31827704296E+03  0.44013607573E+03  0.83005781781E+03  0.25500000920E-02 0.  1.
       -2    1    3    3    0  502  0.62767502712E+03  0.31827704296E+03  0.12539673455E+04  0.14379535178E+04  0.25500000920E-02 0. -1.
</event>
<event>
 5   0  0.5606965E-04  0.1480295E+04  0.7818609E-02  0.8897664E-01
        1   -1    0    0  501    0  0.00000000000E+00  0.00000000000E+00  0.13640198139E+04  0.13640198139E+04  0.50400001928E-02 0. -1.
       -1   -1    0    0    0  501  0.00000000000E+00  0.00000000000E+00 -0.40162030940E+03  0.40162030944E+03  0.50400001928E-02 0.  1.
    10030    2    1    2    0    0  0.00000000000E+00  0.00000000000E+00  0.96239950449E+03  0.17656401233E+04  0.14802946460E+04 0.  0.
        4    1    3    3  502    0 -0.27455439996E+03  0.12730888580E+03 -0.32444829385E+03  0.44368454923E+03  0.12699999809E+01 0.  1.
       -4    1    3    3    0  502  0.27455439996E+03 -0.12730888580E+03  0.12868477983E+04  0.13219555741E+04  0.12699999809E+01 0. -1.
</event>
<event>
 5   0  0.1126175E-03  0.1496533E+04  0.7818609E-02  0.8886762E-01
        2   -1    0    0  501    0  0.00000000000E+00  0.00000000000E+00  0.14364904927E+04  0.14364904927E+04  0.25500000920E-02 0. -1.
       -2   -1    0    0    0  501  0.00000000000E+00  0.00000000000E+00 -0.38977145287E+03  0.38977145288E+03  0.25500000920E-02 0.  1.
    10030    2    1    2    0    0  0.00000000000E+00  0.00000000000E+00  0.10467190398E+04  0.18262619456E+04  0.14965333092E+04 0.  0.
        3    1    3    3  502    0 -0.16841653401E+03 -0.40585663914E+03 -0.21573968125E+03  0.48951747745E+03  0.10100000352E+00 0.  1.
       -3    1    3    3    0  502  0.16841653401E+03  0.40585663914E+03  0.12624587211E+04  0.13367444681E+04  0.10100000352E+00 0. -1.
</event>
<event>
 5   0  0.1082667E-03  0.1312497E+04  0.7818609E-02  0.9019713E-01
        2   -1    0    0  501    0  0.00000000000E+00  0.00000000000E+00  0.92970421331E+03  0.92970421331E+03  0.25500000920E-02 0.  1.
       -2   -1    0    0    0  501  0.00000000000E+00  0.00000000000E+00 -0.46322495141E+03  0.46322495142E+03  0.25500000920E-02 0. -1.
    10030    2    1    2    0    0  0.00000000000E+00  0.00000000000E+00  0.46647926190E+03  0.13929291647E+04  0.13124971452E+04 0.  0.
        5    1    3    3  502    0 -0.50560343743E+03  0.41289747878E+03  0.16188128063E+03  0.67256732224E+03  0.46999998093E+01 0.  1.
       -5    1    3    3    0  502  0.50560343743E+03 -0.41289747878E+03  0.30459798127E+03  0.72036184249E+03  0.46999998093E+01 0. -1.
</event>
<event>
 5   0  0.1149716E-03  0.1510119E+04  0.7818609E-02  0.8877752E-01
        2   -1    0    0  501    0  0.00000000000E+00  0.00000000000E+00  0.17697419491E+04  0.17697419491E+04  0.25500000920E-02 0. -1.
       -2   -1    0    0    0  501  0.00000000000E+00  0.00000000000E+00 -0.32214565238E+03  0.32214565239E+03  0.25500000920E-02 0.  1.
    10030    2    1    2    0    0  0.00000000000E+00  0.00000000000E+00  0.14475962968E+04  0.20918876015E+04  0.15101187699E+04 0.  0.
        1    1    3    3  502    0 -0.26609623958E+03  0.11191573105E+03  0.16902820959E+04  0.17147553479E+04  0.50400001928E-02 0. -1.
       -1    1    3    3    0  502  0.26609623958E+03 -0.11191573105E+03 -0.24268579913E+03  0.37713225360E+03  0.50400001928E-02 0.  1.
</event>
<event>
 5   0  0.5606965E-04  0.1565945E+04  0.7818609E-02  0.8841747E-01
        1   -1    0    0  501    0  0.00000000000E+00  0.00000000000E+00  0.11373315958E+04  0.11373315958E+04  0.50400001928E-02 0. -1.
       -1   -1    0    0    0  501  0.00000000000E+00  0.00000000000E+00 -0.53902158325E+03  0.53902158327E+03  0.50400001928E-02 0.  1.
    10030    2    1    2    0    0  0.00000000000E+00  0.00000000000E+00  0.59831001253E+03  0.16763531791E+04  0.15659454364E+04 0.  0.
        4    1    3    3  502    0  0.60695156273E+03 -0.39934121885E+03  0.61159052980E+03  0.94968847398E+03  0.12699999809E+01 0. -1.
       -4    1    3    3    0  502 -0.60695156273E+03  0.39934121885E+03 -0.13280517272E+02  0.72666470508E+03  0.12699999809E+01 0.  1.
</event>
<event>
 5   0  0.1149716E-03  0.1524157E+04  0.7818609E-02  0.8868546E-01
       -2   -1    0    0    0  501  0.00000000000E+00  0.00000000000E+00  0.11346839756E+04  0.11346839756E+04  0.25500000920E-02 0. -1.
        2   -1    0    0  501    0  0.00000000000E+00  0.00000000000E+00 -0.51182880413E+03  0.51182880414E+03  0.25500000920E-02 0.  1.
    10030    2    1    2    0    0  0.00000000000E+00  0.00000000000E+00  0.62285517149E+03  0.16465127798E+04  0.15241573965E+04 0.  0.
        1    1    3    3  502    0  0.52665715876E+03  0.44202134797E+03 -0.43609663527E+02  0.68895024328E+03  0.50400001928E-02 0. -1.
       -1    1    3    3    0  502 -0.52665715876E+03 -0.44202134797E+03  0.66646483502E+03  0.95756253648E+03  0.50400001928E-02 0.  1.
</event>
<event>
 5   0  0.5924403E-04  0.1462124E+04  0.7818609E-02  0.8910038E-01
        1   -1    0    0  501    0  0.00000000000E+00  0.00000000000E+00  0.13174789016E+04  0.13174789016E+04  0.50400001928E-02 0. -1.
       -1   -1    0    0    0  501  0.00000000000E+00  0.00000000000E+00 -0.40566265122E+03  0.40566265125E+03  0.50400001928E-02 0.  1.
    10030    2    1    2    0    0  0.00000000000E+00  0.00000000000E+00  0.91181625036E+03  0.17231415528E+04  0.14621244601E+04 0.  0.
        1    1    3    3  502    0  0.68166864333E+03 -0.26414161966E+03  0.45945341512E+03  0.86344679931E+03  0.50400001928E-02 0.  1.
       -1    1    3    3    0  502 -0.68166864333E+03  0.26414161966E+03  0.45236283524E+03  0.85969475354E+03  0.50400001928E-02 0. -1.
</event>
<event>
 5   0  0.1147755E-03  0.1450656E+04  0.7818609E-02  0.8917946E-01
        2   -1    0    0  501    0  0.00000000000E+00  0.00000000000E+00  0.96871862530E+03  0.96871862531E+03  0.25500000920E-02 0. -1.
       -2   -1    0    0    0  501  0.00000000000E+00  0.00000000000E+00 -0.54308925602E+03  0.54308925602E+03  0.25500000920E-02 0.  1.
    10030    2    1    2    0    0  0.00000000000E+00  0.00000000000E+00  0.42562936929E+03  0.15118078813E+04  0.14506559585E+04 0.  0.
        4    1    3    3  502    0 -0.62661985479E+03  0.30046034411E+03  0.42934775216E+03  0.81686594126E+03  0.12699999809E+01 0. -1.
       -4    1    3    3    0  502  0.62661985479E+03 -0.30046034411E+03 -0.37183828699E+01  0.69494194007E+03  0.12699999809E+01 0.  1.
</event>
<event>
 5   0  0.5924403E-04  0.1498548E+04  0.7818609E-02  0.8885419E-01
        1   -1    0    0  501    0  0.00000000000E+00  0.00000000000E+00  0.10133737319E+04  0.10133737320E+04  0.50400001928E-02 0.  1.
       -1   -1    0    0    0  501  0.00000000000E+00  0.00000000000E+00 -0.55400247638E+03  0.55400247641E+03  0.50400001928E-02 0. -1.
    10030    2    1    2    0    0  0.00000000000E+00  0.00000000000E+00  0.45937125555E+03  0.15673762084E+04  0.14985480400E+04 0.  0.
        1    1    3    3  502    0 -0.57094755870E+03  0.45583431762E+03  0.40359177714E+03  0.83465703286E+03  0.50400001928E-02 0.  1.
       -1    1    3    3    0  502  0.57094755870E+03 -0.45583431762E+03  0.55779478409E+02  0.73271917550E+03  0.50400001928E-02 0. -1.
</event>
<event>
 5   0  0.1082667E-03  0.1507139E+04  0.7818609E-02  0.8879719E-01
        2   -1    0    0  501    0  0.00000000000E+00  0.00000000000E+00  0.59644671284E+03  0.59644671284E+03  0.25500000920E-02 0.  1.
       -2   -1    0    0    0  501  0.00000000000E+00  0.00000000000E+00 -0.95208363811E+03  0.95208363812E+03  0.25500000920E-02 0. -1.
    10030    2    1    2    0    0  0.00000000000E+00  0.00000000000E+00 -0.35563692527E+03  0.15485303510E+04  0.15071392189E+04 0.  0.
        5    1    3    3  502    0  0.17950149775E+03  0.64115338364E+03 -0.54042223572E+03  0.85754109634E+03  0.46999998093E+01 0. -1.
       -5    1    3    3    0  502 -0.17950149775E+03 -0.64115338364E+03  0.18478531045E+03  0.69098925462E+03  0.46999998093E+01 0.  1.
</event>
<event>
 5   0  0.4070625E-04  0.1515353E+04  0.7818609E-02  0.8874307E-01
        4   -1    0    0  501    0  0.00000000000E+00  0.00000000000E+00  0.84920176413E+03  0.84920271379E+03  0.12699999809E+01 0.  1.
       -4   -1    0    0    0  501  0.00000000000E+00  0.00000000000E+00 -0.67601333501E+03  0.67601452795E+03  0.12699999809E+01 0. -1.
    10030    2    1    2    0    0  0.00000000000E+00  0.00000000000E+00  0.17318842913E+03  0.15252172417E+04  0.15153525671E+04 0.  0.
        2    1    3    3  502    0  0.43871180869E+03  0.82035254136E+02 -0.52966234596E+03  0.69263268385E+03  0.25500000920E-02 0. -1.
       -2    1    3    3    0  502 -0.43871180869E+03 -0.82035254136E+02  0.70285077508E+03  0.83258455789E+03  0.25500000920E-02 0.  1.
</event>
<event>
 5   0  0.1097156E-03  0.1495052E+04  0.7818609E-02  0.8887750E-01
        2   -1    0    0  501    0  0.00000000000E+00  0.00000000000E+00  0.10726990353E+04  0.10726990353E+04  0.25500000920E-02 0.  1.
       -2   -1    0    0    0  501  0.00000000000E+00  0.00000000000E+00 -0.52092417115E+03  0.52092417116E+03  0.25500000920E-02 0. -1.
    10030    2    1    2    0    0  0.00000000000E+00  0.00000000000E+00  0.55177486413E+03  0.15936232064E+04  0.14950516457E+04 0.  0.
        2    1    3    3  502    0  0.20526529375E+03 -0.58065847947E+03 -0.17571652536E+03  0.64044859894E+03  0.25500000920E-02 0. -1.
       -2    1    3    3    0  502 -0.20526529375E+03  0.58065847947E+03  0.72749138949E+03  0.95317460750E+03  0.25500000920E-02 0.  1.
</event>
<event>
 5   0  0.1097156E-03  0.1492504E+04  0.7818609E-02  0.8889453E-01
       -2   -1    0    0    0  501  0.00000000000E+00  0.00000000000E+00  0.30525137192E+03  0.30525137193E+03  0.25500000920E-02 0. -1.
        2   -1    0    0  501    0  0.00000000000E+00  0.00000000000E+00 -0.18243727360E+04  0.18243727360E+04  0.25500000920E-02 0.  1.
    10030    2    1    2    0    0  0.00000000000E+00  0.00000000000E+00 -0.15191213641E+04  0.21296241079E+04  0.14925043123E+04 0.  0.
        2    1    3    3  502    0  0.51647320464E+03  0.37576979650E+03 -0.20887981415E+03  0.67199574986E+03  0.25500000920E-02 0. -1.
       -2    1    3    3    0  502 -0.51647320464E+03 -0.37576979650E+03 -0.13102415499E+04  0.14576283581E+04  0.25500000920E-02 0.  1.
</event>
<event>
 5   0  0.1149716E-03  0.1456941E+04  0.7818609E-02  0.8913603E-01
       -2   -1    0    0    0  501  0.00000000000E+00  0.00000000000E+00  0.33768230821E+03  0.33768230822E+03  0.25500000920E-02 0.  1.
        2   -1    0    0  501    0  0.00000000000E+00  0.00000000000E+00 -0.15715043872E+04  0.15715043872E+04  0.25500000920E-02 0. -1.
    10030    2    1    2    0    0  0.00000000000E+00  0.00000000000E+00 -0.12338220790E+04  0.19091866954E+04  0.14569409444E+04 0.  0.
        1    1    3    3  502    0  0.55617449791E+03 -0.25118249186E+03 -0.95628084424E+02  0.61771145926E+03  0.50400001928E-02 0.  1.
       -1    1    3    3    0  502 -0.55617449791E+03  0.25118249186E+03 -0.11381939946E+04  0.12914752362E+04  0.50400001928E-02 0. -1.
</event>
<event>
 5   0  0.6146552E-04  0.1458313E+04  0.7818609E-02  0.8912658E-01
        1   -1    0    0  501    0  0.00000000000E+00  0.00000000000E+00  0.66027768922E+03  0.66027768924E+03  0.50400001928E-02 0.  1.
       -1   -1    0    0    0  501  0.00000000000E+00  0.00000000000E+00 -0.80522034007E+03  0.80522034009E+03  0.50400001928E-02 0. -1.
    10030    2    1    2    0    0  0.00000000000E+00  0.00000000000E+00 -0.14494265086E+03  0.14654980293E+04  0.14583127586E+04 0.  0.
        5    1    3    3  502    0 -0.57470658451E+03 -0.24059817465E+03  0.30817165932E+03  0.69510215186E+03  0.46999998093E+01 0.  1.
       -5    1    3    3    0  502  0.57470658451E+03  0.24059817465E+03 -0.45311431018E+03  0.77039587746E+03  0.46999998093E+01 0. -1.
</event>
<event>
 5   0  0.5840834E-04  0.1493430E+04  0.7818609E-02  0.8888834E-01
       -1   -1    0    0    0  501  0.00000000000E+00  0.00000000000E+00  0.35189186581E+03  0.35189186585E+03  0.50400001928E-02 0. -1.
        1   -1    0    0  501    0  0.00000000000E+00  0.00000000000E+00 -0.15845299536E+04  0.15845299536E+04  0.50400001928E-02 0.  1.
    10030    2    1    2    0    0  0.00000000000E+00  0.00000000000E+00 -0.12326380878E+04  0.19364218195E+04  0.14934298803E+04 0.  0.
        3    1    3    3  502    0 -0.52024533593E+03 -0.83618064046E+02 -0.13023512569E+04  0.14049078250E+04  0.10100000352E+00 0.  1.
       -3    1    3    3    0  502  0.52024533593E+03  0.83618064046E+02  0.69713169082E+02  0.53151399449E+03  0.10100000352E+00 0. -1.
</event>
<event>
 5   0  0.1126175E-03  0.1518375E+04  0.7818609E-02  0.8872325E-01
       -2   -1    0    0    0  501  0.00000000000E+00  0.00000000000E+00  0.70031660222E+03  0.70031660223E+03  0.25500000920E-02 0.  1.
        2   -1    0    0  501    0  0.00000000000E+00  0.00000000000E+00 -0.82300681541E+03  0.82300681541E+03  0.25500000920E-02 0. -1.
    10030    2    1    2    0    0  0.00000000000E+00  0.00000000000E+00 -0.12269021319E+03  0.15233234176E+04  0.15183745738E+04 0.  0.
        3    1    3    3  502    0 -0.63167124686E+03  0.39265015888E+03 -0.21409974527E+03  0.77396474242E+03  0.10100000352E+00 0. -1.
       -3    1    3    3    0  502  0.63167124686E+03 -0.39265015888E+03  0.91409532082E+02  0.74935867522E+03  0.10100000352E+00 0.  1.
</event>
<event>
 5   0  0.5924403E-04  0.1498827E+04  0.7818609E-02  0.8885234E-01
       -1   -1    0    0    0  501  0.00000000000E+00  0.00000000000E+00  0.64997792760E+03  0.64997792762E+03  0.50400001928E-02 0.  1.
        1   -1    0    0  501    0  0.00000000000E+00  0.00000000000E+00 -0.86406064924E+03  0.86406064926E+03  0.50400001928E-02 0. -1.
    10030    2    1    2    0    0  0.00000000000E+00  0.00000000000E+00 -0.21408272164E+03  0.15140385769E+04  0.14988266746E+04 0.  0.
        1    1    3    3  502    0  0.24843695924E+02 -0.36130275077E+03  0.55571464956E+03  0.66330660987E+03  0.50400001928E-02 0.  1.
       -1    1    3    3    0  502 -0.24843695924E+02  0.36130275077E+03 -0.76979737121E+03  0.85073196700E+03  0.50400001928E-02 0. -1.
</event>
<event>
 5   0  0.1097156E-03  0.1506678E+04  0.7818609E-02  0.8880024E-01
       -2   -1    0    0    0  501  0.00000000000E+00  0.00000000000E+00  0.68166850704E+03  0.68166850704E+03  0.25500000920E-02 0. -1.
        2   -1    0    0  501    0  0.00000000000E+00  0.00000000000E+00 -0.83254477376E+03  0.83254477376E+03  0.25500000920E-02 0.  1.
    10030    2    1    2    0    0  0.00000000000E+00  0.00000000000E+00 -0.15087626672E+03  0.15142132808E+04  0.15066778726E+04 0.  0.
        2    1    3    3  502    0  0.29602836080E+03  0.63153114394E+03  0.21068766633E+03  0.72859705525E+03  0.25500000920E-02 0. -1.
       -2    1    3    3    0  502 -0.29602836080E+03 -0.63153114394E+03 -0.36156393305E+03  0.78561622555E+03  0.25500000920E-02 0.  1.
</event>
<event>
 5   0  0.5606965E-04  0.1503383E+04  0.7818609E-02  0.8882206E-01
       -1   -1    0    0    0  501  0.00000000000E+00  0.00000000000E+00  0.39619070587E+03  0.39619070590E+03  0.50400001928E-02 0. -1.
        1   -1    0    0  501    0  0.00000000000E+00  0.00000000000E+00 -0.14261819892E+04  0.14261819892E+04  0.50400001928E-02 0.  1.
    10030    2    1    2    0    0  0.00000000000E+00  0.00000000000E+00 -0.10299912833E+04  0.18223726951E+04  0.15033829173E+04 0.  0.
        4    1    3    3  502    0 -0.57035718233E+03  0.36391819530E+03 -0.91205611715E+03  0.11356019294E+04  0.12699999809E+01 0.  1.
       -4    1    3    3    0  502  0.57035718233E+03 -0.36391819530E+03 -0.11793516616E+03  0.68677076571E+03  0.12699999809E+01 0. -1.
</event>
<event>
 5   0  0.5924403E-04  0.1487622E+04  0.7818609E-02  0.8892726E-01
        1   -1    0    0  501    0  0.00000000000E+00  0.00000000000E+00  0.54430417611E+03  0.54430417614E+03  0.50400001928E-02 0. -1.
       -1   -1    0    0    0  501  0.00000000000E+00  0.00000000000E+00 -0.10164443754E+04  0.10164443754E+04  0.50400001928E-02 0.  1.
    10030    2    1    2    0    0  0.00000000000E+00  0.00000000000E+00 -0.47214019930E+03  0.15607485516E+04  0.14876221541E+04 0.  0.
        1    1    3    3  502    0  0.41622084977E+03 -0.20133018665E+03 -0.84736140364E+03  0.96529528552E+03  0.50400001928E-02 0.  1.
       -1    1    3    3    0  502 -0.41622084977E+03  0.20133018665E+03  0.37522120434E+03  0.59545326605E+03  0.50400001928E-02 0. -1.
</event>
<event>
 5   0  0.5914645E-04  0.1504541E+04  0.7818609E-02  0.8881439E-01
        1   -1    0    0  501    0  0.00000000000E+00  0.00000000000E+00  0.11251515125E+04  0.11251515125E+04  0.50400001928E-02 0. -1.
       -1   -1    0    0    0  501  0.00000000000E+00  0.00000000000E+00 -0.50296439842E+03  0.50296439844E+03  0.50400001928E-02 0.  1.
    10030    2    1    2    0    0  0.00000000000E+00  0.00000000000E+00  0.62218711404E+03  0.16281159109E+04  0.15045413303E+04 0.  0.
        2    1    3    3  502    0  0.53930474793E+03  0.48772450845E+03  0.51976977301E+03  0.89380390703E+03  0.25500000920E-02 0. -1.
       -2    1    3    3    0  502 -0.53930474793E+03 -0.48772450845E+03  0.10241734103E+03  0.73431200388E+03  0.25500000920E-02 0.  1.
</event>
<event>
 5   0  0.6146552E-04  0.1446470E+04  0.7818609E-02  0.8920852E-01
       -1   -1    0    0    0  501  0.00000000000E+00  0.00000000000E+00  0.72915424717E+03  0.72915424719E+03  0.50400001928E-02 0. -1.
        1   -1    0    0  501    0  0.00000000000E+00  0.00000000000E+00 -0.71736343021E+03  0.71736343023E+03  0.50400001928E-02 0.  1.
    10030    2    1    2    0    0  0.00000000000E+00  0.00000000000E+00  0.11790816961E+02  0.14465176774E+04  0.14464696221E+04 0.  0.
        5    1    3    3  502    0  0.59138537356E+03 -0.10083888092E+03  0.40981644292E+03  0.72655126925E+03  0.46999998093E+01 0. -1.
       -5    1    3    3    0  502 -0.59138537356E+03  0.10083888092E+03 -0.39802562596E+03  0.71996640816E+03  0.46999998093E+01 0.  1.
</event>
<event>
 5   0  0.1147755E-03  0.1500802E+04  0.7818609E-02  0.8883920E-01
       -2   -1    0    0    0  501  0.00000000000E+00  0.00000000000E+00  0.35203922495E+03  0.35203922496E+03  0.25500000920E-02 0. -1.
        2   -1    0    0  501    0  0.00000000000E+00  0.00000000000E+00 -0.15995426857E+04  0.15995426857E+04  0.25500000920E-02 0.  1.
    10030    2    1    2    0    0  0.00000000000E+00  0.00000000000E+00 -0.12475034608E+04  0.19515819107E+04  0.15008021420E+04 0.  0.
        4    1    3    3  502    0  0.70537106490E+03  0.24279902756E+03 -0.51810646622E+03  0.90825967114E+03  0.12699999809E+01 0. -1.
       -4    1    3    3    0  502 -0.70537106490E+03 -0.24279902756E+03 -0.72939699457E+03  0.10433222396E+04  0.12699999809E+01 0.  1.
</event>
<event>
 5   0  0.1147755E-03  0.1529655E+04  0.7818609E-02  0.8864969E-01
       -2   -1    0    0    0  501  0.00000000000E+00  0.00000000000E+00  0.53957188867E+03  0.53957188868E+03  0.25500000920E-02 0. -1.
        2   -1    0    0  501    0  0.00000000000E+00  0.00000000000E+00 -0.10841201286E+04  0.10841201286E+04  0.25500000920E-02 0.  1.
    10030    2    1    2    0    0  0.00000000000E+00  0.00000000000E+00 -0.54454823991E+03  0.16236920173E+04  0.15296545301E+04 0.  0.
        4    1    3    3  502    0 -0.76707179255E+02  0.47127664882E+03 -0.90647707824E+03  0.10245428138E+04  0.12699999809E+01 0.  1.
       -4    1    3    3    0  502  0.76707179255E+02 -0.47127664882E+03  0.36192883833E+03  0.59914920344E+03  0.12699999809E+01 0. -1.
</event>
<event>
 5   0  0.5914645E-04  0.1523009E+04  0.7818609E-02  0.8869294E-01
        1   -1    0    0  501    0  0.00000000000E+00  0.00000000000E+00  0.76555075875E+03  0.76555075877E+03  0.50400001928E-02 0. -1.
       -1   -1    0    0    0  501  0.00000000000E+00  0.00000000000E+00 -0.75748005474E+03  0.75748005475E+03  0.50400001928E-02 0.  1.
    10030    2    1    2    0    0  0.00000000000E+00  0.00000000000E+00  0.80707040159E+01  0.15230308135E+04  0.15230094296E+04 0.  0.
        2    1    3    3  502    0 -0.11499816215E+03 -0.13163987635E+03 -0.73714696187E+03  0.75758780200E+03  0.25500000920E-02 0.  1.
       -2    1    3    3    0  502  0.11499816215E+03  0.13163987635E+03  0.74521766588E+03  0.76544301152E+03  0.25500000920E-02 0. -1.
</event>
<event>
 5   0  0.1147755E-03  0.1505891E+04  0.7818609E-02  0.8880545E-01
        2   -1    0    0  501    0  0.00000000000E+00  0.00000000000E+00  0.16320077917E+04  0.16320077917E+04  0.25500000920E-02 0.  1.
       -2   -1    0    0    0  501  0.00000000000E+00  0.00000000000E+00 -0.34737994082E+03  0.34737994083E+03  0.25500000920E-02 0. -1.
    10030    2    1    2    0    0  0.00000000000E+00  0.00000000000E+00  0.12846278509E+04  0.19793877326E+04  0.15058907930E+04 0.  0.
        4    1    3    3  502    0  0.63049189888E+03  0.24893659417E+03  0.21147821361E+03  0.71008035475E+03  0.12699999809E+01 0.  1.
       -4    1    3    3    0  502 -0.63049189888E+03 -0.24893659417E+03  0.10731496373E+04  0.12693073778E+04  0.12699999809E+01 0. -1.
</event>
<event>
 5   0  0.1149716E-03  0.1358112E+04  0.7818609E-02  0.8984710E-01
        2   -1    0    0  501    0  0.00000000000E+00  0.00000000000E+00  0.17857237435E+04  0.17857237435E+04  0.25500000920E-02 0.  1.
       -2   -1    0    0    0  501  0.00000000000E+00  0.00000000000E+00 -0.25822404250E+03  0.25822404252E+03  0.25500000920E-02 0. -1.
    10030    2    1    2    0    0  0.00000000000E+00  0.00000000000E+00  0.15274997010E+04  0.20439477860E+04  0.13581116359E+04 0.  0.
        1    1    3    3  502    0  0.54272319910E+02  0.59279843948E+03  0.27200330988E+03  0.65447786454E+03  0.50400001928E-02 0. -1.
       -1    1    3    3    0  502 -0.54272319910E+02 -0.59279843948E+03  0.12554963911E+04  0.13894699215E+04  0.50400001928E-02 0.  1.
</event>
<event>
 5   0  0.1147755E-03  0.1494382E+04  0.7818609E-02  0.8888198E-01
       -2   -1    0    0    0  501  0.00000000000E+00  0.00000000000E+00  0.32585972978E+03  0.32585972979E+03  0.25500000920E-02 0.  1.
        2   -1    0    0  501    0  0.00000000000E+00  0.00000000000E+00 -0.17132963588E+04  0.17132963588E+04  0.25500000920E-02 0. -1.
    10030    2    1    2    0    0  0.00000000000E+00  0.00000000000E+00 -0.13874366290E+04  0.20391560886E+04  0.14943818635E+04 0.  0.
        4    1    3    3  502    0 -0.65120660760E+03 -0.31664727268E+02 -0.19566761315E+03  0.68070561072E+03  0.12699999809E+01 0.  1.
       -4    1    3    3    0  502  0.65120660760E+03  0.31664727268E+02 -0.11917690159E+04  0.13584504779E+04  0.12699999809E+01 0. -1.
</event>
<event>
 5   0  0.6146552E-04  0.1493476E+04  0.7818609E-02  0.8888803E-01
        1   -1    0    0  501    0  0.00000000000E+00  0.00000000000E+00  0.12770856017E+04  0.12770856018E+04  0.50400001928E-02 0. -1.
       -1   -1    0    0    0  501  0.00000000000E+00  0.00000000000E+00 -0.43663264797E+03  0.43663264800E+03  0.50400001928E-02 0.  1.
    10030    2    1    2    0    0  0.00000000000E+00  0.00000000000E+00  0.84045295378E+03  0.17137182497E+04  0.14934755010E+04 0.  0.
        5    1    3    3  502    0  0.43067915846E+02  0.72775223598E+03  0.23478661568E+03  0.76591449082E+03  0.46999998093E+01 0.  1.
       -5    1    3    3    0  502 -0.43067915846E+02 -0.72775223598E+03  0.60566633809E+03  0.94780375893E+03  0.46999998093E+01 0. -1.
</event>
<event>
 5   0  0.1082667E-03  0.1500324E+04  0.7818609E-02  0.8884238E-01
       -2   -1    0    0    0  501  0.00000000000E+00  0.00000000000E+00  0.63382726619E+03  0.63382726620E+03  0.25500000920E-02 0. -1.
        2   -1    0    0  501    0  0.00000000000E+00  0.00000000000E+00 -0.88784893299E+03  0.88784893300E+03  0.25500000920E-02 0.  1.
    10030    2    1    2    0    0  0.00000000000E+00  0.00000000000E+00 -0.25402166680E+03  0.15216761992E+04  0.15003237811E+04 0.  0.
        5    1    3    3  502    0  0.41663290111E+03 -0.14562474229E+03 -0.74221686123E+03  0.86353778084E+03  0.46999998093E+01 0.  1.
       -5    1    3    3    0  502 -0.41663290111E+03  0.14562474229E+03  0.48819519443E+03  0.65813841835E+03  0.46999998093E+01 0. -1.
</event>
<event>
 5   0  0.6146552E-04  0.1499340E+04  0.7818609E-02  0.8884892E-01
       -1   -1    0    0    0  501  0.00000000000E+00  0.00000000000E+00  0.43620988263E+03  0.43620988266E+03  0.50400001928E-02 0.  1.
        1   -1    0    0  501    0  0.00000000000E+00  0.00000000000E+00 -0.12883825805E+04  0.12883825805E+04  0.50400001928E-02 0. -1.
    10030    2    1    2    0    0  0.00000000000E+00  0.00000000000E+00 -0.85217269785E+03  0.17245924632E+04  0.14993401405E+04 0.  0.
        5    1    3    3  502    0 -0.81326871227E+02 -0.26647564355E+03 -0.12266029806E+04  0.12578554331E+04  0.46999998093E+01 0. -1.
       -5    1    3    3    0  502  0.81326871227E+02  0.26647564355E+03  0.37443028274E+03  0.46673703005E+03  0.46999998093E+01 0.  1.
</event>
<event>
 5   0  0.5840834E-04  0.1521203E+04  0.7818609E-02  0.8870475E-01
        1   -1    0    0  501    0  0.00000000000E+00  0.00000000000E+00  0.62619479037E+03  0.62619479039E+03  0.50400001928E-02 0. -1.
       -1   -1    0    0    0  501  0.00000000000E+00  0.00000000000E+00 -0.92385677220E+03  0.92385677221E+03  0.50400001928E-02 0.  1.
    10030    2    1    2    0    0  0.00000000000E+00  0.00000000000E+00 -0.29766198183E+03  0.15500515626E+04  0.15212025478E+04 0.  0.
        3    1    3    3  502    0 -0.70462138445E+03 -0.32837404736E+02 -0.43873438644E+03  0.83069697401E+03  0.10100000352E+00 0.  1.
       -3    1    3    3    0  502  0.70462138445E+03  0.32837404736E+02  0.14107240462E+03  0.71935458859E+03  0.10100000352E+00 0. -1.
</event>
<event>
 5   0  0.1082667E-03  0.1522682E+04  0.7818609E-02  0.8869508E-01
        2   -1    0    0  501    0  0.00000000000E+00  0.00000000000E+00  0.81145094217E+03  0.81145094218E+03  0.25500000920E-02 0. -1.
       -2   -1    0    0    0  501  0.00000000000E+00  0.00000000000E+00 -0.71432593806E+03  0.71432593806E+03  0.25500000920E-02 0.  1.
    10030    2    1    2    0    0  0.00000000000E+00  0.00000000000E+00  0.97125004116E+02  0.15257768802E+04  0.15226824429E+04 0.  0.
        5    1    3    3  502    0 -0.40780030463E+03  0.16904551424E+03 -0.57297288892E+03  0.72332392175E+03  0.46999998093E+01 0.  1.
       -5    1    3    3    0  502  0.40780030463E+03 -0.16904551424E+03  0.67009789303E+03  0.80245295849E+03  0.46999998093E+01 0. -1.
</event>
<event>
 5   0  0.5924403E-04  0.1506286E+04  0.7818609E-02  0.8880284E-01
        1   -1    0    0  501    0  0.00000000000E+00  0.00000000000E+00  0.83306097987E+03  0.83306097989E+03  0.50400001928E-02 0. -1.
       -1   -1    0    0    0  501  0.00000000000E+00  0.00000000000E+00 -0.68089133534E+03  0.68089133536E+03  0.50400001928E-02 0.  1.
    10030    2    1    2    0    0  0.00000000000E+00  0.00000000000E+00  0.15216964454E+03  0.15139523152E+04  0.15062855015E+04 0.  0.
        1    1    3    3  502    0 -0.58253071704E+03 -0.12468846343E+02 -0.40355107683E+03  0.70876722559E+03  0.50400001928E-02 0.  1.
       -1    1    3    3    0  502  0.58253071704E+03  0.12468846343E+02  0.55572072137E+03  0.80518508966E+03  0.50400001928E-02 0. -1.
</event>
<event>
 5   0  0.5606965E-04  0.1534907E+04  0.7818609E-02  0.8861567E-01
       -1   -1    0    0    0  501  0.00000000000E+00  0.00000000000E+00  0.53202463582E+03  0.53202463584E+03  0.50400001928E-02 0.  1.
        1   -1    0    0  501    0  0.00000000000E+00  0.00000000000E+00 -0.11070624468E+04  0.11070624468E+04  0.50400001928E-02 0. -1.
    10030    2    1    2    0    0  0.00000000000E+00  0.00000000000E+00 -0.57503781101E+03  0.16390870827E+04  0.15349065055E+04 0.  0.
        4    1    3    3  502    0 -0.56828983173E+03  0.38042499289E+03 -0.65944950650E+03  0.95002724834E+03  0.12699999809E+01 0. -1.
       -4    1    3    3    0  502  0.56828983173E+03 -0.38042499289E+03  0.84411695494E+02  0.68905983434E+03  0.12699999809E+01 0.  1.
</event>
<event>
 5   0  0.6146552E-04  0.1491344E+04  0.7818609E-02  0.8890230E-01
        1   -1    0    0  501    0  0.00000000000E+00  0.00000000000E+00  0.18571372097E+04  0.18571372097E+04  0.50400001928E-02 0. -1.
       -1   -1    0    0    0  501  0.00000000000E+00  0.00000000000E+00 -0.29939976496E+03  0.29939976500E+03  0.50400001928E-02 0.  1.
    10030    2    1    2    0    0  0.00000000000E+00  0.00000000000E+00  0.15577374447E+04  0.21565369747E+04  0.14913436145E+04 0.  0.
        5    1    3    3  502    0  0.10191455608E+03  0.10133403427E+03  0.18368981934E+04  0.18425179038E+04  0.46999998093E+01 0. -1.
       -5    1    3    3    0  502 -0.10191455608E+03 -0.10133403427E+03 -0.27916074866E+03  0.31401907081E+03  0.46999998093E+01 0.  1.
</event>
<event>
 5   0  0.5924403E-04  0.1504167E+04  0.7818609E-02  0.8881687E-01
        1   -1    0    0  501    0  0.00000000000E+00  0.00000000000E+00  0.63379378162E+03  0.63379378164E+03  0.50400001928E-02 0.  1.
       -1   -1    0    0    0  501  0.00000000000E+00  0.00000000000E+00 -0.89245055606E+03  0.89245055607E+03  0.50400001928E-02 0. -1.
    10030    2    1    2    0    0  0.00000000000E+00  0.00000000000E+00 -0.25865677443E+03  0.15262443377E+04  0.15041670291E+04 0.  0.
        1    1    3    3  502    0 -0.36309912775E+03 -0.10521219013E+03 -0.78903965414E+03  0.87492522958E+03  0.50400001928E-02 0. -1.
       -1    1    3    3    0  502  0.36309912775E+03  0.10521219013E+03  0.53038287970E+03  0.65131910814E+03  0.50400001928E-02 0.  1.
</event>
<event>
 5   0  0.5924403E-04  0.1502329E+04  0.7818609E-02  0.8882905E-01
       -1   -1    0    0    0  501  0.00000000000E+00  0.00000000000E+00  0.10272410985E+04  0.10272410985E+04  0.50400001928E-02 0.  1.
        1   -1    0    0  501    0  0.00000000000E+00  0.00000000000E+00 -0.54928530397E+03  0.54928530399E+03  0.50400001928E-02 0. -1.
    10030    2    1    2    0    0  0.00000000000E+00  0.00000000000E+00  0.47795579456E+03  0.15765264025E+04  0.15023294433E+04 0.  0.
        1    1    3    3  502    0 -0.58666416186E+03  0.19960066034E+03 -0.20652798044E+03  0.65319910375E+03  0.50400001928E-02 0. -1.
       -1    1    3    3    0  502  0.58666416186E+03 -0.19960066034E+03  0.68448377500E+03  0.92332729878E+03  0.50400001928E-02 0.  1.
</event>
<event>
 5   0  0.1147755E-03  0.1510801E+04  0.7818609E-02  0.8877302E-01
        2   -1    0    0  501    0  0.00000000000E+00  0.00000000000E+00  0.18852499349E+04  0.18852499349E+04  0.25500000920E-02 0. -1.
       -2   -1    0    0    0  501  0.00000000000E+00  0.00000000000E+00 -0.30268136774E+03  0.30268136775E+03  0.25500000920E-02 0.  1.
    10030    2    1    2    0    0  0.00000000000E+00  0.00000000000E+00  0.15825685671E+04  0.21879313026E+04  0.15108011502E+04 0.  0.
        4    1    3    3  502    0  0.11860933119E+03  0.67684457274E+02  0.18672233458E+04  0.18722109911E+04  0.12699999809E+01 0. -1.
       -4    1    3    3    0  502 -0.11860933119E+03 -0.67684457274E+02 -0.28465477866E+03  0.31572031154E+03  0.12699999809E+01 0.  1.
</event>
<event>
 5   0  0.5606965E-04  0.1406105E+04  0.7818609E-02  0.8949411E-01
       -1   -1    0    0    0  501  0.00000000000E+00  0.00000000000E+00  0.53955744927E+03  0.53955744929E+03  0.50400001928E-02 0. -1.
        1   -1    0    0  501    0  0.00000000000E+00  0.00000000000E+00 -0.91608932386E+03  0.91608932388E+03  0.50400001928E-02 0.  1.
    10030    2    1    2    0    0  0.00000000000E+00  0.00000000000E+00 -0.37653187460E+03  0.14556467732E+04  0.14061050016E+04 0.  0.
        4    1    3    3  502    0 -0.58489007019E+03 -0.12665508755E+03  0.19371033537E+03  0.62901765662E+03  0.12699999809E+01 0. -1.
       -4    1    3    3    0  502  0.58489007019E+03  0.12665508755E+03 -0.57024220996E+03  0.82662911655E+03  0.12699999809E+01 0.  1.
</event>
<event>
 5   0  0.5924403E-04  0.1508388E+04  0.7818609E-02  0.8878894E-01
       -1   -1    0    0    0  501  0.00000000000E+00  0.00000000000E+00  0.61107678741E+03  0.61107678743E+03  0.50400001928E-02 0.  1.
        1   -1    0    0  501    0  0.00000000000E+00  0.00000000000E+00 -0.93083013042E+03  0.93083013043E+03  0.50400001928E-02 0. -1.
    10030    2    1    2    0    0  0.00000000000E+00  0.00000000000E+00 -0.31975334301E+03  0.15419069179E+04  0.15083881274E+04 0.  0.
        1    1    3    3  502    0 -0.22628324717E+03  0.25692065318E+03 -0.84681898099E+03  0.91340829675E+03  0.50400001928E-02 0. -1.
       -1    1    3    3    0  502  0.22628324717E+03 -0.25692065318E+03  0.52706563798E+03  0.62849862111E+03  0.50400001928E-02 0.  1.
</event>
<event>
 5   0  0.5840834E-04  0.1519013E+04  0.7818609E-02  0.8871907E-01
       -1   -1    0    0    0  501  0.00000000000E+00  0.00000000000E+00  0.77047337264E+03  0.77047337265E+03  0.50400001928E-02 0.  1.
        1   -1    0    0  501    0  0.00000000000E+00  0.00000000000E+00 -0.74869577139E+03  0.74869577141E+03  0.50400001928E-02 0. -1.
    10030    2    1    2    0    0  0.00000000000E+00  0.00000000000E+00  0.21777601243E+02  0.15191691441E+04  0.15190130429E+04 0.  0.
        3    1    3    3  502    0  0.74492369837E+03  0.13897804166E+03 -0.40340807651E+02  0.75885018509E+03  0.10100000352E+00 0. -1.
       -3    1    3    3    0  502 -0.74492369837E+03 -0.13897804166E+03  0.62118408893E+02  0.76031895897E+03  0.10100000352E+00 0.  1.
</event>
<event>
 5   0  0.5840834E-04  0.1518484E+04  0.7818609E-02  0.8872254E-01
       -1   -1    0    0    0  501  0.00000000000E+00  0.00000000000E+00  0.88969272882E+03  0.88969272884E+03  0.50400001928E-02 0.  1.
        1   -1    0    0  501    0  0.00000000000E+00  0.00000000000E+00 -0.64791848805E+03  0.64791848807E+03  0.50400001928E-02 0. -1.
    10030    2    1    2    0    0  0.00000000000E+00  0.00000000000E+00  0.24177424078E+03  0.15376112169E+04  0.15184839383E+04 0.  0.
        3    1    3    3  502    0  0.18939912065E+03 -0.31115999590E+03  0.79542811880E+03  0.87487054605E+03  0.10100000352E+00 0.  1.
       -3    1    3    3    0  502 -0.18939912065E+03  0.31115999590E+03 -0.55365387803E+03  0.66274067086E+03  0.10100000352E+00 0. -1.
</event>
<event>
 5   0  0.1147755E-03  0.1493092E+04  0.7818609E-02  0.8889060E-01
       -2   -1    0    0    0  501  0.00000000000E+00  0.00000000000E+00  0.39216928475E+03  0.39216928476E+03  0.25500000920E-02 0.  1.
        2   -1    0    0  501    0  0.00000000000E+00  0.00000000000E+00 -0.14211487468E+04  0.14211487468E+04  0.25500000920E-02 0. -1.
    10030    2    1    2    0    0  0.00000000000E+00  0.00000000000E+00 -0.10289794620E+04  0.18133180316E+04  0.14930919430E+04 0.  0.
        4    1    3    3  502    0 -0.50180414437E+03 -0.23331041290E+03 -0.11230456858E+04  0.12519881683E+04  0.12699999809E+01 0. -1.
       -4    1    3    3    0  502  0.50180414437E+03  0.23331041290E+03  0.94066223791E+02  0.56132986330E+03  0.12699999809E+01 0.  1.
</event>
<event>
 5   0  0.5914645E-04  0.1493754E+04  0.7818609E-02  0.8888617E-01
        1   -1    0    0  501    0  0.00000000000E+00  0.00000000000E+00  0.21443147660E+04  0.21443147660E+04  0.50400001928E-02 0. -1.
       -1   -1    0    0    0  501  0.00000000000E+00  0.00000000000E+00 -0.26014155431E+03  0.26014155435E+03  0.50400001928E-02 0.  1.
    10030    2    1    2    0    0  0.00000000000E+00  0.00000000000E+00  0.18841732117E+04  0.24044563203E+04  0.14937541648E+04 0.  0.
        2    1    3    3  502    0  0.51072633225E+03  0.34236650723E+03  0.25959806662E+03  0.66741843542E+03  0.25500000920E-02 0.  1.
       -2    1    3    3    0  502 -0.51072633225E+03 -0.34236650723E+03  0.16245751451E+04  0.17370378849E+04  0.25500000920E-02 0. -1.
</event>
<event>
 5   0  0.5606965E-04  0.1496167E+04  0.7818609E-02  0.8887006E-01
        1   -1    0    0  501    0  0.00000000000E+00  0.00000000000E+00  0.91477070388E+03  0.91477070389E+03  0.50400001928E-02 0. -1.
       -1   -1    0    0    0  501  0.00000000000E+00  0.00000000000E+00 -0.61176957524E+03  0.61176957526E+03  0.50400001928E-02 0.  1.
    10030    2    1    2    0    0  0.00000000000E+00  0.00000000000E+00  0.30300112864E+03  0.15265402791E+04  0.14961669492E+04 0.  0.
        4    1    3    3  502    0 -0.16447723724E+03 -0.57149759486E+03 -0.31154628598E+03  0.67136053183E+03  0.12699999809E+01 0.  1.
       -4    1    3    3    0  502  0.16447723724E+03  0.57149759486E+03  0.61454741462E+03  0.85517974731E+03  0.12699999809E+01 0. -1.
</event>
<event>
 5   0  0.1147755E-03  0.1359390E+04  0.7818609E-02  0.8983750E-01
       -2   -1    0    0    0  501  0.00000000000E+00  0.00000000000E+00  0.20142668295E+03  0.20142668297E+03  0.25500000920E-02 0. -1.
        2   -1    0    0  501    0  0.00000000000E+00  0.00000000000E+00 -0.22935665767E+04  0.22935665767E+04  0.25500000920E-02 0.  1.
    10030    2    1    2    0    0  0.00000000000E+00  0.00000000000E+00 -0.20921398938E+04  0.24949932597E+04  0.13593903158E+04 0.  0.
        4    1    3    3  502    0  0.40678503678E+03 -0.41054335800E+03 -0.38951802892E+03  0.69695467765E+03  0.12699999809E+01 0. -1.
       -4    1    3    3    0  502 -0.40678503678E+03  0.41054335800E+03 -0.17026218649E+04  0.17980385821E+04  0.12699999809E+01 0.  1.
</event>
<event>
 5   0  0.1082667E-03  0.1513127E+04  0.7818609E-02  0.8875770E-01
       -2   -1    0    0    0  501  0.00000000000E+00  0.00000000000E+00  0.69532122541E+03  0.69532122541E+03  0.25500000920E-02 0. -1.
        2   -1    0    0  501    0  0.00000000000E+00  0.00000000000E+00 -0.82320024382E+03  0.82320024382E+03  0.25500000920E-02 0.  1.
    10030    2    1    2    0    0  0.00000000000E+00  0.00000000000E+00 -0.12787901841E+03  0.15185214692E+04  0.15131273605E+04 0.  0.
        5    1    3    3  502    0  0.51542326261E+03 -0.26340048743E+03  0.42495786591E+03  0.71808929404E+03  0.46999998093E+01 0. -1.
       -5    1    3    3    0  502 -0.51542326261E+03  0.26340048743E+03 -0.55283688432E+03  0.80043217519E+03  0.46999998093E+01 0.  1.
</event>
<event>
 5   0  0.5606965E-04  0.1496038E+04  0.7818609E-02  0.8887092E-01
        1   -1    0    0  501    0  0.00000000000E+00  0.00000000000E+00  0.17730484285E+04  0.17730484286E+04  0.50400001928E-02 0.  1.
       -1   -1    0    0    0  501  0.00000000000E+00  0.00000000000E+00 -0.31557652337E+03  0.31557652341E+03  0.50400001928E-02 0. -1.
    10030    2    1    2    0    0  0.00000000000E+00  0.00000000000E+00  0.14574719052E+04  0.20886249520E+04  0.14960380462E+04 0.  0.
        4    1    3    3  502    0 -0.12123841508E+03  0.68936135759E+03  0.36038395083E+03  0.78727126173E+03  0.12699999809E+01 0. -1.
       -4    1    3    3    0  502  0.12123841508E+03 -0.68936135759E+03  0.10970879543E+04  0.13013536902E+04  0.12699999809E+01 0.  1.
</event>
<event>
 5   0  0.1147755E-03  0.1443675E+04  0.7818609E-02  0.8922797E-01
       -2   -1    0    0    0  501  0.00000000000E+00  0.00000000000E+00  0.47675362370E+03  0.47675362371E+03  0.25500000920E-02 0.  1.
        2   -1    0    0  501    0  0.00000000000E+00  0.00000000000E+00 -0.10929108938E+04  0.10929108938E+04  0.25500000920E-02 0. -1.
    10030    2    1    2    0    0  0.00000000000E+00  0.00000000000E+00 -0.61615727009E+03  0.15696645175E+04  0.14436747958E+04 0.  0.
        4    1    3    3  502    0  0.38627785423E+03  0.33560726316E+03  0.24547408192E+03  0.56754026601E+03  0.12699999809E+01 0.  1.
       -4    1    3    3    0  502 -0.38627785423E+03 -0.33560726316E+03 -0.86163135201E+03  0.10021242515E+04  0.12699999809E+01 0. -1.
</event>
<event>
 5   0  0.1082667E-03  0.1477706E+04  0.7818609E-02  0.8899415E-01
       -2   -1    0    0    0  501  0.00000000000E+00  0.00000000000E+00  0.65785513174E+03  0.65785513175E+03  0.25500000920E-02 0. -1.
        2   -1    0    0  501    0  0.00000000000E+00  0.00000000000E+00 -0.82982364055E+03  0.82982364056E+03  0.25500000920E-02 0.  1.
    10030    2    1    2    0    0  0.00000000000E+00  0.00000000000E+00 -0.17196850881E+03  0.14876787723E+04  0.14777059794E+04 0.  0.
        5    1    3    3  502    0 -0.32177720538E+03 -0.60430075277E+03 -0.36563885916E+03  0.77616611303E+03  0.46999998093E+01 0. -1.
       -5    1    3    3    0  502  0.32177720538E+03  0.60430075277E+03  0.19367035035E+03  0.71151265927E+03  0.46999998093E+01 0.  1.
</event>
<event>
 5   0  0.6146552E-04  0.1503815E+04  0.7818609E-02  0.8881920E-01
        1   -1    0    0  501    0  0.00000000000E+00  0.00000000000E+00  0.68081053023E+03  0.68081053024E+03  0.50400001928E-02 0. -1.
       -1   -1    0    0    0  501  0.00000000000E+00  0.00000000000E+00 -0.83042859532E+03  0.83042859533E+03  0.50400001928E-02 0.  1.
    10030    2    1    2    0    0  0.00000000000E+00  0.00000000000E+00 -0.14961806509E+03  0.15112391256E+04  0.15038145262E+04 0.  0.
        5    1    3    3  502    0  0.42967210401E+03 -0.45435611256E+03  0.34472648102E+03  0.71408405017E+03  0.46999998093E+01 0. -1.
       -5    1    3    3    0  502 -0.42967210401E+03  0.45435611256E+03 -0.49434454611E+03  0.79715507541E+03  0.46999998093E+01 0.  1.
</event>
<event>
 5   0  0.1097156E-03  0.1522693E+04  0.7818609E-02  0.8869501E-01
       -2   -1    0    0    0  501  0.00000000000E+00  0.00000000000E+00  0.54957028031E+03  0.54957028031E+03  0.25500000920E-02 0. -1.
        2   -1    0    0  501    0  0.00000000000E+00  0.00000000000E+00 -0.10547306131E+04  0.10547306131E+04  0.25500000920E-02 0.  1.
    10030    2    1    2    0    0  0.00000000000E+00  0.00000000000E+00 -0.50516033280E+03  0.16043008934E+04  0.15226931388E+04 0.  0.
        2    1    3    3  502    0 -0.88288856792E+02  0.13475470285E+03 -0.10365668305E+04  0.10490112231E+04  0.25500000920E-02 0.  1.
       -2    1    3    3    0  502  0.88288856792E+02 -0.13475470285E+03  0.53140649767E+03  0.55528967031E+03  0.25500000920E-02 0. -1.
</event>
<event>
 5   0  0.4070625E-04  0.1437841E+04  0.7818609E-02  0.8926874E-01
        3   -1    0    0  501    0  0.00000000000E+00  0.00000000000E+00  0.93475745931E+03  0.93475746477E+03  0.10100000352E+00 0.  1.
       -3   -1    0    0    0  501  0.00000000000E+00  0.00000000000E+00 -0.55292080026E+03  0.55292080948E+03  0.10100000352E+00 0. -1.
    10030    2    1    2    0    0  0.00000000000E+00  0.00000000000E+00  0.38183665906E+03  0.14876782742E+04  0.14378412337E+04 0.  0.
        4    1    3    3  502    0  0.37914111803E+03  0.18917430183E+03  0.79183314520E+03  0.89807363094E+03  0.12699999809E+01 0.  1.
       -4    1    3    3    0  502 -0.37914111803E+03 -0.18917430183E+03 -0.40999648615E+03  0.58960464330E+03  0.12699999809E+01 0. -1.
</event>
<event>
 5   0  0.1097156E-03  0.1495708E+04  0.7818609E-02  0.8887312E-01
       -2   -1    0    0    0  501  0.00000000000E+00  0.00000000000E+00  0.50319120583E+03  0.50319120584E+03  0.25500000920E-02 0.  1.
        2   -1    0    0  501    0  0.00000000000E+00  0.00000000000E+00 -0.11114767980E+04  0.11114767980E+04  0.25500000920E-02 0. -1.
    10030    2    1    2    0    0  0.00000000000E+00  0.00000000000E+00 -0.60828559219E+03  0.16146680039E+04  0.14957076589E+04 0.  0.
        2    1    3    3  502    0 -0.19542372086E+02  0.73889599181E+03 -0.42692606686E+03  0.85358951352E+03  0.25500000920E-02 0. -1.
       -2    1    3    3    0  502  0.19542372086E+02 -0.73889599181E+03 -0.18135952533E+03  0.76107849034E+03  0.25500000920E-02 0.  1.
</event>
<event>
 5   0  0.5840834E-04  0.1482095E+04  0.7818609E-02  0.8896448E-01
        1   -1    0    0  501    0  0.00000000000E+00  0.00000000000E+00  0.95091733152E+03  0.95091733153E+03  0.50400001928E-02 0.  1.
       -1   -1    0    0    0  501  0.00000000000E+00  0.00000000000E+00 -0.57749617641E+03  0.57749617644E+03  0.50400001928E-02 0. -1.
    10030    2    1    2    0    0  0.00000000000E+00  0.00000000000E+00  0.37342115510E+03  0.15284135080E+04  0.14820946300E+04 0.  0.
        3    1    3    3  502    0 -0.30716951038E+03 -0.67395828774E+03  0.21150852153E+03  0.77026537414E+03  0.10100000352E+00 0. -1.
       -3    1    3    3    0  502  0.30716951038E+03  0.67395828774E+03  0.16191263358E+03  0.75814813383E+03  0.10100000352E+00 0.  1.
</event>
<event>
 5   0  0.1126175E-03  0.1485814E+04  0.7818609E-02  0.8893942E-01
       -2   -1    0    0    0  501  0.00000000000E+00  0.00000000000E+00  0.55736273340E+03  0.55736273341E+03  0.25500000920E-02 0.  1.
        2   -1    0    0  501    0  0.00000000000E+00  0.00000000000E+00 -0.99021856267E+03  0.99021856268E+03  0.25500000920E-02 0. -1.
    10030    2    1    2    0    0  0.00000000000E+00  0.00000000000E+00 -0.43285582927E+03  0.15475812961E+04  0.14858141536E+04 0.  0.
        3    1    3    3  502    0 -0.53760109436E+03  0.29103875556E+03 -0.65610475995E+03  0.89676750617E+03  0.10100000352E+00 0. -1.
       -3    1    3    3    0  502  0.53760109436E+03 -0.29103875556E+03  0.22324893068E+03  0.65081378991E+03  0.10100000352E+00 0.  1.
</event>
<event>
 5   0  0.5606965E-04  0.1499191E+04  0.7818609E-02  0.8884991E-01
        1   -1    0    0  501    0  0.00000000000E+00  0.00000000000E+00  0.14541093306E+04  0.14541093306E+04  0.50400001928E-02 0. -1.
       -1   -1    0    0    0  501  0.00000000000E+00  0.00000000000E+00 -0.38641733043E+03  0.38641733046E+03  0.50400001928E-02 0.  1.
    10030    2    1    2    0    0  0.00000000000E+00  0.00000000000E+00  0.10676920002E+04  0.18405266611E+04  0.14991905092E+04 0.  0.
        4    1    3    3  502    0 -0.52462266904E+02  0.10482237403E+03 -0.37509471514E+03  0.39298559487E+03  0.12699999809E+01 0.  1.
       -4    1    3    3    0  502  0.52462266904E+02 -0.10482237403E+03  0.14427867153E+04  0.14475410662E+04  0.12699999809E+01 0. -1.
</event>
<event>
 5   0  0.5924403E-04  0.1510349E+04  0.7818609E-02  0.8877600E-01
       -1   -1    0    0    0  501  0.00000000000E+00  0.00000000000E+00  0.35560268038E+03  0.35560268041E+03  0.50400001928E-02 0. -1.
        1   -1    0    0  501    0  0.00000000000E+00  0.00000000000E+00 -0.16037239019E+04  0.16037239019E+04  0.50400001928E-02 0.  1.
    10030    2    1    2    0    0  0.00000000000E+00  0.00000000000E+00 -0.12481212215E+04  0.19593265823E+04  0.15103489903E+04 0.  0.
        1    1    3    3  502    0  0.32659895189E+03  0.21257294308E+03 -0.14632175780E+04  0.15142192087E+04  0.50400001928E-02 0.  1.
       -1    1    3    3    0  502 -0.32659895189E+03 -0.21257294308E+03  0.21509635641E+03  0.44510737365E+03  0.50400001928E-02 0. -1.
</event>
<event>
 5   0  0.1097156E-03  0.1479405E+04  0.7818609E-02  0.8898265E-01
        2   -1    0    0  501    0  0.00000000000E+00  0.00000000000E+00  0.85635381829E+03  0.85635381829E+03  0.25500000920E-02 0. -1.
       -2   -1    0    0    0  501  0.00000000000E+00  0.00000000000E+00 -0.63894095072E+03  0.63894095072E+03  0.25500000920E-02 0.  1.
    10030    2    1    2    0    0  0.00000000000E+00  0.00000000000E+00  0.21741286757E+03  0.14952947690E+04  0.14794046408E+04 0.  0.
        2    1    3    3  502    0 -0.46221323316E+03  0.51274263273E+03 -0.15987966397E+03  0.70859550329E+03  0.25500000920E-02 0.  1.
       -2    1    3    3    0  502  0.46221323316E+03 -0.51274263273E+03  0.37729253154E+03  0.78669926572E+03  0.25500000920E-02 0. -1.
</event>
<event>
 5   0  0.5840834E-04  0.1520046E+04  0.7818609E-02  0.8871231E-01
        1   -1    0    0  501    0  0.00000000000E+00  0.00000000000E+00  0.69504792007E+03  0.69504792009E+03  0.50400001928E-02 0. -1.
       -1   -1    0    0    0  501  0.00000000000E+00  0.00000000000E+00 -0.83107193429E+03  0.83107193431E+03  0.50400001928E-02 0.  1.
    10030    2    1    2    0    0  0.00000000000E+00  0.00000000000E+00 -0.13602401422E+03  0.15261198544E+04  0.15200458143E+04 0.  0.
        3    1    3    3  502    0  0.36884489210E+02 -0.79277505442E+02  0.68998128469E+03  0.69549951246E+03  0.10100000352E+00 0. -1.
       -3    1    3    3    0  502 -0.36884489210E+02  0.79277505442E+02 -0.82600529891E+03  0.83062034194E+03  0.10100000352E+00 0.  1.
</event>
<event>
 5   0  0.1147755E-03  0.1466754E+04  0.7818609E-02  0.8906867E-01
        2   -1    0    0  501    0  0.00000000000E+00  0.00000000000E+00  0.14845955824E+04  0.14845955824E+04  0.25500000920E-02 0.  1.
       -2   -1    0    0    0  501  0.00000000000E+00  0.00000000000E+00 -0.36228170822E+03  0.36228170823E+03  0.25500000920E-02 0. -1.
    10030    2    1    2    0    0  0.00000000000E+00  0.00000000000E+00  0.11223138742E+04  0.18468772906E+04  0.14667539993E+04 0.  0.
        4    1    3    3  502    0  0.16271312912E+03  0.69331455557E+03  0.34060776477E+03  0.78941490844E+03  0.12699999809E+01 0. -1.
       -4    1    3    3    0  502 -0.16271312912E+03 -0.69331455557E+03  0.78170610939E+03  0.10574623822E+04  0.12699999809E+01 0.  1.
</event>
<event>
 5   0  0.1126175E-03  0.1522085E+04  0.7818609E-02  0.8869898E-01
        2   -1    0    0  501    0  0.00000000000E+00  0.00000000000E+00  0.56952633541E+03  0.56952633542E+03  0.25500000920E-02 0.  1.
       -2   -1    0    0    0  501  0.00000000000E+00  0.00000000000E+00 -0.10169605675E+04  0.10169605675E+04  0.25500000920E-02 0. -1.
    10030    2    1    2    0    0  0.00000000000E+00  0.00000000000E+00 -0.44743423207E+03  0.15864869029E+04  0.15220851819E+04 0.  0.
        3    1    3    3  502    0 -0.21927208757E+03 -0.57561835073E+03  0.24214958474E+03  0.66185584962E+03  0.10100000352E+00 0.  1.
       -3    1    3    3    0  502  0.21927208757E+03  0.57561835073E+03 -0.68958381681E+03  0.92463105328E+03  0.10100000352E+00 0. -1.
</event>
<event>
 5   0  0.4070625E-04  0.1497584E+04  0.7818609E-02  0.8886061E-01
       -4   -1    0    0    0  501  0.00000000000E+00  0.00000000000E+00  0.26224783004E+03  0.26225090516E+03  0.12699999809E+01 0. -1.
        4   -1    0    0  501    0  0.00000000000E+00  0.00000000000E+00 -0.21379971223E+04  0.21379974995E+04  0.12699999809E+01 0.  1.
    10030    2    1    2    0    0  0.00000000000E+00  0.00000000000E+00 -0.18757492923E+04  0.24002484047E+04  0.14975837194E+04 0.  0.
        1    1    3    3  502    0 -0.11645036182E+02  0.31906015530E+03  0.14768860866E+03  0.35177679674E+03  0.50400001928E-02 0. -1.
       -1    1    3    3    0  502  0.11645036182E+02 -0.31906015530E+03 -0.20234379009E+04  0.20484716079E+04  0.50400001928E-02 0.  1.
</event>
<event>
 5   0  0.5606965E-04  0.1505920E+04  0.7818609E-02  0.8880526E-01
        1   -1    0    0  501    0  0.00000000000E+00  0.00000000000E+00  0.72312605499E+03  0.72312605501E+03  0.50400001928E-02 0. -1.
       -1   -1    0    0    0  501  0.00000000000E+00  0.00000000000E+00 -0.78402485971E+03  0.78402485973E+03  0.50400001928E-02 0.  1.
    10030    2    1    2    0    0  0.00000000000E+00  0.00000000000E+00 -0.60898804716E+02  0.15071509147E+04  0.15059200561E+04 0.  0.
        4    1    3    3  502    0  0.80638937288E+01  0.57336212498E+03  0.45794334935E+03  0.73384117959E+03  0.12699999809E+01 0. -1.
       -4    1    3    3    0  502 -0.80638937288E+01 -0.57336212498E+03 -0.51884215407E+03  0.77330973515E+03  0.12699999809E+01 0.  1.
</event>
<event>
 5   0  0.5840834E-04  0.1471926E+04  0.7818609E-02  0.8903339E-01
        1   -1    0    0  501    0  0.00000000000E+00  0.00000000000E+00  0.94038970281E+03  0.94038970283E+03  0.50400001928E-02 0. -1.
       -1   -1    0    0    0  501  0.00000000000E+00  0.00000000000E+00 -0.57597579329E+03  0.57597579332E+03  0.50400001928E-02 0.  1.
    10030    2    1    2    0    0  0.00000000000E+00  0.00000000000E+00  0.36441390952E+03  0.15163654961E+04  0.14719262279E+04 0.  0.
        3    1    3    3  502    0 -0.24271607383E+03 -0.68714484662E+03  0.76329744654E+02  0.73273827036E+03  0.10100000352E+00 0.  1.
       -3    1    3    3    0  502  0.24271607383E+03  0.68714484662E+03  0.28808416487E+03  0.78362722578E+03  0.10100000352E+00 0. -1.
</event>
<event>
 5   0  0.6146552E-04  0.1482992E+04  0.7818609E-02  0.8895842E-01
        1   -1    0    0  501    0  0.00000000000E+00  0.00000000000E+00  0.10878230983E+04  0.10878230983E+04  0.50400001928E-02 0.  1.
       -1   -1    0    0    0  501  0.00000000000E+00  0.00000000000E+00 -0.50542821525E+03  0.50542821527E+03  0.50400001928E-02 0. -1.
    10030    2    1    2    0    0  0.00000000000E+00  0.00000000000E+00  0.58239488308E+03  0.15932513136E+04  0.14829922281E+04 0.  0.
        5    1    3    3  502    0  0.26436644878E+03 -0.97843740193E+02  0.10279936597E+04  0.10659531280E+04  0.46999998093E+01 0.  1.
       -5    1    3    3    0  502 -0.26436644878E+03  0.97843740193E+02 -0.44559877666E+03  0.52729818556E+03  0.46999998093E+01 0. -1.
</event>
<event>
 5   0  0.1147755E-03  0.1474936E+04  0.7818609E-02  0.8901294E-01
        2   -1    0    0  501    0  0.00000000000E+00  0.00000000000E+00  0.93538953989E+03  0.93538953989E+03  0.25500000920E-02 0. -1.
       -2   -1    0    0    0  501  0.00000000000E+00  0.00000000000E+00 -0.58142500194E+03  0.58142500194E+03  0.25500000920E-02 0.  1.
    10030    2    1    2    0    0  0.00000000000E+00  0.00000000000E+00  0.35396453796E+03  0.15168145418E+04  0.14749357478E+04 0.  0.
        4    1    3    3  502    0  0.13089992032E+03 -0.66130727237E+03 -0.13049737648E+03  0.68665367967E+03  0.12699999809E+01 0.  1.
       -4    1    3    3    0  502 -0.13089992032E+03  0.66130727237E+03  0.48446191444E+03  0.83016086217E+03  0.12699999809E+01 0. -1.
</event>
<event>
 5   0  0.1149716E-03  0.1533085E+04  0.7818609E-02  0.8862745E-01
        2   -1    0    0  501    0  0.00000000000E+00  0.00000000000E+00  0.83897701194E+03  0.83897701195E+03  0.25500000920E-02 0. -1.
       -2   -1    0    0    0  501  0.00000000000E+00  0.00000000000E+00 -0.70036199592E+03  0.70036199593E+03  0.25500000920E-02 0.  1.
    10030    2    1    2    0    0  0.00000000000E+00  0.00000000000E+00  0.13861501602E+03  0.15393390079E+04  0.15330852744E+04 0.  0.
        1    1    3    3  502    0 -0.29777245532E+03 -0.38168812641E+03  0.66606628459E+03  0.82340667746E+03  0.50400001928E-02 0. -1.
       -1    1    3    3    0  502  0.29777245532E+03  0.38168812641E+03 -0.52745126857E+03  0.71593233041E+03  0.50400001928E-02 0.  1.
</event>
<event>
 5   0  0.1082667E-03  0.1450131E+04  0.7818609E-02  0.8918310E-01
        2   -1    0    0  501    0  0.00000000000E+00  0.00000000000E+00  0.95457931759E+03  0.95457931759E+03  0.25500000920E-02 0. -1.
       -2   -1    0    0    0  501  0.00000000000E+00  0.00000000000E+00 -0.55073447504E+03  0.55073447505E+03  0.25500000920E-02 0.  1.
    10030    2    1    2    0    0  0.00000000000E+00  0.00000000000E+00  0.40384484254E+03  0.15053137926E+04  0.14501306691E+04 0.  0.
        5    1    3    3  502    0  0.39260708286E+03 -0.29004366175E+03  0.75845099011E+03  0.90196210654E+03  0.46999998093E+01 0. -1.
       -5    1    3    3    0  502 -0.39260708286E+03  0.29004366175E+03 -0.35460614757E+03  0.60335168610E+03  0.46999998093E+01 0.  1.
</event>
<event>
 5   0  0.1147755E-03  0.1495100E+04  0.7818609E-02  0.8887718E-01
        2   -1    0    0  501    0  0.00000000000E+00  0.00000000000E+00  0.83866706188E+03  0.83866706189E+03  0.25500000920E-02 0. -1.
       -2   -1    0    0    0  501  0.00000000000E+00  0.00000000000E+00 -0.66633259355E+03  0.66633259356E+03  0.25500000920E-02 0.  1.
    10030    2    1    2    0    0  0.00000000000E+00  0.00000000000E+00  0.17233446833E+03  0.15049996554E+04  0.14951002622E+04 0.  0.
        4    1    3    3  502    0 -0.20036370244E+03 -0.65994744193E+03 -0.20410530247E+03  0.71926130631E+03  0.12699999809E+01 0.  1.
       -4    1    3    3    0  502  0.20036370244E+03  0.65994744193E+03  0.37643977080E+03  0.78573834914E+03  0.12699999809E+01 0. -1.
</event>
<event>
 5   0  0.1097156E-03  0.1494631E+04  0.7818609E-02  0.8888031E-01
       -2   -1    0    0    0  501  0.00000000000E+00  0.00000000000E+00  0.30119555641E+03  0.30119555642E+03  0.25500000920E-02 0.  1.
        2   -1    0    0  501    0  0.00000000000E+00  0.00000000000E+00 -0.18542117281E+04  0.18542117281E+04  0.25500000920E-02 0. -1.
    10030    2    1    2    0    0  0.00000000000E+00  0.00000000000E+00 -0.15530161717E+04  0.21554072845E+04  0.14946308349E+04 0.  0.
        2    1    3    3  502    0  0.26405867643E+03 -0.10092988196E+03  0.22111515771E+03  0.35889516387E+03  0.25500000920E-02 0.  1.
       -2    1    3    3    0  502 -0.26405867643E+03  0.10092988196E+03 -0.17741313294E+04  0.17965121206E+04  0.25500000920E-02 0. -1.
</event>
<event>
 5   0  0.1082667E-03  0.1435895E+04  0.7818609E-02  0.8928238E-01
        2   -1    0    0  501    0  0.00000000000E+00  0.00000000000E+00  0.17426305935E+04  0.17426305935E+04  0.25500000920E-02 0. -1.
       -2   -1    0    0    0  501  0.00000000000E+00  0.00000000000E+00 -0.29578765846E+03  0.29578765848E+03  0.25500000920E-02 0.  1.
    10030    2    1    2    0    0  0.00000000000E+00  0.00000000000E+00  0.14468429350E+04  0.20384182519E+04  0.14358950140E+04 0.  0.
        5    1    3    3  502    0 -0.29341298201E+03  0.25047052677E+03 -0.13611986477E+03  0.40911779523E+03  0.46999998093E+01 0.  1.
       -5    1    3    3    0  502  0.29341298201E+03 -0.25047052677E+03  0.15829627998E+04  0.16293004567E+04  0.46999998093E+01 0. -1.
</event>
<event>
 5   0  0.1082667E-03  0.1481203E+04  0.7818609E-02  0.8897050E-01
       -2   -1    0    0    0  501  0.00000000000E+00  0.00000000000E+00  0.67635042980E+03  0.67635042980E+03  0.25500000920E-02 0. -1.
        2   -1    0    0  501    0  0.00000000000E+00  0.00000000000E+00 -0.81095617562E+03  0.81095617562E+03  0.25500000920E-02 0.  1.
    10030    2    1    2    0    0  0.00000000000E+00  0.00000000000E+00 -0.13460574582E+03  0.14873066054E+04  0.14812029678E+04 0.  0.
        5    1    3    3  502    0  0.50123957105E+03 -0.37335217237E+03 -0.46622515979E+03  0.77975697613E+03  0.46999998093E+01 0.  1.
       -5    1    3    3    0  502 -0.50123957105E+03  0.37335217237E+03  0.33161941397E+03  0.70754962930E+03  0.46999998093E+01 0. -1.
</event>
<event>
 5   0  0.5914645E-04  0.1506205E+04  0.7818609E-02  0.8880337E-01
       -1   -1    0    0    0  501  0.00000000000E+00  0.00000000000E+00  0.55281745656E+03  0.55281745658E+03  0.50400001928E-02 0.  1.
        1   -1    0    0  501    0  0.00000000000E+00  0.00000000000E+00 -0.10259505646E+04  0.10259505646E+04  0.50400001928E-02 0. -1.
    10030    2    1    2    0    0  0.00000000000E+00  0.00000000000E+00 -0.47313310807E+03  0.15787680212E+04  0.15062050083E+04 0.  0.
        2    1    3    3  502    0  0.17330171965E+03 -0.76008892311E+01  0.53159141190E+03  0.55917858396E+03  0.25500000920E-02 0.  1.
       -2    1    3    3    0  502 -0.17330171965E+03  0.76008892311E+01 -0.10047245200E+04  0.10195894373E+04  0.25500000920E-02 0. -1.
</event>
<event>
 5   0  0.5914645E-04  0.1487777E+04  0.7818609E-02  0.8892622E-01
        1   -1    0    0  501    0  0.00000000000E+00  0.00000000000E+00  0.23058949114E+04  0.23058949114E+04  0.50400001928E-02 0. -1.
       -1   -1    0    0    0  501  0.00000000000E+00  0.00000000000E+00 -0.23998074121E+03  0.23998074126E+03  0.50400001928E-02 0.  1.
    10030    2    1    2    0    0  0.00000000000E+00  0.00000000000E+00  0.20659141702E+04  0.25458756526E+04  0.14877773625E+04 0.  0.
        2    1    3    3  502    0  0.24923423470E+03 -0.20843781168E+03  0.21780595850E+04  0.22021597537E+04  0.25500000920E-02 0. -1.
       -2    1    3    3    0  502 -0.24923423470E+03  0.20843781168E+03 -0.11214541485E+03  0.34371589891E+03  0.25500000920E-02 0.  1.
</event>
<event>
 5   0  0.5914645E-04  0.1507191E+04  0.7818609E-02  0.8879685E-01
       -1   -1    0    0    0  501  0.00000000000E+00  0.00000000000E+00  0.37588523808E+03  0.37588523811E+03  0.50400001928E-02 0.  1.
        1   -1    0    0  501    0  0.00000000000E+00  0.00000000000E+00 -0.15108496739E+04  0.15108496739E+04  0.50400001928E-02 0. -1.
    10030    2    1    2    0    0  0.00000000000E+00  0.00000000000E+00 -0.11349644358E+04  0.18867349120E+04  0.15071908829E+04 0.  0.
        2    1    3    3  502    0  0.66451425230E+03 -0.18762991975E+03 -0.94536233138E+03  0.11706810479E+04  0.25500000920E-02 0. -1.
       -2    1    3    3    0  502 -0.66451425230E+03  0.18762991975E+03 -0.18960210442E+03  0.71605386411E+03  0.25500000920E-02 0.  1.
</event>
<event>
 5   0  0.6146552E-04  0.1475467E+04  0.7818609E-02  0.8900933E-01
       -1   -1    0    0    0  501  0.00000000000E+00  0.00000000000E+00  0.11333903639E+04  0.11333903639E+04  0.50400001928E-02 0.  1.
        1   -1    0    0  501    0  0.00000000000E+00  0.00000000000E+00 -0.48019685190E+03  0.48019685192E+03  0.50400001928E-02 0. -1.
    10030    2    1    2    0    0  0.00000000000E+00  0.00000000000E+00  0.65319351197E+03  0.16135872158E+04  0.14754666851E+04 0.  0.
        5    1    3    3  502    0  0.71225101064E+03 -0.22923845838E+02  0.11794501180E+03  0.72232964820E+03  0.46999998093E+01 0. -1.
       -5    1    3    3    0  502 -0.71225101064E+03  0.22923845838E+02  0.53524850017E+03  0.89125756760E+03  0.46999998093E+01 0.  1.
</event>
<event>
 5   0  0.1082667E-03  0.1488656E+04  0.7818609E-02  0.8892032E-01
       -2   -1    0    0    0  501  0.00000000000E+00  0.00000000000E+00  0.33009634661E+03  0.33009634662E+03  0.25500000920E-02 0.  1.
        2   -1    0    0  501    0  0.00000000000E+00  0.00000000000E+00 -0.16783701532E+04  0.16783701533E+04  0.25500000920E-02 0. -1.
    10030    2    1    2    0    0  0.00000000000E+00  0.00000000000E+00 -0.13482738066E+04  0.20084664999E+04  0.14886555758E+04 0.  0.
        5    1    3    3  502    0  0.70198486482E+03 -0.23299893720E+03 -0.56181796677E+03  0.92883409334E+03  0.46999998093E+01 0. -1.
       -5    1    3    3    0  502 -0.70198486482E+03  0.23299893720E+03 -0.78645583987E+03  0.10796324065E+04  0.46999998093E+01 0.  1.
</event>
<event>
 5   0  0.5840834E-04  0.1303251E+04  0.7818609E-02  0.9026991E-01
       -1   -1    0    0    0  501  0.00000000000E+00  0.00000000000E+00  0.42152386567E+03  0.42152386570E+03  0.50400001928E-02 0. -1.
        1   -1    0    0  501    0  0.00000000000E+00  0.00000000000E+00 -0.10073356731E+04  0.10073356731E+04  0.50400001928E-02 0.  1.
    10030    2    1    2    0    0  0.00000000000E+00  0.00000000000E+00 -0.58581180744E+03  0.14288595388E+04  0.13032513602E+04 0.  0.
        3    1    3    3  502    0  0.40436992465E+03 -0.27026538492E+03  0.18254622824E+03  0.51950125110E+03  0.10100000352E+00 0. -1.
       -3    1    3    3    0  502 -0.40436992465E+03  0.27026538492E+03 -0.76835803568E+03  0.90935828771E+03  0.10100000352E+00 0.  1.
</event>
<event>
 5   0  0.5914645E-04  0.1490182E+04  0.7818609E-02  0.8891008E-01
       -1   -1    0    0    0  501  0.00000000000E+00  0.00000000000E+00  0.14881527815E+04  0.14881527815E+04  0.50400001928E-02 0.  1.
        1   -1    0    0  501    0  0.00000000000E+00  0.00000000000E+00 -0.37305337466E+03  0.37305337469E+03  0.50400001928E-02 0. -1.
    10030    2    1    2    0    0  0.00000000000E+00  0.00000000000E+00  0.11150994069E+04  0.18612061562E+04  0.14901817570E+04 0.  0.
        2    1    3    3  502    0  0.63029135820E+03  0.10315035913E+03  0.10368278693E+04  0.12177517084E+04  0.25500000920E-02 0. -1.
       -2    1    3    3    0  502 -0.63029135820E+03 -0.10315035913E+03  0.78271537600E+02  0.64345444782E+03  0.25500000920E-02 0.  1.
</event>
<event>
 5   0  0.6146552E-04  0.1505198E+04  0.7818609E-02  0.8881003E-01
        1   -1    0    0  501    0  0.00000000000E+00  0.00000000000E+00  0.45889769580E+03  0.45889769582E+03  0.50400001928E-02 0.  1.
       -1   -1    0    0    0  501  0.00000000000E+00  0.00000000000E+00 -0.12342740715E+04  0.12342740715E+04  0.50400001928E-02 0. -1.
    10030    2    1    2    0    0  0.00000000000E+00  0.00000000000E+00 -0.77537637569E+03  0.16931717673E+04  0.15051983622E+04 0.  0.
        5    1    3    3  502    0 -0.71852784719E+03 -0.11781337419E+03 -0.17360203744E+03  0.74854660224E+03  0.46999998093E+01 0.  1.
       -5    1    3    3    0  502  0.71852784719E+03  0.11781337419E+03 -0.60177433825E+03  0.94462516508E+03  0.46999998093E+01 0. -1.
</event>
<event>
 5   0  0.1097156E-03  0.1491544E+04  0.7818609E-02  0.8890096E-01
       -2   -1    0    0    0  501  0.00000000000E+00  0.00000000000E+00  0.51852491964E+03  0.51852491965E+03  0.25500000920E-02 0. -1.
        2   -1    0    0  501    0  0.00000000000E+00  0.00000000000E+00 -0.10726111435E+04  0.10726111435E+04  0.25500000920E-02 0.  1.
    10030    2    1    2    0    0  0.00000000000E+00  0.00000000000E+00 -0.55408622383E+03  0.15911360631E+04  0.14915436393E+04 0.  0.
        2    1    3    3  502    0 -0.20248927496E+03 -0.58015580925E+02  0.48613313389E+03  0.52980481121E+03  0.25500000920E-02 0. -1.
       -2    1    3    3    0  502  0.20248927496E+03  0.58015580925E+02 -0.10402193577E+04  0.10613312519E+04  0.25500000920E-02 0.  1.
</event>
<event>
 5   0  0.1147755E-03  0.1484417E+04  0.7818609E-02  0.8894882E-01
       -2   -1    0    0    0  501  0.00000000000E+00  0.00000000000E+00  0.80790092883E+03  0.80790092884E+03  0.25500000920E-02 0.  1.
        2   -1    0    0  501    0  0.00000000000E+00  0.00000000000E+00 -0.68185770782E+03  0.68185770782E+03  0.25500000920E-02 0. -1.
    10030    2    1    2    0    0  0.00000000000E+00  0.00000000000E+00  0.12604322101E+03  0.14897586367E+04  0.14844170243E+04 0.  0.
        4    1    3    3  502    0 -0.21520372042E+03 -0.70862303232E+03  0.13726438051E+02  0.74070862775E+03  0.12699999809E+01 0. -1.
       -4    1    3    3    0  502  0.21520372042E+03  0.70862303232E+03  0.11231678296E+03  0.74905000891E+03  0.12699999809E+01 0.  1.
</event>
<event>
 5   0  0.5840834E-04  0.1470740E+04  0.7818609E-02  0.8904147E-01
        1   -1    0    0  501    0  0.00000000000E+00  0.00000000000E+00  0.95531336463E+03  0.95531336465E+03  0.50400001928E-02 0.  1.
       -1   -1    0    0    0  501  0.00000000000E+00  0.00000000000E+00 -0.56606463978E+03  0.56606463980E+03  0.50400001928E-02 0. -1.
    10030    2    1    2    0    0  0.00000000000E+00  0.00000000000E+00  0.38924872486E+03  0.15213780044E+04  0.14707401071E+04 0.  0.
        3    1    3    3  502    0 -0.61958279533E+03  0.23331800914E+03  0.52572117457E+03  0.84540102747E+03  0.10100000352E+00 0.  1.
       -3    1    3    3    0  502  0.61958279533E+03 -0.23331800914E+03 -0.13647244971E+03  0.67597697697E+03  0.10100000352E+00 0. -1.
</event>
<event>
 5   0  0.1097156E-03  0.1501169E+04  0.7818609E-02  0.8883676E-01
       -2   -1    0    0    0  501  0.00000000000E+00  0.00000000000E+00  0.10147003089E+04  0.10147003089E+04  0.25500000920E-02 0. -1.
        2   -1    0    0  501    0  0.00000000000E+00  0.00000000000E+00 -0.55521561087E+03  0.55521561087E+03  0.25500000920E-02 0.  1.
    10030    2    1    2    0    0  0.00000000000E+00  0.00000000000E+00  0.45948469805E+03  0.15699159198E+04  0.15011694799E+04 0.  0.
        2    1    3    3  502    0  0.68807132904E+03 -0.67719109807E+02 -0.75782793088E+02  0.69553652917E+03  0.25500000920E-02 0.  1.
       -2    1    3    3    0  502 -0.68807132904E+03  0.67719109807E+02  0.53526749114E+03  0.87437939062E+03  0.25500000920E-02 0. -1.
</event>
<event>
 5   0  0.6146552E-04  0.1486618E+04  0.7818609E-02  0.8893401E-01
       -1   -1    0    0    0  501  0.00000000000E+00  0.00000000000E+00  0.51506063439E+03  0.51506063442E+03  0.50400001928E-02 0.  1.
        1   -1    0    0  501    0  0.00000000000E+00  0.00000000000E+00 -0.10727048285E+04  0.10727048285E+04  0.50400001928E-02 0. -1.
    10030    2    1    2    0    0  0.00000000000E+00  0.00000000000E+00 -0.55764419414E+03  0.15877654630E+04  0.14866176772E+04 0.  0.
        5    1    3    3  502    0  0.35849578415E+03 -0.12124651883E+03  0.40444402597E+03  0.55391064778E+03  0.46999998093E+01 0.  1.
       -5    1    3    3    0  502 -0.35849578415E+03  0.12124651883E+03 -0.96208822012E+03  0.10338548152E+04  0.46999998093E+01 0. -1.
</event>
<event>
 5   0  0.5606965E-04  0.1537046E+04  0.7818609E-02  0.8860184E-01
        1   -1    0    0  501    0  0.00000000000E+00  0.00000000000E+00  0.70418232692E+03  0.70418232694E+03  0.50400001928E-02 0. -1.
       -1   -1    0    0    0  501  0.00000000000E+00  0.00000000000E+00 -0.83874292008E+03  0.83874292009E+03  0.50400001928E-02 0.  1.
    10030    2    1    2    0    0  0.00000000000E+00  0.00000000000E+00 -0.13456059315E+03  0.15429252470E+04  0.15370464419E+04 0.  0.
        4    1    3    3  502    0  0.26001320909E+03  0.18582015445E+03 -0.76887432011E+03  0.83264958519E+03  0.12699999809E+01 0.  1.
       -4    1    3    3    0  502 -0.26001320909E+03 -0.18582015445E+03  0.63431372695E+03  0.71027566184E+03  0.12699999809E+01 0. -1.
</event>
<event>
 5   0  0.5914645E-04  0.1499178E+04  0.7818609E-02  0.8885000E-01
       -1   -1    0    0    0  501  0.00000000000E+00  0.00000000000E+00  0.47975579085E+03  0.47975579088E+03  0.50400001928E-02 0.  1.
        1   -1    0    0  501    0  0.00000000000E+00  0.00000000000E+00 -0.11711872045E+04  0.11711872045E+04  0.50400001928E-02 0. -1.
    10030    2    1    2    0    0  0.00000000000E+00  0.00000000000E+00 -0.69143141364E+03  0.16509429954E+04  0.14991782330E+04 0.  0.
        2    1    3    3  502    0 -0.34881646353E+03  0.37518684001E+03 -0.94832786449E+03  0.10778514873E+04  0.25500000920E-02 0. -1.
       -2    1    3    3    0  502  0.34881646353E+03 -0.37518684001E+03  0.25689645084E+03  0.57309150806E+03  0.25500000920E-02 0.  1.
</event>
<event>
 5   0  0.6146552E-04  0.1502510E+04  0.7818609E-02  0.8882785E-01
        1   -1    0    0  501    0  0.00000000000E+00  0.00000000000E+00  0.64128803598E+03  0.64128803600E+03  0.50400001928E-02 0. -1.
       -1   -1    0    0    0  501  0.00000000000E+00  0.00000000000E+00 -0.88007897594E+03  0.88007897595E+03  0.50400001928E-02 0.  1.
    10030    2    1    2    0    0  0.00000000000E+00  0.00000000000E+00 -0.23879093995E+03  0.15213670120E+04  0.15025100572E+04 0.  0.
        5    1    3    3  502    0  0.43397955830E+03 -0.37936180394E+03 -0.60721819688E+03  0.83725125496E+03  0.46999998093E+01 0.  1.
       -5    1    3    3    0  502 -0.43397955830E+03  0.37936180394E+03  0.36842725693E+03  0.68411575699E+03  0.46999998093E+01 0. -1.
</event>
<event>
 5   0  0.5924403E-04  0.1471846E+04  0.7818609E-02  0.8903394E-01
        1   -1    0    0  501    0  0.00000000000E+00  0.00000000000E+00  0.65173537865E+03  0.65173537867E+03  0.50400001928E-02 0. -1.
       -1   -1    0    0    0  501  0.00000000000E+00  0.00000000000E+00 -0.83098545673E+03  0.83098545675E+03  0.50400001928E-02 0.  1.
    10030    2    1    2    0    0  0.00000000000E+00  0.00000000000E+00 -0.17925007808E+03  0.14827208354E+04  0.14718459448E+04 0.  0.
        1    1    3    3  502    0 -0.96175309457E+02 -0.59316850303E+03  0.33834804708E+03  0.68962160938E+03  0.50400001928E-02 0. -1.
       -1    1    3    3    0  502  0.96175309457E+02  0.59316850303E+03 -0.51759812517E+03  0.79309922603E+03  0.50400001928E-02 0.  1.
</event>
<event>
 5   0  0.1126175E-03  0.1497918E+04  0.7818609E-02  0.8885839E-01
        2   -1    0    0  501    0  0.00000000000E+00  0.00000000000E+00  0.15452451068E+04  0.15452451068E+04  0.25500000920E-02 0.  1.
       -2   -1    0    0    0  501  0.00000000000E+00  0.00000000000E+00 -0.36300988879E+03  0.36300988880E+03  0.25500000920E-02 0. -1.
    10030    2    1    2    0    0  0.00000000000E+00  0.00000000000E+00  0.11822352180E+04  0.19082549956E+04  0.14979175603E+04 0.  0.
        3    1    3    3  502    0  0.48586948580E+01 -0.49679417047E+03 -0.12286921869E+03  0.51178600003E+03  0.10100000352E+00 0. -1.
       -3    1    3    3    0  502 -0.48586948580E+01  0.49679417047E+03  0.13051044367E+04  0.13964689956E+04  0.10100000352E+00 0.  1.
</event>
<event>
 5   0  0.1126175E-03  0.1503042E+04  0.7818609E-02  0.8882433E-01
        2   -1    0    0  501    0  0.00000000000E+00  0.00000000000E+00  0.13196892923E+04  0.13196892923E+04  0.25500000920E-02 0.  1.
       -2   -1    0    0    0  501  0.00000000000E+00  0.00000000000E+00 -0.42796708969E+03  0.42796708970E+03  0.25500000920E-02 0. -1.
    10030    2    1    2    0    0  0.00000000000E+00  0.00000000000E+00  0.89172220258E+03  0.17476563820E+04  0.15030416970E+04 0.  0.
        3    1    3    3  502    0  0.22942629804E+02  0.46754772462E+03  0.11294693268E+04  0.12226316737E+04  0.10100000352E+00 0.  1.
       -3    1    3    3    0  502 -0.22942629804E+02 -0.46754772462E+03 -0.23774712422E+03  0.52502470831E+03  0.10100000352E+00 0. -1.
</event>
<event>
 5   0  0.6146552E-04  0.1505654E+04  0.7818609E-02  0.8880702E-01
       -1   -1    0    0    0  501  0.00000000000E+00  0.00000000000E+00  0.10936787733E+04  0.10936787733E+04  0.50400001928E-02 0. -1.
        1   -1    0    0  501    0  0.00000000000E+00  0.00000000000E+00 -0.51820385137E+03  0.51820385139E+03  0.50400001928E-02 0.  1.
    10030    2    1    2    0    0  0.00000000000E+00  0.00000000000E+00  0.57547492192E+03  0.16118826247E+04  0.15056540805E+04 0.  0.
        5    1    3    3  502    0 -0.69610105033E+02 -0.25469161555E+03 -0.46699341292E+03  0.53648702078E+03  0.46999998093E+01 0.  1.
       -5    1    3    3    0  502  0.69610105033E+02  0.25469161555E+03  0.10424683348E+04  0.10753956039E+04  0.46999998093E+01 0. -1.
</event>
<event>
 5   0  0.5840834E-04  0.1508685E+04  0.7818609E-02  0.8878698E-01
       -1   -1    0    0    0  501  0.00000000000E+00  0.00000000000E+00  0.71349970673E+03  0.71349970675E+03  0.50400001928E-02 0. -1.
        1   -1    0    0  501    0  0.00000000000E+00  0.00000000000E+00 -0.79752340452E+03  0.79752340454E+03  0.50400001928E-02 0.  1.
    10030    2    1    2    0    0  0.00000000000E+00  0.00000000000E+00 -0.84023697788E+02  0.15110231113E+04  0.15086851431E+04 0.  0.
        3    1    3    3  502    0  0.27021041643E+03  0.57809196670E+03 -0.44491464817E+03  0.77791583444E+03  0.10100000352E+00 0.  1.
       -3    1    3    3    0  502 -0.27021041643E+03 -0.57809196670E+03  0.36089095038E+03  0.73310727686E+03  0.10100000352E+00 0. -1.
</event>
<event>
 5   0  0.5840834E-04  0.1467865E+04  0.7818609E-02  0.8906108E-01
       -1   -1    0    0    0  501  0.00000000000E+00  0.00000000000E+00  0.41081470210E+03  0.41081470213E+03  0.50400001928E-02 0.  1.
        1   -1    0    0  501    0  0.00000000000E+00  0.00000000000E+00 -0.13111916428E+04  0.13111916428E+04  0.50400001928E-02 0. -1.
    10030    2    1    2    0    0  0.00000000000E+00  0.00000000000E+00 -0.90037694069E+03  0.17220063449E+04  0.14678648496E+04 0.  0.
        3    1    3    3  502    0 -0.72880730455E+03  0.73579520003E+02 -0.50372724157E+03  0.88899672498E+03  0.10100000352E+00 0.  1.
       -3    1    3    3    0  502  0.72880730455E+03 -0.73579520003E+02 -0.39664969912E+03  0.83300961995E+03  0.10100000352E+00 0. -1.
</event>
<event>
 5   0  0.1097156E-03  0.1489958E+04  0.7818609E-02  0.8891158E-01
        2   -1    0    0  501    0  0.00000000000E+00  0.00000000000E+00  0.10325687327E+04  0.10325687327E+04  0.25500000920E-02 0.  1.
       -2   -1    0    0    0  501  0.00000000000E+00  0.00000000000E+00 -0.53748834686E+03  0.53748834687E+03  0.25500000920E-02 0. -1.
    10030    2    1    2    0    0  0.00000000000E+00  0.00000000000E+00  0.49508038580E+03  0.15700570795E+04  0.14899579338E+04 0.  0.
        2    1    3    3  502    0  0.71279400103E+03  0.15343517873E+03  0.86428629592E+02  0.73422581676E+03  0.25500000920E-02 0.  1.
       -2    1    3    3    0  502 -0.71279400103E+03 -0.15343517873E+03  0.40865175621E+03  0.83583126278E+03  0.25500000920E-02 0. -1.
</event>
<event>
 5   0  0.1097156E-03  0.1457546E+04  0.7818609E-02  0.8913186E-01
       -2   -1    0    0    0  501  0.00000000000E+00  0.00000000000E+00  0.44122299906E+03  0.44122299906E+03  0.25500000920E-02 0. -1.
        2   -1    0    0  501    0  0.00000000000E+00  0.00000000000E+00 -0.12037228852E+04  0.12037228852E+04  0.25500000920E-02 0.  1.
    10030    2    1    2    0    0  0.00000000000E+00  0.00000000000E+00 -0.76249988613E+03  0.16449458843E+04  0.14575461865E+04 0.  0.
        2    1    3    3  502    0 -0.75526346956E+02  0.44904661783E+02 -0.11977229266E+04  0.12009416583E+04  0.25500000920E-02 0.  1.
       -2    1    3    3    0  502  0.75526346956E+02 -0.44904661783E+02  0.43522304045E+03  0.44400422597E+03  0.25500000920E-02 0. -1.
</event>
<event>
 5   0  0.5606965E-04  0.1482622E+04  0.7818609E-02  0.8896092E-01
        1   -1    0    0  501    0  0.00000000000E+00  0.00000000000E+00  0.15341250617E+04  0.15341250617E+04  0.50400001928E-02 0. -1.
       -1   -1    0    0    0  501  0.00000000000E+00  0.00000000000E+00 -0.35821193756E+03  0.35821193759E+03  0.50400001928E-02 0.  1.
    10030    2    1    2    0    0  0.00000000000E+00  0.00000000000E+00  0.11759131241E+04  0.18923369993E+04  0.14826218815E+04 0.  0.
        4    1    3    3  502    0 -0.57036760316E+03  0.57853002252E+02  0.11878035698E+04  0.13189181574E+04  0.12699999809E+01 0. -1.
       -4    1    3    3    0  502  0.57036760316E+03 -0.57853002252E+02 -0.11890445699E+02  0.57341884186E+03  0.12699999809E+01 0.  1.
</event>
<event>
 5   0  0.1126175E-03  0.1494021E+04  0.7818609E-02  0.8888439E-01
       -2   -1    0    0    0  501  0.00000000000E+00  0.00000000000E+00  0.62227469700E+03  0.62227469700E+03  0.25500000920E-02 0. -1.
        2   -1    0    0  501    0  0.00000000000E+00  0.00000000000E+00 -0.89674940444E+03  0.89674940444E+03  0.25500000920E-02 0.  1.
    10030    2    1    2    0    0  0.00000000000E+00  0.00000000000E+00 -0.27447470744E+03  0.15190241014E+04  0.14940207012E+04 0.  0.
        3    1    3    3  502    0  0.24555687432E+03 -0.15775538953E+02 -0.85436213548E+03  0.88909038624E+03  0.10100000352E+00 0.  1.
       -3    1    3    3    0  502 -0.24555687432E+03  0.15775538953E+02  0.57988742804E+03  0.62993371521E+03  0.10100000352E+00 0. -1.
</event>
<event>
 5   0  0.4070625E-04  0.1507240E+04  0.7818609E-02  0.8879652E-01
        4   -1    0    0  501    0  0.00000000000E+00  0.00000000000E+00  0.61903317685E+03  0.61903447960E+03  0.12699999809E+01 0.  1.
       -4   -1    0    0    0  501  0.00000000000E+00  0.00000000000E+00 -0.91746556455E+03  0.91746644355E+03  0.12699999809E+01 0. -1.
    10030    2    1    2    0    0  0.00000000000E+00  0.00000000000E+00 -0.29843238770E+03  0.15365009231E+04  0.15072402585E+04 0.  0.
        1    1    3    3  502    0 -0.42118563366E+03  0.59954969040E+03  0.30519225274E+02  0.73334070690E+03  0.50400001928E-02 0.  1.
       -1    1    3    3    0  502  0.42118563366E+03 -0.59954969040E+03 -0.32895161298E+03  0.80316021625E+03  0.50400001928E-02 0. -1.
</event>
<event>
 5   0  0.4070625E-04  0.1490373E+04  0.7818609E-02  0.8890880E-01
       -4   -1    0    0    0  501  0.00000000000E+00  0.00000000000E+00  0.46145166771E+03  0.46145341534E+03  0.12699999809E+01 0.  1.
        4   -1    0    0  501    0  0.00000000000E+00  0.00000000000E+00 -0.12033776669E+04  0.12033783370E+04  0.12699999809E+01 0. -1.
    10030    2    1    2    0    0  0.00000000000E+00  0.00000000000E+00 -0.74192599915E+03  0.16648317524E+04  0.14903726297E+04 0.  0.
        1    1    3    3  502    0  0.45430500394E+03 -0.33882629007E+03  0.16952005606E+03  0.59155163839E+03  0.50400001928E-02 0.  1.
       -1    1    3    3    0  502 -0.45430500394E+03  0.33882629007E+03 -0.91144605521E+03  0.10732801140E+04  0.50400001928E-02 0. -1.
</event>
<event>
 5   0  0.1097156E-03  0.1397496E+04  0.7818609E-02  0.8955633E-01
        2   -1    0    0  501    0  0.00000000000E+00  0.00000000000E+00  0.95369516447E+03  0.95369516447E+03  0.25500000920E-02 0. -1.
       -2   -1    0    0    0  501  0.00000000000E+00  0.00000000000E+00 -0.51195468642E+03  0.51195468643E+03  0.25500000920E-02 0.  1.
    10030    2    1    2    0    0  0.00000000000E+00  0.00000000000E+00  0.44174047805E+03  0.14656498509E+04  0.13974959161E+04 0.  0.
        2    1    3    3  502    0 -0.67011285881E+03 -0.98117370411E+02  0.40523362472E+02  0.67846916277E+03  0.25500000920E-02 0.  1.
       -2    1    3    3    0  502  0.67011285881E+03  0.98117370411E+02  0.40121711558E+03  0.78718068813E+03  0.25500000920E-02 0. -1.
</event>
<event>
 5   0  0.4070625E-04  0.1498488E+04  0.7818609E-02  0.8885459E-01
        3   -1    0    0  501    0  0.00000000000E+00  0.00000000000E+00  0.54418059387E+03  0.54418060325E+03  0.10100000352E+00 0. -1.
       -3   -1    0    0    0  501  0.00000000000E+00  0.00000000000E+00 -0.10315807221E+04  0.10315807270E+04  0.10100000352E+00 0.  1.
    10030    2    1    2    0    0  0.00000000000E+00  0.00000000000E+00 -0.48740012823E+03  0.15757613303E+04  0.14984875325E+04 0.  0.
        2    1    3    3  502    0  0.29964830621E+03  0.67187384612E+03 -0.94382431144E+02  0.74169509627E+03  0.25500000920E-02 0. -1.
       -2    1    3    3    0  502 -0.29964830621E+03 -0.67187384612E+03 -0.39301769709E+03  0.83406623403E+03  0.25500000920E-02 0.  1.
</event>
<event>
 5   0  0.1082667E-03  0.1471788E+04  0.7818609E-02  0.8903433E-01
        2   -1    0    0  501    0  0.00000000000E+00  0.00000000000E+00  0.96625362537E+03  0.96625362537E+03  0.25500000920E-02 0. -1.
       -2   -1    0    0    0  501  0.00000000000E+00  0.00000000000E+00 -0.56045345308E+03  0.56045345309E+03  0.25500000920E-02 0.  1.
    10030    2    1    2    0    0  0.00000000000E+00  0.00000000000E+00  0.40580017229E+03  0.15267070785E+04  0.14717882740E+04 0.  0.
        5    1    3    3  502    0 -0.20175436281E+02 -0.54396579014E+03 -0.31076668495E+03  0.62682043006E+03  0.46999998093E+01 0.  1.
       -5    1    3    3    0  502  0.20175436281E+02  0.54396579014E+03  0.71656685724E+03  0.89988664840E+03  0.46999998093E+01 0. -1.
</event>
<event>
 5   0  0.5840834E-04  0.1451137E+04  0.7818609E-02  0.8917612E-01
       -1   -1    0    0    0  501  0.00000000000E+00  0.00000000000E+00  0.56881538642E+03  0.56881538644E+03  0.50400001928E-02 0.  1.
        1   -1    0    0  501    0  0.00000000000E+00  0.00000000000E+00 -0.92551989251E+03  0.92551989252E+03  0.50400001928E-02 0. -1.
    10030    2    1    2    0    0  0.00000000000E+00  0.00000000000E+00 -0.35670450609E+03  0.14943352790E+04  0.14511374233E+04 0.  0.
        3    1    3    3  502    0  0.62088589882E+03  0.26879897410E+03  0.91552658108E+02  0.68274013156E+03  0.10100000352E+00 0. -1.
       -3    1    3    3    0  502 -0.62088589882E+03 -0.26879897410E+03 -0.44825716419E+03  0.81159514740E+03  0.10100000352E+00 0.  1.
</event>
<event>
 5   0  0.1147755E-03  0.1520926E+04  0.7818609E-02  0.8870656E-01
        2   -1    0    0  501    0  0.00000000000E+00  0.00000000000E+00  0.63723285597E+03  0.63723285597E+03  0.25500000920E-02 0. -1.
       -2   -1    0    0    0  501  0.00000000000E+00  0.00000000000E+00 -0.90752343618E+03  0.90752343618E+03  0.25500000920E-02 0.  1.
    10030    2    1    2    0    0  0.00000000000E+00  0.00000000000E+00 -0.27029058021E+03  0.15447562922E+04  0.15209257064E+04 0.  0.
        4    1    3    3  502    0  0.58918038607E+03 -0.44404895020E+03  0.52104812796E+02  0.73961444140E+03  0.12699999809E+01 0. -1.
       -4    1    3    3    0  502 -0.58918038607E+03  0.44404895020E+03 -0.32239539301E+03  0.80514185076E+03  0.12699999809E+01 0.  1.
</event>
<event>
 5   0  0.5914645E-04  0.1487363E+04  0.7818609E-02  0.8892900E-01
        1   -1    0    0  501    0  0.00000000000E+00  0.00000000000E+00  0.10514244672E+04  0.10514244672E+04  0.50400001928E-02 0. -1.
       -1   -1    0    0    0  501  0.00000000000E+00  0.00000000000E+00 -0.52601192564E+03  0.52601192567E+03  0.50400001928E-02 0.  1.
    10030    2    1    2    0    0  0.00000000000E+00  0.00000000000E+00  0.52541254155E+03  0.15774363929E+04  0.14873625095E+04 0.  0.
        2    1    3    3  502    0  0.23423378593E+03 -0.42493434956E+03  0.86042082135E+03  0.98780496948E+03  0.25500000920E-02 0. -1.
       -2    1    3    3    0  502 -0.23423378593E+03  0.42493434956E+03 -0.33500827980E+03  0.58963142339E+03  0.25500000920E-02 0.  1.
</event>
<event>
 5   0  0.5924403E-04  0.1494503E+04  0.7818609E-02  0.8888117E-01
        1   -1    0    0  501    0  0.00000000000E+00  0.00000000000E+00  0.16814685710E+04  0.16814685710E+04  0.50400001928E-02 0.  1.
       -1   -1    0    0    0  501  0.00000000000E+00  0.00000000000E+00 -0.33208157526E+03  0.33208157529E+03  0.50400001928E-02 0. -1.
    10030    2    1    2    0    0  0.00000000000E+00  0.00000000000E+00  0.13493869958E+04  0.20135501463E+04  0.14945029031E+04 0.  0.
        1    1    3    3  502    0  0.56369004234E+03 -0.47067851575E+03  0.48849232919E+03  0.88199177135E+03  0.50400001928E-02 0. -1.
       -1    1    3    3    0  502 -0.56369004234E+03  0.47067851575E+03  0.86089466656E+03  0.11315583750E+04  0.50400001928E-02 0.  1.
</event>
<event>
 5   0  0.1082667E-03  0.1507909E+04  0.7818609E-02  0.8879210E-01
        2   -1    0    0  501    0  0.00000000000E+00  0.00000000000E+00  0.15828279066E+04  0.15828279066E+04  0.25500000920E-02 0. -1.
       -2   -1    0    0    0  501  0.00000000000E+00  0.00000000000E+00 -0.35913423745E+03  0.35913423746E+03  0.25500000920E-02 0.  1.
    10030    2    1    2    0    0  0.00000000000E+00  0.00000000000E+00  0.12236936691E+04  0.19419621441E+04  0.15079094048E+04 0.  0.
        5    1    3    3  502    0 -0.40913851143E+03 -0.26324405104E+03 -0.12990803335E+03  0.50357714312E+03  0.46999998093E+01 0.  1.
       -5    1    3    3    0  502  0.40913851143E+03  0.26324405104E+03  0.13536017025E+04  0.14383850009E+04  0.46999998093E+01 0. -1.
</event>
<event>
 5   0  0.6146552E-04  0.1467750E+04  0.7818609E-02  0.8906187E-01
        1   -1    0    0  501    0  0.00000000000E+00  0.00000000000E+00  0.18739079392E+04  0.18739079392E+04  0.50400001928E-02 0.  1.
       -1   -1    0    0    0  501  0.00000000000E+00  0.00000000000E+00 -0.28740607986E+03  0.28740607991E+03  0.50400001928E-02 0. -1.
    10030    2    1    2    0    0  0.00000000000E+00  0.00000000000E+00  0.15865018593E+04  0.21613140191E+04  0.14677500262E+04 0.  0.
        5    1    3    3  502    0  0.14941042238E+03  0.71731352704E+03  0.85375537752E+03  0.11250700001E+04  0.46999998093E+01 0.  1.
       -5    1    3    3    0  502 -0.14941042238E+03 -0.71731352704E+03  0.73274648178E+03  0.10362440190E+04  0.46999998093E+01 0. -1.
</event>
<event>
 5   0  0.1126175E-03  0.1478047E+04  0.7818609E-02  0.8899184E-01
        2   -1    0    0  501    0  0.00000000000E+00  0.00000000000E+00  0.14929364204E+04  0.14929364204E+04  0.25500000920E-02 0.  1.
       -2   -1    0    0    0  501  0.00000000000E+00  0.00000000000E+00 -0.36582653028E+03  0.36582653029E+03  0.25500000920E-02 0. -1.
    10030    2    1    2    0    0  0.00000000000E+00  0.00000000000E+00  0.11271098901E+04  0.18587629507E+04  0.14780470231E+04 0.  0.
        3    1    3    3  502    0  0.43660599311E+03 -0.29112431902E+02  0.13125107584E+04  0.13835305664E+04  0.10100000352E+00 0.  1.
       -3    1    3    3    0  502 -0.43660599311E+03  0.29112431902E+02 -0.18540086832E+03  0.47523238430E+03  0.10100000352E+00 0. -1.
</event>
<event>
 5   0  0.1149716E-03  0.1465529E+04  0.7818609E-02  0.8907705E-01
       -2   -1    0    0    0  501  0.00000000000E+00  0.00000000000E+00  0.10412314144E+04  0.10412314144E+04  0.25500000920E-02 0.  1.
        2   -1    0    0  501    0  0.00000000000E+00  0.00000000000E+00 -0.51568130065E+03  0.51568130066E+03  0.25500000920E-02 0. -1.
    10030    2    1    2    0    0  0.00000000000E+00  0.00000000000E+00  0.52555011377E+03  0.15569127151E+04  0.14655286692E+04 0.  0.
        1    1    3    3  502    0  0.22258795094E+03 -0.37072441739E+03 -0.36568854682E+03  0.56631272532E+03  0.50400001928E-02 0. -1.
       -1    1    3    3    0  502 -0.22258795094E+03  0.37072441739E+03  0.89123866059E+03  0.99059998976E+03  0.50400001928E-02 0.  1.
</event>
<event>
 5   0  0.5914645E-04  0.1497011E+04  0.7818609E-02  0.8886443E-01
       -1   -1    0    0    0  501  0.00000000000E+00  0.00000000000E+00  0.31522584968E+03  0.31522584972E+03  0.50400001928E-02 0. -1.
        1   -1    0    0  501    0  0.00000000000E+00  0.00000000000E+00 -0.17773310223E+04  0.17773310223E+04  0.50400001928E-02 0.  1.
    10030    2    1    2    0    0  0.00000000000E+00  0.00000000000E+00 -0.14621051727E+04  0.20925568721E+04  0.14970112648E+04 0.  0.
        2    1    3    3  502    0 -0.43380378330E+03  0.58022635000E+03 -0.99409726906E+03  0.12300722418E+04  0.25500000920E-02 0. -1.
       -2    1    3    3    0  502  0.43380378330E+03 -0.58022635000E+03 -0.46800790361E+03  0.86248463029E+03  0.25500000920E-02 0.  1.
</event>
<event>
 5   0  0.5914645E-04  0.1503254E+04  0.7818609E-02  0.8882292E-01
       -1   -1    0    0    0  501  0.00000000000E+00  0.00000000000E+00  0.63377689193E+03  0.63377689195E+03  0.50400001928E-02 0. -1.
        1   -1    0    0  501    0  0.00000000000E+00  0.00000000000E+00 -0.89139138941E+03  0.89139138942E+03  0.50400001928E-02 0.  1.
    10030    2    1    2    0    0  0.00000000000E+00  0.00000000000E+00 -0.25761449748E+03  0.15251682814E+04  0.15032541559E+04 0.  0.
        2    1    3    3  502    0 -0.39972628986E+03  0.12227194413E+03 -0.76258284326E+03  0.86963447952E+03  0.25500000920E-02 0.  1.
       -2    1    3    3    0  502  0.39972628986E+03 -0.12227194413E+03  0.50496834577E+03  0.65553380185E+03  0.25500000920E-02 0. -1.
</event>
<event>
 5   0  0.1126175E-03  0.1450402E+04  0.7818609E-02  0.8918122E-01
        2   -1    0    0  501    0  0.00000000000E+00  0.00000000000E+00  0.13373172863E+04  0.13373172863E+04  0.25500000920E-02 0.  1.
       -2   -1    0    0    0  501  0.00000000000E+00  0.00000000000E+00 -0.39326219565E+03  0.39326219566E+03  0.25500000920E-02 0. -1.
    10030    2    1    2    0    0  0.00000000000E+00  0.00000000000E+00  0.94405509060E+03  0.17305794819E+04  0.14504017820E+04 0.  0.
        3    1    3    3  502    0 -0.46430122958E+03 -0.44109071686E+03  0.87802132429E+03  0.10867649739E+04  0.10100000352E+00 0.  1.
       -3    1    3    3    0  502  0.46430122958E+03  0.44109071686E+03  0.66033766316E+02  0.64381450806E+03  0.10100000352E+00 0. -1.
</event>
<event>
 5   0  0.1082667E-03  0.1526352E+04  0.7818609E-02  0.8867116E-01
        2   -1    0    0  501    0  0.00000000000E+00  0.00000000000E+00  0.11464762362E+04  0.11464762362E+04  0.25500000920E-02 0.  1.
       -2   -1    0    0    0  501  0.00000000000E+00  0.00000000000E+00 -0.50802382651E+03  0.50802382651E+03  0.25500000920E-02 0. -1.
    10030    2    1    2    0    0  0.00000000000E+00  0.00000000000E+00  0.63845240974E+03  0.16545000628E+04  0.15263515251E+04 0.  0.
        5    1    3    3  502    0  0.67848497793E+03 -0.36812390192E+01  0.69792893782E+03  0.97338702942E+03  0.46999998093E+01 0.  1.
       -5    1    3    3    0  502 -0.67848497793E+03  0.36812390192E+01 -0.59476528080E+02  0.68111303334E+03  0.46999998093E+01 0. -1.
</event>
<event>
 5   0  0.5606965E-04  0.1502073E+04  0.7818609E-02  0.8883076E-01
        1   -1    0    0  501    0  0.00000000000E+00  0.00000000000E+00  0.15914669597E+04  0.15914669597E+04  0.50400001928E-02 0.  1.
       -1   -1    0    0    0  501  0.00000000000E+00  0.00000000000E+00 -0.35442504618E+03  0.35442504621E+03  0.50400001928E-02 0. -1.
    10030    2    1    2    0    0  0.00000000000E+00  0.00000000000E+00  0.12370419135E+04  0.19458920059E+04  0.15020729020E+04 0.  0.
        4    1    3    3  502    0 -0.17164183491E+03 -0.39274632245E+03  0.14174638672E+04  0.14808497631E+04  0.12699999809E+01 0.  1.
       -4    1    3    3    0  502  0.17164183491E+03  0.39274632245E+03 -0.18042195368E+03  0.46504224277E+03  0.12699999809E+01 0. -1.
</event>
<event>
 5   0  0.5606965E-04  0.1478270E+04  0.7818609E-02  0.8899033E-01
       -1   -1    0    0    0  501  0.00000000000E+00  0.00000000000E+00  0.44314524636E+03  0.44314524638E+03  0.50400001928E-02 0. -1.
        1   -1    0    0  501    0  0.00000000000E+00  0.00000000000E+00 -0.12328246118E+04  0.12328246118E+04  0.50400001928E-02 0.  1.
    10030    2    1    2    0    0  0.00000000000E+00  0.00000000000E+00 -0.78967936540E+03  0.16759698581E+04  0.14782697539E+04 0.  0.
        4    1    3    3  502    0  0.17062884930E+03  0.30024104718E+03 -0.11357350695E+04  0.11870781995E+04  0.12699999809E+01 0.  1.
       -4    1    3    3    0  502 -0.17062884930E+03 -0.30024104718E+03  0.34605570415E+03  0.48889165865E+03  0.12699999809E+01 0. -1.
</event>
<event>
 5   0  0.5924403E-04  0.1509095E+04  0.7818609E-02  0.8878427E-01
       -1   -1    0    0    0  501  0.00000000000E+00  0.00000000000E+00  0.32387898642E+03  0.32387898646E+03  0.50400001928E-02 0.  1.
        1   -1    0    0  501    0  0.00000000000E+00  0.00000000000E+00 -0.17578842021E+04  0.17578842021E+04  0.50400001928E-02 0. -1.
    10030    2    1    2    0    0  0.00000000000E+00  0.00000000000E+00 -0.14340052157E+04  0.20817631886E+04  0.15090947666E+04 0.  0.
        1    1    3    3  502    0 -0.62872287711E+03 -0.41713937399E+03 -0.72615720022E+03  0.10471876589E+04  0.50400001928E-02 0. -1.
       -1    1    3    3    0  502  0.62872287711E+03  0.41713937399E+03 -0.70784801547E+03  0.10345755297E+04  0.50400001928E-02 0.  1.
</event>
<event>
 5   0  0.5924403E-04  0.1502384E+04  0.7818609E-02  0.8882869E-01
       -1   -1    0    0    0  501  0.00000000000E+00  0.00000000000E+00  0.62254454413E+03  0.62254454415E+03  0.50400001928E-02 0. -1.
        1   -1    0    0  501    0  0.00000000000E+00  0.00000000000E+00 -0.90642412221E+03  0.90642412222E+03  0.50400001928E-02 0.  1.
    10030    2    1    2    0    0  0.00000000000E+00  0.00000000000E+00 -0.28387957808E+03  0.15289686664E+04  0.15023839615E+04 0.  0.
        1    1    3    3  502    0 -0.43498354090E+03  0.50519996286E+03  0.21038221010E+03  0.69906963721E+03  0.50400001928E-02 0. -1.
       -1    1    3    3    0  502  0.43498354090E+03 -0.50519996286E+03 -0.49426178817E+03  0.82989902916E+03  0.50400001928E-02 0.  1.
</event>
<event>
 5   0  0.5914645E-04  0.1508531E+04  0.7818609E-02  0.8878800E-01
       -1   -1    0    0    0  501  0.00000000000E+00  0.00000000000E+00  0.61857298694E+03  0.61857298696E+03  0.50400001928E-02 0. -1.
        1   -1    0    0  501    0  0.00000000000E+00  0.00000000000E+00 -0.91972407320E+03  0.91972407321E+03  0.50400001928E-02 0.  1.
    10030    2    1    2    0    0  0.00000000000E+00  0.00000000000E+00 -0.30115108627E+03  0.15382970602E+04  0.15085310300E+04 0.  0.
        2    1    3    3  502    0 -0.55325372661E+02 -0.11761155326E+03  0.60706740467E+03  0.62082542485E+03  0.25500000920E-02 0. -1.
       -2    1    3    3    0  502  0.55325372661E+02  0.11761155326E+03 -0.90821849094E+03  0.91747163532E+03  0.25500000920E-02 0.  1.
</event>
<event>
 5   0  0.6146552E-04  0.1483779E+04  0.7818609E-02  0.8895312E-01
        1   -1    0    0  501    0  0.00000000000E+00  0.00000000000E+00  0.94118710755E+03  0.94118710756E+03  0.50400001928E-02 0.  1.
       -1   -1    0    0    0  501  0.00000000000E+00  0.00000000000E+00 -0.58479346422E+03  0.58479346424E+03  0.50400001928E-02 0. -1.
    10030    2    1    2    0    0  0.00000000000E+00  0.00000000000E+00  0.35639364333E+03  0.15259805718E+04  0.14837790525E+04 0.  0.
        5    1    3    3  502    0 -0.12136237979E+03  0.68077877215E+03 -0.98125857407E+02  0.69845496471E+03  0.46999998093E+01 0. -1.
       -5    1    3    3    0  502  0.12136237979E+03 -0.68077877215E+03  0.45451950074E+03  0.82752560709E+03  0.46999998093E+01 0.  1.
</event>
<event>
 5   0  0.5914645E-04  0.1486633E+04  0.7818609E-02  0.8893391E-01
        1   -1    0    0  501    0  0.00000000000E+00  0.00000000000E+00  0.96568346411E+03  0.96568346413E+03  0.50400001928E-02 0. -1.
       -1   -1    0    0    0  501  0.00000000000E+00  0.00000000000E+00 -0.57215405165E+03  0.57215405168E+03  0.50400001928E-02 0.  1.
    10030    2    1    2    0    0  0.00000000000E+00  0.00000000000E+00  0.39352941246E+03  0.15378375158E+04  0.14866333867E+04 0.  0.
        2    1    3    3  502    0 -0.51052368457E+03  0.36506087925E+03  0.60874821450E+03  0.87434447830E+03  0.25500000920E-02 0.  1.
       -2    1    3    3    0  502  0.51052368457E+03 -0.36506087925E+03 -0.21521880204E+03  0.66349303751E+03  0.25500000920E-02 0. -1.
</event>
<event>
 5   0  0.1149716E-03  0.1507129E+04  0.7818609E-02  0.8879726E-01
        2   -1    0    0  501    0  0.00000000000E+00  0.00000000000E+00  0.99934904522E+03  0.99934904523E+03  0.25500000920E-02 0. -1.
       -2   -1    0    0    0  501  0.00000000000E+00  0.00000000000E+00 -0.56822910251E+03  0.56822910251E+03  0.25500000920E-02 0.  1.
    10030    2    1    2    0    0  0.00000000000E+00  0.00000000000E+00  0.43111994272E+03  0.15675781477E+04  0.15071286754E+04 0.  0.
        1    1    3    3  502    0 -0.57926112681E+03 -0.37785501780E+03  0.52679657750E+03  0.86938627871E+03  0.50400001928E-02 0. -1.
       -1    1    3    3    0  502  0.57926112681E+03  0.37785501780E+03 -0.95676634786E+02  0.69819186903E+03  0.50400001928E-02 0.  1.
</event>
<event>
 5   0  0.1149716E-03  0.1246211E+04  0.7818609E-02  0.9073342E-01
        2   -1    0    0  501    0  0.00000000000E+00  0.00000000000E+00  0.56381924627E+03  0.56381924627E+03  0.25500000920E-02 0. -1.
       -2   -1    0    0    0  501  0.00000000000E+00  0.00000000000E+00 -0.68862622605E+03  0.68862622605E+03  0.25500000920E-02 0.  1.
    10030    2    1    2    0    0  0.00000000000E+00  0.00000000000E+00 -0.12480697978E+03  0.12524454723E+04  0.12462114102E+04 0.  0.
        1    1    3    3  502    0  0.83472784355E+02 -0.61735282372E+03 -0.75449374716E+02  0.62752276680E+03  0.50400001928E-02 0.  1.
       -1    1    3    3    0  502 -0.83472784355E+02  0.61735282372E+03 -0.49357605068E+02  0.62492270553E+03  0.50400001928E-02 0. -1.
</event>
<event>
 5   0  0.1097156E-03  0.1501098E+04  0.7818609E-02  0.8883723E-01
        2   -1    0    0  501    0  0.00000000000E+00  0.00000000000E+00  0.10582391034E+04  0.10582391034E+04  0.25500000920E-02 0. -1.
       -2   -1    0    0    0  501  0.00000000000E+00  0.00000000000E+00 -0.53232198739E+03  0.53232198739E+03  0.25500000920E-02 0.  1.
    10030    2    1    2    0    0  0.00000000000E+00  0.00000000000E+00  0.52591711597E+03  0.15905610908E+04  0.15010981882E+04 0.  0.
        2    1    3    3  502    0 -0.50752262411E+03 -0.36672074045E+03 -0.17554186696E+03  0.65029090607E+03  0.25500000920E-02 0.  1.
       -2    1    3    3    0  502  0.50752262411E+03  0.36672074045E+03  0.70145898293E+03  0.94027018468E+03  0.25500000920E-02 0. -1.
</event>
<event>
 5   0  0.5606965E-04  0.1517248E+04  0.7818609E-02  0.8873063E-01
       -1   -1    0    0    0  501  0.00000000000E+00  0.00000000000E+00  0.18711721764E+03  0.18711721770E+03  0.50400001928E-02 0. -1.
        1   -1    0    0  501    0  0.00000000000E+00  0.00000000000E+00 -0.30756681147E+04  0.30756681147E+04  0.50400001928E-02 0.  1.
    10030    2    1    2    0    0  0.00000000000E+00  0.00000000000E+00 -0.28885508970E+04  0.32627853324E+04  0.15172481143E+04 0.  0.
        4    1    3    3  502    0 -0.61345776517E+03 -0.33703163787E+03 -0.81514809380E+03  0.10744248612E+04  0.12699999809E+01 0. -1.
       -4    1    3    3    0  502  0.61345776517E+03  0.33703163787E+03 -0.20734028032E+04  0.21883604712E+04  0.12699999809E+01 0.  1.
</event>
<event>
 5   0  0.5606965E-04  0.1506045E+04  0.7818609E-02  0.8880443E-01
        1   -1    0    0  501    0  0.00000000000E+00  0.00000000000E+00  0.15051700830E+04  0.15051700830E+04  0.50400001928E-02 0.  1.
       -1   -1    0    0    0  501  0.00000000000E+00  0.00000000000E+00 -0.37673005898E+03  0.37673005902E+03  0.50400001928E-02 0. -1.
    10030    2    1    2    0    0  0.00000000000E+00  0.00000000000E+00  0.11284400240E+04  0.18819001420E+04  0.15060449053E+04 0.  0.
        4    1    3    3  502    0 -0.38312518252E+03 -0.44669763212E+02  0.13723519890E+04  0.14255286346E+04  0.12699999809E+01 0.  1.
       -4    1    3    3    0  502  0.38312518252E+03  0.44669763212E+02 -0.24391196504E+03  0.45637150745E+03  0.12699999809E+01 0. -1.
</event>
<event>
 5   0  0.5924403E-04  0.1466237E+04  0.7818609E-02  0.8907220E-01
        1   -1    0    0  501    0  0.00000000000E+00  0.00000000000E+00  0.84183325505E+03  0.84183325506E+03  0.50400001928E-02 0. -1.
       -1   -1    0    0    0  501  0.00000000000E+00  0.00000000000E+00 -0.63844355411E+03  0.63844355413E+03  0.50400001928E-02 0.  1.
    10030    2    1    2    0    0  0.00000000000E+00  0.00000000000E+00  0.20338970094E+03  0.14802768092E+04  0.14662373823E+04 0.  0.
        1    1    3    3  502    0 -0.23956911693E+03  0.69084789724E+03  0.48284256826E+02  0.73279980103E+03  0.50400001928E-02 0.  1.
       -1    1    3    3    0  502  0.23956911693E+03 -0.69084789724E+03  0.15510544411E+03  0.74747700816E+03  0.50400001928E-02 0. -1.
</event>
<event>
 5   0  0.5914645E-04  0.1422546E+04  0.7818609E-02  0.8937658E-01
       -1   -1    0    0    0  501  0.00000000000E+00  0.00000000000E+00  0.41589032759E+03  0.41589032762E+03  0.50400001928E-02 0. -1.
        1   -1    0    0  501    0  0.00000000000E+00  0.00000000000E+00 -0.12164488182E+04  0.12164488182E+04  0.50400001928E-02 0.  1.
    10030    2    1    2    0    0  0.00000000000E+00  0.00000000000E+00 -0.80055849057E+03  0.16323391458E+04  0.14225460239E+04 0.  0.
        2    1    3    3  502    0 -0.59598932706E+03 -0.25685561219E+02 -0.84476379929E+03  0.10341609655E+04  0.25500000920E-02 0. -1.
       -2    1    3    3    0  502  0.59598932706E+03  0.25685561219E+02  0.44205308723E+02  0.59817818027E+03  0.25500000920E-02 0.  1.
</event>
<event>
 5   0  0.5914645E-04  0.1484104E+04  0.7818609E-02  0.8895093E-01
        1   -1    0    0  501    0  0.00000000000E+00  0.00000000000E+00  0.43050044181E+03  0.43050044184E+03  0.50400001928E-02 0.  1.
       -1   -1    0    0    0  501  0.00000000000E+00  0.00000000000E+00 -0.12790719019E+04  0.12790719019E+04  0.50400001928E-02 0. -1.
    10030    2    1    2    0    0  0.00000000000E+00  0.00000000000E+00 -0.84857146007E+03  0.17095723437E+04  0.14841037954E+04 0.  0.
        2    1    3    3  502    0  0.33177668132E+03  0.95574268385E+02  0.33233595973E+03  0.47922583108E+03  0.25500000920E-02 0.  1.
       -2    1    3    3    0  502 -0.33177668132E+03 -0.95574268385E+02 -0.11809074198E+04  0.12303465126E+04  0.25500000920E-02 0. -1.
</event>
<event>
 5   0  0.1126175E-03  0.1506331E+04  0.7818609E-02  0.8880254E-01
       -2   -1    0    0    0  501  0.00000000000E+00  0.00000000000E+00  0.29761035156E+03  0.29761035157E+03  0.25500000920E-02 0. -1.
        2   -1    0    0  501    0  0.00000000000E+00  0.00000000000E+00 -0.19060434006E+04  0.19060434006E+04  0.25500000920E-02 0.  1.
    10030    2    1    2    0    0  0.00000000000E+00  0.00000000000E+00 -0.16084330490E+04  0.22036537522E+04  0.15063309683E+04 0.  0.
        3    1    3    3  502    0  0.28017565063E+02 -0.45688111645E+03  0.70772071551E+02  0.46317818907E+03  0.10100000352E+00 0. -1.
       -3    1    3    3    0  502 -0.28017565063E+02  0.45688111645E+03 -0.16792051206E+04  0.17404755631E+04  0.10100000352E+00 0.  1.
</event>
<event>
 5   0  0.1149716E-03  0.1505951E+04  0.7818609E-02  0.8880505E-01
        2   -1    0    0  501    0  0.00000000000E+00  0.00000000000E+00  0.84295286095E+03  0.84295286095E+03  0.25500000920E-02 0. -1.
       -2   -1    0    0    0  501  0.00000000000E+00  0.00000000000E+00 -0.67260250024E+03  0.67260250024E+03  0.25500000920E-02 0.  1.
    10030    2    1    2    0    0  0.00000000000E+00  0.00000000000E+00  0.17035036071E+03  0.15155553612E+04  0.15059511305E+04 0.  0.
        1    1    3    3  502    0  0.10847500648E+03  0.26604946423E+03 -0.61526867457E+03  0.67904689557E+03  0.50400001928E-02 0.  1.
       -1    1    3    3    0  502 -0.10847500648E+03 -0.26604946423E+03  0.78561903528E+03  0.83650846563E+03  0.50400001928E-02 0. -1.
</event>
<event>
 5   0  0.1126175E-03  0.1600977E+04  0.7818609E-02  0.8819948E-01
        2   -1    0    0  501    0  0.00000000000E+00  0.00000000000E+00  0.12216929773E+04  0.12216929773E+04  0.25500000920E-02 0. -1.
       -2   -1    0    0    0  501  0.00000000000E+00  0.00000000000E+00 -0.52450328617E+03  0.52450328618E+03  0.25500000920E-02 0.  1.
    10030    2    1    2    0    0  0.00000000000E+00  0.00000000000E+00  0.69718969115E+03  0.17461962635E+04  0.16009771782E+04 0.  0.
        3    1    3    3  502    0 -0.46585528656E+03 -0.64674450565E+03  0.26783564980E+03  0.84085405934E+03  0.10100000352E+00 0.  1.
       -3    1    3    3    0  502  0.46585528656E+03  0.64674450565E+03  0.42935404135E+03  0.90534220416E+03  0.10100000352E+00 0. -1.
</event>
<event>
 5   0  0.5924403E-04  0.1505017E+04  0.7818609E-02  0.8881124E-01
        1   -1    0    0  501    0  0.00000000000E+00  0.00000000000E+00  0.18051724921E+04  0.18051724921E+04  0.50400001928E-02 0.  1.
       -1   -1    0    0    0  501  0.00000000000E+00  0.00000000000E+00 -0.31369239628E+03  0.31369239632E+03  0.50400001928E-02 0. -1.
    10030    2    1    2    0    0  0.00000000000E+00  0.00000000000E+00  0.14914800958E+04  0.21188648884E+04  0.15050167903E+04 0.  0.
        1    1    3    3  502    0 -0.42227846541E+03  0.61219651734E+02  0.16183932652E+04  0.16736976157E+04  0.50400001928E-02 0.  1.
       -1    1    3    3    0  502  0.42227846541E+03 -0.61219651734E+02 -0.12691316935E+03  0.44516727270E+03  0.50400001928E-02 0. -1.
</event>
<event>
 5   0  0.1097156E-03  0.1517983E+04  0.7818609E-02  0.8872582E-01
        2   -1    0    0  501    0  0.00000000000E+00  0.00000000000E+00  0.11686804656E+04  0.11686804656E+04  0.25500000920E-02 0. -1.
       -2   -1    0    0    0  501  0.00000000000E+00  0.00000000000E+00 -0.49292163320E+03  0.49292163321E+03  0.25500000920E-02 0.  1.
    10030    2    1    2    0    0  0.00000000000E+00  0.00000000000E+00  0.67575883241E+03  0.16616020988E+04  0.15179827190E+04 0.  0.
        2    1    3    3  502    0 -0.54594845862E+00  0.66766161197E+03  0.73299577331E+03  0.99149136651E+03  0.25500000920E-02 0. -1.
       -2    1    3    3    0  502  0.54594845862E+00 -0.66766161197E+03 -0.57236940907E+02  0.67011073232E+03  0.25500000920E-02 0.  1.
</event>
<event>
 5   0  0.1097156E-03  0.1496498E+04  0.7818609E-02  0.8886785E-01
        2   -1    0    0  501    0  0.00000000000E+00  0.00000000000E+00  0.86975676945E+03  0.86975676945E+03  0.25500000920E-02 0.  1.
       -2   -1    0    0    0  501  0.00000000000E+00  0.00000000000E+00 -0.64371593171E+03  0.64371593171E+03  0.25500000920E-02 0. -1.
    10030    2    1    2    0    0  0.00000000000E+00  0.00000000000E+00  0.22604083774E+03  0.15134727012E+04  0.14964976301E+04 0.  0.
        2    1    3    3  502    0 -0.60899079411E+03 -0.40380433951E+03 -0.49892365665E+02  0.73240492903E+03  0.25500000920E-02 0. -1.
       -2    1    3    3    0  502  0.60899079411E+03  0.40380433951E+03  0.27593320341E+03  0.78106777213E+03  0.25500000920E-02 0.  1.
</event>
<event>
 5   0  0.5924403E-04  0.1495370E+04  0.7818609E-02  0.8887538E-01
       -1   -1    0    0    0  501  0.00000000000E+00  0.00000000000E+00  0.35458679591E+03  0.35458679594E+03  0.50400001928E-02 0. -1.
        1   -1    0    0  501    0  0.00000000000E+00  0.00000000000E+00 -0.15765752288E+04  0.15765752288E+04  0.50400001928E-02 0.  1.
    10030    2    1    2    0    0  0.00000000000E+00  0.00000000000E+00 -0.12219884329E+04  0.19311620247E+04  0.14953698659E+04 0.  0.
        1    1    3    3  502    0  0.31058027091E+02  0.60784134049E+03 -0.50156063645E+02  0.61069741035E+03  0.50400001928E-02 0. -1.
       -1    1    3    3    0  502 -0.31058027091E+02 -0.60784134049E+03 -0.11718323692E+04  0.13204646144E+04  0.50400001928E-02 0.  1.
</event>
<event>
 5   0  0.5606965E-04  0.1648718E+04  0.7818609E-02  0.8791165E-01
       -1   -1    0    0    0  501  0.00000000000E+00  0.00000000000E+00  0.91943940965E+03  0.91943940967E+03  0.50400001928E-02 0.  1.
        1   -1    0    0  501    0  0.00000000000E+00  0.00000000000E+00 -0.73911122557E+03  0.73911122559E+03  0.50400001928E-02 0. -1.
    10030    2    1    2    0    0  0.00000000000E+00  0.00000000000E+00  0.18032818408E+03  0.16585506353E+04  0.16487182766E+04 0.  0.
        4    1    3    3  502    0  0.69779352971E+03  0.38936806273E+03  0.29396318295E+03  0.85143365226E+03  0.12699999809E+01 0.  1.
       -4    1    3    3    0  502 -0.69779352971E+03 -0.38936806273E+03 -0.11363499887E+03  0.80711698300E+03  0.12699999809E+01 0. -1.
</event>
<event>
 5   0  0.6146552E-04  0.1538292E+04  0.7818609E-02  0.8859381E-01
       -1   -1    0    0    0  501  0.00000000000E+00  0.00000000000E+00  0.46446113877E+03  0.46446113879E+03  0.50400001928E-02 0.  1.
        1   -1    0    0  501    0  0.00000000000E+00  0.00000000000E+00 -0.12737025395E+04  0.12737025395E+04  0.50400001928E-02 0. -1.
    10030    2    1    2    0    0  0.00000000000E+00  0.00000000000E+00 -0.80924140071E+03  0.17381636783E+04  0.15382916914E+04 0.  0.
        5    1    3    3  502    0  0.28367234542E+03  0.37617564222E+03 -0.10915455382E+04  0.11888952289E+04  0.46999998093E+01 0. -1.
       -5    1    3    3    0  502 -0.28367234542E+03 -0.37617564222E+03  0.28230413754E+03  0.54926844933E+03  0.46999998093E+01 0.  1.
</event>
<event>
 5   0  0.1147755E-03  0.1450280E+04  0.7818609E-02  0.8918206E-01
       -2   -1    0    0    0  501  0.00000000000E+00  0.00000000000E+00  0.14256743130E+04  0.14256743130E+04  0.25500000920E-02 0. -1.
        2   -1    0    0  501    0  0.00000000000E+00  0.00000000000E+00 -0.36882770070E+03  0.36882770071E+03  0.25500000920E-02 0.  1.
    10030    2    1    2    0    0  0.00000000000E+00  0.00000000000E+00  0.10568466123E+04  0.17945020137E+04  0.14502802196E+04 0.  0.
        4    1    3    3  502    0 -0.42321195340E+02 -0.23554194584E+03  0.13754020952E+04  0.13960672004E+04  0.12699999809E+01 0. -1.
       -4    1    3    3    0  502  0.42321195340E+02  0.23554194584E+03 -0.31855548290E+03  0.39843481325E+03  0.12699999809E+01 0.  1.
</event>
<event>
 5   0  0.6146552E-04  0.1494168E+04  0.7818609E-02  0.8888340E-01
       -1   -1    0    0    0  501  0.00000000000E+00  0.00000000000E+00  0.44676771182E+03  0.44676771185E+03  0.50400001928E-02 0.  1.
        1   -1    0    0  501    0  0.00000000000E+00  0.00000000000E+00 -0.12492727577E+04  0.12492727577E+04  0.50400001928E-02 0. -1.
    10030    2    1    2    0    0  0.00000000000E+00  0.00000000000E+00 -0.80250504584E+03  0.16960404695E+04  0.14941683057E+04 0.  0.
        5    1    3    3  502    0 -0.54092157269E+03 -0.43446069659E+03 -0.86763641156E+02  0.69921546329E+03  0.46999998093E+01 0.  1.
       -5    1    3    3    0  502  0.54092157269E+03  0.43446069659E+03 -0.71574140468E+03  0.99682500623E+03  0.46999998093E+01 0. -1.
</event>
<event>
 5   0  0.1126175E-03  0.1427417E+04  0.7818609E-02  0.8934208E-01
        2   -1    0    0  501    0  0.00000000000E+00  0.00000000000E+00  0.10186635714E+04  0.10186635714E+04  0.25500000920E-02 0.  1.
       -2   -1    0    0    0  501  0.00000000000E+00  0.00000000000E+00 -0.50004732628E+03  0.50004732629E+03  0.25500000920E-02 0. -1.
    10030    2    1    2    0    0  0.00000000000E+00  0.00000000000E+00  0.51861624509E+03  0.15187108977E+04  0.14274172414E+04 0.  0.
        3    1    3    3  502    0  0.12523115573E+03  0.18459900042E+03  0.98062118411E+03  0.10056726854E+04  0.10100000352E+00 0.  1.
       -3    1    3    3    0  502 -0.12523115573E+03 -0.18459900042E+03 -0.46200493902E+03  0.51303821222E+03  0.10100000352E+00 0. -1.
</event>
<event>
 5   0  0.6146552E-04  0.1492561E+04  0.7818609E-02  0.8889415E-01
        1   -1    0    0  501    0  0.00000000000E+00  0.00000000000E+00  0.91571599737E+03  0.91571599738E+03  0.50400001928E-02 0.  1.
       -1   -1    0    0    0  501  0.00000000000E+00  0.00000000000E+00 -0.60819567154E+03  0.60819567156E+03  0.50400001928E-02 0. -1.
    10030    2    1    2    0    0  0.00000000000E+00  0.00000000000E+00  0.30752032583E+03  0.15239116689E+04  0.14925608946E+04 0.  0.
        5    1    3    3  502    0  0.41901425832E+03 -0.12538700911E+03  0.77112410713E+03  0.88653783299E+03  0.46999998093E+01 0.  1.
       -5    1    3    3    0  502 -0.41901425832E+03  0.12538700911E+03 -0.46360378130E+03  0.63737383596E+03  0.46999998093E+01 0. -1.
</event>
<event>
 5   0  0.5840834E-04  0.1497610E+04  0.7818609E-02  0.8886044E-01
        1   -1    0    0  501    0  0.00000000000E+00  0.00000000000E+00  0.14761100589E+04  0.14761100589E+04  0.50400001928E-02 0. -1.
       -1   -1    0    0    0  501  0.00000000000E+00  0.00000000000E+00 -0.37985582738E+03  0.37985582741E+03  0.50400001928E-02 0.  1.
    10030    2    1    2    0    0  0.00000000000E+00  0.00000000000E+00  0.10962542315E+04  0.18559658863E+04  0.14976101065E+04 0.  0.
        3    1    3    3  502    0  0.50891312528E+03  0.52594900049E+03  0.74444363417E+03  0.10439402544E+04  0.10100000352E+00 0.  1.
       -3    1    3    3    0  502 -0.50891312528E+03 -0.52594900049E+03  0.35181059732E+03  0.81202563185E+03  0.10100000352E+00 0. -1.
</event>
<event>
 5   0  0.5840834E-04  0.1476710E+04  0.7818609E-02  0.8900090E-01
        1   -1    0    0  501    0  0.00000000000E+00  0.00000000000E+00  0.10869067320E+04  0.10869067320E+04  0.50400001928E-02 0. -1.
       -1   -1    0    0    0  501  0.00000000000E+00  0.00000000000E+00 -0.50157788523E+03  0.50157788526E+03  0.50400001928E-02 0.  1.
    10030    2    1    2    0    0  0.00000000000E+00  0.00000000000E+00  0.58532884677E+03  0.15884846173E+04  0.14767103712E+04 0.  0.
        3    1    3    3  502    0  0.26430528608E+03 -0.61160035805E+03  0.63495761438E+03  0.92037137313E+03  0.10100000352E+00 0. -1.
       -3    1    3    3    0  502 -0.26430528608E+03  0.61160035805E+03 -0.49628767609E+02  0.66811324414E+03  0.10100000352E+00 0.  1.
</event>
<event>
 5   0  0.6146552E-04  0.1526279E+04  0.7818609E-02  0.8867163E-01
        1   -1    0    0  501    0  0.00000000000E+00  0.00000000000E+00  0.11035071250E+04  0.11035071250E+04  0.50400001928E-02 0. -1.
       -1   -1    0    0    0  501  0.00000000000E+00  0.00000000000E+00 -0.52775541347E+03  0.52775541349E+03  0.50400001928E-02 0.  1.
    10030    2    1    2    0    0  0.00000000000E+00  0.00000000000E+00  0.57575171151E+03  0.16312625385E+04  0.15262789510E+04 0.  0.
        5    1    3    3  502    0  0.52320271359E+03  0.91095922430E+02  0.87358531296E+03  0.10223565599E+04  0.46999998093E+01 0. -1.
       -5    1    3    3    0  502 -0.52320271359E+03 -0.91095922430E+02 -0.29783360145E+03  0.60890597857E+03  0.46999998093E+01 0.  1.
</event>
<event>
 5   0  0.1147755E-03  0.1494859E+04  0.7818609E-02  0.8887879E-01
        2   -1    0    0  501    0  0.00000000000E+00  0.00000000000E+00  0.13774020142E+04  0.13774020142E+04  0.25500000920E-02 0. -1.
       -2   -1    0    0    0  501  0.00000000000E+00  0.00000000000E+00 -0.40558312536E+03  0.40558312537E+03  0.25500000920E-02 0.  1.
    10030    2    1    2    0    0  0.00000000000E+00  0.00000000000E+00  0.97181888879E+03  0.17829851395E+04  0.14948592091E+04 0.  0.
        4    1    3    3  502    0  0.51625501843E+02  0.10167812256E+03  0.13669640541E+04  0.13717127874E+04  0.12699999809E+01 0. -1.
       -4    1    3    3    0  502 -0.51625501843E+02 -0.10167812256E+03 -0.39514516530E+03  0.41127235211E+03  0.12699999809E+01 0.  1.
</event>
<event>
 5   0  0.1126175E-03  0.1497410E+04  0.7818609E-02  0.8886177E-01
        2   -1    0    0  501    0  0.00000000000E+00  0.00000000000E+00  0.21241730033E+04  0.21241730033E+04  0.25500000920E-02 0.  1.
       -2   -1    0    0    0  501  0.00000000000E+00  0.00000000000E+00 -0.26389510120E+03  0.26389510121E+03  0.25500000920E-02 0. -1.
    10030    2    1    2    0    0  0.00000000000E+00  0.00000000000E+00  0.18602779021E+04  0.23880681045E+04  0.14974095628E+04 0.  0.
        3    1    3    3  502    0 -0.16636193517E+03 -0.34021868612E+03 -0.99876625337E+02  0.39166362909E+03  0.10100000352E+00 0. -1.
       -3    1    3    3    0  502  0.16636193517E+03  0.34021868612E+03  0.19601545274E+04  0.19964044754E+04  0.10100000352E+00 0.  1.
</event>
<event>
 5   0  0.1097156E-03  0.1503265E+04  0.7818609E-02  0.8882285E-01
       -2   -1    0    0    0  501  0.00000000000E+00  0.00000000000E+00  0.44028294937E+03  0.44028294938E+03  0.25500000920E-02 0. -1.
        2   -1    0    0  501    0  0.00000000000E+00  0.00000000000E+00 -0.12831544891E+04  0.12831544891E+04  0.25500000920E-02 0.  1.
    10030    2    1    2    0    0  0.00000000000E+00  0.00000000000E+00 -0.84287153976E+03  0.17234374385E+04  0.15032645050E+04 0.  0.
        2    1    3    3  502    0 -0.66402461266E+03  0.32610453573E+03 -0.26900276859E+03  0.78716919652E+03  0.25500000920E-02 0. -1.
       -2    1    3    3    0  502  0.66402461266E+03 -0.32610453573E+03 -0.57386877117E+03  0.93626824199E+03  0.25500000920E-02 0.  1.
</event>
<event>
 5   0  0.1149716E-03  0.1467749E+04  0.7818609E-02  0.8906187E-01
        2   -1    0    0  501    0  0.00000000000E+00  0.00000000000E+00  0.78562657426E+03  0.78562657426E+03  0.25500000920E-02 0.  1.
       -2   -1    0    0    0  501  0.00000000000E+00  0.00000000000E+00 -0.68553145669E+03  0.68553145669E+03  0.25500000920E-02 0. -1.
    10030    2    1    2    0    0  0.00000000000E+00  0.00000000000E+00  0.10009511757E+03  0.14711580310E+04  0.14677489293E+04 0.  0.
        1    1    3    3  502    0  0.49031913909E+03  0.18532656295E+03  0.56486778240E+03  0.77060651744E+03  0.50400001928E-02 0.  1.
       -1    1    3    3    0  502 -0.49031913909E+03 -0.18532656295E+03 -0.46477266483E+03  0.70055151352E+03  0.50400001928E-02 0. -1.
</event>
<event>
 5   0  0.1082667E-03  0.1472987E+04  0.7818609E-02  0.8902618E-01
        2   -1    0    0  501    0  0.00000000000E+00  0.00000000000E+00  0.71015346690E+03  0.71015346691E+03  0.25500000920E-02 0. -1.
       -2   -1    0    0    0  501  0.00000000000E+00  0.00000000000E+00 -0.76381008347E+03  0.76381008347E+03  0.25500000920E-02 0.  1.
    10030    2    1    2    0    0  0.00000000000E+00  0.00000000000E+00 -0.53656616566E+02  0.14739635504E+04  0.14729865971E+04 0.  0.
        5    1    3    3  502    0  0.49637883061E+03 -0.67462481917E+02  0.51339748063E+03  0.71731596459E+03  0.46999998093E+01 0. -1.
       -5    1    3    3    0  502 -0.49637883061E+03  0.67462481917E+02 -0.56705409720E+03  0.75664758579E+03  0.46999998093E+01 0.  1.
</event>
<event>
 5   0  0.1126175E-03  0.1500070E+04  0.7818609E-02  0.8884406E-01
        2   -1    0    0  501    0  0.00000000000E+00  0.00000000000E+00  0.13298426152E+04  0.13298426152E+04  0.25500000920E-02 0. -1.
       -2   -1    0    0    0  501  0.00000000000E+00  0.00000000000E+00 -0.42302177578E+03  0.42302177579E+03  0.25500000920E-02 0.  1.
    10030    2    1    2    0    0  0.00000000000E+00  0.00000000000E+00  0.90682083939E+03  0.17528643910E+04  0.15000698445E+04 0.  0.
        3    1    3    3  502    0  0.89143860535E+02 -0.73414246454E+03  0.59954849387E+03  0.95203476450E+03  0.10100000352E+00 0. -1.
       -3    1    3    3    0  502 -0.89143860535E+02  0.73414246454E+03  0.30727234552E+03  0.80082962647E+03  0.10100000352E+00 0.  1.
</event>
<event>
 5   0  0.5924403E-04  0.1586619E+04  0.7818609E-02  0.8828811E-01
       -1   -1    0    0    0  501  0.00000000000E+00  0.00000000000E+00  0.14492250669E+04  0.14492250669E+04  0.50400001928E-02 0.  1.
        1   -1    0    0  501    0  0.00000000000E+00  0.00000000000E+00 -0.43425955196E+03  0.43425955199E+03  0.50400001928E-02 0. -1.
    10030    2    1    2    0    0  0.00000000000E+00  0.00000000000E+00  0.10149655149E+04  0.18834846189E+04  0.15866188304E+04 0.  0.
        1    1    3    3  502    0 -0.87707237466E+02  0.29804562635E+03 -0.35903632760E+03  0.47479557648E+03  0.50400001928E-02 0. -1.
       -1    1    3    3    0  502  0.87707237466E+02 -0.29804562635E+03  0.13740018425E+04  0.14086890424E+04  0.50400001928E-02 0.  1.
</event>
<event>
 5   0  0.5840834E-04  0.1511744E+04  0.7818609E-02  0.8876681E-01
       -1   -1    0    0    0  501  0.00000000000E+00  0.00000000000E+00  0.51794513421E+03  0.51794513423E+03  0.50400001928E-02 0.  1.
        1   -1    0    0  501    0  0.00000000000E+00  0.00000000000E+00 -0.11030949053E+04  0.11030949053E+04  0.50400001928E-02 0. -1.
    10030    2    1    2    0    0  0.00000000000E+00  0.00000000000E+00 -0.58514977111E+03  0.16210400396E+04  0.15117442096E+04 0.  0.
        3    1    3    3  502    0  0.47230432666E+03 -0.53942723951E+03 -0.35917974720E+02  0.71787410792E+03  0.10100000352E+00 0.  1.
       -3    1    3    3    0  502 -0.47230432666E+03  0.53942723951E+03 -0.54923179639E+03  0.90316593164E+03  0.10100000352E+00 0. -1.
</event>
<event>
 5   0  0.6146552E-04  0.1371725E+04  0.7818609E-02  0.8974543E-01
        1   -1    0    0  501    0  0.00000000000E+00  0.00000000000E+00  0.14830098042E+04  0.14830098042E+04  0.50400001928E-02 0. -1.
       -1   -1    0    0    0  501  0.00000000000E+00  0.00000000000E+00 -0.31719796643E+03  0.31719796647E+03  0.50400001928E-02 0.  1.
    10030    2    1    2    0    0  0.00000000000E+00  0.00000000000E+00  0.11658118378E+04  0.18002077707E+04  0.13717254742E+04 0.  0.
        5    1    3    3  502    0 -0.23024444407E+03 -0.32494788906E+03 -0.14988642989E+03  0.42554866525E+03  0.46999998093E+01 0.  1.
       -5    1    3    3    0  502  0.23024444407E+03  0.32494788906E+03  0.13156982677E+04  0.13746591054E+04  0.46999998093E+01 0. -1.
</event>
<event>
 5   0  0.5840834E-04  0.1513621E+04  0.7818609E-02  0.8875445E-01
        1   -1    0    0  501    0  0.00000000000E+00  0.00000000000E+00  0.13738804496E+04  0.13738804496E+04  0.50400001928E-02 0. -1.
       -1   -1    0    0    0  501  0.00000000000E+00  0.00000000000E+00 -0.41689394228E+03  0.41689394231E+03  0.50400001928E-02 0.  1.
    10030    2    1    2    0    0  0.00000000000E+00  0.00000000000E+00  0.95698650733E+03  0.17907743919E+04  0.15136214017E+04 0.  0.
        3    1    3    3  502    0  0.50606304150E+03 -0.34894965575E+03 -0.43813844618E+02  0.61626725322E+03  0.10100000352E+00 0.  1.
       -3    1    3    3    0  502 -0.50606304150E+03  0.34894965575E+03  0.10008003520E+04  0.11745071387E+04  0.10100000352E+00 0. -1.
</event>
<event>
 5   0  0.1097156E-03  0.1710221E+04  0.7818609E-02  0.8755556E-01
       -2   -1    0    0    0  501  0.00000000000E+00  0.00000000000E+00  0.79766563006E+03  0.79766563006E+03  0.25500000920E-02 0. -1.
        2   -1    0    0  501    0  0.00000000000E+00  0.00000000000E+00 -0.91669246527E+03  0.91669246527E+03  0.25500000920E-02 0.  1.
    10030    2    1    2    0    0  0.00000000000E+00  0.00000000000E+00 -0.11902683521E+03  0.17143580953E+04  0.17102211236E+04 0.  0.
        2    1    3    3  502    0  0.37164795471E+03  0.75912101834E+03 -0.18954671070E+03  0.86620717976E+03  0.25500000920E-02 0.  1.
       -2    1    3    3    0  502 -0.37164795471E+03 -0.75912101834E+03  0.70519875492E+02  0.84815091557E+03  0.25500000920E-02 0. -1.
</event>
<event>
 5   0  0.1126175E-03  0.1677905E+04  0.7818609E-02  0.8774067E-01
       -2   -1    0    0    0  501  0.00000000000E+00  0.00000000000E+00  0.82178057752E+03  0.82178057753E+03  0.25500000920E-02 0. -1.
        2   -1    0    0  501    0  0.00000000000E+00  0.00000000000E+00 -0.85648370374E+03  0.85648370375E+03  0.25500000920E-02 0.  1.
    10030    2    1    2    0    0  0.00000000000E+00  0.00000000000E+00 -0.34703126221E+02  0.16782642813E+04  0.16779054475E+04 0.  0.
        3    1    3    3  502    0  0.34744924515E+03 -0.11758501324E+03 -0.77202895893E+03  0.85473734967E+03  0.10100000352E+00 0.  1.
       -3    1    3    3    0  502 -0.34744924515E+03  0.11758501324E+03  0.73732583271E+03  0.82352693160E+03  0.10100000352E+00 0. -1.
</event>
<event>
 5   0  0.5840834E-04  0.1481785E+04  0.7818609E-02  0.8896657E-01
        1   -1    0    0  501    0  0.00000000000E+00  0.00000000000E+00  0.24181015571E+04  0.24181015571E+04  0.50400001928E-02 0. -1.
       -1   -1    0    0    0  501  0.00000000000E+00  0.00000000000E+00 -0.22700516561E+03  0.22700516567E+03  0.50400001928E-02 0.  1.
    10030    2    1    2    0    0  0.00000000000E+00  0.00000000000E+00  0.21910963914E+04  0.26451067227E+04  0.14817847948E+04 0.  0.
        3    1    3    3  502    0 -0.33127712221E+02  0.63919158928E+03  0.42940368141E+03  0.77074695259E+03  0.10100000352E+00 0.  1.
       -3    1    3    3    0  502  0.33127712221E+02 -0.63919158928E+03  0.17616927100E+04  0.18743597701E+04  0.10100000352E+00 0. -1.
</event>
<event>
 5   0  0.5914645E-04  0.1481774E+04  0.7818609E-02  0.8896665E-01
        1   -1    0    0  501    0  0.00000000000E+00  0.00000000000E+00  0.25940093410E+04  0.25940093410E+04  0.50400001928E-02 0.  1.
       -1   -1    0    0    0  501  0.00000000000E+00  0.00000000000E+00 -0.21160803421E+03  0.21160803427E+03  0.50400001928E-02 0. -1.
    10030    2    1    2    0    0  0.00000000000E+00  0.00000000000E+00  0.23824013068E+04  0.28056173753E+04  0.14817735555E+04 0.  0.
        2    1    3    3  502    0  0.19018127786E+03  0.71605967194E+03  0.11880068678E+04  0.14000966717E+04  0.25500000920E-02 0. -1.
       -2    1    3    3    0  502 -0.19018127786E+03 -0.71605967194E+03  0.11943944390E+04  0.14055207036E+04  0.25500000920E-02 0.  1.
</event>
<event>
 5   0  0.1097156E-03  0.1544674E+04  0.7818609E-02  0.8855277E-01
        2   -1    0    0  501    0  0.00000000000E+00  0.00000000000E+00  0.12094777093E+04  0.12094777093E+04  0.25500000920E-02 0. -1.
       -2   -1    0    0    0  501  0.00000000000E+00  0.00000000000E+00 -0.49319154391E+03  0.49319154392E+03  0.25500000920E-02 0.  1.
    10030    2    1    2    0    0  0.00000000000E+00  0.00000000000E+00  0.71628616538E+03  0.17026692532E+04  0.15446736597E+04 0.  0.
        2    1    3    3  502    0  0.29131574714E+03  0.50990377130E+03  0.91108714346E+03  0.10839494931E+04  0.25500000920E-02 0. -1.
       -2    1    3    3    0  502 -0.29131574714E+03 -0.50990377130E+03 -0.19480097808E+03  0.61871976014E+03  0.25500000920E-02 0.  1.
</event>
<event>
 5   0  0.5606965E-04  0.1486590E+04  0.7818609E-02  0.8893420E-01
       -1   -1    0    0    0  501  0.00000000000E+00  0.00000000000E+00  0.97902542258E+03  0.97902542259E+03  0.50400001928E-02 0. -1.
        1   -1    0    0  501    0  0.00000000000E+00  0.00000000000E+00 -0.56432375690E+03  0.56432375693E+03  0.50400001928E-02 0.  1.
    10030    2    1    2    0    0  0.00000000000E+00  0.00000000000E+00  0.41470166568E+03  0.15433491795E+04  0.14865897949E+04 0.  0.
        4    1    3    3  502    0  0.60376045625E+03 -0.40602613213E+03  0.49554901822E+02  0.72927444059E+03  0.12699999809E+01 0.  1.
       -4    1    3    3    0  502 -0.60376045625E+03  0.40602613213E+03  0.36514676386E+03  0.81407473893E+03  0.12699999809E+01 0. -1.
</event>
<event>
 5   0  0.1149716E-03  0.1516660E+04  0.7818609E-02  0.8873449E-01
        2   -1    0    0  501    0  0.00000000000E+00  0.00000000000E+00  0.54487147059E+03  0.54487147059E+03  0.25500000920E-02 0.  1.
       -2   -1    0    0    0  501  0.00000000000E+00  0.00000000000E+00 -0.10554125567E+04  0.10554125567E+04  0.25500000920E-02 0. -1.
    10030    2    1    2    0    0  0.00000000000E+00  0.00000000000E+00 -0.51054108613E+03  0.16002840273E+04  0.15166597402E+04 0.  0.
        1    1    3    3  502    0 -0.11443569717E+03 -0.17709365166E+03  0.51332028146E+03  0.55493729522E+03  0.50400001928E-02 0.  1.
       -1    1    3    3    0  502  0.11443569717E+03  0.17709365166E+03 -0.10238613676E+04  0.10453467321E+04  0.50400001928E-02 0. -1.
</event>
<event>
 5   0  0.5606965E-04  0.1498884E+04  0.7818609E-02  0.8885195E-01
       -1   -1    0    0    0  501  0.00000000000E+00  0.00000000000E+00  0.78791584529E+03  0.78791584530E+03  0.50400001928E-02 0.  1.
        1   -1    0    0  501    0  0.00000000000E+00  0.00000000000E+00 -0.71284695247E+03  0.71284695249E+03  0.50400001928E-02 0. -1.
    10030    2    1    2    0    0  0.00000000000E+00  0.00000000000E+00  0.75068892813E+02  0.15007627978E+04  0.14988841305E+04 0.  0.
        4    1    3    3  502    0 -0.22804575515E+02  0.74124158439E+03 -0.70779981214E+02  0.74496345799E+03  0.12699999809E+01 0.  1.
       -4    1    3    3    0  502  0.22804575515E+02 -0.74124158439E+03  0.14584887403E+03  0.75579933981E+03  0.12699999809E+01 0. -1.
</event>
<event>
 5   0  0.5840834E-04  0.1500382E+04  0.7818609E-02  0.8884199E-01
        1   -1    0    0  501    0  0.00000000000E+00  0.00000000000E+00  0.49032320359E+03  0.49032320361E+03  0.50400001928E-02 0.  1.
       -1   -1    0    0    0  501  0.00000000000E+00  0.00000000000E+00 -0.11477872729E+04  0.11477872729E+04  0.50400001928E-02 0. -1.
    10030    2    1    2    0    0  0.00000000000E+00  0.00000000000E+00 -0.65746406934E+03  0.16381104766E+04  0.15003822616E+04 0.  0.
        3    1    3    3  502    0  0.30844032473E+03 -0.34094068607E+03 -0.97594734215E+03  0.10788184324E+04  0.10100000352E+00 0. -1.
       -3    1    3    3    0  502 -0.30844032473E+03  0.34094068607E+03  0.31848327281E+03  0.55929204410E+03  0.10100000352E+00 0.  1.
</event>
<event>
 5   0  0.5914645E-04  0.1468481E+04  0.7818609E-02  0.8905688E-01
       -1   -1    0    0    0  501  0.00000000000E+00  0.00000000000E+00  0.77526156780E+03  0.77526156782E+03  0.50400001928E-02 0. -1.
        1   -1    0    0  501    0  0.00000000000E+00  0.00000000000E+00 -0.69538959237E+03  0.69538959239E+03  0.50400001928E-02 0.  1.
    10030    2    1    2    0    0  0.00000000000E+00  0.00000000000E+00  0.79871975432E+02  0.14706511602E+04  0.14684806102E+04 0.  0.
        2    1    3    3  502    0  0.57126066548E+03 -0.23292407406E+03 -0.35879374993E+03  0.71367032108E+03  0.25500000920E-02 0.  1.
       -2    1    3    3    0  502 -0.57126066548E+03  0.23292407406E+03  0.43866572536E+03  0.75698083913E+03  0.25500000920E-02 0. -1.
</event>
<event>
 5   0  0.1149716E-03  0.1506686E+04  0.7818609E-02  0.8880019E-01
       -2   -1    0    0    0  501  0.00000000000E+00  0.00000000000E+00  0.30880596332E+03  0.30880596333E+03  0.25500000920E-02 0.  1.
        2   -1    0    0  501    0  0.00000000000E+00  0.00000000000E+00 -0.18378066441E+04  0.18378066441E+04  0.25500000920E-02 0. -1.
    10030    2    1    2    0    0  0.00000000000E+00  0.00000000000E+00 -0.15290006808E+04  0.21466126075E+04  0.15066859675E+04 0.  0.
        1    1    3    3  502    0  0.59357698820E+03  0.65571810330E+02 -0.14187768727E+04  0.15393378829E+04  0.50400001928E-02 0. -1.
       -1    1    3    3    0  502 -0.59357698820E+03 -0.65571810330E+02 -0.11022380815E+03  0.60727472460E+03  0.50400001928E-02 0.  1.
</event>
<event>
 5   0  0.1082667E-03  0.1561800E+04  0.7818609E-02  0.8844365E-01
       -2   -1    0    0    0  501  0.00000000000E+00  0.00000000000E+00  0.36357377157E+03  0.36357377158E+03  0.25500000920E-02 0. -1.
        2   -1    0    0  501    0  0.00000000000E+00  0.00000000000E+00 -0.16772524140E+04  0.16772524140E+04  0.25500000920E-02 0.  1.
    10030    2    1    2    0    0  0.00000000000E+00  0.00000000000E+00 -0.13136786425E+04  0.20408261856E+04  0.15618002255E+04 0.  0.
        5    1    3    3  502    0 -0.13043609195E+03  0.64998482909E+03 -0.11960691279E+04  0.13675150094E+04  0.46999998093E+01 0.  1.
       -5    1    3    3    0  502  0.13043609195E+03 -0.64998482909E+03 -0.11760951454E+03  0.67331117623E+03  0.46999998093E+01 0. -1.
</event>
<event>
 5   0  0.6146552E-04  0.1507157E+04  0.7818609E-02  0.8879708E-01
       -1   -1    0    0    0  501  0.00000000000E+00  0.00000000000E+00  0.10689042042E+04  0.10689042042E+04  0.50400001928E-02 0. -1.
        1   -1    0    0  501    0  0.00000000000E+00  0.00000000000E+00 -0.53127322292E+03  0.53127322295E+03  0.50400001928E-02 0.  1.
    10030    2    1    2    0    0  0.00000000000E+00  0.00000000000E+00  0.53763098126E+03  0.16001774271E+04  0.15071565036E+04 0.  0.
        5    1    3    3  502    0  0.58969219503E+03 -0.45535731990E+03  0.38879880222E+03  0.84040095923E+03  0.46999998093E+01 0.  1.
       -5    1    3    3    0  502 -0.58969219503E+03  0.45535731990E+03  0.14883217903E+03  0.75977646791E+03  0.46999998093E+01 0. -1.
</event>
<event>
 5   0  0.1147755E-03  0.1485404E+04  0.7818609E-02  0.8894217E-01
       -2   -1    0    0    0  501  0.00000000000E+00  0.00000000000E+00  0.40215160373E+03  0.40215160373E+03  0.25500000920E-02 0. -1.
        2   -1    0    0  501    0  0.00000000000E+00  0.00000000000E+00 -0.13716379580E+04  0.13716379580E+04  0.25500000920E-02 0.  1.
    10030    2    1    2    0    0  0.00000000000E+00  0.00000000000E+00 -0.96948635432E+03  0.17737895618E+04  0.14854041936E+04 0.  0.
        4    1    3    3  502    0 -0.12686306975E+03 -0.37616361903E+03  0.26482629346E+03  0.47720842968E+03  0.12699999809E+01 0. -1.
       -4    1    3    3    0  502  0.12686306975E+03  0.37616361903E+03 -0.12343126478E+04  0.12965811321E+04  0.12699999809E+01 0.  1.
</event>
<event>
 5   0  0.5924403E-04  0.1534893E+04  0.7818609E-02  0.8861576E-01
        1   -1    0    0  501    0  0.00000000000E+00  0.00000000000E+00  0.14052142586E+04  0.14052142586E+04  0.50400001928E-02 0. -1.
       -1   -1    0    0    0  501  0.00000000000E+00  0.00000000000E+00 -0.41913451264E+03  0.41913451267E+03  0.50400001928E-02 0.  1.
    10030    2    1    2    0    0  0.00000000000E+00  0.00000000000E+00  0.98607974598E+03  0.18243487713E+04  0.15348925610E+04 0.  0.
        1    1    3    3  502    0  0.22538331466E+03  0.44423787043E+03 -0.20086202312E+03  0.53711309462E+03  0.50400001928E-02 0.  1.
       -1    1    3    3    0  502 -0.22538331466E+03 -0.44423787043E+03  0.11869417691E+04  0.12872356767E+04  0.50400001928E-02 0. -1.
</event>
<event>
 5   0  0.6146552E-04  0.1544341E+04  0.7818609E-02  0.8855490E-01
        1   -1    0    0  501    0  0.00000000000E+00  0.00000000000E+00  0.14676241082E+04  0.14676241082E+04  0.50400001928E-02 0. -1.
       -1   -1    0    0    0  501  0.00000000000E+00  0.00000000000E+00 -0.40626719881E+03  0.40626719884E+03  0.50400001928E-02 0.  1.
    10030    2    1    2    0    0  0.00000000000E+00  0.00000000000E+00  0.10613569094E+04  0.18738913071E+04  0.15443413294E+04 0.  0.
        5    1    3    3  502    0 -0.21781637022E+02  0.64609606306E+03  0.18300981394E+02  0.64673918880E+03  0.46999998093E+01 0.  1.
       -5    1    3    3    0  502  0.21781637022E+02 -0.64609606306E+03  0.10430559280E+04  0.12271521183E+04  0.46999998093E+01 0. -1.
</event>
<event>
 5   0  0.5914645E-04  0.1512231E+04  0.7818609E-02  0.8876360E-01
       -1   -1    0    0    0  501  0.00000000000E+00  0.00000000000E+00  0.25737927305E+03  0.25737927310E+03  0.50400001928E-02 0.  1.
        1   -1    0    0  501    0  0.00000000000E+00  0.00000000000E+00 -0.22212765676E+04  0.22212765676E+04  0.50400001928E-02 0. -1.
    10030    2    1    2    0    0  0.00000000000E+00  0.00000000000E+00 -0.19638972945E+04  0.24786558407E+04  0.15122308663E+04 0.  0.
        2    1    3    3  502    0 -0.14350334496E+02  0.63881953286E+03 -0.16445358669E+04  0.17643113516E+04  0.25500000920E-02 0. -1.
       -2    1    3    3    0  502  0.14350334496E+02 -0.63881953286E+03 -0.31936142758E+03  0.71434448909E+03  0.25500000920E-02 0.  1.
</event>
<event>
 5   0  0.5914645E-04  0.1716491E+04  0.7818609E-02  0.8752014E-01
        1   -1    0    0  501    0  0.00000000000E+00  0.00000000000E+00  0.71341205579E+03  0.71341205581E+03  0.50400001928E-02 0. -1.
       -1   -1    0    0    0  501  0.00000000000E+00  0.00000000000E+00 -0.10324829259E+04  0.10324829259E+04  0.50400001928E-02 0.  1.
    10030    2    1    2    0    0  0.00000000000E+00  0.00000000000E+00 -0.31907087009E+03  0.17458949817E+04  0.17164914992E+04 0.  0.
        2    1    3    3  502    0  0.33693677703E+03  0.17067391708E+02  0.64313937096E+03  0.72625473359E+03  0.25500000920E-02 0. -1.
       -2    1    3    3    0  502 -0.33693677703E+03 -0.17067391708E+02 -0.96221024105E+03  0.10196402481E+04  0.25500000920E-02 0.  1.
</event>
<event>
 5   0  0.4070625E-04  0.1481172E+04  0.7818609E-02  0.8897071E-01
        3   -1    0    0  501    0  0.00000000000E+00  0.00000000000E+00  0.21580030943E+03  0.21580033307E+03  0.10100000352E+00 0. -1.
       -3   -1    0    0    0  501  0.00000000000E+00  0.00000000000E+00 -0.25415518094E+04  0.25415518114E+04  0.10100000352E+00 0.  1.
    10030    2    1    2    0    0  0.00000000000E+00  0.00000000000E+00 -0.23257515000E+04  0.27573521445E+04  0.14811721065E+04 0.  0.
        2    1    3    3  502    0  0.62541752873E+02  0.57417470548E+03 -0.29992831554E+03  0.65080339407E+03  0.25500000920E-02 0. -1.
       -2    1    3    3    0  502 -0.62541752873E+02 -0.57417470548E+03 -0.20258231844E+04  0.21065487504E+04  0.25500000920E-02 0.  1.
</event>
<event>
 5   0  0.6146552E-04  0.1511855E+04  0.7818609E-02  0.8876607E-01
        1   -1    0    0  501    0  0.00000000000E+00  0.00000000000E+00  0.55347095162E+03  0.55347095164E+03  0.50400001928E-02 0. -1.
       -1   -1    0    0    0  501  0.00000000000E+00  0.00000000000E+00 -0.10324421195E+04  0.10324421195E+04  0.50400001928E-02 0.  1.
    10030    2    1    2    0    0  0.00000000000E+00  0.00000000000E+00 -0.47897116792E+03  0.15859130712E+04  0.15118554460E+04 0.  0.
        5    1    3    3  502    0 -0.48306094367E+03  0.56131756519E+03 -0.39850053587E+03  0.84098159991E+03  0.46999998093E+01 0.  1.
       -5    1    3    3    0  502  0.48306094367E+03 -0.56131756519E+03 -0.80470632046E+02  0.74493147128E+03  0.46999998093E+01 0. -1.
</event>
<event>
 5   0  0.5914645E-04  0.1498948E+04  0.7818609E-02  0.8885153E-01
        1   -1    0    0  501    0  0.00000000000E+00  0.00000000000E+00  0.90629118633E+03  0.90629118635E+03  0.50400001928E-02 0. -1.
       -1   -1    0    0    0  501  0.00000000000E+00  0.00000000000E+00 -0.61979099768E+03  0.61979099770E+03  0.50400001928E-02 0.  1.
    10030    2    1    2    0    0  0.00000000000E+00  0.00000000000E+00  0.28650018865E+03  0.15260821840E+04  0.14989477891E+04 0.  0.
        2    1    3    3  502    0 -0.68151560403E+03  0.29235518371E+03  0.32768184171E+02  0.74229968738E+03  0.25500000920E-02 0.  1.
       -2    1    3    3    0  502  0.68151560403E+03 -0.29235518371E+03  0.25373200448E+03  0.78378249667E+03  0.25500000920E-02 0. -1.
</event>
<event>
 5   0  0.5914645E-04  0.1507203E+04  0.7818609E-02  0.8879677E-01
        1   -1    0    0  501    0  0.00000000000E+00  0.00000000000E+00  0.10338947491E+04  0.10338947491E+04  0.50400001928E-02 0. -1.
       -1   -1    0    0    0  501  0.00000000000E+00  0.00000000000E+00 -0.54929707278E+03  0.54929707280E+03  0.50400001928E-02 0.  1.
    10030    2    1    2    0    0  0.00000000000E+00  0.00000000000E+00  0.48459767629E+03  0.15831918219E+04  0.15072031837E+04 0.  0.
        2    1    3    3  502    0 -0.76907397161E+02  0.74841732759E+03  0.19684945140E+03  0.77768435146E+03  0.25500000920E-02 0.  1.
       -2    1    3    3    0  502  0.76907397161E+02 -0.74841732759E+03  0.28774822490E+03  0.80550747043E+03  0.25500000920E-02 0. -1.
</event>
<event>
 5   0  0.5914645E-04  0.1490436E+04  0.7818609E-02  0.8890838E-01
       -1   -1    0    0    0  501  0.00000000000E+00  0.00000000000E+00  0.57426643900E+03  0.57426643902E+03  0.50400001928E-02 0.  1.
        1   -1    0    0  501    0  0.00000000000E+00  0.00000000000E+00 -0.96705966580E+03  0.96705966581E+03  0.50400001928E-02 0. -1.
    10030    2    1    2    0    0  0.00000000000E+00  0.00000000000E+00 -0.39279322680E+03  0.15413261048E+04  0.14904360578E+04 0.  0.
        2    1    3    3  502    0 -0.68464604117E+03 -0.21167578423E+03 -0.40783570316E+03  0.82454642082E+03  0.25500000920E-02 0.  1.
       -2    1    3    3    0  502  0.68464604117E+03  0.21167578423E+03  0.15042476358E+02  0.71677968401E+03  0.25500000920E-02 0. -1.
</event>
<event>
 5   0  0.1149716E-03  0.1507983E+04  0.7818609E-02  0.8879162E-01
       -2   -1    0    0    0  501  0.00000000000E+00  0.00000000000E+00  0.14890592775E+04  0.14890592775E+04  0.25500000920E-02 0.  1.
        2   -1    0    0  501    0  0.00000000000E+00  0.00000000000E+00 -0.38178659351E+03  0.38178659351E+03  0.25500000920E-02 0. -1.
    10030    2    1    2    0    0  0.00000000000E+00  0.00000000000E+00  0.11072726840E+04  0.18708458710E+04  0.15079825849E+04 0.  0.
        1    1    3    3  502    0  0.31115307437E+03 -0.65621734167E+03  0.30222787987E+03  0.78662514999E+03  0.50400001928E-02 0. -1.
       -1    1    3    3    0  502 -0.31115307437E+03  0.65621734167E+03  0.80504480410E+03  0.10842207210E+04  0.50400001928E-02 0.  1.
</event>
<event>
 5   0  0.6146552E-04  0.1495227E+04  0.7818609E-02  0.8887633E-01
       -1   -1    0    0    0  501  0.00000000000E+00  0.00000000000E+00  0.26594328426E+03  0.26594328431E+03  0.50400001928E-02 0. -1.
        1   -1    0    0  501    0  0.00000000000E+00  0.00000000000E+00 -0.21016736665E+04  0.21016736665E+04  0.50400001928E-02 0.  1.
    10030    2    1    2    0    0  0.00000000000E+00  0.00000000000E+00 -0.18357303822E+04  0.23676169508E+04  0.14952270695E+04 0.  0.
        5    1    3    3  502    0 -0.10974687985E+03 -0.60670711418E+03 -0.15873593001E+04  0.17029003311E+04  0.46999998093E+01 0.  1.
       -5    1    3    3    0  502  0.10974687985E+03  0.60670711418E+03 -0.24837108206E+03  0.66471661965E+03  0.46999998093E+01 0. -1.
</event>
<event>
 5   0  0.5914645E-04  0.1495991E+04  0.7818609E-02  0.8887123E-01
        1   -1    0    0  501    0  0.00000000000E+00  0.00000000000E+00  0.71974635343E+03  0.71974635344E+03  0.50400001928E-02 0.  1.
       -1   -1    0    0    0  501  0.00000000000E+00  0.00000000000E+00 -0.77735360591E+03  0.77735360593E+03  0.50400001928E-02 0. -1.
    10030    2    1    2    0    0  0.00000000000E+00  0.00000000000E+00 -0.57607252487E+02  0.14970999594E+04  0.14959912075E+04 0.  0.
        2    1    3    3  502    0  0.30277714608E+02  0.14538390113E+02  0.71899132860E+03  0.71977540622E+03  0.25500000920E-02 0.  1.
       -2    1    3    3    0  502 -0.30277714608E+02 -0.14538390113E+02 -0.77659858109E+03  0.77732455316E+03  0.25500000920E-02 0. -1.
</event>
<event>
 5   0  0.5924403E-04  0.1549159E+04  0.7818609E-02  0.8852405E-01
       -1   -1    0    0    0  501  0.00000000000E+00  0.00000000000E+00  0.11490815762E+04  0.11490815762E+04  0.50400001928E-02 0.  1.
        1   -1    0    0  501    0  0.00000000000E+00  0.00000000000E+00 -0.52213291629E+03  0.52213291631E+03  0.50400001928E-02 0. -1.
    10030    2    1    2    0    0  0.00000000000E+00  0.00000000000E+00  0.62694865991E+03  0.16712144925E+04  0.15491588872E+04 0.  0.
        1    1    3    3  502    0 -0.14080838684E+03  0.27812520541E+03  0.10784202008E+04  0.11225732765E+04  0.50400001928E-02 0.  1.
       -1    1    3    3    0  502  0.14080838684E+03 -0.27812520541E+03 -0.45147154085E+03  0.54864121602E+03  0.50400001928E-02 0. -1.
</event>
<event>
 5   0  0.1082667E-03  0.1500848E+04  0.7818609E-02  0.8883889E-01
       -2   -1    0    0    0  501  0.00000000000E+00  0.00000000000E+00  0.27388111584E+03  0.27388111585E+03  0.25500000920E-02 0.  1.
        2   -1    0    0  501    0  0.00000000000E+00  0.00000000000E+00 -0.20561339979E+04  0.20561339979E+04  0.25500000920E-02 0. -1.
    10030    2    1    2    0    0  0.00000000000E+00  0.00000000000E+00 -0.17822528821E+04  0.23300151138E+04  0.15008481251E+04 0.  0.
        5    1    3    3  502    0  0.43555998872E+03 -0.28250104792E+03 -0.17323205038E+04  0.18084456762E+04  0.46999998093E+01 0.  1.
       -5    1    3    3    0  502 -0.43555998872E+03  0.28250104792E+03 -0.49932378315E+02  0.52156943762E+03  0.46999998093E+01 0. -1.
</event>
<event>
 5   0  0.1082667E-03  0.1501079E+04  0.7818609E-02  0.8883735E-01
        2   -1    0    0  501    0  0.00000000000E+00  0.00000000000E+00  0.13535103493E+04  0.13535103493E+04  0.25500000920E-02 0. -1.
       -2   -1    0    0    0  501  0.00000000000E+00  0.00000000000E+00 -0.41618437713E+03  0.41618437714E+03  0.25500000920E-02 0.  1.
    10030    2    1    2    0    0  0.00000000000E+00  0.00000000000E+00  0.93732597219E+03  0.17696947265E+04  0.15010794272E+04 0.  0.
        5    1    3    3  502    0  0.23790858356E+03 -0.15576300225E+03 -0.35019702094E+03  0.45113484733E+03  0.46999998093E+01 0.  1.
       -5    1    3    3    0  502 -0.23790858356E+03  0.15576300225E+03  0.12875229931E+04  0.13185598791E+04  0.46999998093E+01 0. -1.
</event>
<event>
 5   0  0.1147755E-03  0.1432037E+04  0.7818609E-02  0.8930950E-01
       -2   -1    0    0    0  501  0.00000000000E+00  0.00000000000E+00  0.23785536006E+03  0.23785536008E+03  0.25500000920E-02 0. -1.
        2   -1    0    0  501    0  0.00000000000E+00  0.00000000000E+00 -0.21554369040E+04  0.21554369040E+04  0.25500000920E-02 0.  1.
    10030    2    1    2    0    0  0.00000000000E+00  0.00000000000E+00 -0.19175815439E+04  0.23932922640E+04  0.14320366209E+04 0.  0.
        4    1    3    3  502    0 -0.28791700692E+03 -0.62390930112E+03 -0.12952131273E+04  0.14661983757E+04  0.12699999809E+01 0.  1.
       -4    1    3    3    0  502  0.28791700692E+03  0.62390930112E+03 -0.62236841657E+03  0.92709388831E+03  0.12699999809E+01 0. -1.
</event>
<event>
 5   0  0.6146552E-04  0.1568666E+04  0.7818609E-02  0.8840033E-01
       -1   -1    0    0    0  501  0.00000000000E+00  0.00000000000E+00  0.30928589287E+03  0.30928589291E+03  0.50400001928E-02 0.  1.
        1   -1    0    0  501    0  0.00000000000E+00  0.00000000000E+00 -0.19890267256E+04  0.19890267256E+04  0.50400001928E-02 0. -1.
    10030    2    1    2    0    0  0.00000000000E+00  0.00000000000E+00 -0.16797408327E+04  0.22983126185E+04  0.15686655562E+04 0.  0.
        5    1    3    3  502    0 -0.62270804237E+03  0.23531650784E+03 -0.23220574761E+03  0.70503954791E+03  0.46999998093E+01 0.  1.
       -5    1    3    3    0  502  0.62270804237E+03 -0.23531650784E+03 -0.14475350851E+04  0.15932730706E+04  0.46999998093E+01 0. -1.
</event>
<event>
 5   0  0.1097156E-03  0.1506191E+04  0.7818609E-02  0.8880346E-01
        2   -1    0    0  501    0  0.00000000000E+00  0.00000000000E+00  0.23408869776E+03  0.23408869777E+03  0.25500000920E-02 0. -1.
       -2   -1    0    0    0  501  0.00000000000E+00  0.00000000000E+00 -0.24228126757E+04  0.24228126757E+04  0.25500000920E-02 0.  1.
    10030    2    1    2    0    0  0.00000000000E+00  0.00000000000E+00 -0.21887239780E+04  0.26569013735E+04  0.15061913082E+04 0.  0.
        2    1    3    3  502    0 -0.67305983332E+03  0.23292355696E+03 -0.66267101717E+03  0.97282876172E+03  0.25500000920E-02 0. -1.
       -2    1    3    3    0  502  0.67305983332E+03 -0.23292355696E+03 -0.15260529608E+04  0.16840726118E+04  0.25500000920E-02 0.  1.
</event>
<event>
 5   0  0.5914645E-04  0.1389221E+04  0.7818609E-02  0.8961658E-01
       -1   -1    0    0    0  501  0.00000000000E+00  0.00000000000E+00  0.67511163192E+03  0.67511163194E+03  0.50400001928E-02 0.  1.
        1   -1    0    0  501    0  0.00000000000E+00  0.00000000000E+00 -0.71467213088E+03  0.71467213089E+03  0.50400001928E-02 0. -1.
    10030    2    1    2    0    0  0.00000000000E+00  0.00000000000E+00 -0.39560498952E+02  0.13897837628E+04  0.13892205996E+04 0.  0.
        2    1    3    3  502    0  0.86892664703E+02  0.12944761225E+03 -0.69694197032E+03  0.71416743799E+03  0.25500000920E-02 0. -1.
       -2    1    3    3    0  502 -0.86892664703E+02 -0.12944761225E+03  0.65738147136E+03  0.67561632484E+03  0.25500000920E-02 0.  1.
</event>
<event>
 5   0  0.1097156E-03  0.1494371E+04  0.7818609E-02  0.8888205E-01
       -2   -1    0    0    0  501  0.00000000000E+00  0.00000000000E+00  0.34847151539E+03  0.34847151540E+03  0.25500000920E-02 0.  1.
        2   -1    0    0  501    0  0.00000000000E+00  0.00000000000E+00 -0.16020992007E+04  0.16020992007E+04  0.25500000920E-02 0. -1.
    10030    2    1    2    0    0  0.00000000000E+00  0.00000000000E+00 -0.12536276853E+04  0.19505707160E+04  0.14943706853E+04 0.  0.
        2    1    3    3  502    0  0.33106582696E+03 -0.62624394964E+03 -0.31655291640E+03  0.77588131510E+03  0.25500000920E-02 0.  1.
       -2    1    3    3    0  502 -0.33106582696E+03  0.62624394964E+03 -0.93707476887E+03  0.11746894009E+04  0.25500000920E-02 0. -1.
</event>
<event>
 5   0  0.6146552E-04  0.1494074E+04  0.7818609E-02  0.8888403E-01
        1   -1    0    0  501    0  0.00000000000E+00  0.00000000000E+00  0.14083207676E+04  0.14083207676E+04  0.50400001928E-02 0. -1.
       -1   -1    0    0    0  501  0.00000000000E+00  0.00000000000E+00 -0.39626200136E+03  0.39626200139E+03  0.50400001928E-02 0.  1.
    10030    2    1    2    0    0  0.00000000000E+00  0.00000000000E+00  0.10120587662E+04  0.18045827690E+04  0.14940736340E+04 0.  0.
        5    1    3    3  502    0 -0.20707766599E+03 -0.55541294292E+03 -0.43070193732E+02  0.59434150831E+03  0.46999998093E+01 0.  1.
       -5    1    3    3    0  502  0.20707766599E+03  0.55541294292E+03  0.10551289600E+04  0.12102412607E+04  0.46999998093E+01 0. -1.
</event>
<event>
 5   0  0.1147755E-03  0.1450258E+04  0.7818609E-02  0.8918222E-01
       -2   -1    0    0    0  501  0.00000000000E+00  0.00000000000E+00  0.60461155592E+03  0.60461155592E+03  0.25500000920E-02 0. -1.
        2   -1    0    0  501    0  0.00000000000E+00  0.00000000000E+00 -0.86966876365E+03  0.86966876366E+03  0.25500000920E-02 0.  1.
    10030    2    1    2    0    0  0.00000000000E+00  0.00000000000E+00 -0.26505720774E+03  0.14742803196E+04  0.14502576107E+04 0.  0.
        4    1    3    3  502    0  0.57948836977E+03  0.43101758994E+03 -0.66434417700E+02  0.72525724974E+03  0.12699999809E+01 0.  1.
       -4    1    3    3    0  502 -0.57948836977E+03 -0.43101758994E+03 -0.19862279004E+03  0.74902306984E+03  0.12699999809E+01 0. -1.
</event>
<event>
 5   0  0.5924403E-04  0.1533736E+04  0.7818609E-02  0.8862323E-01
        1   -1    0    0  501    0  0.00000000000E+00  0.00000000000E+00  0.13586305598E+04  0.13586305598E+04  0.50400001928E-02 0.  1.
       -1   -1    0    0    0  501  0.00000000000E+00  0.00000000000E+00 -0.43285259525E+03  0.43285259528E+03  0.50400001928E-02 0. -1.
    10030    2    1    2    0    0  0.00000000000E+00  0.00000000000E+00  0.92577796454E+03  0.17914831551E+04  0.15337363057E+04 0.  0.
        1    1    3    3  502    0  0.74636413661E+03  0.14215131072E+03  0.34138722200E+03  0.83295357309E+03  0.50400001928E-02 0. -1.
       -1    1    3    3    0  502 -0.74636413661E+03 -0.14215131072E+03  0.58439074254E+03  0.95852958199E+03  0.50400001928E-02 0.  1.
</event>
<event>
 5   0  0.6146552E-04  0.1473861E+04  0.7818609E-02  0.8902023E-01
        1   -1    0    0  501    0  0.00000000000E+00  0.00000000000E+00  0.68233434583E+03  0.68233434585E+03  0.50400001928E-02 0.  1.
       -1   -1    0    0    0  501  0.00000000000E+00  0.00000000000E+00 -0.79589542387E+03  0.79589542388E+03  0.50400001928E-02 0. -1.
    10030    2    1    2    0    0  0.00000000000E+00  0.00000000000E+00 -0.11356107803E+03  0.14782297697E+04  0.14738613007E+04 0.  0.
        5    1    3    3  502    0  0.53852923782E+03  0.49572209284E+03  0.28857315023E+02  0.73253598406E+03  0.46999998093E+01 0.  1.
       -5    1    3    3    0  502 -0.53852923782E+03 -0.49572209284E+03 -0.14241839306E+03  0.74569378567E+03  0.46999998093E+01 0. -1.
</event>
<event>
 5   0  0.5924403E-04  0.1508356E+04  0.7818609E-02  0.8878915E-01
        1   -1    0    0  501    0  0.00000000000E+00  0.00000000000E+00  0.11890315037E+04  0.11890315037E+04  0.50400001928E-02 0. -1.
       -1   -1    0    0    0  501  0.00000000000E+00  0.00000000000E+00 -0.47835967557E+03  0.47835967560E+03  0.50400001928E-02 0.  1.
    10030    2    1    2    0    0  0.00000000000E+00  0.00000000000E+00  0.71067182813E+03  0.16673911793E+04  0.15083563563E+04 0.  0.
        1    1    3    3  502    0  0.24433891303E+03  0.64099451544E+02 -0.43020400088E+03  0.49888448213E+03  0.50400001928E-02 0.  1.
       -1    1    3    3    0  502 -0.24433891303E+03 -0.64099451544E+02  0.11408758290E+04  0.11685066972E+04  0.50400001928E-02 0. -1.
</event>
<event>
 5   0  0.1097156E-03  0.1498605E+04  0.7818609E-02  0.8885381E-01
       -2   -1    0    0    0  501  0.00000000000E+00  0.00000000000E+00  0.76755859387E+03  0.76755859387E+03  0.25500000920E-02 0. -1.
        2   -1    0    0  501    0  0.00000000000E+00  0.00000000000E+00 -0.73148035878E+03  0.73148035878E+03  0.25500000920E-02 0.  1.
    10030    2    1    2    0    0  0.00000000000E+00  0.00000000000E+00  0.36078235087E+02  0.14990389527E+04  0.14986047319E+04 0.  0.
        2    1    3    3  502    0 -0.40520234861E+03  0.62410307114E+03  0.10615805268E+03  0.75164028556E+03  0.25500000920E-02 0. -1.
       -2    1    3    3    0  502  0.40520234861E+03 -0.62410307114E+03 -0.70079817592E+02  0.74739866709E+03  0.25500000920E-02 0.  1.
</event>
<event>
 5   0  0.1126175E-03  0.1492716E+04  0.7818609E-02  0.8889311E-01
        2   -1    0    0  501    0  0.00000000000E+00  0.00000000000E+00  0.25526496491E+04  0.25526496491E+04  0.25500000920E-02 0.  1.
       -2   -1    0    0    0  501  0.00000000000E+00  0.00000000000E+00 -0.21822439437E+03  0.21822439438E+03  0.25500000920E-02 0. -1.
    10030    2    1    2    0    0  0.00000000000E+00  0.00000000000E+00  0.23344252547E+04  0.27708740435E+04  0.14927162138E+04 0.  0.
        3    1    3    3  502    0  0.48694189247E+02  0.70649089516E+03  0.16047157858E+04  0.17540277285E+04  0.10100000352E+00 0. -1.
       -3    1    3    3    0  502 -0.48694189247E+02 -0.70649089516E+03  0.72970946896E+03  0.10168463150E+04  0.10100000352E+00 0.  1.
</event>
<event>
 5   0  0.6146552E-04  0.1627697E+04  0.7818609E-02  0.8803711E-01
        1   -1    0    0  501    0  0.00000000000E+00  0.00000000000E+00  0.94237438182E+03  0.94237438183E+03  0.50400001928E-02 0.  1.
       -1   -1    0    0    0  501  0.00000000000E+00  0.00000000000E+00 -0.70285204641E+03  0.70285204643E+03  0.50400001928E-02 0. -1.
    10030    2    1    2    0    0  0.00000000000E+00  0.00000000000E+00  0.23952233541E+03  0.16452264283E+04  0.16276974692E+04 0.  0.
        5    1    3    3  502    0 -0.21889258974E+03  0.29844048643E+03  0.85237499334E+03  0.92927170895E+03  0.46999998093E+01 0.  1.
       -5    1    3    3    0  502  0.21889258974E+03 -0.29844048643E+03 -0.61285265793E+03  0.71595471931E+03  0.46999998093E+01 0. -1.
</event>
<event>
 5   0  0.4070625E-04  0.1467103E+04  0.7818609E-02  0.8906629E-01
        4   -1    0    0  501    0  0.00000000000E+00  0.00000000000E+00  0.23863278620E+03  0.23863616564E+03  0.12699999809E+01 0.  1.
       -4   -1    0    0    0  501  0.00000000000E+00  0.00000000000E+00 -0.22548995985E+04  0.22548999562E+04  0.12699999809E+01 0. -1.
    10030    2    1    2    0    0  0.00000000000E+00  0.00000000000E+00 -0.20162668123E+04  0.24935361218E+04  0.14671027681E+04 0.  0.
        4    1    3    3  502    0  0.45289385534E+03 -0.35144345345E+03 -0.23024599458E+03  0.61777032633E+03  0.12699999809E+01 0.  1.
       -4    1    3    3    0  502 -0.45289385534E+03  0.35144345345E+03 -0.17860208177E+04  0.18757657955E+04  0.12699999809E+01 0. -1.
</event>
<event>
 5   0  0.1082667E-03  0.1507805E+04  0.7818609E-02  0.8879279E-01
       -2   -1    0    0    0  501  0.00000000000E+00  0.00000000000E+00  0.86144502067E+03  0.86144502067E+03  0.25500000920E-02 0.  1.
        2   -1    0    0  501    0  0.00000000000E+00  0.00000000000E+00 -0.65978536164E+03  0.65978536164E+03  0.25500000920E-02 0. -1.
    10030    2    1    2    0    0  0.00000000000E+00  0.00000000000E+00  0.20165965903E+03  0.15212303823E+04  0.15078047811E+04 0.  0.
        5    1    3    3  502    0  0.43391659602E+03  0.47931262630E+03  0.49199654747E+03  0.81246962944E+03  0.46999998093E+01 0.  1.
       -5    1    3    3    0  502 -0.43391659602E+03 -0.47931262630E+03 -0.29033688844E+03  0.70876075288E+03  0.46999998093E+01 0. -1.
</event>
<event>
 5   0  0.1082667E-03  0.1220102E+04  0.7818609E-02  0.9095441E-01
       -2   -1    0    0    0  501  0.00000000000E+00  0.00000000000E+00  0.13030346855E+04  0.13030346855E+04  0.25500000920E-02 0. -1.
        2   -1    0    0  501    0  0.00000000000E+00  0.00000000000E+00 -0.28561191663E+03  0.28561191664E+03  0.25500000920E-02 0.  1.
    10030    2    1    2    0    0  0.00000000000E+00  0.00000000000E+00  0.10174227688E+04  0.15886466021E+04  0.12201020186E+04 0.  0.
        5    1    3    3  502    0 -0.24058003750E+03  0.16342732212E+03 -0.18950498812E+03  0.34716202928E+03  0.46999998093E+01 0.  1.
       -5    1    3    3    0  502  0.24058003750E+03 -0.16342732212E+03  0.12069277569E+04  0.12414845728E+04  0.46999998093E+01 0. -1.
</event>
<event>
 5   0  0.5924403E-04  0.1471571E+04  0.7818609E-02  0.8903581E-01
       -1   -1    0    0    0  501  0.00000000000E+00  0.00000000000E+00  0.87473724707E+03  0.87473724709E+03  0.50400001928E-02 0. -1.
        1   -1    0    0  501    0  0.00000000000E+00  0.00000000000E+00 -0.61890583570E+03  0.61890583572E+03  0.50400001928E-02 0.  1.
    10030    2    1    2    0    0  0.00000000000E+00  0.00000000000E+00  0.25583141137E+03  0.14936430828E+04  0.14715705718E+04 0.  0.
        1    1    3    3  502    0 -0.22109601138E+03  0.10727957325E+02  0.84013966585E+03  0.86881136818E+03  0.50400001928E-02 0. -1.
       -1    1    3    3    0  502  0.22109601138E+03 -0.10727957325E+02 -0.58430825448E+03  0.62483171462E+03  0.50400001928E-02 0.  1.
</event>
<event>
 5   0  0.1147755E-03  0.1504719E+04  0.7818609E-02  0.8881321E-01
        2   -1    0    0  501    0  0.00000000000E+00  0.00000000000E+00  0.14518468764E+04  0.14518468764E+04  0.25500000920E-02 0.  1.
       -2   -1    0    0    0  501  0.00000000000E+00  0.00000000000E+00 -0.38987925843E+03  0.38987925844E+03  0.25500000920E-02 0. -1.
    10030    2    1    2    0    0  0.00000000000E+00  0.00000000000E+00  0.10619676179E+04  0.18417261348E+04  0.15047192210E+04 0.  0.
        4    1    3    3  502    0 -0.39566633615E+03 -0.10017667380E+03  0.13045618639E+04  0.13669200727E+04  0.12699999809E+01 0.  1.
       -4    1    3    3    0  502  0.39566633615E+03  0.10017667380E+03 -0.24259424595E+03  0.47480606210E+03  0.12699999809E+01 0. -1.
</event>
<event>
 5   0  0.5924403E-04  0.1494147E+04  0.7818609E-02  0.8888354E-01
       -1   -1    0    0    0  501  0.00000000000E+00  0.00000000000E+00  0.31379372854E+03  0.31379372858E+03  0.50400001928E-02 0. -1.
        1   -1    0    0  501    0  0.00000000000E+00  0.00000000000E+00 -0.17786176459E+04  0.17786176459E+04  0.50400001928E-02 0.  1.
    10030    2    1    2    0    0  0.00000000000E+00  0.00000000000E+00 -0.14648239174E+04  0.20924113745E+04  0.14941473325E+04 0.  0.
        1    1    3    3  502    0 -0.66006674490E+03 -0.15332237242E+03 -0.11728681693E+04  0.13545536535E+04  0.50400001928E-02 0.  1.
       -1    1    3    3    0  502  0.66006674490E+03  0.15332237242E+03 -0.29195574806E+03  0.73785772101E+03  0.50400001928E-02 0. -1.
</event>
<event>
 5   0  0.5840834E-04  0.1291861E+04  0.7818609E-02  0.9036044E-01
       -1   -1    0    0    0  501  0.00000000000E+00  0.00000000000E+00  0.86285093704E+03  0.86285093706E+03  0.50400001928E-02 0.  1.
        1   -1    0    0  501    0  0.00000000000E+00  0.00000000000E+00 -0.48354385720E+03  0.48354385722E+03  0.50400001928E-02 0. -1.
    10030    2    1    2    0    0  0.00000000000E+00  0.00000000000E+00  0.37930707985E+03  0.13463947943E+04  0.12918610921E+04 0.  0.
        3    1    3    3  502    0  0.35526734497E+03 -0.41794541014E+03  0.54512773862E+03  0.77334178335E+03  0.10100000352E+00 0.  1.
       -3    1    3    3    0  502 -0.35526734497E+03  0.41794541014E+03 -0.16582065878E+03  0.57305301093E+03  0.10100000352E+00 0. -1.
</event>
<event>
 5   0  0.5606965E-04  0.1465483E+04  0.7818609E-02  0.8907736E-01
       -1   -1    0    0    0  501  0.00000000000E+00  0.00000000000E+00  0.71859343170E+03  0.71859343172E+03  0.50400001928E-02 0. -1.
        1   -1    0    0  501    0  0.00000000000E+00  0.00000000000E+00 -0.74716802737E+03  0.74716802738E+03  0.50400001928E-02 0.  1.
    10030    2    1    2    0    0  0.00000000000E+00  0.00000000000E+00 -0.28574595662E+02  0.14657614591E+04  0.14654829059E+04 0.  0.
        4    1    3    3  502    0  0.44003325214E+03 -0.40760353749E+03  0.40667096992E+03  0.72467426989E+03  0.12699999809E+01 0. -1.
       -4    1    3    3    0  502 -0.44003325214E+03  0.40760353749E+03 -0.43524556558E+03  0.74108718922E+03  0.12699999809E+01 0.  1.
</event>
<event>
 5   0  0.1147755E-03  0.1533435E+04  0.7818609E-02  0.8862519E-01
        2   -1    0    0  501    0  0.00000000000E+00  0.00000000000E+00  0.12193027888E+04  0.12193027888E+04  0.25500000920E-02 0.  1.
       -2   -1    0    0    0  501  0.00000000000E+00  0.00000000000E+00 -0.48212433400E+03  0.48212433401E+03  0.25500000920E-02 0. -1.
    10030    2    1    2    0    0  0.00000000000E+00  0.00000000000E+00  0.73717845480E+03  0.17014271228E+04  0.15334347655E+04 0.  0.
        4    1    3    3  502    0 -0.11030747886E+03 -0.50309611307E+02 -0.47142016183E+03  0.48676213776E+03  0.12699999809E+01 0. -1.
       -4    1    3    3    0  502  0.11030747886E+03  0.50309611307E+02  0.12085986166E+04  0.12146649850E+04  0.12699999809E+01 0.  1.
</event>
<event>
 5   0  0.5606965E-04  0.1505566E+04  0.7818609E-02  0.8880760E-01
       -1   -1    0    0    0  501  0.00000000000E+00  0.00000000000E+00  0.59957229386E+03  0.59957229388E+03  0.50400001928E-02 0. -1.
        1   -1    0    0  501    0  0.00000000000E+00  0.00000000000E+00 -0.94514476588E+03  0.94514476589E+03  0.50400001928E-02 0.  1.
    10030    2    1    2    0    0  0.00000000000E+00  0.00000000000E+00 -0.34557247202E+03  0.15447170598E+04  0.15055664918E+04 0.  0.
        4    1    3    3  502    0  0.10877926214E+02 -0.73833099525E+03 -0.32298288248E+03  0.80595939296E+03  0.12699999809E+01 0.  1.
       -4    1    3    3    0  502 -0.10877926214E+02  0.73833099525E+03 -0.22589589541E+02  0.73875766682E+03  0.12699999809E+01 0. -1.
</event>
<event>
 5   0  0.5840834E-04  0.1492948E+04  0.7818609E-02  0.8889156E-01
        1   -1    0    0  501    0  0.00000000000E+00  0.00000000000E+00  0.72037095090E+03  0.72037095091E+03  0.50400001928E-02 0.  1.
       -1   -1    0    0    0  501  0.00000000000E+00  0.00000000000E+00 -0.77352332996E+03  0.77352332998E+03  0.50400001928E-02 0. -1.
    10030    2    1    2    0    0  0.00000000000E+00  0.00000000000E+00 -0.53152379066E+02  0.14938942809E+04  0.14929484074E+04 0.  0.
        3    1    3    3  502    0  0.14407647760E+03  0.29343709666E+03  0.64493792615E+03  0.72305483878E+03  0.10100000352E+00 0.  1.
       -3    1    3    3    0  502 -0.14407647760E+03 -0.29343709666E+03 -0.69809030521E+03  0.77083944212E+03  0.10100000352E+00 0. -1.
</event>
<event>
 5   0  0.1149716E-03  0.1385392E+04  0.7818609E-02  0.8964461E-01
        2   -1    0    0  501    0  0.00000000000E+00  0.00000000000E+00  0.20605825081E+03  0.20605825083E+03  0.25500000920E-02 0.  1.
       -2   -1    0    0    0  501  0.00000000000E+00  0.00000000000E+00 -0.23286029462E+04  0.23286029462E+04  0.25500000920E-02 0. -1.
    10030    2    1    2    0    0  0.00000000000E+00  0.00000000000E+00 -0.21225446954E+04  0.25346611970E+04  0.13853921466E+04 0.  0.
        1    1    3    3  502    0  0.47149574239E+03  0.47121975893E+02 -0.13684695615E+03  0.49320969692E+03  0.50400001928E-02 0.  1.
       -1    1    3    3    0  502 -0.47149574239E+03 -0.47121975893E+02 -0.19856977392E+04  0.20414515001E+04  0.50400001928E-02 0. -1.
</event>
<event>
 5   0  0.1082667E-03  0.1501562E+04  0.7818609E-02  0.8883415E-01
        2   -1    0    0  501    0  0.00000000000E+00  0.00000000000E+00  0.49554469821E+03  0.49554469821E+03  0.25500000920E-02 0. -1.
       -2   -1    0    0    0  501  0.00000000000E+00  0.00000000000E+00 -0.11374804404E+04  0.11374804404E+04  0.25500000920E-02 0.  1.
    10030    2    1    2    0    0  0.00000000000E+00  0.00000000000E+00 -0.64193574222E+03  0.16330251386E+04  0.15015623884E+04 0.  0.
        5    1    3    3  502    0 -0.46897227044E+03 -0.36596674603E+03 -0.81908940859E+03  0.10123221814E+04  0.46999998093E+01 0.  1.
       -5    1    3    3    0  502  0.46897227044E+03  0.36596674603E+03  0.17715366637E+03  0.62070295726E+03  0.46999998093E+01 0. -1.
</event>
<event>
 5   0  0.5606965E-04  0.1504806E+04  0.7818609E-02  0.8881263E-01
       -1   -1    0    0    0  501  0.00000000000E+00  0.00000000000E+00  0.66759551053E+03  0.66759551055E+03  0.50400001928E-02 0.  1.
        1   -1    0    0  501    0  0.00000000000E+00  0.00000000000E+00 -0.84798363395E+03  0.84798363396E+03  0.50400001928E-02 0. -1.
    10030    2    1    2    0    0  0.00000000000E+00  0.00000000000E+00 -0.18038812341E+03  0.15155791445E+04  0.15048057244E+04 0.  0.
        4    1    3    3  502    0  0.73382372554E+02 -0.31952722746E+03  0.59187357352E+03  0.67660813003E+03  0.12699999809E+01 0.  1.
       -4    1    3    3    0  502 -0.73382372554E+02  0.31952722746E+03 -0.77226169693E+03  0.83897101448E+03  0.12699999809E+01 0. -1.
</event>
<event>
 5   0  0.1147755E-03  0.1565441E+04  0.7818609E-02  0.8842065E-01
        2   -1    0    0  501    0  0.00000000000E+00  0.00000000000E+00  0.17290032223E+04  0.17290032223E+04  0.25500000920E-02 0. -1.
       -2   -1    0    0    0  501  0.00000000000E+00  0.00000000000E+00 -0.35433775826E+03  0.35433775827E+03  0.25500000920E-02 0.  1.
    10030    2    1    2    0    0  0.00000000000E+00  0.00000000000E+00  0.13746654640E+04  0.20833409805E+04  0.15654406738E+04 0.  0.
        4    1    3    3  502    0  0.29408064909E+03  0.54506074942E+03  0.13242931746E+04  0.14619605583E+04  0.12699999809E+01 0. -1.
       -4    1    3    3    0  502 -0.29408064909E+03 -0.54506074942E+03  0.50372289403E+02  0.62138042226E+03  0.12699999809E+01 0.  1.
</event>
<event>
 5   0  0.1097156E-03  0.1463192E+04  0.7818609E-02  0.8909306E-01
        2   -1    0    0  501    0  0.00000000000E+00  0.00000000000E+00  0.21616859751E+04  0.21616859751E+04  0.25500000920E-02 0.  1.
       -2   -1    0    0    0  501  0.00000000000E+00  0.00000000000E+00 -0.24759964700E+03  0.24759964702E+03  0.25500000920E-02 0. -1.
    10030    2    1    2    0    0  0.00000000000E+00  0.00000000000E+00  0.19140863281E+04  0.24092856221E+04  0.14631919688E+04 0.  0.
        2    1    3    3  502    0  0.10832855895E+02 -0.18494473025E+03  0.21224221145E+04  0.21304923225E+04  0.25500000920E-02 0.  1.
       -2    1    3    3    0  502 -0.10832855895E+02  0.18494473025E+03 -0.20833578641E+03  0.27879329963E+03  0.25500000920E-02 0. -1.
</event>
<event>
 5   0  0.5924403E-04  0.1483597E+04  0.7818609E-02  0.8895434E-01
        1   -1    0    0  501    0  0.00000000000E+00  0.00000000000E+00  0.12382912112E+04  0.12382912112E+04  0.50400001928E-02 0.  1.
       -1   -1    0    0    0  501  0.00000000000E+00  0.00000000000E+00 -0.44437457417E+03  0.44437457420E+03  0.50400001928E-02 0. -1.
    10030    2    1    2    0    0  0.00000000000E+00  0.00000000000E+00  0.79391663703E+03  0.16826657854E+04  0.14835971552E+04 0.  0.
        1    1    3    3  502    0 -0.17070266448E+03  0.33838119293E+03 -0.32627482783E+03  0.50009648538E+03  0.50400001928E-02 0. -1.
       -1    1    3    3    0  502  0.17070266448E+03 -0.33838119293E+03  0.11201914649E+04  0.11825693000E+04  0.50400001928E-02 0.  1.
</event>
<event>
 5   0  0.1097156E-03  0.1494037E+04  0.7818609E-02  0.8888428E-01
        2   -1    0    0  501    0  0.00000000000E+00  0.00000000000E+00  0.76155480045E+03  0.76155480045E+03  0.25500000920E-02 0. -1.
       -2   -1    0    0    0  501  0.00000000000E+00  0.00000000000E+00 -0.73275964204E+03  0.73275964205E+03  0.25500000920E-02 0.  1.
    10030    2    1    2    0    0  0.00000000000E+00  0.00000000000E+00  0.28795158402E+02  0.14943144425E+04  0.14940369781E+04 0.  0.
        2    1    3    3  502    0 -0.29435421865E+03  0.73519832185E+02 -0.66836163782E+03  0.73400057948E+03  0.25500000920E-02 0.  1.
       -2    1    3    3    0  502  0.29435421865E+03 -0.73519832185E+02  0.69715679622E+03  0.76031386301E+03  0.25500000920E-02 0. -1.
</event>
<event>
 5   0  0.5914645E-04  0.1480568E+04  0.7818609E-02  0.8897479E-01
       -1   -1    0    0    0  501  0.00000000000E+00  0.00000000000E+00  0.56384214582E+03  0.56384214585E+03  0.50400001928E-02 0. -1.
        1   -1    0    0  501    0  0.00000000000E+00  0.00000000000E+00 -0.97193980920E+03  0.97193980921E+03  0.50400001928E-02 0.  1.
    10030    2    1    2    0    0  0.00000000000E+00  0.00000000000E+00 -0.40809766337E+03  0.15357819551E+04  0.14805683066E+04 0.  0.
        2    1    3    3  502    0 -0.17438147497E+02  0.59077245113E+03  0.25833741533E+03  0.64502278888E+03  0.25500000920E-02 0. -1.
       -2    1    3    3    0  502  0.17438147497E+02 -0.59077245113E+03 -0.66643507870E+03  0.89075916618E+03  0.25500000920E-02 0.  1.
</event>
<event>
 5   0  0.5606965E-04  0.1529140E+04  0.7818609E-02  0.8865303E-01
       -1   -1    0    0    0  501  0.00000000000E+00  0.00000000000E+00  0.53712307746E+03  0.53712307749E+03  0.50400001928E-02 0. -1.
        1   -1    0    0  501    0  0.00000000000E+00  0.00000000000E+00 -0.10883296172E+04  0.10883296172E+04  0.50400001928E-02 0.  1.
    10030    2    1    2    0    0  0.00000000000E+00  0.00000000000E+00 -0.55120653977E+03  0.16254526947E+04  0.15291395663E+04 0.  0.
        4    1    3    3  502    0 -0.22063606473E+03 -0.71920220357E+03 -0.42070467059E+03  0.86193161877E+03  0.12699999809E+01 0.  1.
       -4    1    3    3    0  502  0.22063606473E+03  0.71920220357E+03 -0.13050186918E+03  0.76352107596E+03  0.12699999809E+01 0. -1.
</event>
<event>
 5   0  0.1149716E-03  0.1489608E+04  0.7818609E-02  0.8891393E-01
       -2   -1    0    0    0  501  0.00000000000E+00  0.00000000000E+00  0.10942802720E+04  0.10942802720E+04  0.25500000920E-02 0. -1.
        2   -1    0    0  501    0  0.00000000000E+00  0.00000000000E+00 -0.50693893674E+03  0.50693893675E+03  0.25500000920E-02 0.  1.
    10030    2    1    2    0    0  0.00000000000E+00  0.00000000000E+00  0.58734133524E+03  0.16012192087E+04  0.14896083748E+04 0.  0.
        1    1    3    3  502    0  0.45694455577E+03 -0.55277875172E+03  0.77691780153E+02  0.72138664260E+03  0.50400001928E-02 0.  1.
       -1    1    3    3    0  502 -0.45694455577E+03  0.55277875172E+03  0.50964955509E+03  0.87983256613E+03  0.50400001928E-02 0. -1.
</event>
<event>
 5   0  0.1097156E-03  0.1500205E+04  0.7818609E-02  0.8884316E-01
       -2   -1    0    0    0  501  0.00000000000E+00  0.00000000000E+00  0.47942496356E+03  0.47942496356E+03  0.25500000920E-02 0. -1.
        2   -1    0    0  501    0  0.00000000000E+00  0.00000000000E+00 -0.11736019420E+04  0.11736019420E+04  0.25500000920E-02 0.  1.
    10030    2    1    2    0    0  0.00000000000E+00  0.00000000000E+00 -0.69417697843E+03  0.16530269056E+04  0.15002054103E+04 0.  0.
        2    1    3    3  502    0  0.23361300199E+03 -0.25301347795E+02  0.43782368111E+03  0.49689512842E+03  0.25500000920E-02 0. -1.
       -2    1    3    3    0  502 -0.23361300199E+03  0.25301347795E+02 -0.11320006595E+04  0.11561317771E+04  0.25500000920E-02 0.  1.
</event>
<event>
 5   0  0.5924403E-04  0.1436926E+04  0.7818609E-02  0.8927515E-01
       -1   -1    0    0    0  501  0.00000000000E+00  0.00000000000E+00  0.62204345879E+03  0.62204345881E+03  0.50400001928E-02 0.  1.
        1   -1    0    0  501    0  0.00000000000E+00  0.00000000000E+00 -0.82982838423E+03  0.82982838424E+03  0.50400001928E-02 0. -1.
    10030    2    1    2    0    0  0.00000000000E+00  0.00000000000E+00 -0.20778492544E+03  0.14518718431E+04  0.14369263285E+04 0.  0.
        1    1    3    3  502    0  0.25947783890E+03  0.63236158725E+03 -0.32750722831E+03  0.75793859285E+03  0.50400001928E-02 0.  1.
       -1    1    3    3    0  502 -0.25947783890E+03 -0.63236158725E+03  0.11972230287E+03  0.69393325020E+03  0.50400001928E-02 0. -1.
</event>
<event>
 5   0  0.5914645E-04  0.1499928E+04  0.7818609E-02  0.8884500E-01
       -1   -1    0    0    0  501  0.00000000000E+00  0.00000000000E+00  0.17085280271E+04  0.17085280271E+04  0.50400001928E-02 0. -1.
        1   -1    0    0  501    0  0.00000000000E+00  0.00000000000E+00 -0.32919936744E+03  0.32919936748E+03  0.50400001928E-02 0.  1.
    10030    2    1    2    0    0  0.00000000000E+00  0.00000000000E+00  0.13793286597E+04  0.20377273946E+04  0.14999284594E+04 0.  0.
        2    1    3    3  502    0 -0.24521948091E+03 -0.20461063737E+03  0.16115264009E+04  0.16428680554E+04  0.25500000920E-02 0. -1.
       -2    1    3    3    0  502  0.24521948091E+03  0.20461063737E+03 -0.23219774118E+03  0.39485933921E+03  0.25500000920E-02 0.  1.
</event>
<event>
 5   0  0.1149716E-03  0.1560930E+04  0.7818609E-02  0.8844917E-01
       -2   -1    0    0    0  501  0.00000000000E+00  0.00000000000E+00  0.78907723649E+03  0.78907723649E+03  0.25500000920E-02 0. -1.
        2   -1    0    0  501    0  0.00000000000E+00  0.00000000000E+00 -0.77194639023E+03  0.77194639023E+03  0.25500000920E-02 0.  1.
    10030    2    1    2    0    0  0.00000000000E+00  0.00000000000E+00  0.17130846258E+02  0.15610236267E+04  0.15609296260E+04 0.  0.
        1    1    3    3  502    0 -0.11175257342E+03  0.17606102066E+03 -0.74356975913E+03  0.77225779853E+03  0.50400001928E-02 0.  1.
       -1    1    3    3    0  502  0.11175257342E+03 -0.17606102066E+03  0.76070060539E+03  0.78876582820E+03  0.50400001928E-02 0. -1.
</event>
<event>
 5   0  0.5914645E-04  0.1476865E+04  0.7818609E-02  0.8899985E-01
       -1   -1    0    0    0  501  0.00000000000E+00  0.00000000000E+00  0.35241543141E+03  0.35241543145E+03  0.50400001928E-02 0. -1.
        1   -1    0    0  501    0  0.00000000000E+00  0.00000000000E+00 -0.15472729218E+04  0.15472729218E+04  0.50400001928E-02 0.  1.
    10030    2    1    2    0    0  0.00000000000E+00  0.00000000000E+00 -0.11948574904E+04  0.18996883533E+04  0.14768654025E+04 0.  0.
        2    1    3    3  502    0  0.64180343254E+02  0.41851341429E+03 -0.13756230950E+04  0.14393093809E+04  0.25500000920E-02 0.  1.
       -2    1    3    3    0  502 -0.64180343254E+02 -0.41851341429E+03  0.18076560459E+03  0.46037897238E+03  0.25500000920E-02 0. -1.
</event>
<event>
 5   0  0.5840834E-04  0.1469449E+04  0.7818609E-02  0.8905027E-01
       -1   -1    0    0    0  501  0.00000000000E+00  0.00000000000E+00  0.90162998510E+03  0.90162998511E+03  0.50400001928E-02 0.  1.
        1   -1    0    0  501    0  0.00000000000E+00  0.00000000000E+00 -0.59871582446E+03  0.59871582448E+03  0.50400001928E-02 0. -1.
    10030    2    1    2    0    0  0.00000000000E+00  0.00000000000E+00  0.30291416064E+03  0.15003458096E+04  0.14694490667E+04 0.  0.
        3    1    3    3  502    0  0.13307284725E+03 -0.25446318351E+03 -0.53904665709E+03  0.61076280434E+03  0.10100000352E+00 0. -1.
       -3    1    3    3    0  502 -0.13307284725E+03  0.25446318351E+03  0.84196081773E+03  0.88958300525E+03  0.10100000352E+00 0.  1.
</event>
<event>
 5   0  0.1149716E-03  0.1505065E+04  0.7818609E-02  0.8881092E-01
        2   -1    0    0  501    0  0.00000000000E+00  0.00000000000E+00  0.12193025316E+04  0.12193025316E+04  0.25500000920E-02 0.  1.
       -2   -1    0    0    0  501  0.00000000000E+00  0.00000000000E+00 -0.46444988198E+03  0.46444988199E+03  0.25500000920E-02 0. -1.
    10030    2    1    2    0    0  0.00000000000E+00  0.00000000000E+00  0.75485264957E+03  0.16837524135E+04  0.15050646722E+04 0.  0.
        1    1    3    3  502    0  0.92161697691E+02  0.41224644350E+03  0.10741535960E+04  0.11542299843E+04  0.50400001928E-02 0.  1.
       -1    1    3    3    0  502 -0.92161697691E+02 -0.41224644350E+03 -0.31930094644E+03  0.52952242929E+03  0.50400001928E-02 0. -1.
</event>
<event>
 5   0  0.1147755E-03  0.1507049E+04  0.7818609E-02  0.8879779E-01
        2   -1    0    0  501    0  0.00000000000E+00  0.00000000000E+00  0.55518207350E+03  0.55518207351E+03  0.25500000920E-02 0. -1.
       -2   -1    0    0    0  501  0.00000000000E+00  0.00000000000E+00 -0.10227256808E+04  0.10227256808E+04  0.25500000920E-02 0.  1.
    10030    2    1    2    0    0  0.00000000000E+00  0.00000000000E+00 -0.46754360728E+03  0.15779077543E+04  0.15070487240E+04 0.  0.
        4    1    3    3  502    0  0.67837607236E+03  0.20365712228E+02 -0.57656200582E+03  0.89052468649E+03  0.12699999809E+01 0. -1.
       -4    1    3    3    0  502 -0.67837607236E+03 -0.20365712228E+02  0.10901839854E+03  0.68738306781E+03  0.12699999809E+01 0.  1.
</event>
<event>
 5   0  0.1147755E-03  0.1491989E+04  0.7818609E-02  0.8889798E-01
       -2   -1    0    0    0  501  0.00000000000E+00  0.00000000000E+00  0.13779535899E+04  0.13779535899E+04  0.25500000920E-02 0. -1.
        2   -1    0    0  501    0  0.00000000000E+00  0.00000000000E+00 -0.40386553518E+03  0.40386553519E+03  0.25500000920E-02 0.  1.
    10030    2    1    2    0    0  0.00000000000E+00  0.00000000000E+00  0.97408805472E+03  0.17818191251E+04  0.14919892279E+04 0.  0.
        4    1    3    3  502    0  0.33191488404E+03  0.17223047289E+03  0.12579420368E+04  0.13123454602E+04  0.12699999809E+01 0. -1.
       -4    1    3    3    0  502 -0.33191488404E+03 -0.17223047289E+03 -0.28385398204E+03  0.46947366493E+03  0.12699999809E+01 0.  1.
</event>
<event>
 5   0  0.1126175E-03  0.1487007E+04  0.7818609E-02  0.8893139E-01
        2   -1    0    0  501    0  0.00000000000E+00  0.00000000000E+00  0.10028239202E+04  0.10028239202E+04  0.25500000920E-02 0.  1.
       -2   -1    0    0    0  501  0.00000000000E+00  0.00000000000E+00 -0.55124109212E+03  0.55124109213E+03  0.25500000920E-02 0. -1.
    10030    2    1    2    0    0  0.00000000000E+00  0.00000000000E+00  0.45158282806E+03  0.15540650123E+04  0.14870074014E+04 0.  0.
        3    1    3    3  502    0 -0.28734227801E+03 -0.33937063868E+03  0.84853141157E+03  0.95798934323E+03  0.10100000352E+00 0.  1.
       -3    1    3    3    0  502  0.28734227801E+03  0.33937063868E+03 -0.39694858351E+03  0.59607566909E+03  0.10100000352E+00 0. -1.
</event>
<event>
 5   0  0.5924403E-04  0.1516194E+04  0.7818609E-02  0.8873755E-01
        1   -1    0    0  501    0  0.00000000000E+00  0.00000000000E+00  0.10274687792E+04  0.10274687792E+04  0.50400001928E-02 0.  1.
       -1   -1    0    0    0  501  0.00000000000E+00  0.00000000000E+00 -0.55934636832E+03  0.55934636835E+03  0.50400001928E-02 0. -1.
    10030    2    1    2    0    0  0.00000000000E+00  0.00000000000E+00  0.46812241090E+03  0.15868151476E+04  0.15161938270E+04 0.  0.
        1    1    3    3  502    0 -0.56997997022E+03  0.33389399240E+03 -0.15521597305E+03  0.67856787643E+03  0.50400001928E-02 0. -1.
       -1    1    3    3    0  502  0.56997997022E+03 -0.33389399240E+03  0.62333838395E+03  0.90824727114E+03  0.50400001928E-02 0.  1.
</event>
<event>
 5   0  0.1097156E-03  0.1504866E+04  0.7818609E-02  0.8881224E-01
        2   -1    0    0  501    0  0.00000000000E+00  0.00000000000E+00  0.11095154014E+04  0.11095154014E+04  0.25500000920E-02 0.  1.
       -2   -1    0    0    0  501  0.00000000000E+00  0.00000000000E+00 -0.51027250315E+03  0.51027250316E+03  0.25500000920E-02 0. -1.
    10030    2    1    2    0    0  0.00000000000E+00  0.00000000000E+00  0.59924289826E+03  0.16197879046E+04  0.15048657098E+04 0.  0.
        2    1    3    3  502    0  0.13649339692E+03 -0.61043571760E+03  0.74976041058E+03  0.97642351774E+03  0.25500000920E-02 0.  1.
       -2    1    3    3    0  502 -0.13649339692E+03  0.61043571760E+03 -0.15051751232E+03  0.64336438683E+03  0.25500000920E-02 0. -1.
</event>
<event>
 5   0  0.1149716E-03  0.1489419E+04  0.7818609E-02  0.8891520E-01
       -2   -1    0    0    0  501  0.00000000000E+00  0.00000000000E+00  0.24971955257E+03  0.24971955258E+03  0.25500000920E-02 0. -1.
        2   -1    0    0  501    0  0.00000000000E+00  0.00000000000E+00 -0.22208589134E+04  0.22208589134E+04  0.25500000920E-02 0.  1.
    10030    2    1    2    0    0  0.00000000000E+00  0.00000000000E+00 -0.19711393608E+04  0.24705784660E+04  0.14894185365E+04 0.  0.
        1    1    3    3  502    0 -0.66550804853E+03  0.33416803108E+03 -0.99346550768E+03  0.12415888815E+04  0.50400001928E-02 0.  1.
       -1    1    3    3    0  502  0.66550804853E+03 -0.33416803108E+03 -0.97767385311E+03  0.12289895845E+04  0.50400001928E-02 0. -1.
</event>
<event>
 5   0  0.5914645E-04  0.1486249E+04  0.7818609E-02  0.8893649E-01
        1   -1    0    0  501    0  0.00000000000E+00  0.00000000000E+00  0.71044435728E+03  0.71044435730E+03  0.50400001928E-02 0. -1.
       -1   -1    0    0    0  501  0.00000000000E+00  0.00000000000E+00 -0.77730806228E+03  0.77730806230E+03  0.50400001928E-02 0.  1.
    10030    2    1    2    0    0  0.00000000000E+00  0.00000000000E+00 -0.66863705002E+02  0.14877524196E+04  0.14862491403E+04 0.  0.
        2    1    3    3  502    0  0.71807725780E+03  0.14122632420E+03 -0.16261393808E+03  0.74968200971E+03  0.25500000920E-02 0.  1.
       -2    1    3    3    0  502 -0.71807725780E+03 -0.14122632420E+03  0.95750233077E+02  0.73807040989E+03  0.25500000920E-02 0. -1.
</event>
<event>
 5   0  0.5914645E-04  0.1501647E+04  0.7818609E-02  0.8883359E-01
       -1   -1    0    0    0  501  0.00000000000E+00  0.00000000000E+00  0.69040292197E+03  0.69040292199E+03  0.50400001928E-02 0. -1.
        1   -1    0    0  501    0  0.00000000000E+00  0.00000000000E+00 -0.81653133250E+03  0.81653133251E+03  0.50400001928E-02 0.  1.
    10030    2    1    2    0    0  0.00000000000E+00  0.00000000000E+00 -0.12612841053E+03  0.15069342545E+04  0.15016465867E+04 0.  0.
        2    1    3    3  502    0  0.39647687178E+03  0.24993433689E+03  0.52557995209E+03  0.70419838729E+03  0.25500000920E-02 0. -1.
       -2    1    3    3    0  502 -0.39647687178E+03 -0.24993433689E+03 -0.65170836261E+03  0.80273586722E+03  0.25500000920E-02 0.  1.
</event>
<event>
 5   0  0.1149716E-03  0.1474304E+04  0.7818609E-02  0.8901723E-01
        2   -1    0    0  501    0  0.00000000000E+00  0.00000000000E+00  0.14863889439E+04  0.14863889439E+04  0.25500000920E-02 0.  1.
       -2   -1    0    0    0  501  0.00000000000E+00  0.00000000000E+00 -0.36557914507E+03  0.36557914507E+03  0.25500000920E-02 0. -1.
    10030    2    1    2    0    0  0.00000000000E+00  0.00000000000E+00  0.11208097988E+04  0.18519680890E+04  0.14743036314E+04 0.  0.
        1    1    3    3  502    0  0.45332422710E+03  0.57338110194E+03  0.68039365369E+03  0.99860115509E+03  0.50400001928E-02 0. -1.
       -1    1    3    3    0  502 -0.45332422710E+03 -0.57338110194E+03  0.44041614515E+03  0.85336693390E+03  0.50400001928E-02 0.  1.
</event>
<event>
 5   0  0.1147755E-03  0.1498890E+04  0.7818609E-02  0.8885192E-01
        2   -1    0    0  501    0  0.00000000000E+00  0.00000000000E+00  0.35768590103E+03  0.35768590104E+03  0.25500000920E-02 0.  1.
       -2   -1    0    0    0  501  0.00000000000E+00  0.00000000000E+00 -0.15702815320E+04  0.15702815320E+04  0.25500000920E-02 0. -1.
    10030    2    1    2    0    0  0.00000000000E+00  0.00000000000E+00 -0.12125956310E+04  0.19279674331E+04  0.14988896753E+04 0.  0.
        4    1    3    3  502    0  0.61286257101E+03  0.39013962361E+03 -0.84297207269E+03  0.11128400537E+04  0.12699999809E+01 0. -1.
       -4    1    3    3    0  502 -0.61286257101E+03 -0.39013962361E+03 -0.36962355829E+03  0.81512737937E+03  0.12699999809E+01 0.  1.
</event>
<event>
 5   0  0.1147755E-03  0.1515489E+04  0.7818609E-02  0.8874217E-01
       -2   -1    0    0    0  501  0.00000000000E+00  0.00000000000E+00  0.45341608899E+03  0.45341608899E+03  0.25500000920E-02 0.  1.
        2   -1    0    0  501    0  0.00000000000E+00  0.00000000000E+00 -0.12663359354E+04  0.12663359354E+04  0.25500000920E-02 0. -1.
    10030    2    1    2    0    0  0.00000000000E+00  0.00000000000E+00 -0.81291984640E+03  0.17197520244E+04  0.15154894750E+04 0.  0.
        4    1    3    3  502    0  0.70425790901E+03  0.25085358215E+03 -0.26623840074E+03  0.79359386402E+03  0.12699999809E+01 0. -1.
       -4    1    3    3    0  502 -0.70425790901E+03 -0.25085358215E+03 -0.54668144566E+03  0.92615816037E+03  0.12699999809E+01 0.  1.
</event>
<event>
 5   0  0.5840834E-04  0.1497743E+04  0.7818609E-02  0.8885955E-01
       -1   -1    0    0    0  501  0.00000000000E+00  0.00000000000E+00  0.95412069155E+03  0.95412069156E+03  0.50400001928E-02 0.  1.
        1   -1    0    0  501    0  0.00000000000E+00  0.00000000000E+00 -0.58777542812E+03  0.58777542814E+03  0.50400001928E-02 0. -1.
    10030    2    1    2    0    0  0.00000000000E+00  0.00000000000E+00  0.36634526342E+03  0.15418961197E+04  0.14977432330E+04 0.  0.
        3    1    3    3  502    0 -0.11999310574E+03  0.15717571311E+03 -0.56041254304E+03  0.59427668540E+03  0.10100000352E+00 0. -1.
       -3    1    3    3    0  502  0.11999310574E+03 -0.15717571311E+03  0.92675780647E+03  0.94761943430E+03  0.10100000352E+00 0.  1.
</event>
<event>
 5   0  0.6146552E-04  0.1502701E+04  0.7818609E-02  0.8882659E-01
        1   -1    0    0  501    0  0.00000000000E+00  0.00000000000E+00  0.96215691599E+03  0.96215691600E+03  0.50400001928E-02 0. -1.
       -1   -1    0    0    0  501  0.00000000000E+00  0.00000000000E+00 -0.58673107642E+03  0.58673107644E+03  0.50400001928E-02 0.  1.
    10030    2    1    2    0    0  0.00000000000E+00  0.00000000000E+00  0.37542583957E+03  0.15488879924E+04  0.15027007194E+04 0.  0.
        5    1    3    3  502    0 -0.70097028954E+03 -0.18850028843E+03  0.38761613613E+03  0.82289735966E+03  0.46999998093E+01 0.  1.
       -5    1    3    3    0  502  0.70097028954E+03  0.18850028843E+03 -0.12190296563E+02  0.72599063278E+03  0.46999998093E+01 0. -1.
</event>
<event>
 5   0  0.1097156E-03  0.1496102E+04  0.7818609E-02  0.8887049E-01
        2   -1    0    0  501    0  0.00000000000E+00  0.00000000000E+00  0.86524749077E+03  0.86524749077E+03  0.25500000920E-02 0. -1.
       -2   -1    0    0    0  501  0.00000000000E+00  0.00000000000E+00 -0.64672874359E+03  0.64672874360E+03  0.25500000920E-02 0.  1.
    10030    2    1    2    0    0  0.00000000000E+00  0.00000000000E+00  0.21851874718E+03  0.15119762344E+04  0.14961021658E+04 0.  0.
        2    1    3    3  502    0 -0.65644846378E+03  0.31395817451E+03 -0.66034473580E+02  0.73065372965E+03  0.25500000920E-02 0. -1.
       -2    1    3    3    0  502  0.65644846378E+03 -0.31395817451E+03  0.28455322076E+03  0.78132250472E+03  0.25500000920E-02 0.  1.
</event>
<event>
 5   0  0.5914645E-04  0.1486733E+04  0.7818609E-02  0.8893324E-01
        1   -1    0    0  501    0  0.00000000000E+00  0.00000000000E+00  0.71215910746E+03  0.71215910747E+03  0.50400001928E-02 0.  1.
       -1   -1    0    0    0  501  0.00000000000E+00  0.00000000000E+00 -0.77594116795E+03  0.77594116797E+03  0.50400001928E-02 0. -1.
    10030    2    1    2    0    0  0.00000000000E+00  0.00000000000E+00 -0.63782060496E+02  0.14881002754E+04  0.14867327529E+04 0.  0.
        2    1    3    3  502    0 -0.29420501356E+03 -0.43846285138E+03  0.49183715101E+03  0.72160241488E+03  0.25500000920E-02 0.  1.
       -2    1    3    3    0  502  0.29420501356E+03  0.43846285138E+03 -0.55561921151E+03  0.76649786056E+03  0.25500000920E-02 0. -1.
</event>
<event>
 5   0  0.5914645E-04  0.1492985E+04  0.7818609E-02  0.8889131E-01
       -1   -1    0    0    0  501  0.00000000000E+00  0.00000000000E+00  0.57872533837E+03  0.57872533839E+03  0.50400001928E-02 0.  1.
        1   -1    0    0  501    0  0.00000000000E+00  0.00000000000E+00 -0.96289346663E+03  0.96289346665E+03  0.50400001928E-02 0. -1.
    10030    2    1    2    0    0  0.00000000000E+00  0.00000000000E+00 -0.38416812826E+03  0.15416188050E+04  0.14929847251E+04 0.  0.
        2    1    3    3  502    0  0.26587743725E+03  0.44205669612E+02  0.52672903214E+03  0.59168270734E+03  0.25500000920E-02 0.  1.
       -2    1    3    3    0  502 -0.26587743725E+03 -0.44205669612E+02 -0.91089716040E+03  0.94993609769E+03  0.25500000920E-02 0. -1.
</event>
<event>
 5   0  0.5924403E-04  0.1515193E+04  0.7818609E-02  0.8874412E-01
        1   -1    0    0  501    0  0.00000000000E+00  0.00000000000E+00  0.76442605457E+03  0.76442605459E+03  0.50400001928E-02 0.  1.
       -1   -1    0    0    0  501  0.00000000000E+00  0.00000000000E+00 -0.75082768877E+03  0.75082768879E+03  0.50400001928E-02 0. -1.
    10030    2    1    2    0    0  0.00000000000E+00  0.00000000000E+00  0.13598365800E+02  0.15152537434E+04  0.15151927241E+04 0.  0.
        1    1    3    3  502    0  0.65508781591E+03 -0.21082741476E+03 -0.31001635684E+03  0.75478366894E+03  0.50400001928E-02 0. -1.
       -1    1    3    3    0  502 -0.65508781591E+03  0.21082741476E+03  0.32361472264E+03  0.76047007443E+03  0.50400001928E-02 0.  1.
</event>
<event>
 5   0  0.1097156E-03  0.1500948E+04  0.7818609E-02  0.8883823E-01
       -2   -1    0    0    0  501  0.00000000000E+00  0.00000000000E+00  0.10029120181E+04  0.10029120181E+04  0.25500000920E-02 0.  1.
        2   -1    0    0  501    0  0.00000000000E+00  0.00000000000E+00 -0.56157596446E+03  0.56157596447E+03  0.25500000920E-02 0. -1.
    10030    2    1    2    0    0  0.00000000000E+00  0.00000000000E+00  0.44133605363E+03  0.15644879826E+04  0.15009480788E+04 0.  0.
        2    1    3    3  502    0 -0.18865915162E+03 -0.26005693877E+03 -0.48626858281E+03  0.58281988772E+03  0.25500000920E-02 0. -1.
       -2    1    3    3    0  502  0.18865915162E+03  0.26005693877E+03  0.92760463644E+03  0.98166809484E+03  0.25500000920E-02 0.  1.
</event>
<event>
 5   0  0.1147755E-03  0.1497141E+04  0.7818609E-02  0.8886356E-01
       -2   -1    0    0    0  501  0.00000000000E+00  0.00000000000E+00  0.61723663429E+03  0.61723663429E+03  0.25500000920E-02 0. -1.
        2   -1    0    0  501    0  0.00000000000E+00  0.00000000000E+00 -0.90784912258E+03  0.90784912259E+03  0.25500000920E-02 0.  1.
    10030    2    1    2    0    0  0.00000000000E+00  0.00000000000E+00 -0.29061248829E+03  0.15250857569E+04  0.14971409244E+04 0.  0.
        4    1    3    3  502    0 -0.21686169460E+03  0.66641944024E+03 -0.41329902514E+03  0.81361020274E+03  0.12699999809E+01 0.  1.
       -4    1    3    3    0  502  0.21686169460E+03 -0.66641944024E+03  0.12268653684E+03  0.71147555414E+03  0.12699999809E+01 0. -1.
</event>
<event>
 5   0  0.5840834E-04  0.1588286E+04  0.7818609E-02  0.8827777E-01
       -1   -1    0    0    0  501  0.00000000000E+00  0.00000000000E+00  0.30660608677E+03  0.30660608682E+03  0.50400001928E-02 0. -1.
        1   -1    0    0  501    0  0.00000000000E+00  0.00000000000E+00 -0.20569172423E+04  0.20569172423E+04  0.50400001928E-02 0.  1.
    10030    2    1    2    0    0  0.00000000000E+00  0.00000000000E+00 -0.17503111555E+04  0.23635233291E+04  0.15882863048E+04 0.  0.
        3    1    3    3  502    0  0.43776506632E+03 -0.15387565610E+03 -0.18341958229E+04  0.18919805226E+04  0.10100000352E+00 0.  1.
       -3    1    3    3    0  502 -0.43776506632E+03  0.15387565610E+03  0.83884667341E+02  0.47154280659E+03  0.10100000352E+00 0. -1.
</event>
<event>
 5   0  0.1149716E-03  0.1518560E+04  0.7818609E-02  0.8872204E-01
       -2   -1    0    0    0  501  0.00000000000E+00  0.00000000000E+00  0.33449181580E+03  0.33449181581E+03  0.25500000920E-02 0. -1.
        2   -1    0    0  501    0  0.00000000000E+00  0.00000000000E+00 -0.17235281379E+04  0.17235281379E+04  0.25500000920E-02 0.  1.
    10030    2    1    2    0    0  0.00000000000E+00  0.00000000000E+00 -0.13890363221E+04  0.20580199537E+04  0.15185599184E+04 0.  0.
        1    1    3    3  502    0  0.47510489580E+03  0.27389547876E+03  0.17162851542E+02  0.54866926176E+03  0.50400001928E-02 0. -1.
       -1    1    3    3    0  502 -0.47510489580E+03 -0.27389547876E+03 -0.14061991737E+04  0.15093506920E+04  0.50400001928E-02 0.  1.
</event>
<event>
 5   0  0.5914645E-04  0.1467196E+04  0.7818609E-02  0.8906565E-01
       -1   -1    0    0    0  501  0.00000000000E+00  0.00000000000E+00  0.57055112114E+03  0.57055112116E+03  0.50400001928E-02 0.  1.
        1   -1    0    0  501    0  0.00000000000E+00  0.00000000000E+00 -0.94323863031E+03  0.94323863033E+03  0.50400001928E-02 0. -1.
    10030    2    1    2    0    0  0.00000000000E+00  0.00000000000E+00 -0.37268750917E+03  0.15137897515E+04  0.14671957716E+04 0.  0.
        2    1    3    3  502    0  0.44960573513E+02  0.11352322181E+03 -0.93268074838E+03  0.94063933230E+03  0.25500000920E-02 0. -1.
       -2    1    3    3    0  502 -0.44960573513E+02 -0.11352322181E+03  0.55999323921E+03  0.57315041920E+03  0.25500000920E-02 0.  1.
</event>
<event>
 5   0  0.5924403E-04  0.1491492E+04  0.7818609E-02  0.8890131E-01
       -1   -1    0    0    0  501  0.00000000000E+00  0.00000000000E+00  0.10202747638E+04  0.10202747639E+04  0.50400001928E-02 0.  1.
        1   -1    0    0  501    0  0.00000000000E+00  0.00000000000E+00 -0.54508532587E+03  0.54508532589E+03  0.50400001928E-02 0. -1.
    10030    2    1    2    0    0  0.00000000000E+00  0.00000000000E+00  0.47518943798E+03  0.15653600898E+04  0.14914916053E+04 0.  0.
        1    1    3    3  502    0 -0.34940631097E+02 -0.30710982370E+01  0.10194085667E+04  0.10200118162E+04  0.50400001928E-02 0.  1.
       -1    1    3    3    0  502  0.34940631097E+02  0.30710982370E+01 -0.54421912872E+03  0.54534827353E+03  0.50400001928E-02 0. -1.
</event>
<event>
 5   0  0.5840834E-04  0.1529454E+04  0.7818609E-02  0.8865099E-01
        1   -1    0    0  501    0  0.00000000000E+00  0.00000000000E+00  0.15828921062E+04  0.15828921062E+04  0.50400001928E-02 0.  1.
       -1   -1    0    0    0  501  0.00000000000E+00  0.00000000000E+00 -0.36945515903E+03  0.36945515907E+03  0.50400001928E-02 0. -1.
    10030    2    1    2    0    0  0.00000000000E+00  0.00000000000E+00  0.12134369472E+04  0.19523472653E+04  0.15294543535E+04 0.  0.
        3    1    3    3  502    0  0.50280016714E+03  0.36728673558E+03  0.11734324980E+04  0.13284018187E+04  0.10100000352E+00 0.  1.
       -3    1    3    3    0  502 -0.50280016714E+03 -0.36728673558E+03  0.40004449154E+02  0.62394544662E+03  0.10100000352E+00 0. -1.
</event>
<event>
 5   0  0.5924403E-04  0.1096665E+04  0.7818609E-02  0.9208449E-01
        1   -1    0    0  501    0  0.00000000000E+00  0.00000000000E+00  0.88392459892E+03  0.88392459893E+03  0.50400001928E-02 0.  1.
       -1   -1    0    0    0  501  0.00000000000E+00  0.00000000000E+00 -0.34015174981E+03  0.34015174985E+03  0.50400001928E-02 0. -1.
    10030    2    1    2    0    0  0.00000000000E+00  0.00000000000E+00  0.54377284911E+03  0.12240763488E+04  0.10966649425E+04 0.  0.
        1    1    3    3  502    0 -0.39702472849E+03 -0.28185710819E+03  0.55336862044E+03  0.73708133512E+03  0.50400001928E-02 0.  1.
       -1    1    3    3    0  502  0.39702472849E+03  0.28185710819E+03 -0.95957713291E+01  0.48699501366E+03  0.50400001928E-02 0. -1.
</event>
<event>
 5   0  0.5924403E-04  0.1429298E+04  0.7818609E-02  0.8932880E-01
        1   -1    0    0  501    0  0.00000000000E+00  0.00000000000E+00  0.95693906340E+03  0.95693906341E+03  0.50400001928E-02 0. -1.
       -1   -1    0    0    0  501  0.00000000000E+00  0.00000000000E+00 -0.53370519051E+03  0.53370519053E+03  0.50400001928E-02 0.  1.
    10030    2    1    2    0    0  0.00000000000E+00  0.00000000000E+00  0.42323387289E+03  0.14906442539E+04  0.14292982126E+04 0.  0.
        1    1    3    3  502    0 -0.19190160087E+03 -0.64399409818E+03  0.46530337705E+03  0.81735050965E+03  0.50400001928E-02 0. -1.
       -1    1    3    3    0  502  0.19190160087E+03  0.64399409818E+03 -0.42069504165E+02  0.67329374430E+03  0.50400001928E-02 0.  1.
</event>
<event>
 5   0  0.5914645E-04  0.1426540E+04  0.7818609E-02  0.8934829E-01
       -1   -1    0    0    0  501  0.00000000000E+00  0.00000000000E+00  0.78911838285E+03  0.78911838287E+03  0.50400001928E-02 0.  1.
        1   -1    0    0  501    0  0.00000000000E+00  0.00000000000E+00 -0.64471178887E+03  0.64471178889E+03  0.50400001928E-02 0. -1.
    10030    2    1    2    0    0  0.00000000000E+00  0.00000000000E+00  0.14440659398E+03  0.14338301718E+04  0.14265397636E+04 0.  0.
        2    1    3    3  502    0  0.34039716286E+02 -0.91062097134E+02 -0.63802158707E+03  0.64538558505E+03  0.25500000920E-02 0. -1.
       -2    1    3    3    0  502 -0.34039716286E+02  0.91062097134E+02  0.78242818105E+03  0.78844458672E+03  0.25500000920E-02 0.  1.
</event>
<event>
 5   0  0.5924403E-04  0.1478954E+04  0.7818609E-02  0.8898570E-01
       -1   -1    0    0    0  501  0.00000000000E+00  0.00000000000E+00  0.44958033080E+03  0.44958033083E+03  0.50400001928E-02 0. -1.
        1   -1    0    0  501    0  0.00000000000E+00  0.00000000000E+00 -0.12163038850E+04  0.12163038850E+04  0.50400001928E-02 0.  1.
    10030    2    1    2    0    0  0.00000000000E+00  0.00000000000E+00 -0.76672355416E+03  0.16658842158E+04  0.14789540939E+04 0.  0.
        1    1    3    3  502    0 -0.50915852990E+03  0.51630251181E+03 -0.54665235523E+03  0.90809663019E+03  0.50400001928E-02 0.  1.
       -1    1    3    3    0  502  0.50915852990E+03 -0.51630251181E+03 -0.22007119893E+03  0.75778758560E+03  0.50400001928E-02 0. -1.
</event>
<event>
 5   0  0.1097156E-03  0.1590244E+04  0.7818609E-02  0.8826564E-01
       -2   -1    0    0    0  501  0.00000000000E+00  0.00000000000E+00  0.47974556052E+03  0.47974556053E+03  0.25500000920E-02 0. -1.
        2   -1    0    0  501    0  0.00000000000E+00  0.00000000000E+00 -0.13178215349E+04  0.13178215349E+04  0.25500000920E-02 0.  1.
    10030    2    1    2    0    0  0.00000000000E+00  0.00000000000E+00 -0.83807597439E+03  0.17975670954E+04  0.15902440453E+04 0.  0.
        2    1    3    3  502    0  0.23572062606E+02  0.21194254512E+03  0.44681780475E+03  0.49509739973E+03  0.25500000920E-02 0. -1.
       -2    1    3    3    0  502 -0.23572062606E+02 -0.21194254512E+03 -0.12848937791E+04  0.13024696957E+04  0.25500000920E-02 0.  1.
</event>
<event>
 5   0  0.5914645E-04  0.1521257E+04  0.7818609E-02  0.8870439E-01
        1   -1    0    0  501    0  0.00000000000E+00  0.00000000000E+00  0.68500506276E+03  0.68500506278E+03  0.50400001928E-02 0. -1.
       -1   -1    0    0    0  501  0.00000000000E+00  0.00000000000E+00 -0.84460039362E+03  0.84460039364E+03  0.50400001928E-02 0.  1.
    10030    2    1    2    0    0  0.00000000000E+00  0.00000000000E+00 -0.15959533086E+03  0.15296054564E+04  0.15212567774E+04 0.  0.
        2    1    3    3  502    0 -0.53660677273E+03 -0.73441163190E+02 -0.61678391492E+03  0.82083057369E+03  0.25500000920E-02 0.  1.
       -2    1    3    3    0  502  0.53660677273E+03  0.73441163190E+02  0.45718858406E+03  0.70877488273E+03  0.25500000920E-02 0. -1.
</event>
<event>
 5   0  0.6146552E-04  0.1564785E+04  0.7818609E-02  0.8842479E-01
        1   -1    0    0  501    0  0.00000000000E+00  0.00000000000E+00  0.11585932094E+04  0.11585932094E+04  0.50400001928E-02 0. -1.
       -1   -1    0    0    0  501  0.00000000000E+00  0.00000000000E+00 -0.52834601994E+03  0.52834601996E+03  0.50400001928E-02 0.  1.
    10030    2    1    2    0    0  0.00000000000E+00  0.00000000000E+00  0.63024718946E+03  0.16869392294E+04  0.15647851111E+04 0.  0.
        5    1    3    3  502    0  0.37058015500E+03 -0.57700806581E+03 -0.90904827391E+02  0.69177578516E+03  0.46999998093E+01 0.  1.
       -5    1    3    3    0  502 -0.37058015500E+03  0.57700806581E+03  0.72115201685E+03  0.99516344421E+03  0.46999998093E+01 0. -1.
</event>
<event>
 5   0  0.1149716E-03  0.1296729E+04  0.7818609E-02  0.9032163E-01
       -2   -1    0    0    0  501  0.00000000000E+00  0.00000000000E+00  0.83186193581E+03  0.83186193582E+03  0.25500000920E-02 0. -1.
        2   -1    0    0  501    0  0.00000000000E+00  0.00000000000E+00 -0.50534378781E+03  0.50534378782E+03  0.25500000920E-02 0.  1.
    10030    2    1    2    0    0  0.00000000000E+00  0.00000000000E+00  0.32651814800E+03  0.13372057236E+04  0.12967285939E+04 0.  0.
        1    1    3    3  502    0  0.54447783924E+03  0.34460214264E+02  0.52452680664E+03  0.75681701534E+03  0.50400001928E-02 0. -1.
       -1    1    3    3    0  502 -0.54447783924E+03 -0.34460214264E+02 -0.19800865864E+03  0.58038870830E+03  0.50400001928E-02 0.  1.
</event>
<event>
 5   0  0.1149716E-03  0.1499867E+04  0.7818609E-02  0.8884541E-01
        2   -1    0    0  501    0  0.00000000000E+00  0.00000000000E+00  0.70563608093E+03  0.70563608094E+03  0.25500000920E-02 0.  1.
       -2   -1    0    0    0  501  0.00000000000E+00  0.00000000000E+00 -0.79701192725E+03  0.79701192725E+03  0.25500000920E-02 0. -1.
    10030    2    1    2    0    0  0.00000000000E+00  0.00000000000E+00 -0.91375846318E+02  0.15026480082E+04  0.14998671579E+04 0.  0.
        1    1    3    3  502    0 -0.47977194539E+03 -0.51021993042E+03 -0.31431725590E+03  0.76765932181E+03  0.50400001928E-02 0. -1.
       -1    1    3    3    0  502  0.47977194539E+03  0.51021993042E+03  0.22294140958E+03  0.73498868638E+03  0.50400001928E-02 0.  1.
</event>
<event>
 5   0  0.1097156E-03  0.1491583E+04  0.7818609E-02  0.8890070E-01
        2   -1    0    0  501    0  0.00000000000E+00  0.00000000000E+00  0.73306369610E+03  0.73306369611E+03  0.25500000920E-02 0. -1.
       -2   -1    0    0    0  501  0.00000000000E+00  0.00000000000E+00 -0.75874006940E+03  0.75874006941E+03  0.25500000920E-02 0.  1.
    10030    2    1    2    0    0  0.00000000000E+00  0.00000000000E+00 -0.25676373297E+02  0.14918037655E+04  0.14915827830E+04 0.  0.
        2    1    3    3  502    0  0.45082468921E+03 -0.38490945914E+03 -0.46546087438E+03  0.75369225664E+03  0.25500000920E-02 0.  1.
       -2    1    3    3    0  502 -0.45082468921E+03  0.38490945914E+03  0.43978450108E+03  0.73811150887E+03  0.25500000920E-02 0. -1.
</event>
<event>
 5   0  0.1082667E-03  0.1514645E+04  0.7818609E-02  0.8874772E-01
        2   -1    0    0  501    0  0.00000000000E+00  0.00000000000E+00  0.12079007135E+04  0.12079007135E+04  0.25500000920E-02 0. -1.
       -2   -1    0    0    0  501  0.00000000000E+00  0.00000000000E+00 -0.47482191368E+03  0.47482191369E+03  0.25500000920E-02 0.  1.
    10030    2    1    2    0    0  0.00000000000E+00  0.00000000000E+00  0.73307879981E+03  0.16827226272E+04  0.15146454745E+04 0.  0.
        5    1    3    3  502    0 -0.30608224244E+03 -0.52118995891E+03  0.87345051666E+03  0.10621973486E+04  0.46999998093E+01 0. -1.
       -5    1    3    3    0  502  0.30608224244E+03  0.52118995891E+03 -0.14037171685E+03  0.62052527853E+03  0.46999998093E+01 0.  1.
</event>
<event>
 5   0  0.5606965E-04  0.1139700E+04  0.7818609E-02  0.9167338E-01
       -1   -1    0    0    0  501  0.00000000000E+00  0.00000000000E+00  0.56685269682E+03  0.56685269684E+03  0.50400001928E-02 0.  1.
        1   -1    0    0  501    0  0.00000000000E+00  0.00000000000E+00 -0.57286354656E+03  0.57286354658E+03  0.50400001928E-02 0. -1.
    10030    2    1    2    0    0  0.00000000000E+00  0.00000000000E+00 -0.60108497436E+01  0.11397162434E+04  0.11397003927E+04 0.  0.
        4    1    3    3  502    0  0.21370683168E+03  0.52801804761E+03  0.12931072670E+02  0.56977407281E+03  0.12699999809E+01 0. -1.
       -4    1    3    3    0  502 -0.21370683168E+03 -0.52801804761E+03 -0.18941922413E+02  0.56994217061E+03  0.12699999809E+01 0.  1.
</event>
<event>
 5   0  0.1149716E-03  0.1413308E+04  0.7818609E-02  0.8944241E-01
        2   -1    0    0  501    0  0.00000000000E+00  0.00000000000E+00  0.16611715936E+04  0.16611715936E+04  0.25500000920E-02 0. -1.
       -2   -1    0    0    0  501  0.00000000000E+00  0.00000000000E+00 -0.30060705284E+03  0.30060705285E+03  0.25500000920E-02 0.  1.
    10030    2    1    2    0    0  0.00000000000E+00  0.00000000000E+00  0.13605645408E+04  0.19617786465E+04  0.14133080302E+04 0.  0.
        1    1    3    3  502    0  0.43155558610E+02 -0.40168462963E+03  0.14850633656E+04  0.15390341594E+04  0.50400001928E-02 0. -1.
       -1    1    3    3    0  502 -0.43155558610E+02  0.40168462963E+03 -0.12449882484E+03  0.42274448705E+03  0.50400001928E-02 0.  1.
</event>
<event>
 5   0  0.5924403E-04  0.1505212E+04  0.7818609E-02  0.8880994E-01
        1   -1    0    0  501    0  0.00000000000E+00  0.00000000000E+00  0.54098861396E+03  0.54098861399E+03  0.50400001928E-02 0. -1.
       -1   -1    0    0    0  501  0.00000000000E+00  0.00000000000E+00 -0.10470012462E+04  0.10470012462E+04  0.50400001928E-02 0.  1.
    10030    2    1    2    0    0  0.00000000000E+00  0.00000000000E+00 -0.50601263227E+03  0.15879898602E+04  0.15052119493E+04 0.  0.
        1    1    3    3  502    0  0.67769762940E+03 -0.18874911344E+03  0.29124159060E+02  0.70409411401E+03  0.50400001928E-02 0. -1.
       -1    1    3    3    0  502 -0.67769762940E+03  0.18874911344E+03 -0.53513679133E+03  0.88389574622E+03  0.50400001928E-02 0.  1.
</event>
<event>
 5   0  0.5914645E-04  0.1480760E+04  0.7818609E-02  0.8897349E-01
        1   -1    0    0  501    0  0.00000000000E+00  0.00000000000E+00  0.13698935406E+04  0.13698935406E+04  0.50400001928E-02 0.  1.
       -1   -1    0    0    0  501  0.00000000000E+00  0.00000000000E+00 -0.40014949251E+03  0.40014949255E+03  0.50400001928E-02 0. -1.
    10030    2    1    2    0    0  0.00000000000E+00  0.00000000000E+00  0.96974404807E+03  0.17700430331E+04  0.14807595417E+04 0.  0.
        2    1    3    3  502    0 -0.52064599880E+03 -0.11086928142E+03  0.10999874177E+04  0.12220215108E+04  0.25500000920E-02 0.  1.
       -2    1    3    3    0  502  0.52064599880E+03  0.11086928142E+03 -0.13024336966E+03  0.54802152237E+03  0.25500000920E-02 0. -1.
</event>
<event>
 5   0  0.5924403E-04  0.1543932E+04  0.7818609E-02  0.8855753E-01
        1   -1    0    0  501    0  0.00000000000E+00  0.00000000000E+00  0.37462056726E+03  0.37462056730E+03  0.50400001928E-02 0. -1.
       -1   -1    0    0    0  501  0.00000000000E+00  0.00000000000E+00 -0.15907604696E+04  0.15907604696E+04  0.50400001928E-02 0.  1.
    10030    2    1    2    0    0  0.00000000000E+00  0.00000000000E+00 -0.12161399024E+04  0.19653810369E+04  0.15439321093E+04 0.  0.
        1    1    3    3  502    0 -0.24568135348E+03 -0.25652089419E+03  0.26442088579E+03  0.44281000606E+03  0.50400001928E-02 0. -1.
       -1    1    3    3    0  502  0.24568135348E+03  0.25652089419E+03 -0.14805607882E+04  0.15225710309E+04  0.50400001928E-02 0.  1.
</event>
<event>
 5   0  0.6146552E-04  0.1579516E+04  0.7818609E-02  0.8833232E-01
       -1   -1    0    0    0  501  0.00000000000E+00  0.00000000000E+00  0.51783821161E+03  0.51783821164E+03  0.50400001928E-02 0.  1.
        1   -1    0    0  501    0  0.00000000000E+00  0.00000000000E+00 -0.12044645291E+04  0.12044645292E+04  0.50400001928E-02 0. -1.
    10030    2    1    2    0    0  0.00000000000E+00  0.00000000000E+00 -0.68662631753E+03  0.17223027408E+04  0.15795160749E+04 0.  0.
        5    1    3    3  502    0  0.35945801411E+03  0.61537135760E+03  0.27748988167E+02  0.71322091108E+03  0.46999998093E+01 0.  1.
       -5    1    3    3    0  502 -0.35945801411E+03 -0.61537135760E+03 -0.71437530570E+03  0.10090818297E+04  0.46999998093E+01 0. -1.
</event>
<event>
 5   0  0.5914645E-04  0.1437982E+04  0.7818609E-02  0.8926775E-01
        1   -1    0    0  501    0  0.00000000000E+00  0.00000000000E+00  0.15540265615E+04  0.15540265615E+04  0.50400001928E-02 0.  1.
       -1   -1    0    0    0  501  0.00000000000E+00  0.00000000000E+00 -0.33265091131E+03  0.33265091135E+03  0.50400001928E-02 0. -1.
    10030    2    1    2    0    0  0.00000000000E+00  0.00000000000E+00  0.12213756502E+04  0.18866774729E+04  0.14379824087E+04 0.  0.
        2    1    3    3  502    0 -0.16246188182E+02  0.29601345695E+03 -0.24872796943E+03  0.38697998412E+03  0.25500000920E-02 0. -1.
       -2    1    3    3    0  502  0.16246188182E+02 -0.29601345695E+03  0.14701036196E+04  0.14996974888E+04  0.25500000920E-02 0.  1.
</event>
<event>
 5   0  0.1149716E-03  0.1473801E+04  0.7818609E-02  0.8902065E-01
       -2   -1    0    0    0  501  0.00000000000E+00  0.00000000000E+00  0.29790803069E+03  0.29790803070E+03  0.25500000920E-02 0.  1.
        2   -1    0    0  501    0  0.00000000000E+00  0.00000000000E+00 -0.18227841297E+04  0.18227841297E+04  0.25500000920E-02 0. -1.
    10030    2    1    2    0    0  0.00000000000E+00  0.00000000000E+00 -0.15248760990E+04  0.21206921604E+04  0.14738005706E+04 0.  0.
        1    1    3    3  502    0  0.69572177670E+02 -0.49120893226E+03 -0.15464825957E+04  0.16241105017E+04  0.50400001928E-02 0. -1.
       -1    1    3    3    0  502 -0.69572177670E+02  0.49120893226E+03  0.21606496656E+02  0.49658165870E+03  0.50400001928E-02 0.  1.
</event>
<event>
 5   0  0.1082667E-03  0.1492965E+04  0.7818609E-02  0.8889144E-01
        2   -1    0    0  501    0  0.00000000000E+00  0.00000000000E+00  0.84977360246E+03  0.84977360246E+03  0.25500000920E-02 0.  1.
       -2   -1    0    0    0  501  0.00000000000E+00  0.00000000000E+00 -0.65574675595E+03  0.65574675596E+03  0.25500000920E-02 0. -1.
    10030    2    1    2    0    0  0.00000000000E+00  0.00000000000E+00  0.19402684650E+03  0.15055203584E+04  0.14929652147E+04 0.  0.
        5    1    3    3  502    0 -0.29657179586E+03  0.68481628097E+03  0.11406790126E+03  0.75495810803E+03  0.46999998093E+01 0. -1.
       -5    1    3    3    0  502  0.29657179586E+03 -0.68481628097E+03  0.79958945249E+02  0.75056225039E+03  0.46999998093E+01 0.  1.
</event>
<event>
 5   0  0.5924403E-04  0.1509539E+04  0.7818609E-02  0.8878135E-01
       -1   -1    0    0    0  501  0.00000000000E+00  0.00000000000E+00  0.57977564290E+03  0.57977564292E+03  0.50400001928E-02 0. -1.
        1   -1    0    0  501    0  0.00000000000E+00  0.00000000000E+00 -0.98258116888E+03  0.98258116890E+03  0.50400001928E-02 0.  1.
    10030    2    1    2    0    0  0.00000000000E+00  0.00000000000E+00 -0.40280552599E+03  0.15623568118E+04  0.15095385108E+04 0.  0.
        1    1    3    3  502    0 -0.64960796302E+03  0.21216779736E+03 -0.53303734884E+03  0.86668015735E+03  0.50400001928E-02 0. -1.
       -1    1    3    3    0  502  0.64960796302E+03 -0.21216779736E+03  0.13023182285E+03  0.69567665447E+03  0.50400001928E-02 0.  1.
</event>
<event>
 5   0  0.5914645E-04  0.1511019E+04  0.7818609E-02  0.8877158E-01
        1   -1    0    0  501    0  0.00000000000E+00  0.00000000000E+00  0.66310967251E+03  0.66310967253E+03  0.50400001928E-02 0. -1.
       -1   -1    0    0    0  501  0.00000000000E+00  0.00000000000E+00 -0.86078449508E+03  0.86078449510E+03  0.50400001928E-02 0.  1.
    10030    2    1    2    0    0  0.00000000000E+00  0.00000000000E+00 -0.19767482257E+03  0.15238941676E+04  0.15110188942E+04 0.  0.
        2    1    3    3  502    0  0.57781271585E+03 -0.29664316781E+03  0.29036520034E+03  0.71146092878E+03  0.25500000920E-02 0. -1.
       -2    1    3    3    0  502 -0.57781271585E+03  0.29664316781E+03 -0.48804002291E+03  0.81243323885E+03  0.25500000920E-02 0.  1.
</event>
<event>
 5   0  0.5924403E-04  0.1496146E+04  0.7818609E-02  0.8887020E-01
       -1   -1    0    0    0  501  0.00000000000E+00  0.00000000000E+00  0.49722825492E+03  0.49722825495E+03  0.50400001928E-02 0. -1.
        1   -1    0    0  501    0  0.00000000000E+00  0.00000000000E+00 -0.11254659897E+04  0.11254659897E+04  0.50400001928E-02 0.  1.
    10030    2    1    2    0    0  0.00000000000E+00  0.00000000000E+00 -0.62823773478E+03  0.16226942447E+04  0.14961463699E+04 0.  0.
        1    1    3    3  502    0  0.21511024392E+03  0.45502674142E+03  0.28612848542E+03  0.57895704732E+03  0.50400001928E-02 0. -1.
       -1    1    3    3    0  502 -0.21511024392E+03 -0.45502674142E+03 -0.91436622020E+03  0.10437371973E+04  0.50400001928E-02 0.  1.
</event>
<event>
 5   0  0.5606965E-04  0.1390092E+04  0.7818609E-02  0.8961022E-01
        1   -1    0    0  501    0  0.00000000000E+00  0.00000000000E+00  0.79796332592E+03  0.79796332594E+03  0.50400001928E-02 0. -1.
       -1   -1    0    0    0  501  0.00000000000E+00  0.00000000000E+00 -0.60540220082E+03  0.60540220084E+03  0.50400001928E-02 0.  1.
    10030    2    1    2    0    0  0.00000000000E+00  0.00000000000E+00  0.19256112511E+03  0.14033655268E+04  0.13900917289E+04 0.  0.
        4    1    3    3  502    0  0.13828879824E+03 -0.85444450608E+02 -0.58594040787E+03  0.60807262752E+03  0.12699999809E+01 0.  1.
       -4    1    3    3    0  502 -0.13828879824E+03  0.85444450608E+02  0.77850153298E+03  0.79529289926E+03  0.12699999809E+01 0. -1.
</event>
<event>
 5   0  0.5840834E-04  0.1508123E+04  0.7818609E-02  0.8879069E-01
        1   -1    0    0  501    0  0.00000000000E+00  0.00000000000E+00  0.90605731948E+03  0.90605731950E+03  0.50400001928E-02 0. -1.
       -1   -1    0    0    0  501  0.00000000000E+00  0.00000000000E+00 -0.62756359654E+03  0.62756359656E+03  0.50400001928E-02 0.  1.
    10030    2    1    2    0    0  0.00000000000E+00  0.00000000000E+00  0.27849372294E+03  0.15336209161E+04  0.15081227936E+04 0.  0.
        3    1    3    3  502    0  0.69043149813E+03  0.83016033617E+02 -0.15726706711E+03  0.71296581689E+03  0.10100000352E+00 0.  1.
       -3    1    3    3    0  502 -0.69043149813E+03 -0.83016033617E+02  0.43576079005E+03  0.82065509917E+03  0.10100000352E+00 0. -1.
</event>
<event>
 5   0  0.1149716E-03  0.1493524E+04  0.7818609E-02  0.8888771E-01
       -2   -1    0    0    0  501  0.00000000000E+00  0.00000000000E+00  0.58911864990E+03  0.58911864991E+03  0.25500000920E-02 0.  1.
        2   -1    0    0  501    0  0.00000000000E+00  0.00000000000E+00 -0.94658998588E+03  0.94658998588E+03  0.25500000920E-02 0. -1.
    10030    2    1    2    0    0  0.00000000000E+00  0.00000000000E+00 -0.35747133598E+03  0.15357086358E+04  0.14935244417E+04 0.  0.
        1    1    3    3  502    0 -0.15389238591E+03  0.58188884097E+03 -0.63323417412E+03  0.87364924826E+03  0.50400001928E-02 0. -1.
       -1    1    3    3    0  502  0.15389238591E+03 -0.58188884097E+03  0.27576283814E+03  0.66205938753E+03  0.50400001928E-02 0.  1.
</event>
<event>
 5   0  0.6146552E-04  0.1500213E+04  0.7818609E-02  0.8884311E-01
        1   -1    0    0  501    0  0.00000000000E+00  0.00000000000E+00  0.94500663314E+03  0.94500663316E+03  0.50400001928E-02 0.  1.
       -1   -1    0    0    0  501  0.00000000000E+00  0.00000000000E+00 -0.59540334019E+03  0.59540334021E+03  0.50400001928E-02 0. -1.
    10030    2    1    2    0    0  0.00000000000E+00  0.00000000000E+00  0.34960329296E+03  0.15404099734E+04  0.15002134593E+04 0.  0.
        5    1    3    3  502    0  0.58448273324E+03 -0.13303150522E+03  0.63779411092E+03  0.87528330543E+03  0.46999998093E+01 0.  1.
       -5    1    3    3    0  502 -0.58448273324E+03  0.13303150522E+03 -0.28819081797E+03  0.66512666793E+03  0.46999998093E+01 0. -1.
</event>
<event>
 5   0  0.1097156E-03  0.1558728E+04  0.7818609E-02  0.8846312E-01
        2   -1    0    0  501    0  0.00000000000E+00  0.00000000000E+00  0.16481368764E+04  0.16481368764E+04  0.25500000920E-02 0. -1.
       -2   -1    0    0    0  501  0.00000000000E+00  0.00000000000E+00 -0.36854214153E+03  0.36854214154E+03  0.25500000920E-02 0.  1.
    10030    2    1    2    0    0  0.00000000000E+00  0.00000000000E+00  0.12795947349E+04  0.20166790179E+04  0.15587275502E+04 0.  0.
        2    1    3    3  502    0  0.26989855347E+02  0.58959202394E+03 -0.18720138514E+02  0.59050626633E+03  0.25500000920E-02 0.  1.
       -2    1    3    3    0  502 -0.26989855347E+02 -0.58959202394E+03  0.12983148734E+04  0.14261727516E+04  0.25500000920E-02 0. -1.
</event>
<event>
 5   0  0.5606965E-04  0.1500369E+04  0.7818609E-02  0.8884207E-01
       -1   -1    0    0    0  501  0.00000000000E+00  0.00000000000E+00  0.39342645438E+03  0.39342645441E+03  0.50400001928E-02 0. -1.
        1   -1    0    0  501    0  0.00000000000E+00  0.00000000000E+00 -0.14304500066E+04  0.14304500067E+04  0.50400001928E-02 0.  1.
    10030    2    1    2    0    0  0.00000000000E+00  0.00000000000E+00 -0.10370235523E+04  0.18238764611E+04  0.15003691203E+04 0.  0.
        4    1    3    3  502    0  0.66291377877E+02 -0.59328781462E+03  0.33746108621E+02  0.59793426939E+03  0.12699999809E+01 0. -1.
       -4    1    3    3    0  502 -0.66291377877E+02  0.59328781462E+03 -0.10707696609E+04  0.12259421917E+04  0.12699999809E+01 0.  1.
</event>
<event>
 5   0  0.1126175E-03  0.1539197E+04  0.7818609E-02  0.8858798E-01
       -2   -1    0    0    0  501  0.00000000000E+00  0.00000000000E+00  0.67221584724E+03  0.67221584725E+03  0.25500000920E-02 0. -1.
        2   -1    0    0  501    0  0.00000000000E+00  0.00000000000E+00 -0.88108879365E+03  0.88108879365E+03  0.25500000920E-02 0.  1.
    10030    2    1    2    0    0  0.00000000000E+00  0.00000000000E+00 -0.20887294641E+03  0.15533046409E+04  0.15391969983E+04 0.  0.
        3    1    3    3  502    0 -0.51925911897E+03 -0.44156616111E+02  0.46705962078E+03  0.69980321444E+03  0.10100000352E+00 0. -1.
       -3    1    3    3    0  502  0.51925911897E+03  0.44156616111E+02 -0.67593256719E+03  0.85350142646E+03  0.10100000352E+00 0.  1.
</event>
<event>
 5   0  0.5924403E-04  0.1498489E+04  0.7818609E-02  0.8885458E-01
        1   -1    0    0  501    0  0.00000000000E+00  0.00000000000E+00  0.15181123510E+04  0.15181123511E+04  0.50400001928E-02 0.  1.
       -1   -1    0    0    0  501  0.00000000000E+00  0.00000000000E+00 -0.36977982519E+03  0.36977982522E+03  0.50400001928E-02 0. -1.
    10030    2    1    2    0    0  0.00000000000E+00  0.00000000000E+00  0.11483325259E+04  0.18878921763E+04  0.14984889987E+04 0.  0.
        1    1    3    3  502    0 -0.41459271153E+03 -0.24940640075E+03 -0.14657790810E+03  0.50554500528E+03  0.50400001928E-02 0. -1.
       -1    1    3    3    0  502  0.41459271153E+03  0.24940640075E+03  0.12949104340E+04  0.13823471710E+04  0.50400001928E-02 0.  1.
</event>
<event>
 5   0  0.1126175E-03  0.1519706E+04  0.7818609E-02  0.8871453E-01
       -2   -1    0    0    0  501  0.00000000000E+00  0.00000000000E+00  0.59565337613E+03  0.59565337614E+03  0.25500000920E-02 0.  1.
        2   -1    0    0  501    0  0.00000000000E+00  0.00000000000E+00 -0.96931634946E+03  0.96931634946E+03  0.25500000920E-02 0. -1.
    10030    2    1    2    0    0  0.00000000000E+00  0.00000000000E+00 -0.37366297333E+03  0.15649697256E+04  0.15197059664E+04 0.  0.
        3    1    3    3  502    0  0.34523679129E+03  0.55773669960E+03  0.20815214417E+03  0.68817584487E+03  0.10100000352E+00 0.  1.
       -3    1    3    3    0  502 -0.34523679129E+03 -0.55773669960E+03 -0.58181511749E+03  0.87679388073E+03  0.10100000352E+00 0. -1.
</event>
<event>
 5   0  0.5840834E-04  0.1506695E+04  0.7818609E-02  0.8880013E-01
        1   -1    0    0  501    0  0.00000000000E+00  0.00000000000E+00  0.94432707263E+03  0.94432707264E+03  0.50400001928E-02 0. -1.
       -1   -1    0    0    0  501  0.00000000000E+00  0.00000000000E+00 -0.60099171797E+03  0.60099171799E+03  0.50400001928E-02 0.  1.
    10030    2    1    2    0    0  0.00000000000E+00  0.00000000000E+00  0.34333535465E+03  0.15453187906E+04  0.15066953902E+04 0.  0.
        3    1    3    3  502    0  0.39035594698E+03  0.26172498294E+03 -0.43219941721E+03  0.63849360097E+03  0.10100000352E+00 0.  1.
       -3    1    3    3    0  502 -0.39035594698E+03 -0.26172498294E+03  0.77553477186E+03  0.90682518966E+03  0.10100000352E+00 0. -1.
</event>
<event>
 5   0  0.6146552E-04  0.1460886E+04  0.7818609E-02  0.8910888E-01
       -1   -1    0    0    0  501  0.00000000000E+00  0.00000000000E+00  0.98427183240E+03  0.98427183241E+03  0.50400001928E-02 0.  1.
        1   -1    0    0  501    0  0.00000000000E+00  0.00000000000E+00 -0.54207286797E+03  0.54207286799E+03  0.50400001928E-02 0. -1.
    10030    2    1    2    0    0  0.00000000000E+00  0.00000000000E+00  0.44219896443E+03  0.15263447004E+04  0.14608861079E+04 0.  0.
        5    1    3    3  502    0 -0.56528731614E+03  0.18388323169E+03  0.66457338597E+03  0.89165165173E+03  0.46999998093E+01 0.  1.
       -5    1    3    3    0  502  0.56528731614E+03 -0.18388323169E+03 -0.22237442154E+03  0.63469304868E+03  0.46999998093E+01 0. -1.
</event>
<event>
 5   0  0.5840834E-04  0.1492781E+04  0.7818609E-02  0.8889268E-01
       -1   -1    0    0    0  501  0.00000000000E+00  0.00000000000E+00  0.55628792488E+03  0.55628792491E+03  0.50400001928E-02 0. -1.
        1   -1    0    0  501    0  0.00000000000E+00  0.00000000000E+00 -0.10014577457E+04  0.10014577457E+04  0.50400001928E-02 0.  1.
    10030    2    1    2    0    0  0.00000000000E+00  0.00000000000E+00 -0.44516982082E+03  0.15577456706E+04  0.14927810975E+04 0.  0.
        3    1    3    3  502    0  0.12177149653E+03 -0.64688778578E+03 -0.58975945371E+03  0.88380333118E+03  0.10100000352E+00 0.  1.
       -3    1    3    3    0  502 -0.12177149653E+03  0.64688778578E+03  0.14458963289E+03  0.67394233945E+03  0.10100000352E+00 0. -1.
</event>
<event>
 5   0  0.1082667E-03  0.1449440E+04  0.7818609E-02  0.8918789E-01
        2   -1    0    0  501    0  0.00000000000E+00  0.00000000000E+00  0.12011853674E+04  0.12011853674E+04  0.25500000920E-02 0. -1.
       -2   -1    0    0    0  501  0.00000000000E+00  0.00000000000E+00 -0.43725071831E+03  0.43725071832E+03  0.25500000920E-02 0.  1.
    10030    2    1    2    0    0  0.00000000000E+00  0.00000000000E+00  0.76393464908E+03  0.16384360857E+04  0.14494401191E+04 0.  0.
        5    1    3    3  502    0  0.53223244817E+03 -0.10217020469E+03  0.92583403683E+03  0.10728004863E+04  0.46999998093E+01 0. -1.
       -5    1    3    3    0  502 -0.53223244817E+03  0.10217020469E+03 -0.16189938775E+03  0.56563559944E+03  0.46999998093E+01 0.  1.
</event>
<event>
 5   0  0.1149716E-03  0.1502768E+04  0.7818609E-02  0.8882615E-01
       -2   -1    0    0    0  501  0.00000000000E+00  0.00000000000E+00  0.65998745465E+03  0.65998745466E+03  0.25500000920E-02 0. -1.
        2   -1    0    0  501    0  0.00000000000E+00  0.00000000000E+00 -0.85543684587E+03  0.85543684587E+03  0.25500000920E-02 0.  1.
    10030    2    1    2    0    0  0.00000000000E+00  0.00000000000E+00 -0.19544939121E+03  0.15154243005E+04  0.15027675622E+04 0.  0.
        1    1    3    3  502    0  0.67835927263E+03  0.14028485677E+03  0.19580491694E+03  0.71985464458E+03  0.50400001928E-02 0. -1.
       -1    1    3    3    0  502 -0.67835927263E+03 -0.14028485677E+03 -0.39125430815E+03  0.79556965595E+03  0.50400001928E-02 0.  1.
</event>
<event>
 5   0  0.1149716E-03  0.1513086E+04  0.7818609E-02  0.8875797E-01
       -2   -1    0    0    0  501  0.00000000000E+00  0.00000000000E+00  0.12348603178E+04  0.12348603178E+04  0.25500000920E-02 0. -1.
        2   -1    0    0  501    0  0.00000000000E+00  0.00000000000E+00 -0.46349957551E+03  0.46349957552E+03  0.25500000920E-02 0.  1.
    10030    2    1    2    0    0  0.00000000000E+00  0.00000000000E+00  0.77136074230E+03  0.16983598933E+04  0.15130858973E+04 0.  0.
        1    1    3    3  502    0  0.64172088691E+03  0.40021740258E+03  0.36386999246E+03  0.83927411342E+03  0.50400001928E-02 0. -1.
       -1    1    3    3    0  502 -0.64172088691E+03 -0.40021740258E+03  0.40749074984E+03  0.85908577992E+03  0.50400001928E-02 0.  1.
</event>
<event>
 5   0  0.5914645E-04  0.1528960E+04  0.7818609E-02  0.8865420E-01
       -1   -1    0    0    0  501  0.00000000000E+00  0.00000000000E+00  0.84420269355E+03  0.84420269356E+03  0.50400001928E-02 0.  1.
        1   -1    0    0  501    0  0.00000000000E+00  0.00000000000E+00 -0.69228605395E+03  0.69228605397E+03  0.50400001928E-02 0. -1.
    10030    2    1    2    0    0  0.00000000000E+00  0.00000000000E+00  0.15191663960E+03  0.15364887475E+04  0.15289601061E+04 0.  0.
        2    1    3    3  502    0  0.13595118230E+03 -0.27207703882E+02  0.83146256176E+03  0.84294304359E+03  0.25500000920E-02 0.  1.
       -2    1    3    3    0  502 -0.13595118230E+03  0.27207703882E+02 -0.67954592216E+03  0.69354570394E+03  0.25500000920E-02 0. -1.
</event>
<event>
 5   0  0.5914645E-04  0.1465794E+04  0.7818609E-02  0.8907524E-01
       -1   -1    0    0    0  501  0.00000000000E+00  0.00000000000E+00  0.59255091843E+03  0.59255091846E+03  0.50400001928E-02 0.  1.
        1   -1    0    0  501    0  0.00000000000E+00  0.00000000000E+00 -0.90648386579E+03  0.90648386580E+03  0.50400001928E-02 0. -1.
    10030    2    1    2    0    0  0.00000000000E+00  0.00000000000E+00 -0.31393294735E+03  0.14990347843E+04  0.14657937744E+04 0.  0.
        2    1    3    3  502    0  0.14767316983E+02  0.58511568522E+02  0.59000581518E+03  0.59308392261E+03  0.25500000920E-02 0.  1.
       -2    1    3    3    0  502 -0.14767316983E+02 -0.58511568522E+02 -0.90393876253E+03  0.90595086165E+03  0.25500000920E-02 0. -1.
</event>
<event>
 5   0  0.1097156E-03  0.1501231E+04  0.7818609E-02  0.8883635E-01
       -2   -1    0    0    0  501  0.00000000000E+00  0.00000000000E+00  0.45564904171E+03  0.45564904172E+03  0.25500000920E-02 0. -1.
        2   -1    0    0  501    0  0.00000000000E+00  0.00000000000E+00 -0.12365298109E+04  0.12365298109E+04  0.25500000920E-02 0.  1.
    10030    2    1    2    0    0  0.00000000000E+00  0.00000000000E+00 -0.78088076923E+03  0.16921788527E+04  0.15012309928E+04 0.  0.
        2    1    3    3  502    0 -0.36820798437E+03  0.58963127061E+03 -0.71260330402E+02  0.69879910541E+03  0.25500000920E-02 0. -1.
       -2    1    3    3    0  502  0.36820798437E+03 -0.58963127061E+03 -0.70962043883E+03  0.99337974724E+03  0.25500000920E-02 0.  1.
</event>
<event>
 5   0  0.6146552E-04  0.1458418E+04  0.7818609E-02  0.8912585E-01
       -1   -1    0    0    0  501  0.00000000000E+00  0.00000000000E+00  0.39764152347E+03  0.39764152350E+03  0.50400001928E-02 0. -1.
        1   -1    0    0  501    0  0.00000000000E+00  0.00000000000E+00 -0.13372488412E+04  0.13372488412E+04  0.50400001928E-02 0.  1.
    10030    2    1    2    0    0  0.00000000000E+00  0.00000000000E+00 -0.93960731771E+03  0.17348903647E+04  0.14584178640E+04 0.  0.
        5    1    3    3  502    0  0.42219445899E+03  0.25759128985E+03  0.16761299021E+03  0.52222374352E+03  0.46999998093E+01 0. -1.
       -5    1    3    3    0  502 -0.42219445899E+03 -0.25759128985E+03 -0.11072203079E+04  0.12126666212E+04  0.46999998093E+01 0.  1.
</event>
<event>
 5   0  0.5606965E-04  0.1500138E+04  0.7818609E-02  0.8884361E-01
        1   -1    0    0  501    0  0.00000000000E+00  0.00000000000E+00  0.12421871221E+04  0.12421871221E+04  0.50400001928E-02 0. -1.
       -1   -1    0    0    0  501  0.00000000000E+00  0.00000000000E+00 -0.45291356394E+03  0.45291356397E+03  0.50400001928E-02 0.  1.
    10030    2    1    2    0    0  0.00000000000E+00  0.00000000000E+00  0.78927355813E+03  0.16951006860E+04  0.15001378558E+04 0.  0.
        4    1    3    3  502    0  0.86301494554E+02 -0.54579981109E+03 -0.17848567616E+03  0.58069280282E+03  0.12699999809E+01 0.  1.
       -4    1    3    3    0  502 -0.86301494554E+02  0.54579981109E+03  0.96775923429E+03  0.11144078832E+04  0.12699999809E+01 0. -1.
</event>
<event>
 5   0  0.5840834E-04  0.1470723E+04  0.7818609E-02  0.8904158E-01
        1   -1    0    0  501    0  0.00000000000E+00  0.00000000000E+00  0.81559476242E+03  0.81559476243E+03  0.50400001928E-02 0. -1.
       -1   -1    0    0    0  501  0.00000000000E+00  0.00000000000E+00 -0.66302150578E+03  0.66302150580E+03  0.50400001928E-02 0.  1.
    10030    2    1    2    0    0  0.00000000000E+00  0.00000000000E+00  0.15257325664E+03  0.14786162682E+04  0.14707234512E+04 0.  0.
        3    1    3    3  502    0  0.51626971481E+03 -0.31041605221E+03 -0.34771631639E+03  0.69555674879E+03  0.10100000352E+00 0.  1.
       -3    1    3    3    0  502 -0.51626971481E+03  0.31041605221E+03  0.50028957303E+03  0.78305951944E+03  0.10100000352E+00 0. -1.
</event>
<event>
 5   0  0.6146552E-04  0.1516333E+04  0.7818609E-02  0.8873664E-01
        1   -1    0    0  501    0  0.00000000000E+00  0.00000000000E+00  0.10402826845E+04  0.10402826845E+04  0.50400001928E-02 0. -1.
       -1   -1    0    0    0  501  0.00000000000E+00  0.00000000000E+00 -0.55255808663E+03  0.55255808665E+03  0.50400001928E-02 0.  1.
    10030    2    1    2    0    0  0.00000000000E+00  0.00000000000E+00  0.48772459786E+03  0.15928407711E+04  0.15163332216E+04 0.  0.
        5    1    3    3  502    0 -0.66755408887E+03  0.19662516405E+03 -0.72156594004E+02  0.69965604462E+03  0.46999998093E+01 0. -1.
       -5    1    3    3    0  502  0.66755408887E+03 -0.19662516405E+03  0.55988119186E+03  0.89318472653E+03  0.46999998093E+01 0.  1.
</event>
<event>
 5   0  0.1097156E-03  0.1522974E+04  0.7818609E-02  0.8869318E-01
        2   -1    0    0  501    0  0.00000000000E+00  0.00000000000E+00  0.17752597910E+04  0.17752597910E+04  0.25500000920E-02 0.  1.
       -2   -1    0    0    0  501  0.00000000000E+00  0.00000000000E+00 -0.32663510180E+03  0.32663510181E+03  0.25500000920E-02 0. -1.
    10030    2    1    2    0    0  0.00000000000E+00  0.00000000000E+00  0.14486246892E+04  0.21018948928E+04  0.15229736210E+04 0.  0.
        2    1    3    3  502    0  0.24784212846E+03  0.68860155894E+03  0.10146782267E+04  0.12510674368E+04  0.25500000920E-02 0.  1.
       -2    1    3    3    0  502 -0.24784212846E+03 -0.68860155894E+03  0.43394646250E+03  0.85082745603E+03  0.25500000920E-02 0. -1.
</event>
<event>
 5   0  0.1097156E-03  0.1503974E+04  0.7818609E-02  0.8881815E-01
       -2   -1    0    0    0  501  0.00000000000E+00  0.00000000000E+00  0.26696332552E+03  0.26696332553E+03  0.25500000920E-02 0.  1.
        2   -1    0    0  501    0  0.00000000000E+00  0.00000000000E+00 -0.21182092622E+04  0.21182092622E+04  0.25500000920E-02 0. -1.
    10030    2    1    2    0    0  0.00000000000E+00  0.00000000000E+00 -0.18512459367E+04  0.23851725877E+04  0.15039736551E+04 0.  0.
        2    1    3    3  502    0  0.54234113236E+03  0.46514430665E+03 -0.12975224919E+04  0.14812352098E+04  0.25500000920E-02 0. -1.
       -2    1    3    3    0  502 -0.54234113236E+03 -0.46514430665E+03 -0.55372344478E+03  0.90393737790E+03  0.25500000920E-02 0.  1.
</event>
<event>
 5   0  0.5606965E-04  0.1493459E+04  0.7818609E-02  0.8888814E-01
       -1   -1    0    0    0  501  0.00000000000E+00  0.00000000000E+00  0.31102216803E+03  0.31102216807E+03  0.50400001928E-02 0.  1.
        1   -1    0    0  501    0  0.00000000000E+00  0.00000000000E+00 -0.17928141363E+04  0.17928141364E+04  0.50400001928E-02 0. -1.
    10030    2    1    2    0    0  0.00000000000E+00  0.00000000000E+00 -0.14817919683E+04  0.21038363044E+04  0.14934589912E+04 0.  0.
        4    1    3    3  502    0  0.43028164370E+03 -0.11841411915E+03 -0.15842819126E+04  0.16459389381E+04  0.12699999809E+01 0. -1.
       -4    1    3    3    0  502 -0.43028164370E+03  0.11841411915E+03  0.10248994425E+03  0.45789736633E+03  0.12699999809E+01 0.  1.
</event>
<event>
 5   0  0.5924403E-04  0.1496663E+04  0.7818609E-02  0.8886675E-01
       -1   -1    0    0    0  501  0.00000000000E+00  0.00000000000E+00  0.36830755102E+03  0.36830755105E+03  0.50400001928E-02 0.  1.
        1   -1    0    0  501    0  0.00000000000E+00  0.00000000000E+00 -0.15204691681E+04  0.15204691681E+04  0.50400001928E-02 0. -1.
    10030    2    1    2    0    0  0.00000000000E+00  0.00000000000E+00 -0.11521616171E+04  0.18887767192E+04  0.14966633232E+04 0.  0.
        1    1    3    3  502    0  0.39628579979E+03  0.13237478062E+03 -0.13595680760E+04  0.14223188359E+04  0.50400001928E-02 0. -1.
       -1    1    3    3    0  502 -0.39628579979E+03 -0.13237478062E+03  0.20740645889E+03  0.46645788328E+03  0.50400001928E-02 0.  1.
</event>
<event>
 5   0  0.5924403E-04  0.1406475E+04  0.7818609E-02  0.8949145E-01
        1   -1    0    0  501    0  0.00000000000E+00  0.00000000000E+00  0.30038434413E+03  0.30038434417E+03  0.50400001928E-02 0.  1.
       -1   -1    0    0    0  501  0.00000000000E+00  0.00000000000E+00 -0.16463670491E+04  0.16463670491E+04  0.50400001928E-02 0. -1.
    10030    2    1    2    0    0  0.00000000000E+00  0.00000000000E+00 -0.13459827049E+04  0.19467513932E+04  0.14064748647E+04 0.  0.
        1    1    3    3  502    0  0.23137639873E+03  0.34798075348E+03  0.10989251446E+03  0.43209027696E+03  0.50400001928E-02 0.  1.
       -1    1    3    3    0  502 -0.23137639873E+03 -0.34798075348E+03 -0.14558752194E+04  0.15146611163E+04  0.50400001928E-02 0. -1.
</event>
<event>
 5   0  0.6146552E-04  0.1514157E+04  0.7818609E-02  0.8875093E-01
       -1   -1    0    0    0  501  0.00000000000E+00  0.00000000000E+00  0.51681466524E+03  0.51681466526E+03  0.50400001928E-02 0.  1.
        1   -1    0    0  501    0  0.00000000000E+00  0.00000000000E+00 -0.11090390620E+04  0.11090390620E+04  0.50400001928E-02 0. -1.
    10030    2    1    2    0    0  0.00000000000E+00  0.00000000000E+00 -0.59222439675E+03  0.16258537273E+04  0.15141567311E+04 0.  0.
        5    1    3    3  502    0  0.54712599705E+03  0.50513804990E+03 -0.14953491705E+03  0.75953544191E+03  0.46999998093E+01 0.  1.
       -5    1    3    3    0  502 -0.54712599705E+03 -0.50513804990E+03 -0.44268947970E+03  0.86631828535E+03  0.46999998093E+01 0. -1.
</event>
<event>
 5   0  0.1149716E-03  0.1505857E+04  0.7818609E-02  0.8880567E-01
        2   -1    0    0  501    0  0.00000000000E+00  0.00000000000E+00  0.57261269003E+03  0.57261269004E+03  0.25500000920E-02 0.  1.
       -2   -1    0    0    0  501  0.00000000000E+00  0.00000000000E+00 -0.99002564082E+03  0.99002564082E+03  0.25500000920E-02 0. -1.
    10030    2    1    2    0    0  0.00000000000E+00  0.00000000000E+00 -0.41741295078E+03  0.15626383309E+04  0.15058568928E+04 0.  0.
        1    1    3    3  502    0  0.49373703141E+03 -0.53511646139E+03 -0.40770655485E+03  0.83447619398E+03  0.50400001928E-02 0. -1.
       -1    1    3    3    0  502 -0.49373703141E+03  0.53511646139E+03 -0.97063959380E+01  0.72816213688E+03  0.50400001928E-02 0.  1.
</event>
<event>
 5   0  0.1126175E-03  0.1389769E+04  0.7818609E-02  0.8961257E-01
       -2   -1    0    0    0  501  0.00000000000E+00  0.00000000000E+00  0.58049919099E+03  0.58049919100E+03  0.25500000920E-02 0. -1.
        2   -1    0    0  501    0  0.00000000000E+00  0.00000000000E+00 -0.83180943281E+03  0.83180943281E+03  0.25500000920E-02 0.  1.
    10030    2    1    2    0    0  0.00000000000E+00  0.00000000000E+00 -0.25131024182E+03  0.14123086238E+04  0.13897693374E+04 0.  0.
        3    1    3    3  502    0  0.11154189108E+03  0.77098283367E+02 -0.81823505638E+03  0.82939396939E+03  0.10100000352E+00 0.  1.
       -3    1    3    3    0  502 -0.11154189108E+03 -0.77098283367E+02  0.56692481457E+03  0.58291465442E+03  0.10100000352E+00 0. -1.
</event>
<event>
 5   0  0.1149716E-03  0.1522760E+04  0.7818609E-02  0.8869457E-01
       -2   -1    0    0    0  501  0.00000000000E+00  0.00000000000E+00  0.23715455861E+03  0.23715455863E+03  0.25500000920E-02 0.  1.
        2   -1    0    0  501    0  0.00000000000E+00  0.00000000000E+00 -0.24443969369E+04  0.24443969369E+04  0.25500000920E-02 0. -1.
    10030    2    1    2    0    0  0.00000000000E+00  0.00000000000E+00 -0.22072423782E+04  0.26815514955E+04  0.15227604889E+04 0.  0.
        1    1    3    3  502    0  0.59454774425E+03  0.44632679464E+03 -0.13930079331E+04  0.15789761649E+04  0.50400001928E-02 0. -1.
       -1    1    3    3    0  502 -0.59454774425E+03 -0.44632679464E+03 -0.81423444518E+03  0.11025753306E+04  0.50400001928E-02 0.  1.
</event>
<event>
 5   0  0.1126175E-03  0.1476219E+04  0.7818609E-02  0.8900423E-01
       -2   -1    0    0    0  501  0.00000000000E+00  0.00000000000E+00  0.47683928656E+03  0.47683928656E+03  0.25500000920E-02 0. -1.
        2   -1    0    0  501    0  0.00000000000E+00  0.00000000000E+00 -0.11425346910E+04  0.11425346910E+04  0.25500000920E-02 0.  1.
    10030    2    1    2    0    0  0.00000000000E+00  0.00000000000E+00 -0.66569540445E+03  0.16193739776E+04  0.14762187195E+04 0.  0.
        3    1    3    3  502    0 -0.59085843581E+03 -0.35515495678E+02  0.15085499042E+03  0.61084554507E+03  0.10100000352E+00 0. -1.
       -3    1    3    3    0  502  0.59085843581E+03  0.35515495678E+02 -0.81655039487E+03  0.10085284325E+04  0.10100000352E+00 0.  1.
</event>
<event>
 5   0  0.1082667E-03  0.1493424E+04  0.7818609E-02  0.8888837E-01
       -2   -1    0    0    0  501  0.00000000000E+00  0.00000000000E+00  0.21353041511E+03  0.21353041513E+03  0.25500000920E-02 0. -1.
        2   -1    0    0  501    0  0.00000000000E+00  0.00000000000E+00 -0.26112399249E+04  0.26112399249E+04  0.25500000920E-02 0.  1.
    10030    2    1    2    0    0  0.00000000000E+00  0.00000000000E+00 -0.23977095097E+04  0.28247703400E+04  0.14934244475E+04 0.  0.
        5    1    3    3  502    0  0.87003886376E+02  0.41437822193E+03 -0.35517947464E+02  0.42492658383E+03  0.46999998093E+01 0. -1.
       -5    1    3    3    0  502 -0.87003886376E+02 -0.41437822193E+03 -0.23621915623E+04  0.23998437562E+04  0.46999998093E+01 0.  1.
</event>
<event>
 5   0  0.5914645E-04  0.1479851E+04  0.7818609E-02  0.8897964E-01
       -1   -1    0    0    0  501  0.00000000000E+00  0.00000000000E+00  0.34610968409E+03  0.34610968412E+03  0.50400001928E-02 0.  1.
        1   -1    0    0  501    0  0.00000000000E+00  0.00000000000E+00 -0.15818384766E+04  0.15818384766E+04  0.50400001928E-02 0. -1.
    10030    2    1    2    0    0  0.00000000000E+00  0.00000000000E+00 -0.12357287925E+04  0.19279481607E+04  0.14798508242E+04 0.  0.
        2    1    3    3  502    0  0.41184813573E+03 -0.54829939606E+03 -0.25579290443E+03  0.73190240099E+03  0.25500000920E-02 0.  1.
       -2    1    3    3    0  502 -0.41184813573E+03  0.54829939606E+03 -0.97993588808E+03  0.11960457597E+04  0.25500000920E-02 0. -1.
</event>
<event>
 5   0  0.5840834E-04  0.1247617E+04  0.7818609E-02  0.9072169E-01
       -1   -1    0    0    0  501  0.00000000000E+00  0.00000000000E+00  0.43066588025E+03  0.43066588028E+03  0.50400001928E-02 0.  1.
        1   -1    0    0  501    0  0.00000000000E+00  0.00000000000E+00 -0.90357042089E+03  0.90357042090E+03  0.50400001928E-02 0. -1.
    10030    2    1    2    0    0  0.00000000000E+00  0.00000000000E+00 -0.47290454063E+03  0.13342363012E+04  0.12476168494E+04 0.  0.
        3    1    3    3  502    0 -0.48920215793E+03 -0.20224526186E+03  0.11648332008E+03  0.54202423499E+03  0.10100000352E+00 0.  1.
       -3    1    3    3    0  502  0.48920215793E+03  0.20224526186E+03 -0.58938786071E+03  0.79221206619E+03  0.10100000352E+00 0. -1.
</event>
<event>
 5   0  0.1149716E-03  0.1254613E+04  0.7818609E-02  0.9066353E-01
        2   -1    0    0  501    0  0.00000000000E+00  0.00000000000E+00  0.34985685096E+03  0.34985685097E+03  0.25500000920E-02 0. -1.
       -2   -1    0    0    0  501  0.00000000000E+00  0.00000000000E+00 -0.11247836009E+04  0.11247836009E+04  0.25500000920E-02 0.  1.
    10030    2    1    2    0    0  0.00000000000E+00  0.00000000000E+00 -0.77492674997E+03  0.14746404519E+04  0.12546126871E+04 0.  0.
        1    1    3    3  502    0  0.65553105297E+02 -0.20257132275E+02 -0.11203600862E+04  0.11224590344E+04  0.50400001928E-02 0.  1.
       -1    1    3    3    0  502 -0.65553105297E+02  0.20257132275E+02  0.34543333626E+03  0.35218141752E+03  0.50400001928E-02 0. -1.
</event>
<event>
 5   0  0.5840834E-04  0.1516356E+04  0.7818609E-02  0.8873649E-01
        1   -1    0    0  501    0  0.00000000000E+00  0.00000000000E+00  0.55248708457E+03  0.55248708459E+03  0.50400001928E-02 0.  1.
       -1   -1    0    0    0  501  0.00000000000E+00  0.00000000000E+00 -0.10404476291E+04  0.10404476291E+04  0.50400001928E-02 0. -1.
    10030    2    1    2    0    0  0.00000000000E+00  0.00000000000E+00 -0.48796054450E+03  0.15929347137E+04  0.15163559968E+04 0.  0.
        3    1    3    3  502    0 -0.13568364812E+03  0.21469819705E+03  0.50646964564E+03  0.56658351577E+03  0.10100000352E+00 0.  1.
       -3    1    3    3    0  502  0.13568364812E+03 -0.21469819705E+03 -0.99443019014E+03  0.10263511979E+04  0.10100000352E+00 0. -1.
</event>
<event>
 5   0  0.5914645E-04  0.1500799E+04  0.7818609E-02  0.8883922E-01
       -1   -1    0    0    0  501  0.00000000000E+00  0.00000000000E+00  0.39658151857E+03  0.39658151860E+03  0.50400001928E-02 0.  1.
        1   -1    0    0  501    0  0.00000000000E+00  0.00000000000E+00 -0.14198838681E+04  0.14198838681E+04  0.50400001928E-02 0. -1.
    10030    2    1    2    0    0  0.00000000000E+00  0.00000000000E+00 -0.10233023495E+04  0.18164653867E+04  0.15007993879E+04 0.  0.
        2    1    3    3  502    0 -0.22972811386E+03  0.66005905488E+03 -0.18096967318E+03  0.72194389314E+03  0.25500000920E-02 0.  1.
       -2    1    3    3    0  502  0.22972811386E+03 -0.66005905488E+03 -0.84233267637E+03  0.10945214936E+04  0.25500000920E-02 0. -1.
</event>
<event>
 5   0  0.5606965E-04  0.1500687E+04  0.7818609E-02  0.8883996E-01
       -1   -1    0    0    0  501  0.00000000000E+00  0.00000000000E+00  0.22060636405E+03  0.22060636410E+03  0.50400001928E-02 0.  1.
        1   -1    0    0  501    0  0.00000000000E+00  0.00000000000E+00 -0.25521260942E+04  0.25521260942E+04  0.50400001928E-02 0. -1.
    10030    2    1    2    0    0  0.00000000000E+00  0.00000000000E+00 -0.23315197302E+04  0.27727324584E+04  0.15006868538E+04 0.  0.
        4    1    3    3  502    0 -0.46562943614E+03 -0.38024609688E+03 -0.33613807967E+03  0.68875851174E+03  0.12699999809E+01 0.  1.
       -4    1    3    3    0  502  0.46562943614E+03  0.38024609688E+03 -0.19953816505E+04  0.20839739466E+04  0.12699999809E+01 0. -1.
</event>
<event>
 5   0  0.1147755E-03  0.1491111E+04  0.7818609E-02  0.8890386E-01
       -2   -1    0    0    0  501  0.00000000000E+00  0.00000000000E+00  0.32288298151E+03  0.32288298152E+03  0.25500000920E-02 0.  1.
        2   -1    0    0  501    0  0.00000000000E+00  0.00000000000E+00 -0.17215309607E+04  0.17215309607E+04  0.25500000920E-02 0. -1.
    10030    2    1    2    0    0  0.00000000000E+00  0.00000000000E+00 -0.13986479792E+04  0.20444139422E+04  0.14911110614E+04 0.  0.
        4    1    3    3  502    0 -0.28362439418E+03  0.51168750367E+03 -0.13329656846E+04  0.14557012151E+04  0.12699999809E+01 0. -1.
       -4    1    3    3    0  502  0.28362439418E+03 -0.51168750367E+03 -0.65682294616E+02  0.58871272715E+03  0.12699999809E+01 0.  1.
</event>
<event>
 5   0  0.4070625E-04  0.1474926E+04  0.7818609E-02  0.8901300E-01
       -3   -1    0    0    0  501  0.00000000000E+00  0.00000000000E+00  0.14298423034E+04  0.14298423070E+04  0.10100000352E+00 0.  1.
        3   -1    0    0  501    0  0.00000000000E+00  0.00000000000E+00 -0.38035769071E+03  0.38035770412E+03  0.10100000352E+00 0. -1.
    10030    2    1    2    0    0  0.00000000000E+00  0.00000000000E+00  0.10494846127E+04  0.18102000111E+04  0.14749258042E+04 0.  0.
        2    1    3    3  502    0  0.66246224124E+03 -0.19582155292E+03  0.20789212601E+03  0.72140241039E+03  0.25500000920E-02 0. -1.
       -2    1    3    3    0  502 -0.66246224124E+03  0.19582155292E+03  0.84159248669E+03  0.10887976007E+04  0.25500000920E-02 0.  1.
</event>
<event>
 5   0  0.6146552E-04  0.1464538E+04  0.7818609E-02  0.8908383E-01
        1   -1    0    0  501    0  0.00000000000E+00  0.00000000000E+00  0.76725255560E+03  0.76725255561E+03  0.50400001928E-02 0. -1.
       -1   -1    0    0    0  501  0.00000000000E+00  0.00000000000E+00 -0.69888032817E+03  0.69888032819E+03  0.50400001928E-02 0.  1.
    10030    2    1    2    0    0  0.00000000000E+00  0.00000000000E+00  0.68372227428E+02  0.14661328838E+04  0.14645377672E+04 0.  0.
        5    1    3    3  502    0  0.56113152010E+03 -0.11353338666E+03  0.49123261632E+03  0.75438053134E+03  0.46999998093E+01 0. -1.
       -5    1    3    3    0  502 -0.56113152010E+03  0.11353338666E+03 -0.42286038889E+03  0.71175235246E+03  0.46999998093E+01 0.  1.
</event>
<event>
 5   0  0.6146552E-04  0.1522831E+04  0.7818609E-02  0.8869411E-01
       -1   -1    0    0    0  501  0.00000000000E+00  0.00000000000E+00  0.25876751837E+03  0.25876751841E+03  0.50400001928E-02 0.  1.
        1   -1    0    0  501    0  0.00000000000E+00  0.00000000000E+00 -0.22404415664E+04  0.22404415664E+04  0.50400001928E-02 0. -1.
    10030    2    1    2    0    0  0.00000000000E+00  0.00000000000E+00 -0.19816740480E+04  0.24992090848E+04  0.15228309220E+04 0.  0.
        5    1    3    3  502    0  0.43667485915E+03 -0.18992657705E+02 -0.20140127290E+04  0.20609015057E+04  0.46999998093E+01 0. -1.
       -5    1    3    3    0  502 -0.43667485915E+03  0.18992657705E+02  0.32338680923E+02  0.43830757915E+03  0.46999998093E+01 0.  1.
</event>
<event>
 5   0  0.1082667E-03  0.1647179E+04  0.7818609E-02  0.8792077E-01
        2   -1    0    0  501    0  0.00000000000E+00  0.00000000000E+00  0.69785104254E+03  0.69785104255E+03  0.25500000920E-02 0. -1.
       -2   -1    0    0    0  501  0.00000000000E+00  0.00000000000E+00 -0.97198295116E+03  0.97198295116E+03  0.25500000920E-02 0.  1.
    10030    2    1    2    0    0  0.00000000000E+00  0.00000000000E+00 -0.27413190862E+03  0.16698339937E+04  0.16471785766E+04 0.  0.
        5    1    3    3  502    0 -0.40742220969E+03 -0.69131486932E+03 -0.32500218090E+03  0.86576995391E+03  0.46999998093E+01 0.  1.
       -5    1    3    3    0  502  0.40742220969E+03  0.69131486932E+03  0.50870272288E+02  0.80406403980E+03  0.46999998093E+01 0. -1.
</event>
<event>
 5   0  0.1126175E-03  0.1497631E+04  0.7818609E-02  0.8886030E-01
        2   -1    0    0  501    0  0.00000000000E+00  0.00000000000E+00  0.13457211002E+04  0.13457211002E+04  0.25500000920E-02 0. -1.
       -2   -1    0    0    0  501  0.00000000000E+00  0.00000000000E+00 -0.41667242507E+03  0.41667242508E+03  0.25500000920E-02 0.  1.
    10030    2    1    2    0    0  0.00000000000E+00  0.00000000000E+00  0.92904867513E+03  0.17623935253E+04  0.14976312955E+04 0.  0.
        3    1    3    3  502    0  0.22127313857E+03 -0.45084851745E+03 -0.18909461171E+03  0.53664044752E+03  0.10100000352E+00 0.  1.
       -3    1    3    3    0  502 -0.22127313857E+03  0.45084851745E+03  0.11181432868E+04  0.12257530778E+04  0.10100000352E+00 0. -1.
</event>
<event>
 5   0  0.5914645E-04  0.1484091E+04  0.7818609E-02  0.8895101E-01
        1   -1    0    0  501    0  0.00000000000E+00  0.00000000000E+00  0.19587187070E+04  0.19587187070E+04  0.50400001928E-02 0.  1.
       -1   -1    0    0    0  501  0.00000000000E+00  0.00000000000E+00 -0.28111837633E+03  0.28111837638E+03  0.50400001928E-02 0. -1.
    10030    2    1    2    0    0  0.00000000000E+00  0.00000000000E+00  0.16776003306E+04  0.22398370833E+04  0.14840914024E+04 0.  0.
        2    1    3    3  502    0 -0.33096213235E+03 -0.18989798997E+03  0.17993101123E+04  0.18393243487E+04  0.25500000920E-02 0.  1.
       -2    1    3    3    0  502  0.33096213235E+03  0.18989798997E+03 -0.12170978164E+03  0.40051273463E+03  0.25500000920E-02 0. -1.
</event>
<event>
 5   0  0.4070625E-04  0.1459832E+04  0.7818609E-02  0.8911612E-01
        4   -1    0    0  501    0  0.00000000000E+00  0.00000000000E+00  0.48066907529E+03  0.48067075305E+03  0.12699999809E+01 0.  1.
       -4   -1    0    0    0  501  0.00000000000E+00  0.00000000000E+00 -0.11084043321E+04  0.11084050597E+04  0.12699999809E+01 0. -1.
    10030    2    1    2    0    0  0.00000000000E+00  0.00000000000E+00 -0.62773525682E+03  0.15890758127E+04  0.14598323143E+04 0.  0.
        5    1    3    3  502    0  0.38718885305E+03  0.26550637319E+03  0.29449157239E+03  0.55421676115E+03  0.46999998093E+01 0.  1.
       -5    1    3    3    0  502 -0.38718885305E+03 -0.26550637319E+03 -0.92222682922E+03  0.10348590516E+04  0.46999998093E+01 0. -1.
</event>
<event>
 5   0  0.1149716E-03  0.1475804E+04  0.7818609E-02  0.8900704E-01
       -2   -1    0    0    0  501  0.00000000000E+00  0.00000000000E+00  0.21418404758E+03  0.21418404759E+03  0.25500000920E-02 0.  1.
        2   -1    0    0  501    0  0.00000000000E+00  0.00000000000E+00 -0.25422022531E+04  0.25422022531E+04  0.25500000920E-02 0. -1.
    10030    2    1    2    0    0  0.00000000000E+00  0.00000000000E+00 -0.23280182055E+04  0.27563863007E+04  0.14758037381E+04 0.  0.
        1    1    3    3  502    0 -0.65990254811E+03 -0.11664317423E+03 -0.17409563562E+04  0.18654774288E+04  0.50400001928E-02 0. -1.
       -1    1    3    3    0  502  0.65990254811E+03  0.11664317423E+03 -0.58706184931E+03  0.89090887190E+03  0.50400001928E-02 0.  1.
</event>
<event>
 5   0  0.1149716E-03  0.1496516E+04  0.7818609E-02  0.8886773E-01
       -2   -1    0    0    0  501  0.00000000000E+00  0.00000000000E+00  0.28602237343E+03  0.28602237344E+03  0.25500000920E-02 0.  1.
        2   -1    0    0  501    0  0.00000000000E+00  0.00000000000E+00 -0.19575037195E+04  0.19575037195E+04  0.25500000920E-02 0. -1.
    10030    2    1    2    0    0  0.00000000000E+00  0.00000000000E+00 -0.16714813460E+04  0.22435260929E+04  0.14965157665E+04 0.  0.
        1    1    3    3  502    0  0.30649456585E+03 -0.81410841463E+02 -0.18517765104E+04  0.18787343848E+04  0.50400001928E-02 0. -1.
       -1    1    3    3    0  502 -0.30649456585E+03  0.81410841463E+02  0.18029516438E+03  0.36479170814E+03  0.50400001928E-02 0.  1.
</event>
<event>
 5   0  0.1082667E-03  0.1523319E+04  0.7818609E-02  0.8869092E-01
        2   -1    0    0  501    0  0.00000000000E+00  0.00000000000E+00  0.98118619350E+03  0.98118619350E+03  0.25500000920E-02 0. -1.
       -2   -1    0    0    0  501  0.00000000000E+00  0.00000000000E+00 -0.59124896562E+03  0.59124896562E+03  0.25500000920E-02 0.  1.
    10030    2    1    2    0    0  0.00000000000E+00  0.00000000000E+00  0.38993722788E+03  0.15724351591E+04  0.15233191681E+04 0.  0.
        5    1    3    3  502    0  0.28488440825E+03 -0.11327183167E+03 -0.52473009552E+03  0.60774451627E+03  0.46999998093E+01 0.  1.
       -5    1    3    3    0  502 -0.28488440825E+03  0.11327183167E+03  0.91466732340E+03  0.96469064285E+03  0.46999998093E+01 0. -1.
</event>
<event>
 5   0  0.5606965E-04  0.1520803E+04  0.7818609E-02  0.8870736E-01
        1   -1    0    0  501    0  0.00000000000E+00  0.00000000000E+00  0.17671838132E+04  0.17671838132E+04  0.50400001928E-02 0. -1.
       -1   -1    0    0    0  501  0.00000000000E+00  0.00000000000E+00 -0.32719295520E+03  0.32719295524E+03  0.50400001928E-02 0.  1.
    10030    2    1    2    0    0  0.00000000000E+00  0.00000000000E+00  0.14399908580E+04  0.20943767684E+04  0.15208025437E+04 0.  0.
        4    1    3    3  502    0  0.45681740628E+03 -0.49693162715E+03  0.12021665249E+04  0.13787056072E+04  0.12699999809E+01 0. -1.
       -4    1    3    3    0  502 -0.45681740628E+03  0.49693162715E+03  0.23782433305E+03  0.71567116124E+03  0.12699999809E+01 0.  1.
</event>
<event>
 5   0  0.5606965E-04  0.1491696E+04  0.7818609E-02  0.8889994E-01
        1   -1    0    0  501    0  0.00000000000E+00  0.00000000000E+00  0.87944822554E+03  0.87944822555E+03  0.50400001928E-02 0.  1.
       -1   -1    0    0    0  501  0.00000000000E+00  0.00000000000E+00 -0.63254352301E+03  0.63254352303E+03  0.50400001928E-02 0. -1.
    10030    2    1    2    0    0  0.00000000000E+00  0.00000000000E+00  0.24690470252E+03  0.15119917486E+04  0.14916960534E+04 0.  0.
        4    1    3    3  502    0 -0.60951996818E+03 -0.54094367561E+01 -0.31221401275E+03  0.68485257995E+03  0.12699999809E+01 0. -1.
       -4    1    3    3    0  502  0.60951996818E+03  0.54094367561E+01  0.55911871528E+03  0.82713916863E+03  0.12699999809E+01 0.  1.
</event>
<event>
 5   0  0.5924403E-04  0.1506730E+04  0.7818609E-02  0.8879990E-01
        1   -1    0    0  501    0  0.00000000000E+00  0.00000000000E+00  0.94849588293E+03  0.94849588294E+03  0.50400001928E-02 0. -1.
       -1   -1    0    0    0  501  0.00000000000E+00  0.00000000000E+00 -0.59837795423E+03  0.59837795425E+03  0.50400001928E-02 0.  1.
    10030    2    1    2    0    0  0.00000000000E+00  0.00000000000E+00  0.35011792870E+03  0.15468738372E+04  0.15067302692E+04 0.  0.
        1    1    3    3  502    0 -0.98336313491E+02 -0.74034868311E+03  0.27655039984E+03  0.79640839198E+03  0.50400001928E-02 0. -1.
       -1    1    3    3    0  502  0.98336313491E+02  0.74034868311E+03  0.73567528855E+02  0.75046544521E+03  0.50400001928E-02 0.  1.
</event>
<event>
 5   0  0.1082667E-03  0.1496725E+04  0.7818609E-02  0.8886634E-01
        2   -1    0    0  501    0  0.00000000000E+00  0.00000000000E+00  0.56153289404E+03  0.56153289404E+03  0.25500000920E-02 0. -1.
       -2   -1    0    0    0  501  0.00000000000E+00  0.00000000000E+00 -0.99735259414E+03  0.99735259414E+03  0.25500000920E-02 0.  1.
    10030    2    1    2    0    0  0.00000000000E+00  0.00000000000E+00 -0.43581970010E+03  0.15588854882E+04  0.14967248091E+04 0.  0.
        5    1    3    3  502    0  0.69430300506E+03 -0.24116090629E+03 -0.36449940207E+03  0.82042498113E+03  0.46999998093E+01 0.  1.
       -5    1    3    3    0  502 -0.69430300506E+03  0.24116090629E+03 -0.71320298033E+02  0.73846050705E+03  0.46999998093E+01 0. -1.
</event>
<event>
 5   0  0.5840834E-04  0.1513229E+04  0.7818609E-02  0.8875703E-01
       -1   -1    0    0    0  501  0.00000000000E+00  0.00000000000E+00  0.69567027104E+03  0.69567027106E+03  0.50400001928E-02 0.  1.
        1   -1    0    0  501    0  0.00000000000E+00  0.00000000000E+00 -0.82289815744E+03  0.82289815745E+03  0.50400001928E-02 0. -1.
    10030    2    1    2    0    0  0.00000000000E+00  0.00000000000E+00 -0.12722788640E+03  0.15185684285E+04  0.15132293736E+04 0.  0.
        3    1    3    3  502    0  0.34792336429E+02  0.75135666608E+03  0.18641269157E+02  0.75239275213E+03  0.10100000352E+00 0. -1.
       -3    1    3    3    0  502 -0.34792336429E+02 -0.75135666608E+03 -0.14586915556E+03  0.76617567638E+03  0.10100000352E+00 0.  1.
</event>
<event>
 5   0  0.4070625E-04  0.1491775E+04  0.7818609E-02  0.8889941E-01
        4   -1    0    0  501    0  0.00000000000E+00  0.00000000000E+00  0.55953202961E+03  0.55953347091E+03  0.12699999809E+01 0.  1.
       -4   -1    0    0    0  501  0.00000000000E+00  0.00000000000E+00 -0.99430632697E+03  0.99430713804E+03  0.12699999809E+01 0. -1.
    10030    2    1    2    0    0  0.00000000000E+00  0.00000000000E+00 -0.43477429736E+03  0.15538406089E+04  0.14917747646E+04 0.  0.
        4    1    3    3  502    0 -0.11204644307E+03  0.20601856823E+03  0.52013147654E+03  0.57055799149E+03  0.12699999809E+01 0.  1.
       -4    1    3    3    0  502  0.11204644307E+03 -0.20601856823E+03 -0.95490577390E+03  0.98328261745E+03  0.12699999809E+01 0. -1.
</event>
<event>
 5   0  0.1149716E-03  0.1485402E+04  0.7818609E-02  0.8894219E-01
       -2   -1    0    0    0  501  0.00000000000E+00  0.00000000000E+00  0.12559640839E+04  0.12559640839E+04  0.25500000920E-02 0. -1.
        2   -1    0    0  501    0  0.00000000000E+00  0.00000000000E+00 -0.43918833420E+03  0.43918833421E+03  0.25500000920E-02 0.  1.
    10030    2    1    2    0    0  0.00000000000E+00  0.00000000000E+00  0.81677574974E+03  0.16951524181E+04  0.14854019979E+04 0.  0.
        1    1    3    3  502    0 -0.67289157836E+03  0.14532334955E+03  0.72650214015E+03  0.10008532919E+04  0.50400001928E-02 0. -1.
       -1    1    3    3    0  502  0.67289157836E+03 -0.14532334955E+03  0.90273609584E+02  0.69429912629E+03  0.50400001928E-02 0.  1.
</event>
<event>
 5   0  0.1147755E-03  0.1491052E+04  0.7818609E-02  0.8890425E-01
        2   -1    0    0  501    0  0.00000000000E+00  0.00000000000E+00  0.88799043778E+03  0.88799043778E+03  0.25500000920E-02 0. -1.
       -2   -1    0    0    0  501  0.00000000000E+00  0.00000000000E+00 -0.62591745466E+03  0.62591745467E+03  0.25500000920E-02 0.  1.
    10030    2    1    2    0    0  0.00000000000E+00  0.00000000000E+00  0.26207298312E+03  0.15139078924E+04  0.14910515948E+04 0.  0.
        4    1    3    3  502    0  0.96175983886E+02  0.59735868862E+03  0.57328176593E+03  0.83351113897E+03  0.12699999809E+01 0. -1.
       -4    1    3    3    0  502 -0.96175983886E+02 -0.59735868862E+03 -0.31120878281E+03  0.68039675348E+03  0.12699999809E+01 0.  1.
</event>
<event>
 5   0  0.1082667E-03  0.1496884E+04  0.7818609E-02  0.8886528E-01
        2   -1    0    0  501    0  0.00000000000E+00  0.00000000000E+00  0.45325732461E+03  0.45325732462E+03  0.25500000920E-02 0. -1.
       -2   -1    0    0    0  501  0.00000000000E+00  0.00000000000E+00 -0.12358663062E+04  0.12358663062E+04  0.25500000920E-02 0.  1.
    10030    2    1    2    0    0  0.00000000000E+00  0.00000000000E+00 -0.78260898160E+03  0.16891236308E+04  0.14968840376E+04 0.  0.
        5    1    3    3  502    0 -0.19016663771E+03 -0.67915422823E+03 -0.67392870352E+03  0.97550797191E+03  0.46999998093E+01 0.  1.
       -5    1    3    3    0  502  0.19016663771E+03  0.67915422823E+03 -0.10868027808E+03  0.71361565893E+03  0.46999998093E+01 0. -1.
</event>
<event>
 5   0  0.5606965E-04  0.1385052E+04  0.7818609E-02  0.8964710E-01
       -1   -1    0    0    0  501  0.00000000000E+00  0.00000000000E+00  0.56317377310E+03  0.56317377312E+03  0.50400001928E-02 0.  1.
        1   -1    0    0  501    0  0.00000000000E+00  0.00000000000E+00 -0.85158841492E+03  0.85158841493E+03  0.50400001928E-02 0. -1.
    10030    2    1    2    0    0  0.00000000000E+00  0.00000000000E+00 -0.28841464181E+03  0.14147621881E+04  0.13850520002E+04 0.  0.
        4    1    3    3  502    0 -0.43701066490E+03  0.46487940029E+03  0.13082566298E+03  0.65131263234E+03  0.12699999809E+01 0. -1.
       -4    1    3    3    0  502  0.43701066490E+03 -0.46487940029E+03 -0.41924030480E+03  0.76344955571E+03  0.12699999809E+01 0.  1.
</event>
<event>
 5   0  0.1149716E-03  0.1484865E+04  0.7818609E-02  0.8894580E-01
       -2   -1    0    0    0  501  0.00000000000E+00  0.00000000000E+00  0.58441228820E+03  0.58441228821E+03  0.25500000920E-02 0. -1.
        2   -1    0    0  501    0  0.00000000000E+00  0.00000000000E+00 -0.94318014621E+03  0.94318014621E+03  0.25500000920E-02 0.  1.
    10030    2    1    2    0    0  0.00000000000E+00  0.00000000000E+00 -0.35876785800E+03  0.15275924344E+04  0.14848650679E+04 0.  0.
        1    1    3    3  502    0  0.63983299829E+03  0.34957212611E+03 -0.32348273586E+03  0.79763902705E+03  0.50400001928E-02 0. -1.
       -1    1    3    3    0  502 -0.63983299829E+03 -0.34957212611E+03 -0.35285122145E+02  0.72995340737E+03  0.50400001928E-02 0.  1.
</event>
<event>
 5   0  0.5606965E-04  0.1502114E+04  0.7818609E-02  0.8883048E-01
        1   -1    0    0  501    0  0.00000000000E+00  0.00000000000E+00  0.10838601171E+04  0.10838601171E+04  0.50400001928E-02 0. -1.
       -1   -1    0    0    0  501  0.00000000000E+00  0.00000000000E+00 -0.52044234269E+03  0.52044234272E+03  0.50400001928E-02 0.  1.
    10030    2    1    2    0    0  0.00000000000E+00  0.00000000000E+00  0.56341777439E+03  0.16043024598E+04  0.15021141082E+04 0.  0.
        4    1    3    3  502    0 -0.49875035169E+03 -0.14210940932E+03 -0.29851546730E+03  0.59838122852E+03  0.12699999809E+01 0.  1.
       -4    1    3    3    0  502  0.49875035169E+03  0.14210940932E+03  0.86193324170E+03  0.10059212313E+04  0.12699999809E+01 0. -1.
</event>
<event>
 5   0  0.5914645E-04  0.1492362E+04  0.7818609E-02  0.8889548E-01
        1   -1    0    0  501    0  0.00000000000E+00  0.00000000000E+00  0.11466177516E+04  0.11466177516E+04  0.50400001928E-02 0. -1.
       -1   -1    0    0    0  501  0.00000000000E+00  0.00000000000E+00 -0.48558988625E+03  0.48558988628E+03  0.50400001928E-02 0.  1.
    10030    2    1    2    0    0  0.00000000000E+00  0.00000000000E+00  0.66102786537E+03  0.16322076379E+04  0.14923618644E+04 0.  0.
        2    1    3    3  502    0 -0.61786818740E+03  0.10059259395E+03 -0.11362568442E+03  0.63623168982E+03  0.25500000920E-02 0.  1.
       -2    1    3    3    0  502  0.61786818740E+03 -0.10059259395E+03  0.77465354979E+03  0.99597594809E+03  0.25500000920E-02 0. -1.
</event>
<event>
 5   0  0.5914645E-04  0.1458823E+04  0.7818609E-02  0.8912306E-01
        1   -1    0    0  501    0  0.00000000000E+00  0.00000000000E+00  0.13376043290E+04  0.13376043290E+04  0.50400001928E-02 0. -1.
       -1   -1    0    0    0  501  0.00000000000E+00  0.00000000000E+00 -0.39775684591E+03  0.39775684594E+03  0.50400001928E-02 0.  1.
    10030    2    1    2    0    0  0.00000000000E+00  0.00000000000E+00  0.93984748308E+03  0.17353611749E+04  0.14588231956E+04 0.  0.
        2    1    3    3  502    0 -0.37341389648E+03  0.60971367406E+03  0.29814592461E+03  0.77464811030E+03  0.25500000920E-02 0.  1.
       -2    1    3    3    0  502  0.37341389648E+03 -0.60971367406E+03  0.64170155847E+03  0.96071306464E+03  0.25500000920E-02 0. -1.
</event>
<event>
 5   0  0.5924403E-04  0.1484690E+04  0.7818609E-02  0.8894698E-01
        1   -1    0    0  501    0  0.00000000000E+00  0.00000000000E+00  0.16670252892E+04  0.16670252892E+04  0.50400001928E-02 0. -1.
       -1   -1    0    0    0  501  0.00000000000E+00  0.00000000000E+00 -0.33057443077E+03  0.33057443081E+03  0.50400001928E-02 0.  1.
    10030    2    1    2    0    0  0.00000000000E+00  0.00000000000E+00  0.13364508585E+04  0.19975997200E+04  0.14846897805E+04 0.  0.
        1    1    3    3  502    0 -0.78305518964E+02  0.21159864163E+03 -0.28332466005E+03  0.36218586728E+03  0.50400001928E-02 0.  1.
       -1    1    3    3    0  502  0.78305518964E+02 -0.21159864163E+03  0.16197755185E+04  0.16354138528E+04  0.50400001928E-02 0. -1.
</event>
<event>
 5   0  0.5606965E-04  0.1532118E+04  0.7818609E-02  0.8863372E-01
       -1   -1    0    0    0  501  0.00000000000E+00  0.00000000000E+00  0.98738475109E+03  0.98738475110E+03  0.50400001928E-02 0.  1.
        1   -1    0    0  501    0  0.00000000000E+00  0.00000000000E+00 -0.59434390184E+03  0.59434390186E+03  0.50400001928E-02 0. -1.
    10030    2    1    2    0    0  0.00000000000E+00  0.00000000000E+00  0.39304084924E+03  0.15817286530E+04  0.15321176268E+04 0.  0.
        4    1    3    3  502    0  0.68546739549E+03  0.32129587270E+03  0.31756856669E+03  0.82094335708E+03  0.12699999809E+01 0.  1.
       -4    1    3    3    0  502 -0.68546739549E+03 -0.32129587270E+03  0.75472282559E+02  0.76078529588E+03  0.12699999809E+01 0. -1.
</event>
<event>
 5   0  0.1147755E-03  0.1504920E+04  0.7818609E-02  0.8881188E-01
        2   -1    0    0  501    0  0.00000000000E+00  0.00000000000E+00  0.24899486075E+04  0.24899486075E+04  0.25500000920E-02 0.  1.
       -2   -1    0    0    0  501  0.00000000000E+00  0.00000000000E+00 -0.22739261438E+03  0.22739261439E+03  0.25500000920E-02 0. -1.
    10030    2    1    2    0    0  0.00000000000E+00  0.00000000000E+00  0.22625559931E+04  0.27173412219E+04  0.15049198298E+04 0.  0.
        4    1    3    3  502    0  0.67561729435E+03  0.18809796765E+03  0.16236406829E+04  0.17686294846E+04  0.12699999809E+01 0.  1.
       -4    1    3    3    0  502 -0.67561729435E+03 -0.18809796765E+03  0.63891531020E+03  0.94871173724E+03  0.12699999809E+01 0. -1.
</event>
<event>
 5   0  0.1147755E-03  0.1379498E+04  0.7818609E-02  0.8968794E-01
       -2   -1    0    0    0  501  0.00000000000E+00  0.00000000000E+00  0.35367608176E+03  0.35367608177E+03  0.25500000920E-02 0.  1.
        2   -1    0    0  501    0  0.00000000000E+00  0.00000000000E+00 -0.13451681792E+04  0.13451681792E+04  0.25500000920E-02 0. -1.
    10030    2    1    2    0    0  0.00000000000E+00  0.00000000000E+00 -0.99149209747E+03  0.16988442610E+04  0.13794981855E+04 0.  0.
        4    1    3    3  502    0 -0.17482207833E+03 -0.13771773504E+03 -0.12997367194E+04  0.13186531334E+04  0.12699999809E+01 0. -1.
       -4    1    3    3    0  502  0.17482207833E+03  0.13771773504E+03  0.30824462195E+03  0.38019112756E+03  0.12699999809E+01 0.  1.
</event>
<event>
 5   0  0.6146552E-04  0.1344649E+04  0.7818609E-02  0.8994889E-01
        1   -1    0    0  501    0  0.00000000000E+00  0.00000000000E+00  0.82793083805E+03  0.82793083807E+03  0.50400001928E-02 0.  1.
       -1   -1    0    0    0  501  0.00000000000E+00  0.00000000000E+00 -0.54596375992E+03  0.54596375994E+03  0.50400001928E-02 0. -1.
    10030    2    1    2    0    0  0.00000000000E+00  0.00000000000E+00  0.28196707813E+03  0.13738945980E+04  0.13446490000E+04 0.  0.
        5    1    3    3  502    0 -0.56662130040E+03  0.27682748771E+03 -0.97119172341E+02  0.63808101339E+03  0.46999998093E+01 0. -1.
       -5    1    3    3    0  502  0.56662130040E+03 -0.27682748771E+03  0.37908625047E+03  0.73581358462E+03  0.46999998093E+01 0.  1.
</event>
<event>
 5   0  0.1097156E-03  0.1508356E+04  0.7818609E-02  0.8878915E-01
       -2   -1    0    0    0  501  0.00000000000E+00  0.00000000000E+00  0.23596850864E+03  0.23596850865E+03  0.25500000920E-02 0. -1.
        2   -1    0    0  501    0  0.00000000000E+00  0.00000000000E+00 -0.24104249588E+04  0.24104249588E+04  0.25500000920E-02 0.  1.
    10030    2    1    2    0    0  0.00000000000E+00  0.00000000000E+00 -0.21744564502E+04  0.26463934675E+04  0.15083559033E+04 0.  0.
        2    1    3    3  502    0 -0.24863645912E+03 -0.18828630241E+03 -0.22919790226E+04  0.23131017402E+04  0.25500000920E-02 0.  1.
       -2    1    3    3    0  502  0.24863645912E+03  0.18828630241E+03  0.11752257237E+03  0.33329172732E+03  0.25500000920E-02 0. -1.
</event>
<event>
 5   0  0.6146552E-04  0.1422296E+04  0.7818609E-02  0.8937836E-01
       -1   -1    0    0    0  501  0.00000000000E+00  0.00000000000E+00  0.88102470931E+03  0.88102470933E+03  0.50400001928E-02 0. -1.
        1   -1    0    0  501    0  0.00000000000E+00  0.00000000000E+00 -0.57402635790E+03  0.57402635792E+03  0.50400001928E-02 0.  1.
    10030    2    1    2    0    0  0.00000000000E+00  0.00000000000E+00  0.30699835141E+03  0.14550510672E+04  0.14222958977E+04 0.  0.
        5    1    3    3  502    0  0.71101906247E+03  0.26321540405E+01  0.16620616529E+03  0.73020655626E+03  0.46999998093E+01 0. -1.
       -5    1    3    3    0  502 -0.71101906247E+03 -0.26321540405E+01  0.14079218612E+03  0.72484451098E+03  0.46999998093E+01 0.  1.
</event>
<event>
 5   0  0.1149716E-03  0.1296907E+04  0.7818609E-02  0.9032022E-01
        2   -1    0    0  501    0  0.00000000000E+00  0.00000000000E+00  0.15350005185E+04  0.15350005185E+04  0.25500000920E-02 0.  1.
       -2   -1    0    0    0  501  0.00000000000E+00  0.00000000000E+00 -0.27393583450E+03  0.27393583451E+03  0.25500000920E-02 0. -1.
    10030    2    1    2    0    0  0.00000000000E+00  0.00000000000E+00  0.12610646840E+04  0.18089363530E+04  0.12969065471E+04 0.  0.
        1    1    3    3  502    0 -0.68438788781E+02 -0.40483705464E+03  0.13306022225E+04  0.13925082345E+04  0.50400001928E-02 0.  1.
       -1    1    3    3    0  502  0.68438788781E+02  0.40483705464E+03 -0.69537538480E+02  0.41642811853E+03  0.50400001928E-02 0. -1.
</event>
<event>
 5   0  0.1147755E-03  0.1448111E+04  0.7818609E-02  0.8919711E-01
        2   -1    0    0  501    0  0.00000000000E+00  0.00000000000E+00  0.93641539705E+03  0.93641539705E+03  0.25500000920E-02 0.  1.
       -2   -1    0    0    0  501  0.00000000000E+00  0.00000000000E+00 -0.55985481111E+03  0.55985481112E+03  0.25500000920E-02 0. -1.
    10030    2    1    2    0    0  0.00000000000E+00  0.00000000000E+00  0.37656058593E+03  0.14962702082E+04  0.14481114118E+04 0.  0.
        4    1    3    3  502    0  0.34725890879E+02 -0.13455050584E+03  0.92250709066E+03  0.93291514691E+03  0.12699999809E+01 0.  1.
       -4    1    3    3    0  502 -0.34725890879E+02  0.13455050584E+03 -0.54594650473E+03  0.56335506126E+03  0.12699999809E+01 0. -1.
</event>
<event>
 5   0  0.6146552E-04  0.1504004E+04  0.7818609E-02  0.8881795E-01
       -1   -1    0    0    0  501  0.00000000000E+00  0.00000000000E+00  0.34460183472E+03  0.34460183476E+03  0.50400001928E-02 0.  1.
        1   -1    0    0  501    0  0.00000000000E+00  0.00000000000E+00 -0.16410436404E+04  0.16410436404E+04  0.50400001928E-02 0. -1.
    10030    2    1    2    0    0  0.00000000000E+00  0.00000000000E+00 -0.12964418056E+04  0.19856454751E+04  0.15040035231E+04 0.  0.
        5    1    3    3  502    0 -0.64306189500E+03  0.18529851715E+03 -0.19543362444E+03  0.69719475961E+03  0.46999998093E+01 0.  1.
       -5    1    3    3    0  502  0.64306189500E+03 -0.18529851715E+03 -0.11010081812E+04  0.12884507155E+04  0.46999998093E+01 0. -1.
</event>
<event>
 5   0  0.1147755E-03  0.1502755E+04  0.7818609E-02  0.8882623E-01
       -2   -1    0    0    0  501  0.00000000000E+00  0.00000000000E+00  0.75712650988E+03  0.75712650988E+03  0.25500000920E-02 0. -1.
        2   -1    0    0  501    0  0.00000000000E+00  0.00000000000E+00 -0.74567256622E+03  0.74567256623E+03  0.25500000920E-02 0.  1.
    10030    2    1    2    0    0  0.00000000000E+00  0.00000000000E+00  0.11453943658E+02  0.15027990761E+04  0.15027554260E+04 0.  0.
        4    1    3    3  502    0  0.44718848556E+03  0.15700395785E+03 -0.57733290400E+03  0.74695560734E+03  0.12699999809E+01 0.  1.
       -4    1    3    3    0  502 -0.44718848556E+03 -0.15700395785E+03  0.58878684766E+03  0.75584346877E+03  0.12699999809E+01 0. -1.
</event>
<event>
 5   0  0.1082667E-03  0.1504465E+04  0.7818609E-02  0.8881489E-01
       -2   -1    0    0    0  501  0.00000000000E+00  0.00000000000E+00  0.66299048976E+03  0.66299048976E+03  0.25500000920E-02 0. -1.
        2   -1    0    0  501    0  0.00000000000E+00  0.00000000000E+00 -0.85348656588E+03  0.85348656589E+03  0.25500000920E-02 0.  1.
    10030    2    1    2    0    0  0.00000000000E+00  0.00000000000E+00 -0.19049607613E+03  0.15164770557E+04  0.15044646574E+04 0.  0.
        5    1    3    3  502    0 -0.22859627875E+03 -0.67531830403E+03 -0.33699692617E+03  0.78860642190E+03  0.46999998093E+01 0.  1.
       -5    1    3    3    0  502  0.22859627875E+03  0.67531830403E+03  0.14650085005E+03  0.72787063375E+03  0.46999998093E+01 0. -1.
</event>
<event>
 5   0  0.1149716E-03  0.1486499E+04  0.7818609E-02  0.8893481E-01
       -2   -1    0    0    0  501  0.00000000000E+00  0.00000000000E+00  0.26593548339E+03  0.26593548340E+03  0.25500000920E-02 0. -1.
        2   -1    0    0  501    0  0.00000000000E+00  0.00000000000E+00 -0.20772697416E+04  0.20772697416E+04  0.25500000920E-02 0.  1.
    10030    2    1    2    0    0  0.00000000000E+00  0.00000000000E+00 -0.18113342582E+04  0.23432052250E+04  0.14864988838E+04 0.  0.
        1    1    3    3  502    0  0.44697495743E+03 -0.82558751996E+02 -0.18326442550E+04  0.18881704175E+04  0.50400001928E-02 0.  1.
       -1    1    3    3    0  502 -0.44697495743E+03  0.82558751996E+02  0.21309996744E+02  0.45503480755E+03  0.50400001928E-02 0. -1.
</event>
<event>
 5   0  0.5606965E-04  0.1549644E+04  0.7818609E-02  0.8852095E-01
        1   -1    0    0  501    0  0.00000000000E+00  0.00000000000E+00  0.91143333320E+03  0.91143333321E+03  0.50400001928E-02 0.  1.
       -1   -1    0    0    0  501  0.00000000000E+00  0.00000000000E+00 -0.65868644493E+03  0.65868644495E+03  0.50400001928E-02 0. -1.
    10030    2    1    2    0    0  0.00000000000E+00  0.00000000000E+00  0.25274688827E+03  0.15701197782E+04  0.15496435488E+04 0.  0.
        4    1    3    3  502    0  0.49486106361E+03 -0.40752158025E+03  0.56730861882E+03  0.85603854617E+03  0.12699999809E+01 0.  1.
       -4    1    3    3    0  502 -0.49486106361E+03  0.40752158025E+03 -0.31456173055E+03  0.71408123198E+03  0.12699999809E+01 0. -1.
</event>
<event>
 5   0  0.1149716E-03  0.1542632E+04  0.7818609E-02  0.8856588E-01
        2   -1    0    0  501    0  0.00000000000E+00  0.00000000000E+00  0.15633563837E+04  0.15633563837E+04  0.25500000920E-02 0. -1.
       -2   -1    0    0    0  501  0.00000000000E+00  0.00000000000E+00 -0.38054555478E+03  0.38054555479E+03  0.25500000920E-02 0.  1.
    10030    2    1    2    0    0  0.00000000000E+00  0.00000000000E+00  0.11828108289E+04  0.19439019385E+04  0.15426319358E+04 0.  0.
        1    1    3    3  502    0 -0.29163458581E+03 -0.72594108002E+02 -0.30373046587E+03  0.42728542226E+03  0.50400001928E-02 0.  1.
       -1    1    3    3    0  502  0.29163458581E+03  0.72594108002E+02  0.14865412948E+04  0.15166165162E+04  0.50400001928E-02 0. -1.
</event>
<event>
 5   0  0.5914645E-04  0.1505869E+04  0.7818609E-02  0.8880559E-01
       -1   -1    0    0    0  501  0.00000000000E+00  0.00000000000E+00  0.26725470709E+03  0.26725470714E+03  0.50400001928E-02 0.  1.
        1   -1    0    0  501    0  0.00000000000E+00  0.00000000000E+00 -0.21212365708E+04  0.21212365708E+04  0.50400001928E-02 0. -1.
    10030    2    1    2    0    0  0.00000000000E+00  0.00000000000E+00 -0.18539818638E+04  0.23884912780E+04  0.15058691291E+04 0.  0.
        2    1    3    3  502    0 -0.15622441894E+03  0.73254947904E+03 -0.10485715632E+04  0.12886183033E+04  0.25500000920E-02 0. -1.
       -2    1    3    3    0  502  0.15622441894E+03 -0.73254947904E+03 -0.80541030052E+03  0.10998729747E+04  0.25500000920E-02 0.  1.
</event>
<event>
 5   0  0.1126175E-03  0.1507361E+04  0.7818609E-02  0.8879573E-01
        2   -1    0    0  501    0  0.00000000000E+00  0.00000000000E+00  0.76743267347E+03  0.76743267347E+03  0.25500000920E-02 0. -1.
       -2   -1    0    0    0  501  0.00000000000E+00  0.00000000000E+00 -0.74017457869E+03  0.74017457869E+03  0.25500000920E-02 0.  1.
    10030    2    1    2    0    0  0.00000000000E+00  0.00000000000E+00  0.27258094775E+02  0.15076072522E+04  0.15073608138E+04 0.  0.
        3    1    3    3  502    0  0.49603979574E+03  0.41350964822E+03 -0.37500678685E+03  0.74677694696E+03  0.10100000352E+00 0.  1.
       -3    1    3    3    0  502 -0.49603979574E+03 -0.41350964822E+03  0.40226488163E+03  0.76083030520E+03  0.10100000352E+00 0. -1.
</event>
<event>
 5   0  0.5606965E-04  0.1406851E+04  0.7818609E-02  0.8948875E-01
       -1   -1    0    0    0  501  0.00000000000E+00  0.00000000000E+00  0.41816939792E+03  0.41816939795E+03  0.50400001928E-02 0. -1.
        1   -1    0    0  501    0  0.00000000000E+00  0.00000000000E+00 -0.11832695805E+04  0.11832695805E+04  0.50400001928E-02 0.  1.
    10030    2    1    2    0    0  0.00000000000E+00  0.00000000000E+00 -0.76510018254E+03  0.16014389784E+04  0.14068505650E+04 0.  0.
        4    1    3    3  502    0 -0.64375840188E+03 -0.13270023496E+03 -0.97354421208E+02  0.66446499424E+03  0.12699999809E+01 0. -1.
       -4    1    3    3    0  502  0.64375840188E+03  0.13270023496E+03 -0.66774576133E+03  0.93697398417E+03  0.12699999809E+01 0.  1.
</event>
<event>
 5   0  0.5924403E-04  0.1500356E+04  0.7818609E-02  0.8884216E-01
        1   -1    0    0  501    0  0.00000000000E+00  0.00000000000E+00  0.12121414115E+04  0.12121414116E+04  0.50400001928E-02 0. -1.
       -1   -1    0    0    0  501  0.00000000000E+00  0.00000000000E+00 -0.46427518209E+03  0.46427518212E+03  0.50400001928E-02 0.  1.
    10030    2    1    2    0    0  0.00000000000E+00  0.00000000000E+00  0.74786622946E+03  0.16764165937E+04  0.15003561905E+04 0.  0.
        1    1    3    3  502    0  0.66366679976E+03  0.34884416660E+03  0.40178397187E+03  0.85063284309E+03  0.50400001928E-02 0. -1.
       -1    1    3    3    0  502 -0.66366679976E+03 -0.34884416660E+03  0.34608225759E+03  0.82578375058E+03  0.50400001928E-02 0.  1.
</event>
<event>
 5   0  0.1126175E-03  0.1492383E+04  0.7818609E-02  0.8889534E-01
        2   -1    0    0  501    0  0.00000000000E+00  0.00000000000E+00  0.15587444392E+04  0.15587444392E+04  0.25500000920E-02 0. -1.
       -2   -1    0    0    0  501  0.00000000000E+00  0.00000000000E+00 -0.35721160301E+03  0.35721160302E+03  0.25500000920E-02 0.  1.
    10030    2    1    2    0    0  0.00000000000E+00  0.00000000000E+00  0.12015328362E+04  0.19159560422E+04  0.14923827925E+04 0.  0.
        3    1    3    3  502    0  0.27392116847E+03 -0.64134143014E+03  0.26000873086E+03  0.74428233009E+03  0.10100000352E+00 0.  1.
       -3    1    3    3    0  502 -0.27392116847E+03  0.64134143014E+03  0.94152410531E+03  0.11716737121E+04  0.10100000352E+00 0. -1.
</event>
<event>
 5   0  0.1147755E-03  0.1490690E+04  0.7818609E-02  0.8890668E-01
        2   -1    0    0  501    0  0.00000000000E+00  0.00000000000E+00  0.37130951581E+03  0.37130951582E+03  0.25500000920E-02 0.  1.
       -2   -1    0    0    0  501  0.00000000000E+00  0.00000000000E+00 -0.14961622034E+04  0.14961622034E+04  0.25500000920E-02 0. -1.
    10030    2    1    2    0    0  0.00000000000E+00  0.00000000000E+00 -0.11248526876E+04  0.18674717192E+04  0.14906901265E+04 0.  0.
        4    1    3    3  502    0  0.81054925778E+02  0.50553483573E+03 -0.12410021953E+04  0.13424691552E+04  0.12699999809E+01 0. -1.
       -4    1    3    3    0  502 -0.81054925778E+02 -0.50553483573E+03  0.11614950772E+03  0.52500256397E+03  0.12699999809E+01 0.  1.
</event>
<event>
 5   0  0.4070625E-04  0.1502606E+04  0.7818609E-02  0.8882722E-01
        3   -1    0    0  501    0  0.00000000000E+00  0.00000000000E+00  0.66734675271E+03  0.66734676035E+03  0.10100000352E+00 0. -1.
       -3   -1    0    0    0  501  0.00000000000E+00  0.00000000000E+00 -0.84582089338E+03  0.84582089941E+03  0.10100000352E+00 0.  1.
    10030    2    1    2    0    0  0.00000000000E+00  0.00000000000E+00 -0.17847414067E+03  0.15131676598E+04  0.15026055196E+04 0.  0.
        2    1    3    3  502    0 -0.45424480850E+03  0.31220169973E+03 -0.60336231286E+03  0.81722354833E+03  0.25500000920E-02 0.  1.
       -2    1    3    3    0  502  0.45424480850E+03 -0.31220169973E+03  0.42488817219E+03  0.69594411143E+03  0.25500000920E-02 0. -1.
</event>
<event>
 5   0  0.1149716E-03  0.1520786E+04  0.7818609E-02  0.8870747E-01
        2   -1    0    0  501    0  0.00000000000E+00  0.00000000000E+00  0.17163087330E+04  0.17163087330E+04  0.25500000920E-02 0. -1.
       -2   -1    0    0    0  501  0.00000000000E+00  0.00000000000E+00 -0.33688443085E+03  0.33688443086E+03  0.25500000920E-02 0.  1.
    10030    2    1    2    0    0  0.00000000000E+00  0.00000000000E+00  0.13794243022E+04  0.20531931639E+04  0.15207862318E+04 0.  0.
        1    1    3    3  502    0 -0.30281700005E+03 -0.21690996862E+03  0.15846980330E+04  0.16278869512E+04  0.50400001928E-02 0. -1.
       -1    1    3    3    0  502  0.30281700005E+03  0.21690996862E+03 -0.20527373079E+03  0.42530621273E+03  0.50400001928E-02 0.  1.
</event>
<event>
 5   0  0.1126175E-03  0.1492633E+04  0.7818609E-02  0.8889367E-01
       -2   -1    0    0    0  501  0.00000000000E+00  0.00000000000E+00  0.46886656372E+03  0.46886656372E+03  0.25500000920E-02 0.  1.
        2   -1    0    0  501    0  0.00000000000E+00  0.00000000000E+00 -0.11879467915E+04  0.11879467915E+04  0.25500000920E-02 0. -1.
    10030    2    1    2    0    0  0.00000000000E+00  0.00000000000E+00 -0.71908022778E+03  0.16568133552E+04  0.14926332839E+04 0.  0.
        3    1    3    3  502    0  0.42848672532E+03  0.28206767998E+03  0.24213934454E+03  0.56726935598E+03  0.10100000352E+00 0.  1.
       -3    1    3    3    0  502 -0.42848672532E+03 -0.28206767998E+03 -0.96121957232E+03  0.10895439992E+04  0.10100000352E+00 0. -1.
</event>
<event>
 5   0  0.5924403E-04  0.1515532E+04  0.7818609E-02  0.8874190E-01
       -1   -1    0    0    0  501  0.00000000000E+00  0.00000000000E+00  0.49803635262E+03  0.49803635264E+03  0.50400001928E-02 0.  1.
        1   -1    0    0  501    0  0.00000000000E+00  0.00000000000E+00 -0.11529464913E+04  0.11529464913E+04  0.50400001928E-02 0. -1.
    10030    2    1    2    0    0  0.00000000000E+00  0.00000000000E+00 -0.65491013863E+03  0.16509828439E+04  0.15155319400E+04 0.  0.
        1    1    3    3  502    0  0.17358289611E+03  0.39019321447E+03 -0.10093617146E+04  0.10959894330E+04  0.50400001928E-02 0. -1.
       -1    1    3    3    0  502 -0.17358289611E+03 -0.39019321447E+03  0.35445157592E+03  0.55499341090E+03  0.50400001928E-02 0.  1.
</event>
<event>
 5   0  0.5924403E-04  0.1521806E+04  0.7818609E-02  0.8870080E-01
        1   -1    0    0  501    0  0.00000000000E+00  0.00000000000E+00  0.16113069261E+04  0.16113069261E+04  0.50400001928E-02 0.  1.
       -1   -1    0    0    0  501  0.00000000000E+00  0.00000000000E+00 -0.35931913415E+03  0.35931913418E+03  0.50400001928E-02 0. -1.
    10030    2    1    2    0    0  0.00000000000E+00  0.00000000000E+00  0.12519877919E+04  0.19706260602E+04  0.15218060449E+04 0.  0.
        1    1    3    3  502    0 -0.15726030494E+03  0.40952520209E+03 -0.17908322280E+03  0.47382749537E+03  0.50400001928E-02 0. -1.
       -1    1    3    3    0  502  0.15726030494E+03 -0.40952520209E+03  0.14310710147E+04  0.14967985649E+04  0.50400001928E-02 0.  1.
</event>
<event>
 5   0  0.5840834E-04  0.1497414E+04  0.7818609E-02  0.8886175E-01
       -1   -1    0    0    0  501  0.00000000000E+00  0.00000000000E+00  0.44202121903E+03  0.44202121905E+03  0.50400001928E-02 0.  1.
        1   -1    0    0  501    0  0.00000000000E+00  0.00000000000E+00 -0.12681787954E+04  0.12681787954E+04  0.50400001928E-02 0. -1.
    10030    2    1    2    0    0  0.00000000000E+00  0.00000000000E+00 -0.82615757638E+03  0.17102000145E+04  0.14974136865E+04 0.  0.
        3    1    3    3  502    0 -0.61943069594E+03 -0.41898075798E+03 -0.37154228596E+03  0.83503469574E+03  0.10100000352E+00 0. -1.
       -3    1    3    3    0  502  0.61943069594E+03  0.41898075798E+03 -0.45461529042E+03  0.87516531873E+03  0.10100000352E+00 0.  1.
</event>
<event>
 5   0  0.6146552E-04  0.1232099E+04  0.7818609E-02  0.9085215E-01
       -1   -1    0    0    0  501  0.00000000000E+00  0.00000000000E+00  0.27851010946E+03  0.27851010950E+03  0.50400001928E-02 0.  1.
        1   -1    0    0  501    0  0.00000000000E+00  0.00000000000E+00 -0.13626683838E+04  0.13626683838E+04  0.50400001928E-02 0. -1.
    10030    2    1    2    0    0  0.00000000000E+00  0.00000000000E+00 -0.10841582743E+04  0.16411784933E+04  0.12320988934E+04 0.  0.
        5    1    3    3  502    0 -0.58793538492E+03  0.18195059402E+03 -0.50631759719E+03  0.79696526569E+03  0.46999998093E+01 0.  1.
       -5    1    3    3    0  502  0.58793538492E+03 -0.18195059402E+03 -0.57784067715E+03  0.84421322761E+03  0.46999998093E+01 0. -1.
</event>
<event>
 5   0  0.6146552E-04  0.1549233E+04  0.7818609E-02  0.8852358E-01
       -1   -1    0    0    0  501  0.00000000000E+00  0.00000000000E+00  0.40184083849E+03  0.40184083852E+03  0.50400001928E-02 0.  1.
        1   -1    0    0  501    0  0.00000000000E+00  0.00000000000E+00 -0.14932055488E+04  0.14932055488E+04  0.50400001928E-02 0. -1.
    10030    2    1    2    0    0  0.00000000000E+00  0.00000000000E+00 -0.10913647103E+04  0.18950463873E+04  0.15492333198E+04 0.  0.
        5    1    3    3  502    0  0.47041266115E+03 -0.10940121894E+03  0.19509785047E+03  0.52090494308E+03  0.46999998093E+01 0.  1.
       -5    1    3    3    0  502 -0.47041266115E+03  0.10940121894E+03 -0.12864625607E+04  0.13741414442E+04  0.46999998093E+01 0. -1.
</event>
<event>
 5   0  0.1147755E-03  0.1504569E+04  0.7818609E-02  0.8881420E-01
       -2   -1    0    0    0  501  0.00000000000E+00  0.00000000000E+00  0.29375026789E+03  0.29375026790E+03  0.25500000920E-02 0.  1.
        2   -1    0    0  501    0  0.00000000000E+00  0.00000000000E+00 -0.19265753806E+04  0.19265753806E+04  0.25500000920E-02 0. -1.
    10030    2    1    2    0    0  0.00000000000E+00  0.00000000000E+00 -0.16328251127E+04  0.22203256485E+04  0.15045690867E+04 0.  0.
        4    1    3    3  502    0 -0.41897598500E+03 -0.37577552926E+03 -0.79759264859E+02  0.56842877973E+03  0.12699999809E+01 0.  1.
       -4    1    3    3    0  502  0.41897598500E+03  0.37577552926E+03 -0.15530658479E+04  0.16518968688E+04  0.12699999809E+01 0. -1.
</event>
<event>
 5   0  0.1149716E-03  0.1511638E+04  0.7818609E-02  0.8876750E-01
        2   -1    0    0  501    0  0.00000000000E+00  0.00000000000E+00  0.12383037067E+04  0.12383037067E+04  0.25500000920E-02 0.  1.
       -2   -1    0    0    0  501  0.00000000000E+00  0.00000000000E+00 -0.46132680260E+03  0.46132680260E+03  0.25500000920E-02 0. -1.
    10030    2    1    2    0    0  0.00000000000E+00  0.00000000000E+00  0.77697690409E+03  0.16996305093E+04  0.15116384352E+04 0.  0.
        1    1    3    3  502    0  0.64551502821E+02  0.68931615224E+03  0.47565246004E+02  0.69396405304E+03  0.50400001928E-02 0. -1.
       -1    1    3    3    0  502 -0.64551502821E+02 -0.68931615224E+03  0.72941165809E+03  0.10056664563E+04  0.50400001928E-02 0.  1.
</event>
<event>
 5   0  0.5914645E-04  0.1483256E+04  0.7818609E-02  0.8895664E-01
        1   -1    0    0  501    0  0.00000000000E+00  0.00000000000E+00  0.16246653552E+04  0.16246653552E+04  0.50400001928E-02 0.  1.
       -1   -1    0    0    0  501  0.00000000000E+00  0.00000000000E+00 -0.33853879514E+03  0.33853879518E+03  0.50400001928E-02 0. -1.
    10030    2    1    2    0    0  0.00000000000E+00  0.00000000000E+00  0.12861265601E+04  0.19632041504E+04  0.14832562178E+04 0.  0.
        2    1    3    3  502    0  0.73242103470E+03  0.11517802929E+03  0.61992143436E+03  0.96644148053E+03  0.25500000920E-02 0. -1.
       -2    1    3    3    0  502 -0.73242103470E+03 -0.11517802929E+03  0.66620512571E+03  0.99676266986E+03  0.25500000920E-02 0.  1.
</event>
<event>
 5   0  0.1082667E-03  0.1507549E+04  0.7818609E-02  0.8879448E-01
       -2   -1    0    0    0  501  0.00000000000E+00  0.00000000000E+00  0.58131975012E+03  0.58131975012E+03  0.25500000920E-02 0. -1.
        2   -1    0    0  501    0  0.00000000000E+00  0.00000000000E+00 -0.97738976545E+03  0.97738976545E+03  0.25500000920E-02 0.  1.
    10030    2    1    2    0    0  0.00000000000E+00  0.00000000000E+00 -0.39607001533E+03  0.15587095156E+04  0.15075489700E+04 0.  0.
        5    1    3    3  502    0 -0.66993470668E+03 -0.20859723353E+03 -0.48274989952E+03  0.85170116387E+03  0.46999998093E+01 0. -1.
       -5    1    3    3    0  502  0.66993470668E+03  0.20859723353E+03  0.86679884190E+02  0.70700835170E+03  0.46999998093E+01 0.  1.
</event>
<event>
 5   0  0.5914645E-04  0.1542148E+04  0.7818609E-02  0.8856899E-01
       -1   -1    0    0    0  501  0.00000000000E+00  0.00000000000E+00  0.15292893247E+04  0.15292893247E+04  0.50400001928E-02 0.  1.
        1   -1    0    0  501    0  0.00000000000E+00  0.00000000000E+00 -0.38877850090E+03  0.38877850094E+03  0.50400001928E-02 0. -1.
    10030    2    1    2    0    0  0.00000000000E+00  0.00000000000E+00  0.11405108238E+04  0.19180678257E+04  0.15421476079E+04 0.  0.
        2    1    3    3  502    0  0.10368567217E+03 -0.58114198660E+03 -0.46729415371E+02  0.59216582599E+03  0.25500000920E-02 0. -1.
       -2    1    3    3    0  502 -0.10368567217E+03  0.58114198660E+03  0.11872402392E+04  0.13259019997E+04  0.25500000920E-02 0.  1.
</event>
<event>
 5   0  0.1097156E-03  0.1650710E+04  0.7818609E-02  0.8789987E-01
        2   -1    0    0  501    0  0.00000000000E+00  0.00000000000E+00  0.12841817891E+04  0.12841817891E+04  0.25500000920E-02 0. -1.
       -2   -1    0    0    0  501  0.00000000000E+00  0.00000000000E+00 -0.53046282808E+03  0.53046282809E+03  0.25500000920E-02 0.  1.
    10030    2    1    2    0    0  0.00000000000E+00  0.00000000000E+00  0.75371896099E+03  0.18146446172E+04  0.16507097911E+04 0.  0.
        2    1    3    3  502    0  0.68336675644E+03 -0.80119231901E+02  0.87798345963E+03  0.11154658984E+04  0.25500000920E-02 0. -1.
       -2    1    3    3    0  502 -0.68336675644E+03  0.80119231901E+02 -0.12426449864E+03  0.69917871875E+03  0.25500000920E-02 0.  1.
</event>
<event>
 5   0  0.1126175E-03  0.1501673E+04  0.7818609E-02  0.8883341E-01
       -2   -1    0    0    0  501  0.00000000000E+00  0.00000000000E+00  0.80043887909E+03  0.80043887910E+03  0.25500000920E-02 0. -1.
        2   -1    0    0  501    0  0.00000000000E+00  0.00000000000E+00 -0.70430758895E+03  0.70430758895E+03  0.25500000920E-02 0.  1.
    10030    2    1    2    0    0  0.00000000000E+00  0.00000000000E+00  0.96131290143E+02  0.15047464680E+04  0.15016726368E+04 0.  0.
        3    1    3    3  502    0 -0.80837134474E+02 -0.56556772900E+03 -0.44012116300E+03  0.72118523745E+03  0.10100000352E+00 0.  1.
       -3    1    3    3    0  502  0.80837134474E+02  0.56556772900E+03  0.53625245314E+03  0.78356123060E+03  0.10100000352E+00 0. -1.
</event>
<event>
 5   0  0.1149716E-03  0.1481034E+04  0.7818609E-02  0.8897164E-01
       -2   -1    0    0    0  501  0.00000000000E+00  0.00000000000E+00  0.10137909851E+04  0.10137909851E+04  0.25500000920E-02 0.  1.
        2   -1    0    0  501    0  0.00000000000E+00  0.00000000000E+00 -0.54090602155E+03  0.54090602155E+03  0.25500000920E-02 0. -1.
    10030    2    1    2    0    0  0.00000000000E+00  0.00000000000E+00  0.47288496357E+03  0.15546970067E+04  0.14810342987E+04 0.  0.
        1    1    3    3  502    0  0.16489329590E+03  0.31911272581E+03 -0.44333269638E+03  0.57058444643E+03  0.50400001928E-02 0. -1.
       -1    1    3    3    0  502 -0.16489329590E+03 -0.31911272581E+03  0.91621765995E+03  0.98411256025E+03  0.50400001928E-02 0.  1.
</event>
<event>
 5   0  0.1147755E-03  0.1519305E+04  0.7818609E-02  0.8871716E-01
        2   -1    0    0  501    0  0.00000000000E+00  0.00000000000E+00  0.43463253415E+03  0.43463253415E+03  0.25500000920E-02 0. -1.
       -2   -1    0    0    0  501  0.00000000000E+00  0.00000000000E+00 -0.13277229076E+04  0.13277229076E+04  0.25500000920E-02 0.  1.
    10030    2    1    2    0    0  0.00000000000E+00  0.00000000000E+00 -0.89309037341E+03  0.17623554417E+04  0.15193045409E+04 0.  0.
        4    1    3    3  502    0 -0.66735319853E+01  0.55223115993E+03  0.15849739245E+03  0.57456664221E+03  0.12699999809E+01 0. -1.
       -4    1    3    3    0  502  0.66735319853E+01 -0.55223115993E+03 -0.10515877659E+04  0.11877887995E+04  0.12699999809E+01 0.  1.
</event>
<event>
 5   0  0.6146552E-04  0.1389687E+04  0.7818609E-02  0.8961317E-01
        1   -1    0    0  501    0  0.00000000000E+00  0.00000000000E+00  0.12137821761E+04  0.12137821761E+04  0.50400001928E-02 0.  1.
       -1   -1    0    0    0  501  0.00000000000E+00  0.00000000000E+00 -0.39777123466E+03  0.39777123469E+03  0.50400001928E-02 0. -1.
    10030    2    1    2    0    0  0.00000000000E+00  0.00000000000E+00  0.81601094143E+03  0.16115534108E+04  0.13896872092E+04 0.  0.
        5    1    3    3  502    0 -0.22258784965E+03 -0.55494841713E+03  0.81845090227E+03  0.10136059717E+04  0.46999998093E+01 0.  1.
       -5    1    3    3    0  502  0.22258784965E+03  0.55494841713E+03 -0.24399608360E+01  0.59794743907E+03  0.46999998093E+01 0. -1.
</event>
<event>
 5   0  0.5606965E-04  0.1498439E+04  0.7818609E-02  0.8885491E-01
       -1   -1    0    0    0  501  0.00000000000E+00  0.00000000000E+00  0.66529917312E+03  0.66529917314E+03  0.50400001928E-02 0. -1.
        1   -1    0    0  501    0  0.00000000000E+00  0.00000000000E+00 -0.84372578923E+03  0.84372578925E+03  0.50400001928E-02 0.  1.
    10030    2    1    2    0    0  0.00000000000E+00  0.00000000000E+00 -0.17842661611E+03  0.15090249624E+04  0.14984392813E+04 0.  0.
        4    1    3    3  502    0 -0.72162503353E+03 -0.18587323326E+03 -0.16745974953E+03  0.76376431474E+03  0.12699999809E+01 0. -1.
       -4    1    3    3    0  502  0.72162503353E+03  0.18587323326E+03 -0.10966866584E+02  0.74526064764E+03  0.12699999809E+01 0.  1.
</event>
<event>
 5   0  0.4070625E-04  0.1504261E+04  0.7818609E-02  0.8881624E-01
        3   -1    0    0  501    0  0.00000000000E+00  0.00000000000E+00  0.11482742766E+04  0.11482742810E+04  0.10100000352E+00 0.  1.
       -3   -1    0    0    0  501  0.00000000000E+00  0.00000000000E+00 -0.49265257783E+03  0.49265258819E+03  0.10100000352E+00 0. -1.
    10030    2    1    2    0    0  0.00000000000E+00  0.00000000000E+00  0.65562169872E+03  0.16409268692E+04  0.15042610073E+04 0.  0.
        2    1    3    3  502    0 -0.36219227113E+03 -0.57090126215E+03  0.68727745396E+03  0.96408598741E+03  0.25500000920E-02 0.  1.
       -2    1    3    3    0  502  0.36219227113E+03  0.57090126215E+03 -0.31655755245E+02  0.67684088177E+03  0.25500000920E-02 0. -1.
</event>
<event>
 5   0  0.1126175E-03  0.1501832E+04  0.7818609E-02  0.8883236E-01
       -2   -1    0    0    0  501  0.00000000000E+00  0.00000000000E+00  0.20898473693E+03  0.20898473695E+03  0.25500000920E-02 0. -1.
        2   -1    0    0  501    0  0.00000000000E+00  0.00000000000E+00 -0.26981612537E+04  0.26981612537E+04  0.25500000920E-02 0.  1.
    10030    2    1    2    0    0  0.00000000000E+00  0.00000000000E+00 -0.24891765167E+04  0.29071459906E+04  0.15018315749E+04 0.  0.
        3    1    3    3  502    0  0.16598556318E+03  0.56016920257E+03 -0.21577413012E+04  0.22354391684E+04  0.10100000352E+00 0.  1.
       -3    1    3    3    0  502 -0.16598556318E+03 -0.56016920257E+03 -0.33143521558E+03  0.67170682222E+03  0.10100000352E+00 0. -1.
</event>
<event>
 5   0  0.1097156E-03  0.1483516E+04  0.7818609E-02  0.8895489E-01
        2   -1    0    0  501    0  0.00000000000E+00  0.00000000000E+00  0.75168857841E+03  0.75168857841E+03  0.25500000920E-02 0.  1.
       -2   -1    0    0    0  501  0.00000000000E+00  0.00000000000E+00 -0.73195898784E+03  0.73195898785E+03  0.25500000920E-02 0. -1.
    10030    2    1    2    0    0  0.00000000000E+00  0.00000000000E+00  0.19729590565E+02  0.14836475663E+04  0.14835163781E+04 0.  0.
        2    1    3    3  502    0 -0.15555750659E+03  0.13898149341E+03 -0.70202061374E+03  0.73235710926E+03  0.25500000920E-02 0. -1.
       -2    1    3    3    0  502  0.15555750659E+03 -0.13898149341E+03  0.72175020430E+03  0.75129045700E+03  0.25500000920E-02 0.  1.
</event>
<event>
 5   0  0.1082667E-03  0.1533903E+04  0.7818609E-02  0.8862216E-01
       -2   -1    0    0    0  501  0.00000000000E+00  0.00000000000E+00  0.35777803454E+03  0.35777803455E+03  0.25500000920E-02 0.  1.
        2   -1    0    0  501    0  0.00000000000E+00  0.00000000000E+00 -0.16440772375E+04  0.16440772375E+04  0.25500000920E-02 0. -1.
    10030    2    1    2    0    0  0.00000000000E+00  0.00000000000E+00 -0.12862992030E+04  0.20018552721E+04  0.15339031556E+04 0.  0.
        5    1    3    3  502    0 -0.48433439068E+03 -0.52343946927E+03 -0.27488786068E+03  0.76429974874E+03  0.46999998093E+01 0. -1.
       -5    1    3    3    0  502  0.48433439068E+03  0.52343946927E+03 -0.10114113423E+04  0.12375555233E+04  0.46999998093E+01 0.  1.
</event>
<event>
 5   0  0.5606965E-04  0.1518149E+04  0.7818609E-02  0.8872473E-01
       -1   -1    0    0    0  501  0.00000000000E+00  0.00000000000E+00  0.54471824592E+03  0.54471824594E+03  0.50400001928E-02 0.  1.
        1   -1    0    0  501    0  0.00000000000E+00  0.00000000000E+00 -0.10577840465E+04  0.10577840465E+04  0.50400001928E-02 0. -1.
    10030    2    1    2    0    0  0.00000000000E+00  0.00000000000E+00 -0.51306580057E+03  0.16025022924E+04  0.15181492290E+04 0.  0.
        4    1    3    3  502    0  0.14999266741E+03 -0.64279015539E+03 -0.65221516117E+03  0.92793491879E+03  0.12699999809E+01 0. -1.
       -4    1    3    3    0  502 -0.14999266741E+03  0.64279015539E+03  0.13914936059E+03  0.67456737366E+03  0.12699999809E+01 0.  1.
</event>
<event>
 5   0  0.5924403E-04  0.1479447E+04  0.7818609E-02  0.8898236E-01
        1   -1    0    0  501    0  0.00000000000E+00  0.00000000000E+00  0.41680818281E+03  0.41680818284E+03  0.50400001928E-02 0. -1.
       -1   -1    0    0    0  501  0.00000000000E+00  0.00000000000E+00 -0.13128128360E+04  0.13128128360E+04  0.50400001928E-02 0.  1.
    10030    2    1    2    0    0  0.00000000000E+00  0.00000000000E+00 -0.89600465316E+03  0.17296210188E+04  0.14794473733E+04 0.  0.
        1    1    3    3  502    0 -0.47326577409E+03  0.77588218765E+02  0.21043078282E+03  0.52371895040E+03  0.50400001928E-02 0. -1.
       -1    1    3    3    0  502  0.47326577409E+03 -0.77588218765E+02 -0.11064354360E+04  0.12059020684E+04  0.50400001928E-02 0.  1.
</event>
<event>
 5   0  0.1097156E-03  0.1561418E+04  0.7818609E-02  0.8844607E-01
        2   -1    0    0  501    0  0.00000000000E+00  0.00000000000E+00  0.51467256332E+03  0.51467256332E+03  0.25500000920E-02 0.  1.
       -2   -1    0    0    0  501  0.00000000000E+00  0.00000000000E+00 -0.11842614824E+04  0.11842614824E+04  0.25500000920E-02 0. -1.
    10030    2    1    2    0    0  0.00000000000E+00  0.00000000000E+00 -0.66958891908E+03  0.16989340457E+04  0.15614184484E+04 0.  0.
        2    1    3    3  502    0  0.18025856878E+02  0.69889358110E+03 -0.71285758144E+03  0.99847038045E+03  0.25500000920E-02 0.  1.
       -2    1    3    3    0  502 -0.18025856878E+02 -0.69889358110E+03  0.43268662362E+02  0.70046366527E+03  0.25500000920E-02 0. -1.
</event>
<event>
 5   0  0.4070625E-04  0.1090050E+04  0.7818609E-02  0.9214945E-01
        3   -1    0    0  501    0  0.00000000000E+00  0.00000000000E+00  0.35983203866E+03  0.35983205284E+03  0.10100000352E+00 0. -1.
       -3   -1    0    0    0  501  0.00000000000E+00  0.00000000000E+00 -0.82552963127E+03  0.82552963744E+03  0.10100000352E+00 0.  1.
    10030    2    1    2    0    0  0.00000000000E+00  0.00000000000E+00 -0.46569759260E+03  0.11853616903E+04  0.10900495810E+04 0.  0.
        5    1    3    3  502    0  0.28160460605E+03 -0.23724453150E+03  0.20408469444E+03  0.42102110918E+03  0.46999998093E+01 0. -1.
       -5    1    3    3    0  502 -0.28160460605E+03  0.23724453150E+03 -0.66978228704E+03  0.76434058110E+03  0.46999998093E+01 0.  1.
</event>
<event>
 5   0  0.5606965E-04  0.1473577E+04  0.7818609E-02  0.8902217E-01
       -1   -1    0    0    0  501  0.00000000000E+00  0.00000000000E+00  0.40798469108E+03  0.40798469111E+03  0.50400001928E-02 0.  1.
        1   -1    0    0  501    0  0.00000000000E+00  0.00000000000E+00 -0.13305820458E+04  0.13305820458E+04  0.50400001928E-02 0. -1.
    10030    2    1    2    0    0  0.00000000000E+00  0.00000000000E+00 -0.92259735474E+03  0.17385667369E+04  0.14735767438E+04 0.  0.
        4    1    3    3  502    0 -0.64546727701E+03 -0.11881367699E+03 -0.66257536767E+02  0.65964867134E+03  0.12699999809E+01 0.  1.
       -4    1    3    3    0  502  0.64546727701E+03  0.11881367699E+03 -0.85633981798E+03  0.10789180656E+04  0.12699999809E+01 0. -1.
</event>
<event>
 5   0  0.1147755E-03  0.1504263E+04  0.7818609E-02  0.8881623E-01
       -2   -1    0    0    0  501  0.00000000000E+00  0.00000000000E+00  0.38446521518E+03  0.38446521519E+03  0.25500000920E-02 0. -1.
        2   -1    0    0  501    0  0.00000000000E+00  0.00000000000E+00 -0.14713993594E+04  0.14713993594E+04  0.25500000920E-02 0.  1.
    10030    2    1    2    0    0  0.00000000000E+00  0.00000000000E+00 -0.10869341442E+04  0.18558645746E+04  0.15042631038E+04 0.  0.
        4    1    3    3  502    0  0.28113476125E+03  0.17061505128E+03 -0.13780003529E+04  0.14166978631E+04  0.12699999809E+01 0.  1.
       -4    1    3    3    0  502 -0.28113476125E+03 -0.17061505128E+03  0.29106620873E+03  0.43916671148E+03  0.12699999809E+01 0. -1.
</event>
<event>
 5   0  0.6146552E-04  0.1515381E+04  0.7818609E-02  0.8874288E-01
        1   -1    0    0  501    0  0.00000000000E+00  0.00000000000E+00  0.10002900618E+04  0.10002900619E+04  0.50400001928E-02 0.  1.
       -1   -1    0    0    0  501  0.00000000000E+00  0.00000000000E+00 -0.57392865247E+03  0.57392865249E+03  0.50400001928E-02 0. -1.
    10030    2    1    2    0    0  0.00000000000E+00  0.00000000000E+00  0.42636140938E+03  0.15742187144E+04  0.15153813082E+04 0.  0.
        5    1    3    3  502    0  0.78255976157E+02 -0.75237121874E+03  0.16805938844E+03  0.77488869952E+03  0.46999998093E+01 0. -1.
       -5    1    3    3    0  502 -0.78255976157E+02  0.75237121874E+03  0.25830202094E+03  0.79933001484E+03  0.46999998093E+01 0.  1.
</event>
<event>
 5   0  0.1082667E-03  0.1528003E+04  0.7818609E-02  0.8866042E-01
       -2   -1    0    0    0  501  0.00000000000E+00  0.00000000000E+00  0.28994872652E+03  0.28994872653E+03  0.25500000920E-02 0. -1.
        2   -1    0    0  501    0  0.00000000000E+00  0.00000000000E+00 -0.20131097048E+04  0.20131097048E+04  0.25500000920E-02 0.  1.
    10030    2    1    2    0    0  0.00000000000E+00  0.00000000000E+00 -0.17231609782E+04  0.23030584313E+04  0.15280033969E+04 0.  0.
        5    1    3    3  502    0  0.32175784101E+03 -0.37412677360E+03 -0.17406707408E+04  0.18092693743E+04  0.46999998093E+01 0.  1.
       -5    1    3    3    0  502 -0.32175784101E+03  0.37412677360E+03  0.17509762588E+02  0.49378905695E+03  0.46999998093E+01 0. -1.
</event>
<event>
 5   0  0.1149716E-03  0.1299002E+04  0.7818609E-02  0.9030357E-01
       -2   -1    0    0    0  501  0.00000000000E+00  0.00000000000E+00  0.77698509236E+03  0.77698509236E+03  0.25500000920E-02 0. -1.
        2   -1    0    0  501    0  0.00000000000E+00  0.00000000000E+00 -0.54293354996E+03  0.54293354996E+03  0.25500000920E-02 0.  1.
    10030    2    1    2    0    0  0.00000000000E+00  0.00000000000E+00  0.23405154240E+03  0.13199186423E+04  0.12990015773E+04 0.  0.
        1    1    3    3  502    0  0.11482893985E+03 -0.63773651046E+03  0.72067031225E+02  0.65198711583E+03  0.50400001928E-02 0.  1.
       -1    1    3    3    0  502 -0.11482893985E+03  0.63773651046E+03  0.16198451117E+03  0.66793152649E+03  0.50400001928E-02 0. -1.
</event>
<event>
 5   0  0.5840834E-04  0.1498779E+04  0.7818609E-02  0.8885265E-01
       -1   -1    0    0    0  501  0.00000000000E+00  0.00000000000E+00  0.33672374392E+03  0.33672374396E+03  0.50400001928E-02 0. -1.
        1   -1    0    0  501    0  0.00000000000E+00  0.00000000000E+00 -0.16677901360E+04  0.16677901360E+04  0.50400001928E-02 0.  1.
    10030    2    1    2    0    0  0.00000000000E+00  0.00000000000E+00 -0.13310663921E+04  0.20045138799E+04  0.14987788879E+04 0.  0.
        3    1    3    3  502    0  0.17273448602E+03 -0.54484320115E+03 -0.13137297744E+04  0.14326818373E+04  0.10100000352E+00 0.  1.
       -3    1    3    3    0  502 -0.17273448602E+03  0.54484320115E+03 -0.17336617639E+02  0.57183204266E+03  0.10100000352E+00 0. -1.
</event>
<event>
 5   0  0.5606965E-04  0.1506526E+04  0.7818609E-02  0.8880125E-01
        1   -1    0    0  501    0  0.00000000000E+00  0.00000000000E+00  0.72831921696E+03  0.72831921698E+03  0.50400001928E-02 0.  1.
       -1   -1    0    0    0  501  0.00000000000E+00  0.00000000000E+00 -0.77906073420E+03  0.77906073421E+03  0.50400001928E-02 0. -1.
    10030    2    1    2    0    0  0.00000000000E+00  0.00000000000E+00 -0.50741517236E+02  0.15073799512E+04  0.15065256771E+04 0.  0.
        4    1    3    3  502    0 -0.23419829557E+03  0.17444045421E+03  0.66937517297E+03  0.73030339503E+03  0.12699999809E+01 0.  1.
       -4    1    3    3    0  502  0.23419829557E+03 -0.17444045421E+03 -0.72011669020E+03  0.77707655615E+03  0.12699999809E+01 0. -1.
</event>
<event>
 5   0  0.5606965E-04  0.1497221E+04  0.7818609E-02  0.8886303E-01
        1   -1    0    0  501    0  0.00000000000E+00  0.00000000000E+00  0.12789395483E+04  0.12789395484E+04  0.50400001928E-02 0. -1.
       -1   -1    0    0    0  501  0.00000000000E+00  0.00000000000E+00 -0.43818918698E+03  0.43818918701E+03  0.50400001928E-02 0.  1.
    10030    2    1    2    0    0  0.00000000000E+00  0.00000000000E+00  0.84075036136E+03  0.17171287354E+04  0.14972207331E+04 0.  0.
        4    1    3    3  502    0  0.13927754041E+03  0.64309190498E+03  0.82981274700E+03  0.10590355233E+04  0.12699999809E+01 0. -1.
       -4    1    3    3    0  502 -0.13927754041E+03 -0.64309190498E+03  0.10937614359E+02  0.65809321211E+03  0.12699999809E+01 0.  1.
</event>
<event>
 5   0  0.5606965E-04  0.1373521E+04  0.7818609E-02  0.8973212E-01
       -1   -1    0    0    0  501  0.00000000000E+00  0.00000000000E+00  0.37945923395E+03  0.37945923399E+03  0.50400001928E-02 0. -1.
        1   -1    0    0  501    0  0.00000000000E+00  0.00000000000E+00 -0.12429258396E+04  0.12429258396E+04  0.50400001928E-02 0.  1.
    10030    2    1    2    0    0  0.00000000000E+00  0.00000000000E+00 -0.86346660561E+03  0.16223850736E+04  0.13735205670E+04 0.  0.
        4    1    3    3  502    0 -0.43503406486E+03 -0.47682255278E+03 -0.15466067121E+03  0.66372880045E+03  0.12699999809E+01 0.  1.
       -4    1    3    3    0  502  0.43503406486E+03  0.47682255278E+03 -0.70880593439E+03  0.95865627310E+03  0.12699999809E+01 0. -1.
</event>
<event>
 5   0  0.5840834E-04  0.1485337E+04  0.7818609E-02  0.8894262E-01
       -1   -1    0    0    0  501  0.00000000000E+00  0.00000000000E+00  0.60646257185E+03  0.60646257187E+03  0.50400001928E-02 0. -1.
        1   -1    0    0  501    0  0.00000000000E+00  0.00000000000E+00 -0.90946523386E+03  0.90946523387E+03  0.50400001928E-02 0.  1.
    10030    2    1    2    0    0  0.00000000000E+00  0.00000000000E+00 -0.30300266201E+03  0.15159278057E+04  0.14853371668E+04 0.  0.
        3    1    3    3  502    0  0.23809676518E+03  0.48420079778E+03  0.36931838097E+03  0.65386279821E+03  0.10100000352E+00 0. -1.
       -3    1    3    3    0  502 -0.23809676518E+03 -0.48420079778E+03 -0.67232104299E+03  0.86206500753E+03  0.10100000352E+00 0.  1.
</event>
<event>
 5   0  0.1082667E-03  0.1524333E+04  0.7818609E-02  0.8868431E-01
       -2   -1    0    0    0  501  0.00000000000E+00  0.00000000000E+00  0.35922176518E+03  0.35922176519E+03  0.25500000920E-02 0.  1.
        2   -1    0    0  501    0  0.00000000000E+00  0.00000000000E+00 -0.16171014564E+04  0.16171014564E+04  0.25500000920E-02 0. -1.
    10030    2    1    2    0    0  0.00000000000E+00  0.00000000000E+00 -0.12578796912E+04  0.19763232216E+04  0.15243333489E+04 0.  0.
        5    1    3    3  502    0 -0.69845249386E+02 -0.48007830198E+02  0.35307428475E+03  0.36313448084E+03  0.46999998093E+01 0.  1.
       -5    1    3    3    0  502  0.69845249386E+02  0.48007830198E+02 -0.16109539760E+04  0.16131887407E+04  0.46999998093E+01 0. -1.
</event>
<event>
 5   0  0.1097156E-03  0.1407628E+04  0.7818609E-02  0.8948316E-01
        2   -1    0    0  501    0  0.00000000000E+00  0.00000000000E+00  0.75556633238E+03  0.75556633238E+03  0.25500000920E-02 0. -1.
       -2   -1    0    0    0  501  0.00000000000E+00  0.00000000000E+00 -0.65560601709E+03  0.65560601709E+03  0.25500000920E-02 0.  1.
    10030    2    1    2    0    0  0.00000000000E+00  0.00000000000E+00  0.99960315293E+02  0.14111723495E+04  0.14076275556E+04 0.  0.
        2    1    3    3  502    0 -0.41917832427E+03  0.56438163683E+03  0.83481886858E+02  0.70795926787E+03  0.25500000920E-02 0. -1.
       -2    1    3    3    0  502  0.41917832427E+03 -0.56438163683E+03  0.16478428435E+02  0.70321308160E+03  0.25500000920E-02 0.  1.
</event>
<event>
 5   0  0.5914645E-04  0.1500116E+04  0.7818609E-02  0.8884376E-01
       -1   -1    0    0    0  501  0.00000000000E+00  0.00000000000E+00  0.44847397924E+03  0.44847397927E+03  0.50400001928E-02 0. -1.
        1   -1    0    0  501    0  0.00000000000E+00  0.00000000000E+00 -0.12544473580E+04  0.12544473580E+04  0.50400001928E-02 0.  1.
    10030    2    1    2    0    0  0.00000000000E+00  0.00000000000E+00 -0.80597337876E+03  0.17029213373E+04  0.15001159934E+04 0.  0.
        2    1    3    3  502    0 -0.53487488849E+03 -0.19463653679E+03 -0.95750554028E+03  0.11139081594E+04  0.25500000920E-02 0.  1.
       -2    1    3    3    0  502  0.53487488849E+03  0.19463653679E+03  0.15153216152E+03  0.58901317793E+03  0.25500000920E-02 0. -1.
</event>
<event>
 5   0  0.5924403E-04  0.1499976E+04  0.7818609E-02  0.8884469E-01
        1   -1    0    0  501    0  0.00000000000E+00  0.00000000000E+00  0.14184349412E+04  0.14184349412E+04  0.50400001928E-02 0. -1.
       -1   -1    0    0    0  501  0.00000000000E+00  0.00000000000E+00 -0.39655131874E+03  0.39655131877E+03  0.50400001928E-02 0.  1.
    10030    2    1    2    0    0  0.00000000000E+00  0.00000000000E+00  0.10218836225E+04  0.18149862600E+04  0.14999763285E+04 0.  0.
        1    1    3    3  502    0 -0.43067290408E+03  0.51538500354E+03  0.91476872633E+03  0.11348579977E+04  0.50400001928E-02 0. -1.
       -1    1    3    3    0  502  0.43067290408E+03 -0.51538500354E+03  0.10711489612E+03  0.68012826230E+03  0.50400001928E-02 0.  1.
</event>
<event>
 5   0  0.5840834E-04  0.1519416E+04  0.7818609E-02  0.8871643E-01
        1   -1    0    0  501    0  0.00000000000E+00  0.00000000000E+00  0.78675905015E+03  0.78675905016E+03  0.50400001928E-02 0.  1.
       -1   -1    0    0    0  501  0.00000000000E+00  0.00000000000E+00 -0.73358662928E+03  0.73358662930E+03  0.50400001928E-02 0. -1.
    10030    2    1    2    0    0  0.00000000000E+00  0.00000000000E+00  0.53172420864E+02  0.15203456795E+04  0.15194155714E+04 0.  0.
        3    1    3    3  502    0 -0.14007238912E+03  0.10296493414E+03 -0.71341627071E+03  0.73429206544E+03  0.10100000352E+00 0. -1.
       -3    1    3    3    0  502  0.14007238912E+03 -0.10296493414E+03  0.76658869158E+03  0.78605361402E+03  0.10100000352E+00 0.  1.
</event>
<event>
 5   0  0.5924403E-04  0.1490735E+04  0.7818609E-02  0.8890638E-01
        1   -1    0    0  501    0  0.00000000000E+00  0.00000000000E+00  0.73774890706E+03  0.73774890708E+03  0.50400001928E-02 0. -1.
       -1   -1    0    0    0  501  0.00000000000E+00  0.00000000000E+00 -0.75306428736E+03  0.75306428738E+03  0.50400001928E-02 0.  1.
    10030    2    1    2    0    0  0.00000000000E+00  0.00000000000E+00 -0.15315380300E+02  0.14908131945E+04  0.14907345236E+04 0.  0.
        1    1    3    3  502    0 -0.24232698186E+03  0.37254175129E+03  0.59075723746E+03  0.73925897778E+03  0.50400001928E-02 0. -1.
       -1    1    3    3    0  502  0.24232698186E+03 -0.37254175129E+03 -0.60607261776E+03  0.75155421668E+03  0.50400001928E-02 0.  1.
</event>
<event>
 5   0  0.5606965E-04  0.1487973E+04  0.7818609E-02  0.8892491E-01
        1   -1    0    0  501    0  0.00000000000E+00  0.00000000000E+00  0.54725324642E+03  0.54725324644E+03  0.50400001928E-02 0.  1.
       -1   -1    0    0    0  501  0.00000000000E+00  0.00000000000E+00 -0.10114433151E+04  0.10114433151E+04  0.50400001928E-02 0. -1.
    10030    2    1    2    0    0  0.00000000000E+00  0.00000000000E+00 -0.46419006867E+03  0.15586965615E+04  0.14879726312E+04 0.  0.
        4    1    3    3  502    0  0.45869407968E+03 -0.36395709488E+03  0.24868490056E+03  0.63616885990E+03  0.12699999809E+01 0.  1.
       -4    1    3    3    0  502 -0.45869407968E+03  0.36395709488E+03 -0.71287496923E+03  0.92252770165E+03  0.12699999809E+01 0. -1.
</event>
<event>
 5   0  0.5606965E-04  0.1378783E+04  0.7818609E-02  0.8969322E-01
       -1   -1    0    0    0  501  0.00000000000E+00  0.00000000000E+00  0.96321539027E+03  0.96321539028E+03  0.50400001928E-02 0.  1.
        1   -1    0    0  501    0  0.00000000000E+00  0.00000000000E+00 -0.49341028478E+03  0.49341028481E+03  0.50400001928E-02 0. -1.
    10030    2    1    2    0    0  0.00000000000E+00  0.00000000000E+00  0.46980510548E+03  0.14566256751E+04  0.13787826225E+04 0.  0.
        4    1    3    3  502    0  0.67908078558E+03 -0.10920836782E+03  0.28424700685E+03  0.74422789167E+03  0.12699999809E+01 0. -1.
       -4    1    3    3    0  502 -0.67908078558E+03  0.10920836782E+03  0.18555809863E+03  0.71239778341E+03  0.12699999809E+01 0.  1.
</event>
<event>
 5   0  0.5840834E-04  0.1502138E+04  0.7818609E-02  0.8883033E-01
       -1   -1    0    0    0  501  0.00000000000E+00  0.00000000000E+00  0.38245587042E+03  0.38245587045E+03  0.50400001928E-02 0. -1.
        1   -1    0    0  501    0  0.00000000000E+00  0.00000000000E+00 -0.14749527472E+04  0.14749527472E+04  0.50400001928E-02 0.  1.
    10030    2    1    2    0    0  0.00000000000E+00  0.00000000000E+00 -0.10924968768E+04  0.18574086177E+04  0.15021375926E+04 0.  0.
        3    1    3    3  502    0  0.49366612709E+03  0.12850887491E+02  0.15348195772E+03  0.51713452011E+03  0.10100000352E+00 0. -1.
       -3    1    3    3    0  502 -0.49366612709E+03 -0.12850887491E+02 -0.12459788345E+04  0.13402740975E+04  0.10100000352E+00 0.  1.
</event>
<event>
 5   0  0.1097156E-03  0.1489852E+04  0.7818609E-02  0.8891229E-01
       -2   -1    0    0    0  501  0.00000000000E+00  0.00000000000E+00  0.18413536556E+03  0.18413536558E+03  0.25500000920E-02 0. -1.
        2   -1    0    0  501    0  0.00000000000E+00  0.00000000000E+00 -0.30136245381E+04  0.30136245381E+04  0.25500000920E-02 0.  1.
    10030    2    1    2    0    0  0.00000000000E+00  0.00000000000E+00 -0.28294891726E+04  0.31977599037E+04  0.14898521484E+04 0.  0.
        2    1    3    3  502    0  0.18357735706E+03 -0.47101322346E+03 -0.24038766258E+03  0.55976810469E+03  0.25500000920E-02 0. -1.
       -2    1    3    3    0  502 -0.18357735706E+03  0.47101322346E+03 -0.25891015100E+04  0.26379917990E+04  0.25500000920E-02 0.  1.
</event>
<event>
 5   0  0.4070625E-04  0.1553225E+04  0.7818609E-02  0.8849810E-01
        3   -1    0    0  501    0  0.00000000000E+00  0.00000000000E+00  0.14538518097E+04  0.14538518132E+04  0.10100000352E+00 0.  1.
       -3   -1    0    0    0  501  0.00000000000E+00  0.00000000000E+00 -0.41484779885E+03  0.41484781115E+03  0.10100000352E+00 0. -1.
    10030    2    1    2    0    0  0.00000000000E+00  0.00000000000E+00  0.10390040108E+04  0.18686996244E+04  0.15532253383E+04 0.  0.
        2    1    3    3  502    0  0.31074161543E+03  0.70248991510E+03  0.65707166100E+03  0.10108390575E+04  0.25500000920E-02 0.  1.
       -2    1    3    3    0  502 -0.31074161543E+03 -0.70248991510E+03  0.38193234984E+03  0.85786056690E+03  0.25500000920E-02 0. -1.
</event>
<event>
 5   0  0.1149716E-03  0.1448232E+04  0.7818609E-02  0.8919627E-01
        2   -1    0    0  501    0  0.00000000000E+00  0.00000000000E+00  0.25057780495E+04  0.25057780495E+04  0.25500000920E-02 0.  1.
       -2   -1    0    0    0  501  0.00000000000E+00  0.00000000000E+00 -0.20925404415E+03  0.20925404416E+03  0.25500000920E-02 0. -1.
    10030    2    1    2    0    0  0.00000000000E+00  0.00000000000E+00  0.22965240053E+04  0.27150320936E+04  0.14482322888E+04 0.  0.
        1    1    3    3  502    0 -0.34457141051E+03  0.63107600520E+03  0.98745276040E+03  0.12214947136E+04  0.50400001928E-02 0. -1.
       -1    1    3    3    0  502  0.34457141051E+03 -0.63107600520E+03  0.13090712449E+04  0.14935373800E+04  0.50400001928E-02 0.  1.
</event>
<event>
 5   0  0.5840834E-04  0.1477940E+04  0.7818609E-02  0.8899257E-01
       -1   -1    0    0    0  501  0.00000000000E+00  0.00000000000E+00  0.66169694684E+03  0.66169694686E+03  0.50400001928E-02 0.  1.
        1   -1    0    0  501    0  0.00000000000E+00  0.00000000000E+00 -0.82526647860E+03  0.82526647862E+03  0.50400001928E-02 0. -1.
    10030    2    1    2    0    0  0.00000000000E+00  0.00000000000E+00 -0.16356953176E+03  0.14869634255E+04  0.14779395241E+04 0.  0.
        3    1    3    3  502    0  0.65461916721E+03  0.16025544669E+03  0.22316360206E+03  0.70993666321E+03  0.10100000352E+00 0.  1.
       -3    1    3    3    0  502 -0.65461916721E+03 -0.16025544669E+03 -0.38673313383E+03  0.77702676227E+03  0.10100000352E+00 0. -1.
</event>
<event>
 5   0  0.1149716E-03  0.1488282E+04  0.7818609E-02  0.8892283E-01
        2   -1    0    0  501    0  0.00000000000E+00  0.00000000000E+00  0.16189800222E+04  0.16189800222E+04  0.25500000920E-02 0. -1.
       -2   -1    0    0    0  501  0.00000000000E+00  0.00000000000E+00 -0.34203385602E+03  0.34203385603E+03  0.25500000920E-02 0.  1.
    10030    2    1    2    0    0  0.00000000000E+00  0.00000000000E+00  0.12769461662E+04  0.19610138782E+04  0.14882822042E+04 0.  0.
        1    1    3    3  502    0 -0.50063395903E+03 -0.31439411700E+02 -0.85775082100E+02  0.50890093563E+03  0.50400001928E-02 0.  1.
       -1    1    3    3    0  502  0.50063395903E+03  0.31439411700E+02  0.13627212483E+04  0.14521129426E+04  0.50400001928E-02 0. -1.
</event>
<event>
 5   0  0.5924403E-04  0.1525437E+04  0.7818609E-02  0.8867711E-01
       -1   -1    0    0    0  501  0.00000000000E+00  0.00000000000E+00  0.67011570104E+03  0.67011570106E+03  0.50400001928E-02 0.  1.
        1   -1    0    0  501    0  0.00000000000E+00  0.00000000000E+00 -0.86811833766E+03  0.86811833768E+03  0.50400001928E-02 0. -1.
    10030    2    1    2    0    0  0.00000000000E+00  0.00000000000E+00 -0.19800263662E+03  0.15382340387E+04  0.15254372861E+04 0.  0.
        1    1    3    3  502    0  0.39205421889E+03  0.48314655275E+03 -0.54383986017E+03  0.82637696938E+03  0.50400001928E-02 0. -1.
       -1    1    3    3    0  502 -0.39205421889E+03 -0.48314655275E+03  0.34583722355E+03  0.71185706936E+03  0.50400001928E-02 0.  1.
</event>
<event>
 5   0  0.1082667E-03  0.1478664E+04  0.7818609E-02  0.8898766E-01
        2   -1    0    0  501    0  0.00000000000E+00  0.00000000000E+00  0.90248486224E+03  0.90248486224E+03  0.25500000920E-02 0.  1.
       -2   -1    0    0    0  501  0.00000000000E+00  0.00000000000E+00 -0.60567427570E+03  0.60567427570E+03  0.25500000920E-02 0. -1.
    10030    2    1    2    0    0  0.00000000000E+00  0.00000000000E+00  0.29681058654E+03  0.15081591379E+04  0.14786640799E+04 0.  0.
        5    1    3    3  502    0 -0.45647666444E+03  0.19190140244E+03 -0.41153793691E+03  0.64388093383E+03  0.46999998093E+01 0. -1.
       -5    1    3    3    0  502  0.45647666444E+03 -0.19190140244E+03  0.70834852345E+03  0.86427820412E+03  0.46999998093E+01 0.  1.
</event>
<event>
 5   0  0.5914645E-04  0.1502098E+04  0.7818609E-02  0.8883059E-01
       -1   -1    0    0    0  501  0.00000000000E+00  0.00000000000E+00  0.67299222319E+03  0.67299222321E+03  0.50400001928E-02 0. -1.
        1   -1    0    0  501    0  0.00000000000E+00  0.00000000000E+00 -0.83815883515E+03  0.83815883517E+03  0.50400001928E-02 0.  1.
    10030    2    1    2    0    0  0.00000000000E+00  0.00000000000E+00 -0.16516661196E+03  0.15111510584E+04  0.15020977037E+04 0.  0.
        2    1    3    3  502    0  0.74490534420E+03  0.50385998220E+02 -0.16463255839E+03  0.76454339310E+03  0.25500000920E-02 0. -1.
       -2    1    3    3    0  502 -0.74490534420E+03 -0.50385998220E+02 -0.53405356469E+00  0.74660766528E+03  0.25500000920E-02 0.  1.
</event>
<event>
 5   0  0.1126175E-03  0.1482782E+04  0.7818609E-02  0.8895984E-01
       -2   -1    0    0    0  501  0.00000000000E+00  0.00000000000E+00  0.53723346401E+03  0.53723346402E+03  0.25500000920E-02 0. -1.
        2   -1    0    0  501    0  0.00000000000E+00  0.00000000000E+00 -0.10231323117E+04  0.10231323117E+04  0.25500000920E-02 0.  1.
    10030    2    1    2    0    0  0.00000000000E+00  0.00000000000E+00 -0.48589884766E+03  0.15603657757E+04  0.14827824061E+04 0.  0.
        3    1    3    3  502    0 -0.60916241677E+03 -0.25773566166E+03  0.10946779531E+03  0.67043995235E+03  0.10100000352E+00 0. -1.
       -3    1    3    3    0  502  0.60916241677E+03  0.25773566166E+03 -0.59536664297E+03  0.88992582334E+03  0.10100000352E+00 0.  1.
</event>
<event>
 5   0  0.1097156E-03  0.1465245E+04  0.7818609E-02  0.8907899E-01
       -2   -1    0    0    0  501  0.00000000000E+00  0.00000000000E+00  0.50251705929E+03  0.50251705930E+03  0.25500000920E-02 0. -1.
        2   -1    0    0  501    0  0.00000000000E+00  0.00000000000E+00 -0.10680950421E+04  0.10680950421E+04  0.25500000920E-02 0.  1.
    10030    2    1    2    0    0  0.00000000000E+00  0.00000000000E+00 -0.56557798284E+03  0.15706121014E+04  0.14652453441E+04 0.  0.
        2    1    3    3  502    0  0.30944557877E+03 -0.45249590031E+03  0.23819363448E+03  0.59770001968E+03  0.25500000920E-02 0. -1.
       -2    1    3    3    0  502 -0.30944557877E+03  0.45249590031E+03 -0.80377161732E+03  0.97291208175E+03  0.25500000920E-02 0.  1.
</event>
<event>
 5   0  0.5914645E-04  0.1486359E+04  0.7818609E-02  0.8893575E-01
        1   -1    0    0  501    0  0.00000000000E+00  0.00000000000E+00  0.14811078103E+04  0.14811078103E+04  0.50400001928E-02 0.  1.
       -1   -1    0    0    0  501  0.00000000000E+00  0.00000000000E+00 -0.37290714030E+03  0.37290714034E+03  0.50400001928E-02 0. -1.
    10030    2    1    2    0    0  0.00000000000E+00  0.00000000000E+00  0.11082006700E+04  0.18540149507E+04  0.14863588774E+04 0.  0.
        2    1    3    3  502    0  0.31612768260E+03 -0.67256417236E+03  0.56162596327E+03  0.93150577039E+03  0.25500000920E-02 0. -1.
       -2    1    3    3    0  502 -0.31612768260E+03  0.67256417236E+03  0.54657470677E+03  0.92250918029E+03  0.25500000920E-02 0.  1.
</event>
<event>
 5   0  0.4070625E-04  0.1413572E+04  0.7818609E-02  0.8944053E-01
        4   -1    0    0  501    0  0.00000000000E+00  0.00000000000E+00  0.11728040376E+04  0.11728047252E+04  0.12699999809E+01 0. -1.
       -4   -1    0    0    0  501  0.00000000000E+00  0.00000000000E+00 -0.42594030160E+03  0.42594219494E+03  0.12699999809E+01 0.  1.
    10030    2    1    2    0    0  0.00000000000E+00  0.00000000000E+00  0.74686373600E+03  0.15987469202E+04  0.14135721681E+04 0.  0.
        1    1    3    3  502    0  0.15632734534E+03  0.32444277832E+02 -0.40527933162E+03  0.43559408482E+03  0.50400001928E-02 0.  1.
       -1    1    3    3    0  502 -0.15632734534E+03 -0.32444277832E+02  0.11521430676E+04  0.11631528353E+04  0.50400001928E-02 0. -1.
</event>
<event>
 5   0  0.1082667E-03  0.1486640E+04  0.7818609E-02  0.8893386E-01
        2   -1    0    0  501    0  0.00000000000E+00  0.00000000000E+00  0.13067657335E+04  0.13067657335E+04  0.25500000920E-02 0.  1.
       -2   -1    0    0    0  501  0.00000000000E+00  0.00000000000E+00 -0.42281822703E+03  0.42281822704E+03  0.25500000920E-02 0. -1.
    10030    2    1    2    0    0  0.00000000000E+00  0.00000000000E+00  0.88394750651E+03  0.17295839606E+04  0.14866396613E+04 0.  0.
        5    1    3    3  502    0  0.51400430563E+02 -0.14508261348E+03 -0.40405729707E+03  0.43240647348E+03  0.46999998093E+01 0. -1.
       -5    1    3    3    0  502 -0.51400430563E+02  0.14508261348E+03  0.12880048036E+04  0.12971774871E+04  0.46999998093E+01 0.  1.
</event>
<event>
 5   0  0.1126175E-03  0.1516009E+04  0.7818609E-02  0.8873877E-01
       -2   -1    0    0    0  501  0.00000000000E+00  0.00000000000E+00  0.45508995735E+03  0.45508995736E+03  0.25500000920E-02 0. -1.
        2   -1    0    0  501    0  0.00000000000E+00  0.00000000000E+00 -0.12625425944E+04  0.12625425944E+04  0.25500000920E-02 0.  1.
    10030    2    1    2    0    0  0.00000000000E+00  0.00000000000E+00 -0.80745263709E+03  0.17176325518E+04  0.15160085164E+04 0.  0.
        3    1    3    3  502    0 -0.62388911726E+03  0.18748040898E+03 -0.84280295207E+03  0.10652245588E+04  0.10100000352E+00 0.  1.
       -3    1    3    3    0  502  0.62388911726E+03 -0.18748040898E+03  0.35350314986E+02  0.65240799302E+03  0.10100000352E+00 0. -1.
</event>
<event>
 5   0  0.1149716E-03  0.1503579E+04  0.7818609E-02  0.8882076E-01
       -2   -1    0    0    0  501  0.00000000000E+00  0.00000000000E+00  0.82839013838E+03  0.82839013838E+03  0.25500000920E-02 0. -1.
        2   -1    0    0  501    0  0.00000000000E+00  0.00000000000E+00 -0.68227252052E+03  0.68227252053E+03  0.25500000920E-02 0.  1.
    10030    2    1    2    0    0  0.00000000000E+00  0.00000000000E+00  0.14611761786E+03  0.15106626589E+04  0.15035794993E+04 0.  0.
        1    1    3    3  502    0  0.42741551568E+03 -0.87074067739E+01  0.69437966455E+03  0.81542808422E+03  0.50400001928E-02 0. -1.
       -1    1    3    3    0  502 -0.42741551568E+03  0.87074067739E+01 -0.54826204669E+03  0.69523457469E+03  0.50400001928E-02 0.  1.
</event>
<event>
 5   0  0.6146552E-04  0.1372929E+04  0.7818609E-02  0.8973650E-01
       -1   -1    0    0    0  501  0.00000000000E+00  0.00000000000E+00  0.62269986238E+03  0.62269986240E+03  0.50400001928E-02 0. -1.
        1   -1    0    0  501    0  0.00000000000E+00  0.00000000000E+00 -0.75675859613E+03  0.75675859614E+03  0.50400001928E-02 0.  1.
    10030    2    1    2    0    0  0.00000000000E+00  0.00000000000E+00 -0.13405873375E+03  0.13794584585E+04  0.13729289475E+04 0.  0.
        5    1    3    3  502    0  0.42075253713E+03  0.33758212983E+03  0.35950932493E+03  0.64827728372E+03  0.46999998093E+01 0. -1.
       -5    1    3    3    0  502 -0.42075253713E+03 -0.33758212983E+03 -0.49356805868E+03  0.73118117483E+03  0.46999998093E+01 0.  1.
</event>
<event>
 5   0  0.5924403E-04  0.1496648E+04  0.7818609E-02  0.8886685E-01
       -1   -1    0    0    0  501  0.00000000000E+00  0.00000000000E+00  0.34164265085E+03  0.34164265088E+03  0.50400001928E-02 0.  1.
        1   -1    0    0  501    0  0.00000000000E+00  0.00000000000E+00 -0.16391068473E+04  0.16391068473E+04  0.50400001928E-02 0. -1.
    10030    2    1    2    0    0  0.00000000000E+00  0.00000000000E+00 -0.12974641965E+04  0.19807494982E+04  0.14966479992E+04 0.  0.
        1    1    3    3  502    0 -0.48744293594E+03  0.48547430665E+03 -0.10384287482E+04  0.12456404711E+04  0.50400001928E-02 0. -1.
       -1    1    3    3    0  502  0.48744293594E+03 -0.48547430665E+03 -0.25903544830E+03  0.73510902710E+03  0.50400001928E-02 0.  1.
</event>
<event>
 5   0  0.1097156E-03  0.1477860E+04  0.7818609E-02  0.8899311E-01
       -2   -1    0    0    0  501  0.00000000000E+00  0.00000000000E+00  0.56887448580E+03  0.56887448580E+03  0.25500000920E-02 0.  1.
        2   -1    0    0  501    0  0.00000000000E+00  0.00000000000E+00 -0.95982093588E+03  0.95982093589E+03  0.25500000920E-02 0. -1.
    10030    2    1    2    0    0  0.00000000000E+00  0.00000000000E+00 -0.39094645008E+03  0.15286954217E+04  0.14778601305E+04 0.  0.
        2    1    3    3  502    0  0.60200425726E+02 -0.29613956910E+03  0.50203233874E+03  0.58596860392E+03  0.25500000920E-02 0.  1.
       -2    1    3    3    0  502 -0.60200425726E+02  0.29613956910E+03 -0.89297878882E+03  0.94272681776E+03  0.25500000920E-02 0. -1.
</event>
<event>
 5   0  0.5914645E-04  0.1485688E+04  0.7818609E-02  0.8894026E-01
       -1   -1    0    0    0  501  0.00000000000E+00  0.00000000000E+00  0.30194950198E+03  0.30194950202E+03  0.50400001928E-02 0. -1.
        1   -1    0    0  501    0  0.00000000000E+00  0.00000000000E+00 -0.18275150824E+04  0.18275150824E+04  0.50400001928E-02 0.  1.
    10030    2    1    2    0    0  0.00000000000E+00  0.00000000000E+00 -0.15255655804E+04  0.21294645844E+04  0.14856880817E+04 0.  0.
        2    1    3    3  502    0  0.77609531595E+02 -0.70047330689E+03 -0.10993264478E+04  0.13058348792E+04  0.25500000920E-02 0.  1.
       -2    1    3    3    0  502 -0.77609531595E+02  0.70047330689E+03 -0.42623913267E+03  0.82362970520E+03  0.25500000920E-02 0. -1.
</event>
<event>
 5   0  0.1126175E-03  0.1428232E+04  0.7818609E-02  0.8933633E-01
       -2   -1    0    0    0  501  0.00000000000E+00  0.00000000000E+00  0.84856110282E+03  0.84856110282E+03  0.25500000920E-02 0.  1.
        2   -1    0    0  501    0  0.00000000000E+00  0.00000000000E+00 -0.60097198411E+03  0.60097198412E+03  0.25500000920E-02 0. -1.
    10030    2    1    2    0    0  0.00000000000E+00  0.00000000000E+00  0.24758911870E+03  0.14495330869E+04  0.14282317033E+04 0.  0.
        3    1    3    3  502    0  0.37834441715E+03 -0.11025070463E+03 -0.48062237529E+03  0.62152843354E+03  0.10100000352E+00 0. -1.
       -3    1    3    3    0  502 -0.37834441715E+03  0.11025070463E+03  0.72821149400E+03  0.82800465340E+03  0.10100000352E+00 0.  1.
</event>
<event>
 5   0  0.1082667E-03  0.1545674E+04  0.7818609E-02  0.8854636E-01
        2   -1    0    0  501    0  0.00000000000E+00  0.00000000000E+00  0.14951010399E+04  0.14951010399E+04  0.25500000920E-02 0. -1.
       -2   -1    0    0    0  501  0.00000000000E+00  0.00000000000E+00 -0.39948916895E+03  0.39948916896E+03  0.25500000920E-02 0.  1.
    10030    2    1    2    0    0  0.00000000000E+00  0.00000000000E+00  0.10956118710E+04  0.18945902089E+04  0.15456735385E+04 0.  0.
        5    1    3    3  502    0 -0.18512760533E+03  0.72971691384E+03  0.76185628752E+03  0.10710770735E+04  0.46999998093E+01 0. -1.
       -5    1    3    3    0  502  0.18512760533E+03 -0.72971691384E+03  0.33375558344E+03  0.82351313534E+03  0.46999998093E+01 0.  1.
</event>
<event>
 5   0  0.6146552E-04  0.1485488E+04  0.7818609E-02  0.8894161E-01
       -1   -1    0    0    0  501  0.00000000000E+00  0.00000000000E+00  0.48454654250E+03  0.48454654253E+03  0.50400001928E-02 0.  1.
        1   -1    0    0  501    0  0.00000000000E+00  0.00000000000E+00 -0.11385258340E+04  0.11385258340E+04  0.50400001928E-02 0. -1.
    10030    2    1    2    0    0  0.00000000000E+00  0.00000000000E+00 -0.65397929147E+03  0.16230723765E+04  0.14854881439E+04 0.  0.
        5    1    3    3  502    0 -0.40341513326E+03  0.54438179303E+03 -0.65938894472E+03  0.94546876032E+03  0.46999998093E+01 0. -1.
       -5    1    3    3    0  502  0.40341513326E+03 -0.54438179303E+03  0.54096532426E+01  0.67760361619E+03  0.46999998093E+01 0.  1.
</event>
<event>
 5   0  0.6146552E-04  0.1503410E+04  0.7818609E-02  0.8882189E-01
        1   -1    0    0  501    0  0.00000000000E+00  0.00000000000E+00  0.24076542641E+04  0.24076542641E+04  0.50400001928E-02 0. -1.
       -1   -1    0    0    0  501  0.00000000000E+00  0.00000000000E+00 -0.23469318812E+03  0.23469318817E+03  0.50400001928E-02 0.  1.
    10030    2    1    2    0    0  0.00000000000E+00  0.00000000000E+00  0.21729610760E+04  0.26423474523E+04  0.15034095320E+04 0.  0.
        5    1    3    3  502    0  0.14845786261E+03  0.68757376294E+03  0.15522881406E+04  0.17042353059E+04  0.46999998093E+01 0. -1.
       -5    1    3    3    0  502 -0.14845786261E+03 -0.68757376294E+03  0.62067293541E+03  0.93811214639E+03  0.46999998093E+01 0.  1.
</event>
<event>
 5   0  0.1149716E-03  0.1526280E+04  0.7818609E-02  0.8867162E-01
       -2   -1    0    0    0  501  0.00000000000E+00  0.00000000000E+00  0.11195744454E+04  0.11195744454E+04  0.25500000920E-02 0. -1.
        2   -1    0    0  501    0  0.00000000000E+00  0.00000000000E+00 -0.52018247303E+03  0.52018247303E+03  0.25500000920E-02 0.  1.
    10030    2    1    2    0    0  0.00000000000E+00  0.00000000000E+00  0.59939197240E+03  0.16397569185E+04  0.15262804510E+04 0.  0.
        1    1    3    3  502    0  0.23202546960E+03  0.72685812355E+03  0.31579162641E+03  0.82576201272E+03  0.50400001928E-02 0.  1.
       -1    1    3    3    0  502 -0.23202546960E+03 -0.72685812355E+03  0.28360034600E+03  0.81399490575E+03  0.50400001928E-02 0. -1.
</event>
<event>
 5   0  0.1147755E-03  0.1497888E+04  0.7818609E-02  0.8885859E-01
       -2   -1    0    0    0  501  0.00000000000E+00  0.00000000000E+00  0.55371557809E+03  0.55371557809E+03  0.25500000920E-02 0.  1.
        2   -1    0    0  501    0  0.00000000000E+00  0.00000000000E+00 -0.10130053115E+04  0.10130053115E+04  0.25500000920E-02 0. -1.
    10030    2    1    2    0    0  0.00000000000E+00  0.00000000000E+00 -0.45928973345E+03  0.15667208896E+04  0.14978876082E+04 0.  0.
        4    1    3    3  502    0 -0.99606916230E+02  0.23157850598E+03  0.50800462139E+03  0.56711590565E+03  0.12699999809E+01 0.  1.
       -4    1    3    3    0  502  0.99606916230E+02 -0.23157850598E+03 -0.96729435484E+03  0.99960498398E+03  0.12699999809E+01 0. -1.
</event>
<event>
 5   0  0.5914645E-04  0.1498342E+04  0.7818609E-02  0.8885556E-01
        1   -1    0    0  501    0  0.00000000000E+00  0.00000000000E+00  0.75480215064E+03  0.75480215065E+03  0.50400001928E-02 0.  1.
       -1   -1    0    0    0  501  0.00000000000E+00  0.00000000000E+00 -0.74358149809E+03  0.74358149811E+03  0.50400001928E-02 0. -1.
    10030    2    1    2    0    0  0.00000000000E+00  0.00000000000E+00  0.11220652543E+02  0.14983836488E+04  0.14983416352E+04 0.  0.
        2    1    3    3  502    0 -0.31919256078E+03  0.67122236025E+03  0.99600014983E+02  0.74989566658E+03  0.25500000920E-02 0.  1.
       -2    1    3    3    0  502  0.31919256078E+03 -0.67122236025E+03 -0.88379362440E+02  0.74848798218E+03  0.25500000920E-02 0. -1.
</event>
<event>
 5   0  0.5606965E-04  0.1472767E+04  0.7818609E-02  0.8902767E-01
        1   -1    0    0  501    0  0.00000000000E+00  0.00000000000E+00  0.15177472314E+04  0.15177472314E+04  0.50400001928E-02 0.  1.
       -1   -1    0    0    0  501  0.00000000000E+00  0.00000000000E+00 -0.35728017568E+03  0.35728017571E+03  0.50400001928E-02 0. -1.
    10030    2    1    2    0    0  0.00000000000E+00  0.00000000000E+00  0.11604670557E+04  0.18750274071E+04  0.14727674596E+04 0.  0.
        4    1    3    3  502    0 -0.48268747785E+03 -0.55154886873E+03  0.48961703186E+03  0.88143054557E+03  0.12699999809E+01 0. -1.
       -4    1    3    3    0  502  0.48268747785E+03  0.55154886873E+03  0.67085002384E+03  0.99359686153E+03  0.12699999809E+01 0.  1.
</event>
<event>
 5   0  0.1082667E-03  0.1493013E+04  0.7818609E-02  0.8889113E-01
       -2   -1    0    0    0  501  0.00000000000E+00  0.00000000000E+00  0.14614446034E+04  0.14614446034E+04  0.25500000920E-02 0.  1.
        2   -1    0    0  501    0  0.00000000000E+00  0.00000000000E+00 -0.38131558668E+03  0.38131558669E+03  0.25500000920E-02 0. -1.
    10030    2    1    2    0    0  0.00000000000E+00  0.00000000000E+00  0.10801290167E+04  0.18427601901E+04  0.14930125336E+04 0.  0.
        5    1    3    3  502    0  0.86209051120E+01  0.21436032257E+03  0.14225576630E+04  0.14386511260E+04  0.46999998093E+01 0.  1.
       -5    1    3    3    0  502 -0.86209051120E+01 -0.21436032257E+03 -0.34242864625E+03  0.40410906408E+03  0.46999998093E+01 0. -1.
</event>
<event>
 5   0  0.5924403E-04  0.1478566E+04  0.7818609E-02  0.8898833E-01
        1   -1    0    0  501    0  0.00000000000E+00  0.00000000000E+00  0.99339814576E+03  0.99339814577E+03  0.50400001928E-02 0. -1.
       -1   -1    0    0    0  501  0.00000000000E+00  0.00000000000E+00 -0.55017126809E+03  0.55017126811E+03  0.50400001928E-02 0.  1.
    10030    2    1    2    0    0  0.00000000000E+00  0.00000000000E+00  0.44322687767E+03  0.15435694139E+04  0.14785656801E+04 0.  0.
        1    1    3    3  502    0 -0.58949207193E+03 -0.19744658197E+03  0.63926829612E+03  0.89171184250E+03  0.50400001928E-02 0. -1.
       -1    1    3    3    0  502  0.58949207193E+03  0.19744658197E+03 -0.19604141845E+03  0.65185757139E+03  0.50400001928E-02 0.  1.
</event>
<event>
 5   0  0.1082667E-03  0.1503557E+04  0.7818609E-02  0.8882091E-01
       -2   -1    0    0    0  501  0.00000000000E+00  0.00000000000E+00  0.84542307571E+03  0.84542307572E+03  0.25500000920E-02 0. -1.
        2   -1    0    0  501    0  0.00000000000E+00  0.00000000000E+00 -0.66850657362E+03  0.66850657362E+03  0.25500000920E-02 0.  1.
    10030    2    1    2    0    0  0.00000000000E+00  0.00000000000E+00  0.17691650209E+03  0.15139296493E+04  0.15035569608E+04 0.  0.
        5    1    3    3  502    0  0.61377781247E+03 -0.35132499888E+03  0.34516083803E+03  0.78696286572E+03  0.46999998093E+01 0. -1.
       -5    1    3    3    0  502 -0.61377781247E+03  0.35132499888E+03 -0.16824433594E+03  0.72696678362E+03  0.46999998093E+01 0.  1.
</event>
<event>
 5   0  0.5914645E-04  0.1507662E+04  0.7818609E-02  0.8879374E-01
        1   -1    0    0  501    0  0.00000000000E+00  0.00000000000E+00  0.81606712434E+03  0.81606712435E+03  0.50400001928E-02 0. -1.
       -1   -1    0    0    0  501  0.00000000000E+00  0.00000000000E+00 -0.69634131128E+03  0.69634131129E+03  0.50400001928E-02 0.  1.
    10030    2    1    2    0    0  0.00000000000E+00  0.00000000000E+00  0.11972581306E+03  0.15124084356E+04  0.15076620994E+04 0.  0.
        2    1    3    3  502    0 -0.51456261014E+03 -0.54921049598E+03  0.10306125196E+03  0.75962390057E+03  0.25500000920E-02 0.  1.
       -2    1    3    3    0  502  0.51456261014E+03  0.54921049598E+03  0.16664561100E+02  0.75278453508E+03  0.25500000920E-02 0. -1.
</event>
<event>
 5   0  0.1149716E-03  0.1481672E+04  0.7818609E-02  0.8896733E-01
       -2   -1    0    0    0  501  0.00000000000E+00  0.00000000000E+00  0.15811154458E+04  0.15811154458E+04  0.25500000920E-02 0. -1.
        2   -1    0    0  501    0  0.00000000000E+00  0.00000000000E+00 -0.34712085785E+03  0.34712085786E+03  0.25500000920E-02 0.  1.
    10030    2    1    2    0    0  0.00000000000E+00  0.00000000000E+00  0.12339945879E+04  0.19282363036E+04  0.14816722308E+04 0.  0.
        1    1    3    3  502    0  0.65821488563E+03  0.21484639480E+03  0.95991429532E+03  0.11835714019E+04  0.50400001928E-02 0. -1.
       -1    1    3    3    0  502 -0.65821488563E+03 -0.21484639480E+03  0.27408029258E+03  0.74466490171E+03  0.50400001928E-02 0.  1.
</event>
<event>
 5   0  0.1097156E-03  0.1494787E+04  0.7818609E-02  0.8887927E-01
       -2   -1    0    0    0  501  0.00000000000E+00  0.00000000000E+00  0.65138560289E+03  0.65138560290E+03  0.25500000920E-02 0.  1.
        2   -1    0    0  501    0  0.00000000000E+00  0.00000000000E+00 -0.85755225065E+03  0.85755225065E+03  0.25500000920E-02 0. -1.
    10030    2    1    2    0    0  0.00000000000E+00  0.00000000000E+00 -0.20616664776E+03  0.15089378535E+04  0.14947871953E+04 0.  0.
        2    1    3    3  502    0  0.43271313501E+03  0.27553622022E+03  0.44560274040E+03  0.67950177934E+03  0.25500000920E-02 0.  1.
       -2    1    3    3    0  502 -0.43271313501E+03 -0.27553622022E+03 -0.65176938815E+03  0.82943607421E+03  0.25500000920E-02 0. -1.
</event>
<event>
 5   0  0.4070625E-04  0.1506823E+04  0.7818609E-02  0.8879928E-01
       -3   -1    0    0    0  501  0.00000000000E+00  0.00000000000E+00  0.48993076404E+03  0.48993077445E+03  0.10100000352E+00 0.  1.
        3   -1    0    0  501    0  0.00000000000E+00  0.00000000000E+00 -0.11585901823E+04  0.11585901867E+04  0.10100000352E+00 0. -1.
    10030    2    1    2    0    0  0.00000000000E+00  0.00000000000E+00 -0.66865941825E+03  0.16485209611E+04  0.15068231289E+04 0.  0.
        3    1    3    3  502    0  0.69411044944E+03  0.24023310341E+03 -0.51781422659E+03  0.89868395082E+03  0.10100000352E+00 0.  1.
       -3    1    3    3    0  502 -0.69411044944E+03 -0.24023310341E+03 -0.15084519166E+03  0.74983701032E+03  0.10100000352E+00 0. -1.
</event>
<event>
 5   0  0.5606965E-04  0.1392181E+04  0.7818609E-02  0.8959498E-01
        1   -1    0    0  501    0  0.00000000000E+00  0.00000000000E+00  0.55699949112E+03  0.55699949114E+03  0.50400001928E-02 0. -1.
       -1   -1    0    0    0  501  0.00000000000E+00  0.00000000000E+00 -0.86991443741E+03  0.86991443742E+03  0.50400001928E-02 0.  1.
    10030    2    1    2    0    0  0.00000000000E+00  0.00000000000E+00 -0.31291494629E+03  0.14269139286E+04  0.13921808776E+04 0.  0.
        4    1    3    3  502    0  0.21613396148E+03 -0.52386144587E+03  0.25784952422E+03  0.62260155301E+03  0.12699999809E+01 0. -1.
       -4    1    3    3    0  502 -0.21613396148E+03  0.52386144587E+03 -0.57076447052E+03  0.80431237555E+03  0.12699999809E+01 0.  1.
</event>
<event>
 5   0  0.1147755E-03  0.1485365E+04  0.7818609E-02  0.8894244E-01
        2   -1    0    0  501    0  0.00000000000E+00  0.00000000000E+00  0.91678708735E+03  0.91678708736E+03  0.25500000920E-02 0.  1.
       -2   -1    0    0    0  501  0.00000000000E+00  0.00000000000E+00 -0.60164191463E+03  0.60164191463E+03  0.25500000920E-02 0. -1.
    10030    2    1    2    0    0  0.00000000000E+00  0.00000000000E+00  0.31514517272E+03  0.15184290020E+04  0.14853653268E+04 0.  0.
        4    1    3    3  502    0  0.30302947186E+03 -0.21398044773E+03 -0.50014756648E+03  0.62270674798E+03  0.12699999809E+01 0. -1.
       -4    1    3    3    0  502 -0.30302947186E+03  0.21398044773E+03  0.81529273920E+03  0.89572225401E+03  0.12699999809E+01 0.  1.
</event>
<event>
 5   0  0.1082667E-03  0.1482083E+04  0.7818609E-02  0.8896456E-01
       -2   -1    0    0    0  501  0.00000000000E+00  0.00000000000E+00  0.32736502441E+03  0.32736502442E+03  0.25500000920E-02 0.  1.
        2   -1    0    0  501    0  0.00000000000E+00  0.00000000000E+00 -0.16774623839E+04  0.16774623839E+04  0.25500000920E-02 0. -1.
    10030    2    1    2    0    0  0.00000000000E+00  0.00000000000E+00 -0.13500973595E+04  0.20048274084E+04  0.14820830129E+04 0.  0.
        5    1    3    3  502    0 -0.20711226089E+03  0.14100755133E+03 -0.16184039131E+04  0.16376910375E+04  0.46999998093E+01 0. -1.
       -5    1    3    3    0  502  0.20711226089E+03 -0.14100755133E+03  0.26830655359E+03  0.36713637090E+03  0.46999998093E+01 0.  1.
</event>
<event>
 5   0  0.5924403E-04  0.1493374E+04  0.7818609E-02  0.8888871E-01
       -1   -1    0    0    0  501  0.00000000000E+00  0.00000000000E+00  0.92850927357E+03  0.92850927359E+03  0.50400001928E-02 0. -1.
        1   -1    0    0  501    0  0.00000000000E+00  0.00000000000E+00 -0.60046948736E+03  0.60046948739E+03  0.50400001928E-02 0.  1.
    10030    2    1    2    0    0  0.00000000000E+00  0.00000000000E+00  0.32803978621E+03  0.15289787610E+04  0.14933740155E+04 0.  0.
        1    1    3    3  502    0  0.27887727428E+03 -0.35659801504E+03 -0.44394459106E+03  0.63405163701E+03  0.50400001928E-02 0.  1.
       -1    1    3    3    0  502 -0.27887727428E+03  0.35659801504E+03  0.77198437727E+03  0.89492712396E+03  0.50400001928E-02 0. -1.
</event>
<event>
 5   0  0.1147755E-03  0.1619604E+04  0.7818609E-02  0.8808594E-01
        2   -1    0    0  501    0  0.00000000000E+00  0.00000000000E+00  0.92916714480E+03  0.92916714481E+03  0.25500000920E-02 0.  1.
       -2   -1    0    0    0  501  0.00000000000E+00  0.00000000000E+00 -0.70577108375E+03  0.70577108376E+03  0.25500000920E-02 0. -1.
    10030    2    1    2    0    0  0.00000000000E+00  0.00000000000E+00  0.22339606105E+03  0.16349382286E+04  0.16196040291E+04 0.  0.
        4    1    3    3  502    0  0.31567171942E+03 -0.31139484564E+03 -0.57233270169E+03  0.72400394934E+03  0.12699999809E+01 0. -1.
       -4    1    3    3    0  502 -0.31567171942E+03  0.31139484564E+03  0.79572876274E+03  0.91093427923E+03  0.12699999809E+01 0.  1.
</event>
<event>
 5   0  0.5840834E-04  0.1508267E+04  0.7818609E-02  0.8878974E-01
       -1   -1    0    0    0  501  0.00000000000E+00  0.00000000000E+00  0.40122434646E+03  0.40122434649E+03  0.50400001928E-02 0.  1.
        1   -1    0    0  501    0  0.00000000000E+00  0.00000000000E+00 -0.14174549707E+04  0.14174549707E+04  0.50400001928E-02 0. -1.
    10030    2    1    2    0    0  0.00000000000E+00  0.00000000000E+00 -0.10162306242E+04  0.18186793172E+04  0.15082671438E+04 0.  0.
        3    1    3    3  502    0  0.56504325407E+02 -0.10864380174E+03  0.38915529391E+03  0.40796821864E+03  0.10100000352E+00 0.  1.
       -3    1    3    3    0  502 -0.56504325407E+02  0.10864380174E+03 -0.14053859181E+04  0.14107110985E+04  0.10100000352E+00 0. -1.
</event>
<event>
 5   0  0.5914645E-04  0.1543314E+04  0.7818609E-02  0.8856150E-01
        1   -1    0    0  501    0  0.00000000000E+00  0.00000000000E+00  0.19623264828E+04  0.19623264828E+04  0.50400001928E-02 0.  1.
       -1   -1    0    0    0  501  0.00000000000E+00  0.00000000000E+00 -0.30344318459E+03  0.30344318463E+03  0.50400001928E-02 0. -1.
    10030    2    1    2    0    0  0.00000000000E+00  0.00000000000E+00  0.16588832982E+04  0.22657696675E+04  0.15433140927E+04 0.  0.
        2    1    3    3  502    0  0.55254038972E+03 -0.59868800315E+01  0.38674392213E+02  0.55392457395E+03  0.25500000920E-02 0. -1.
       -2    1    3    3    0  502 -0.55254038972E+03  0.59868800315E+01  0.16202089060E+04  0.17118450935E+04  0.25500000920E-02 0.  1.
</event>
<event>
 5   0  0.5914645E-04  0.1253203E+04  0.7818609E-02  0.9067521E-01
       -1   -1    0    0    0  501  0.00000000000E+00  0.00000000000E+00  0.20712539643E+03  0.20712539649E+03  0.50400001928E-02 0. -1.
        1   -1    0    0  501    0  0.00000000000E+00  0.00000000000E+00 -0.18956136292E+04  0.18956136292E+04  0.50400001928E-02 0.  1.
    10030    2    1    2    0    0  0.00000000000E+00  0.00000000000E+00 -0.16884882328E+04  0.21027390257E+04  0.12532034543E+04 0.  0.
        2    1    3    3  502    0 -0.32554074448E+02  0.59807828797E+03 -0.11530504876E+04  0.12993393834E+04  0.25500000920E-02 0.  1.
       -2    1    3    3    0  502  0.32554074448E+02 -0.59807828797E+03 -0.53543774523E+03  0.80339964234E+03  0.25500000920E-02 0. -1.
</event>
<event>
 5   0  0.5924403E-04  0.1510719E+04  0.7818609E-02  0.8877356E-01
        1   -1    0    0  501    0  0.00000000000E+00  0.00000000000E+00  0.13395428807E+04  0.13395428807E+04  0.50400001928E-02 0.  1.
       -1   -1    0    0    0  501  0.00000000000E+00  0.00000000000E+00 -0.42594243307E+03  0.42594243310E+03  0.50400001928E-02 0. -1.
    10030    2    1    2    0    0  0.00000000000E+00  0.00000000000E+00  0.91360044765E+03  0.17654853138E+04  0.15107192378E+04 0.  0.
        1    1    3    3  502    0  0.32097338580E+03 -0.61415088095E+03  0.80809809130E+03  0.10645317018E+04  0.50400001928E-02 0.  1.
       -1    1    3    3    0  502 -0.32097338580E+03  0.61415088095E+03  0.10550235635E+03  0.70095361201E+03  0.50400001928E-02 0. -1.
</event>
<event>
 5   0  0.6146552E-04  0.1520596E+04  0.7818609E-02  0.8870871E-01
       -1   -1    0    0    0  501  0.00000000000E+00  0.00000000000E+00  0.28956251788E+03  0.28956251792E+03  0.50400001928E-02 0.  1.
        1   -1    0    0  501    0  0.00000000000E+00  0.00000000000E+00 -0.19962973284E+04  0.19962973284E+04  0.50400001928E-02 0. -1.
    10030    2    1    2    0    0  0.00000000000E+00  0.00000000000E+00 -0.17067348105E+04  0.22858598463E+04  0.15205957791E+04 0.  0.
        5    1    3    3  502    0  0.46120620125E+03  0.49405462869E+03 -0.13767752798E+04  0.15337318531E+04  0.46999998093E+01 0. -1.
       -5    1    3    3    0  502 -0.46120620125E+03 -0.49405462869E+03 -0.32995953066E+03  0.75212799315E+03  0.46999998093E+01 0.  1.
</event>
<event>
 5   0  0.5914645E-04  0.1509090E+04  0.7818609E-02  0.8878431E-01
       -1   -1    0    0    0  501  0.00000000000E+00  0.00000000000E+00  0.90178349587E+03  0.90178349589E+03  0.50400001928E-02 0.  1.
        1   -1    0    0  501    0  0.00000000000E+00  0.00000000000E+00 -0.63134687624E+03  0.63134687626E+03  0.50400001928E-02 0. -1.
    10030    2    1    2    0    0  0.00000000000E+00  0.00000000000E+00  0.27043661963E+03  0.15331303721E+04  0.15090900479E+04 0.  0.
        2    1    3    3  502    0  0.73689181840E+02 -0.75079694557E+03  0.12042459947E+03  0.76395564869E+03  0.25500000920E-02 0. -1.
       -2    1    3    3    0  502 -0.73689181840E+02  0.75079694557E+03  0.15001202017E+03  0.76917472346E+03  0.25500000920E-02 0.  1.
</event>
<event>
 5   0  0.1147755E-03  0.1497599E+04  0.7818609E-02  0.8886051E-01
       -2   -1    0    0    0  501  0.00000000000E+00  0.00000000000E+00  0.38734096794E+03  0.38734096795E+03  0.25500000920E-02 0.  1.
        2   -1    0    0  501    0  0.00000000000E+00  0.00000000000E+00 -0.14475638583E+04  0.14475638583E+04  0.25500000920E-02 0. -1.
    10030    2    1    2    0    0  0.00000000000E+00  0.00000000000E+00 -0.10602228903E+04  0.18349048262E+04  0.14975991266E+04 0.  0.
        4    1    3    3  502    0  0.58632223805E+03  0.46479901327E+03 -0.56660777418E+03  0.93854028801E+03  0.12699999809E+01 0. -1.
       -4    1    3    3    0  502 -0.58632223805E+03 -0.46479901327E+03 -0.49361511616E+03  0.89636453821E+03  0.12699999809E+01 0.  1.
</event>
<event>
 5   0  0.1147755E-03  0.1500109E+04  0.7818609E-02  0.8884380E-01
       -2   -1    0    0    0  501  0.00000000000E+00  0.00000000000E+00  0.78771745766E+03  0.78771745766E+03  0.25500000920E-02 0. -1.
        2   -1    0    0  501    0  0.00000000000E+00  0.00000000000E+00 -0.71419271810E+03  0.71419271810E+03  0.25500000920E-02 0.  1.
    10030    2    1    2    0    0  0.00000000000E+00  0.00000000000E+00  0.73524739561E+02  0.15019101758E+04  0.15001094256E+04 0.  0.
        4    1    3    3  502    0 -0.43987325202E+03 -0.60390432469E+03  0.10311067595E+03  0.75420311297E+03  0.12699999809E+01 0. -1.
       -4    1    3    3    0  502  0.43987325202E+03  0.60390432469E+03 -0.29585936386E+02  0.74770706279E+03  0.12699999809E+01 0.  1.
</event>
<event>
 5   0  0.1149716E-03  0.1506116E+04  0.7818609E-02  0.8880396E-01
        2   -1    0    0  501    0  0.00000000000E+00  0.00000000000E+00  0.21744956981E+04  0.21744956981E+04  0.25500000920E-02 0.  1.
       -2   -1    0    0    0  501  0.00000000000E+00  0.00000000000E+00 -0.26079452828E+03  0.26079452829E+03  0.25500000920E-02 0. -1.
    10030    2    1    2    0    0  0.00000000000E+00  0.00000000000E+00  0.19137011698E+04  0.24352902264E+04  0.15061163034E+04 0.  0.
        1    1    3    3  502    0 -0.21031008478E+03 -0.68813457427E+03  0.59769813730E+03  0.93541572973E+03  0.50400001928E-02 0. -1.
       -1    1    3    3    0  502  0.21031008478E+03  0.68813457427E+03  0.13160030325E+04  0.14998744966E+04  0.50400001928E-02 0.  1.
</event>
<event>
 5   0  0.5606965E-04  0.1507449E+04  0.7818609E-02  0.8879514E-01
        1   -1    0    0  501    0  0.00000000000E+00  0.00000000000E+00  0.98624883838E+03  0.98624883839E+03  0.50400001928E-02 0. -1.
       -1   -1    0    0    0  501  0.00000000000E+00  0.00000000000E+00 -0.57602185794E+03  0.57602185796E+03  0.50400001928E-02 0.  1.
    10030    2    1    2    0    0  0.00000000000E+00  0.00000000000E+00  0.41022698044E+03  0.15622706964E+04  0.15074493534E+04 0.  0.
        4    1    3    3  502    0  0.60534779862E+02 -0.37200953973E+03  0.88157118300E+03  0.95876218157E+03  0.12699999809E+01 0. -1.
       -4    1    3    3    0  502 -0.60534779862E+02  0.37200953973E+03 -0.47134420256E+03  0.60350851478E+03  0.12699999809E+01 0.  1.
</event>
<event>
 5   0  0.5606965E-04  0.1495972E+04  0.7818609E-02  0.8887136E-01
       -1   -1    0    0    0  501  0.00000000000E+00  0.00000000000E+00  0.48560571967E+03  0.48560571970E+03  0.50400001928E-02 0.  1.
        1   -1    0    0  501    0  0.00000000000E+00  0.00000000000E+00 -0.11521341697E+04  0.11521341697E+04  0.50400001928E-02 0. -1.
    10030    2    1    2    0    0  0.00000000000E+00  0.00000000000E+00 -0.66652845000E+03  0.16377398894E+04  0.14959718482E+04 0.  0.
        4    1    3    3  502    0  0.50195290470E+03  0.99338227232E+02  0.26401747930E+03  0.57578784652E+03  0.12699999809E+01 0.  1.
       -4    1    3    3    0  502 -0.50195290470E+03 -0.99338227232E+02 -0.93054592930E+03  0.10619520429E+04  0.12699999809E+01 0. -1.
</event>
<event>
 5   0  0.1082667E-03  0.1493683E+04  0.7818609E-02  0.8888665E-01
       -2   -1    0    0    0  501  0.00000000000E+00  0.00000000000E+00  0.50897515138E+03  0.50897515139E+03  0.25500000920E-02 0.  1.
        2   -1    0    0  501    0  0.00000000000E+00  0.00000000000E+00 -0.10958732448E+04  0.10958732448E+04  0.25500000920E-02 0. -1.
    10030    2    1    2    0    0  0.00000000000E+00  0.00000000000E+00 -0.58689809340E+03  0.16048483962E+04  0.14936830329E+04 0.  0.
        5    1    3    3  502    0  0.38636738593E+03  0.86354895763E+02  0.38693624765E+03  0.55360516135E+03  0.46999998093E+01 0.  1.
       -5    1    3    3    0  502 -0.38636738593E+03 -0.86354895763E+02 -0.97383434105E+03  0.10512432348E+04  0.46999998093E+01 0. -1.
</event>
<event>
 5   0  0.6146552E-04  0.1498529E+04  0.7818609E-02  0.8885432E-01
       -1   -1    0    0    0  501  0.00000000000E+00  0.00000000000E+00  0.51756942252E+03  0.51756942254E+03  0.50400001928E-02 0.  1.
        1   -1    0    0  501    0  0.00000000000E+00  0.00000000000E+00 -0.10846801805E+04  0.10846801805E+04  0.50400001928E-02 0. -1.
    10030    2    1    2    0    0  0.00000000000E+00  0.00000000000E+00 -0.56711075796E+03  0.16022496030E+04  0.14985290049E+04 0.  0.
        5    1    3    3  502    0 -0.31336845054E+03  0.14632775925E+03  0.42710153608E+03  0.54959022102E+03  0.46999998093E+01 0.  1.
       -5    1    3    3    0  502  0.31336845054E+03 -0.14632775925E+03 -0.99421229404E+03  0.10526593820E+04  0.46999998093E+01 0. -1.
</event>
<event>
 5   0  0.4070625E-04  0.1429529E+04  0.7818609E-02  0.8932717E-01
        3   -1    0    0  501    0  0.00000000000E+00  0.00000000000E+00  0.16253405498E+04  0.16253405529E+04  0.10100000352E+00 0.  1.
       -3   -1    0    0    0  501  0.00000000000E+00  0.00000000000E+00 -0.31432678742E+03  0.31432680365E+03  0.10100000352E+00 0. -1.
    10030    2    1    2    0    0  0.00000000000E+00  0.00000000000E+00  0.13110137624E+04  0.19396673566E+04  0.14295287227E+04 0.  0.
        2    1    3    3  502    0 -0.53758460216E+03 -0.28011683520E+03  0.11693700329E+04  0.13171518211E+04  0.25500000920E-02 0.  1.
       -2    1    3    3    0  502  0.53758460216E+03  0.28011683520E+03  0.14164372944E+03  0.62251553550E+03  0.25500000920E-02 0. -1.
</event>
<event>
 5   0  0.1097156E-03  0.1508020E+04  0.7818609E-02  0.8879137E-01
        2   -1    0    0  501    0  0.00000000000E+00  0.00000000000E+00  0.58040516191E+03  0.58040516191E+03  0.25500000920E-02 0.  1.
       -2   -1    0    0    0  501  0.00000000000E+00  0.00000000000E+00 -0.97954175259E+03  0.97954175259E+03  0.25500000920E-02 0. -1.
    10030    2    1    2    0    0  0.00000000000E+00  0.00000000000E+00 -0.39913659068E+03  0.15599469145E+04  0.15080200125E+04 0.  0.
        2    1    3    3  502    0 -0.57652540461E+03 -0.48462850438E+03 -0.23664607609E+03  0.78946038201E+03  0.25500000920E-02 0. -1.
       -2    1    3    3    0  502  0.57652540461E+03  0.48462850438E+03 -0.16249051458E+03  0.77048653250E+03  0.25500000920E-02 0.  1.
</event>
<event>
 5   0  0.5840834E-04  0.1488201E+04  0.7818609E-02  0.8892338E-01
        1   -1    0    0  501    0  0.00000000000E+00  0.00000000000E+00  0.84286384056E+03  0.84286384058E+03  0.50400001928E-02 0.  1.
       -1   -1    0    0    0  501  0.00000000000E+00  0.00000000000E+00 -0.65690949283E+03  0.65690949285E+03  0.50400001928E-02 0. -1.
    10030    2    1    2    0    0  0.00000000000E+00  0.00000000000E+00  0.18595434774E+03  0.14997733334E+04  0.14882006021E+04 0.  0.
        3    1    3    3  502    0 -0.50726536021E+03 -0.12395010565E+03 -0.44124264483E+03  0.68364965895E+03  0.10100000352E+00 0. -1.
       -3    1    3    3    0  502  0.50726536021E+03  0.12395010565E+03  0.62719699257E+03  0.81612367448E+03  0.10100000352E+00 0.  1.
</event>
<event>
 5   0  0.1082667E-03  0.1501350E+04  0.7818609E-02  0.8883555E-01
        2   -1    0    0  501    0  0.00000000000E+00  0.00000000000E+00  0.13496029477E+04  0.13496029477E+04  0.25500000920E-02 0.  1.
       -2   -1    0    0    0  501  0.00000000000E+00  0.00000000000E+00 -0.41754001266E+03  0.41754001267E+03  0.25500000920E-02 0. -1.
    10030    2    1    2    0    0  0.00000000000E+00  0.00000000000E+00  0.93206293505E+03  0.17671429604E+04  0.15013503680E+04 0.  0.
        5    1    3    3  502    0 -0.41428791955E+03 -0.42059441593E+03  0.10117458819E+04  0.11714034158E+04  0.46999998093E+01 0.  1.
       -5    1    3    3    0  502  0.41428791955E+03  0.42059441593E+03 -0.79682946832E+02  0.59573954461E+03  0.46999998093E+01 0. -1.
</event>
<event>
 5   0  0.1147755E-03  0.1403887E+04  0.7818609E-02  0.8951009E-01
        2   -1    0    0  501    0  0.00000000000E+00  0.00000000000E+00  0.86998267176E+03  0.86998267177E+03  0.25500000920E-02 0.  1.
       -2   -1    0    0    0  501  0.00000000000E+00  0.00000000000E+00 -0.56636175730E+03  0.56636175731E+03  0.25500000920E-02 0. -1.
    10030    2    1    2    0    0  0.00000000000E+00  0.00000000000E+00  0.30362091446E+03  0.14363444291E+04  0.14038873385E+04 0.  0.
        4    1    3    3  502    0  0.10808846889E+03 -0.22561122173E+03  0.82282376301E+03  0.86001401055E+03  0.12699999809E+01 0.  1.
       -4    1    3    3    0  502 -0.10808846889E+03  0.22561122173E+03 -0.51920284855E+03  0.57633041852E+03  0.12699999809E+01 0. -1.
</event>
<event>
 5   0  0.1147755E-03  0.1508168E+04  0.7818609E-02  0.8879040E-01
        2   -1    0    0  501    0  0.00000000000E+00  0.00000000000E+00  0.55911898054E+03  0.55911898055E+03  0.25500000920E-02 0.  1.
       -2   -1    0    0    0  501  0.00000000000E+00  0.00000000000E+00 -0.10170328785E+04  0.10170328785E+04  0.25500000920E-02 0. -1.
    10030    2    1    2    0    0  0.00000000000E+00  0.00000000000E+00 -0.45791389792E+03  0.15761518590E+04  0.15081676116E+04 0.  0.
        4    1    3    3  502    0 -0.31566657268E+03  0.87455079689E+02 -0.93879993878E+03  0.99430413558E+03  0.12699999809E+01 0. -1.
       -4    1    3    3    0  502  0.31566657268E+03 -0.87455079689E+02  0.48088604086E+03  0.58184772343E+03  0.12699999809E+01 0.  1.
</event>
<event>
 5   0  0.5914645E-04  0.1477997E+04  0.7818609E-02  0.8899218E-01
        1   -1    0    0  501    0  0.00000000000E+00  0.00000000000E+00  0.69039496743E+03  0.69039496745E+03  0.50400001928E-02 0. -1.
       -1   -1    0    0    0  501  0.00000000000E+00  0.00000000000E+00 -0.79102414740E+03  0.79102414741E+03  0.50400001928E-02 0.  1.
    10030    2    1    2    0    0  0.00000000000E+00  0.00000000000E+00 -0.10062917996E+03  0.14814191149E+04  0.14779974161E+04 0.  0.
        2    1    3    3  502    0 -0.13361644504E+03 -0.60832018224E+03 -0.44899452641E+03  0.76779091116E+03  0.25500000920E-02 0.  1.
       -2    1    3    3    0  502  0.13361644504E+03  0.60832018224E+03  0.34836534645E+03  0.71362820370E+03  0.25500000920E-02 0. -1.
</event>
<event>
 5   0  0.1149716E-03  0.1507449E+04  0.7818609E-02  0.8879515E-01
       -2   -1    0    0    0  501  0.00000000000E+00  0.00000000000E+00  0.60921946569E+03  0.60921946569E+03  0.25500000920E-02 0.  1.
        2   -1    0    0  501    0  0.00000000000E+00  0.00000000000E+00 -0.93250520423E+03  0.93250520424E+03  0.25500000920E-02 0. -1.
    10030    2    1    2    0    0  0.00000000000E+00  0.00000000000E+00 -0.32328573854E+03  0.15417246699E+04  0.15074486025E+04 0.  0.
        1    1    3    3  502    0 -0.48614607008E+03 -0.56457042613E+03 -0.44931704257E+02  0.74638905779E+03  0.50400001928E-02 0.  1.
       -1    1    3    3    0  502  0.48614607008E+03  0.56457042613E+03 -0.27835403429E+03  0.79533561214E+03  0.50400001928E-02 0. -1.
</event>
<event>
 5   0  0.5924403E-04  0.1503424E+04  0.7818609E-02  0.8882179E-01
       -1   -1    0    0    0  501  0.00000000000E+00  0.00000000000E+00  0.99895179270E+03  0.99895179271E+03  0.50400001928E-02 0. -1.
        1   -1    0    0  501    0  0.00000000000E+00  0.00000000000E+00 -0.56566417771E+03  0.56566417773E+03  0.50400001928E-02 0.  1.
    10030    2    1    2    0    0  0.00000000000E+00  0.00000000000E+00  0.43328761499E+03  0.15646159704E+04  0.15034244170E+04 0.  0.
        1    1    3    3  502    0 -0.28519334409E+03  0.17030018784E+03  0.91842996888E+03  0.97665296050E+03  0.50400001928E-02 0. -1.
       -1    1    3    3    0  502  0.28519334409E+03 -0.17030018784E+03 -0.48514235390E+03  0.58796300994E+03  0.50400001928E-02 0.  1.
</event>
<event>
 5   0  0.6146552E-04  0.1500057E+04  0.7818609E-02  0.8884415E-01
        1   -1    0    0  501    0  0.00000000000E+00  0.00000000000E+00  0.60166205699E+03  0.60166205702E+03  0.50400001928E-02 0. -1.
       -1   -1    0    0    0  501  0.00000000000E+00  0.00000000000E+00 -0.93498116108E+03  0.93498116110E+03  0.50400001928E-02 0.  1.
    10030    2    1    2    0    0  0.00000000000E+00  0.00000000000E+00 -0.33331910409E+03  0.15366432181E+04  0.15000569171E+04 0.  0.
        5    1    3    3  502    0  0.61103747212E+03 -0.16887430876E+03 -0.57722818351E+03  0.85737960690E+03  0.46999998093E+01 0.  1.
       -5    1    3    3    0  502 -0.61103747212E+03  0.16887430876E+03  0.24390907942E+03  0.67926361121E+03  0.46999998093E+01 0. -1.
</event>
<event>
 5   0  0.1149716E-03  0.1501495E+04  0.7818609E-02  0.8883459E-01
        2   -1    0    0  501    0  0.00000000000E+00  0.00000000000E+00  0.20009179546E+04  0.20009179546E+04  0.25500000920E-02 0. -1.
       -2   -1    0    0    0  501  0.00000000000E+00  0.00000000000E+00 -0.28168176983E+03  0.28168176985E+03  0.25500000920E-02 0.  1.
    10030    2    1    2    0    0  0.00000000000E+00  0.00000000000E+00  0.17192361848E+04  0.22825997244E+04  0.15014954023E+04 0.  0.
        1    1    3    3  502    0 -0.48954002335E+03  0.41047893882E+03  0.14590538205E+04  0.15927901447E+04  0.50400001928E-02 0. -1.
       -1    1    3    3    0  502  0.48954002335E+03 -0.41047893882E+03  0.26018236422E+03  0.68980957978E+03  0.50400001928E-02 0.  1.
</event>
<event>
 5   0  0.6146552E-04  0.1511597E+04  0.7818609E-02  0.8876778E-01
       -1   -1    0    0    0  501  0.00000000000E+00  0.00000000000E+00  0.98858815553E+03  0.98858815554E+03  0.50400001928E-02 0. -1.
        1   -1    0    0  501    0  0.00000000000E+00  0.00000000000E+00 -0.57782526186E+03  0.57782526188E+03  0.50400001928E-02 0.  1.
    10030    2    1    2    0    0  0.00000000000E+00  0.00000000000E+00  0.41076289368E+03  0.15664134174E+04  0.15115967847E+04 0.  0.
        5    1    3    3  502    0 -0.56917637486E+03 -0.42899216755E+03 -0.55158283951E+02  0.71488499201E+03  0.46999998093E+01 0.  1.
       -5    1    3    3    0  502  0.56917637486E+03  0.42899216755E+03  0.46592117763E+03  0.85152842541E+03  0.46999998093E+01 0. -1.
</event>
<event>
 5   0  0.5840834E-04  0.1493825E+04  0.7818609E-02  0.8888570E-01
       -1   -1    0    0    0  501  0.00000000000E+00  0.00000000000E+00  0.50051408421E+03  0.50051408424E+03  0.50400001928E-02 0. -1.
        1   -1    0    0  501    0  0.00000000000E+00  0.00000000000E+00 -0.11146105746E+04  0.11146105746E+04  0.50400001928E-02 0.  1.
    10030    2    1    2    0    0  0.00000000000E+00  0.00000000000E+00 -0.61409649042E+03  0.16151246589E+04  0.14938250112E+04 0.  0.
        3    1    3    3  502    0 -0.40264037938E+03 -0.19642810146E+03 -0.95321833592E+03  0.10532466379E+04  0.10100000352E+00 0. -1.
       -3    1    3    3    0  502  0.40264037938E+03  0.19642810146E+03  0.33912184550E+03  0.56187802097E+03  0.10100000352E+00 0.  1.
</event>
<event>
 5   0  0.5606965E-04  0.1504509E+04  0.7818609E-02  0.8881460E-01
       -1   -1    0    0    0  501  0.00000000000E+00  0.00000000000E+00  0.80849595967E+03  0.80849595969E+03  0.50400001928E-02 0. -1.
        1   -1    0    0  501    0  0.00000000000E+00  0.00000000000E+00 -0.69992571720E+03  0.69992571722E+03  0.50400001928E-02 0.  1.
    10030    2    1    2    0    0  0.00000000000E+00  0.00000000000E+00  0.10857024247E+03  0.15084216769E+04  0.15045093745E+04 0.  0.
        4    1    3    3  502    0 -0.54752115032E+03  0.46021520199E+03 -0.17936177097E+03  0.73739385675E+03  0.12699999809E+01 0.  1.
       -4    1    3    3    0  502  0.54752115032E+03 -0.46021520199E+03  0.28793201344E+03  0.77102782015E+03  0.12699999809E+01 0. -1.
</event>
<event>
 5   0  0.1082667E-03  0.1501905E+04  0.7818609E-02  0.8883187E-01
        2   -1    0    0  501    0  0.00000000000E+00  0.00000000000E+00  0.15131999958E+04  0.15131999958E+04  0.25500000920E-02 0. -1.
       -2   -1    0    0    0  501  0.00000000000E+00  0.00000000000E+00 -0.37267351415E+03  0.37267351416E+03  0.25500000920E-02 0.  1.
    10030    2    1    2    0    0  0.00000000000E+00  0.00000000000E+00  0.11405264816E+04  0.18858735099E+04  0.15019048706E+04 0.  0.
        5    1    3    3  502    0  0.64343381033E+03 -0.30561218510E+03  0.86873310294E+03  0.11234434432E+04  0.46999998093E+01 0.  1.
       -5    1    3    3    0  502 -0.64343381033E+03  0.30561218510E+03  0.27179337868E+03  0.76243006672E+03  0.46999998093E+01 0. -1.
</event>
<event>
 5   0  0.1149716E-03  0.1438605E+04  0.7818609E-02  0.8926339E-01
        2   -1    0    0  501    0  0.00000000000E+00  0.00000000000E+00  0.11396406261E+04  0.11396406261E+04  0.25500000920E-02 0. -1.
       -2   -1    0    0    0  501  0.00000000000E+00  0.00000000000E+00 -0.45399902025E+03  0.45399902026E+03  0.25500000920E-02 0.  1.
    10030    2    1    2    0    0  0.00000000000E+00  0.00000000000E+00  0.68564160581E+03  0.15936396463E+04  0.14386045011E+04 0.  0.
        1    1    3    3  502    0 -0.15663176646E+03  0.66654622642E+03  0.58697830326E+03  0.90186523979E+03  0.50400001928E-02 0.  1.
       -1    1    3    3    0  502  0.15663176646E+03 -0.66654622642E+03  0.98663302544E+02  0.69177440652E+03  0.50400001928E-02 0. -1.
</event>
<event>
 5   0  0.5914645E-04  0.1465615E+04  0.7818609E-02  0.8907646E-01
       -1   -1    0    0    0  501  0.00000000000E+00  0.00000000000E+00  0.48558417143E+03  0.48558417146E+03  0.50400001928E-02 0.  1.
        1   -1    0    0  501    0  0.00000000000E+00  0.00000000000E+00 -0.11058985140E+04  0.11058985140E+04  0.50400001928E-02 0. -1.
    10030    2    1    2    0    0  0.00000000000E+00  0.00000000000E+00 -0.62031434253E+03  0.15914826854E+04  0.14656149748E+04 0.  0.
        2    1    3    3  502    0  0.28941454781E+03 -0.59270580710E+03 -0.65686753205E+03  0.93087910543E+03  0.25500000920E-02 0. -1.
       -2    1    3    3    0  502 -0.28941454781E+03  0.59270580710E+03  0.36553189520E+02  0.66060358001E+03  0.25500000920E-02 0.  1.
</event>
<event>
 5   0  0.6146552E-04  0.1455222E+04  0.7818609E-02  0.8914788E-01
        1   -1    0    0  501    0  0.00000000000E+00  0.00000000000E+00  0.96828608407E+03  0.96828608409E+03  0.50400001928E-02 0. -1.
       -1   -1    0    0    0  501  0.00000000000E+00  0.00000000000E+00 -0.54675792980E+03  0.54675792982E+03  0.50400001928E-02 0.  1.
    10030    2    1    2    0    0  0.00000000000E+00  0.00000000000E+00  0.42152815427E+03  0.15150440139E+04  0.14552224501E+04 0.  0.
        5    1    3    3  502    0 -0.68996865919E+03  0.22777528315E+03  0.17101508260E+03  0.74646271089E+03  0.46999998093E+01 0. -1.
       -5    1    3    3    0  502  0.68996865919E+03 -0.22777528315E+03  0.25051307167E+03  0.76858130302E+03  0.46999998093E+01 0.  1.
</event>
<event>
 5   0  0.1126175E-03  0.1492139E+04  0.7818609E-02  0.8889697E-01
        2   -1    0    0  501    0  0.00000000000E+00  0.00000000000E+00  0.70902065108E+03  0.70902065108E+03  0.25500000920E-02 0.  1.
       -2   -1    0    0    0  501  0.00000000000E+00  0.00000000000E+00 -0.78505476330E+03  0.78505476331E+03  0.25500000920E-02 0. -1.
    10030    2    1    2    0    0  0.00000000000E+00  0.00000000000E+00 -0.76034112223E+02  0.14940754144E+04  0.14921394565E+04 0.  0.
        3    1    3    3  502    0 -0.72549861195E+03  0.15412972745E+03  0.42808305606E+02  0.74292447130E+03  0.10100000352E+00 0.  1.
       -3    1    3    3    0  502  0.72549861195E+03 -0.15412972745E+03 -0.11884241783E+03  0.75115094309E+03  0.10100000352E+00 0. -1.
</event>
<event>
 5   0  0.1126175E-03  0.1496413E+04  0.7818609E-02  0.8886841E-01
       -2   -1    0    0    0  501  0.00000000000E+00  0.00000000000E+00  0.69594836986E+03  0.69594836986E+03  0.25500000920E-02 0. -1.
        2   -1    0    0  501    0  0.00000000000E+00  0.00000000000E+00 -0.80438905344E+03  0.80438905345E+03  0.25500000920E-02 0.  1.
    10030    2    1    2    0    0  0.00000000000E+00  0.00000000000E+00 -0.10844068359E+03  0.15003374233E+04  0.14964133794E+04 0.  0.
        3    1    3    3  502    0 -0.45782931745E+03  0.23737639944E+03 -0.59772856564E+03  0.78945214378E+03  0.10100000352E+00 0.  1.
       -3    1    3    3    0  502  0.45782931745E+03 -0.23737639944E+03  0.48928788206E+03  0.71088527953E+03  0.10100000352E+00 0. -1.
</event>
<event>
 5   0  0.4070625E-04  0.1505262E+04  0.7818609E-02  0.8880961E-01
       -3   -1    0    0    0  501  0.00000000000E+00  0.00000000000E+00  0.88399763654E+03  0.88399764231E+03  0.10100000352E+00 0.  1.
        3   -1    0    0  501    0  0.00000000000E+00  0.00000000000E+00 -0.64078634592E+03  0.64078635388E+03  0.10100000352E+00 0. -1.
    10030    2    1    2    0    0  0.00000000000E+00  0.00000000000E+00  0.24321129062E+03  0.15247839962E+04  0.15052622706E+04 0.  0.
        1    1    3    3  502    0  0.33881157900E+03  0.50556983409E+03 -0.32692288685E+03  0.69084927240E+03  0.50400001928E-02 0. -1.
       -1    1    3    3    0  502 -0.33881157900E+03 -0.50556983409E+03  0.57013417747E+03  0.83393472379E+03  0.50400001928E-02 0.  1.
</event>
<event>
 5   0  0.5914645E-04  0.1517941E+04  0.7818609E-02  0.8872609E-01
        1   -1    0    0  501    0  0.00000000000E+00  0.00000000000E+00  0.10681013174E+04  0.10681013174E+04  0.50400001928E-02 0. -1.
       -1   -1    0    0    0  501  0.00000000000E+00  0.00000000000E+00 -0.53930853092E+03  0.53930853095E+03  0.50400001928E-02 0.  1.
    10030    2    1    2    0    0  0.00000000000E+00  0.00000000000E+00  0.52879278651E+03  0.16074098484E+04  0.15179409111E+04 0.  0.
        2    1    3    3  502    0  0.69303523769E+03 -0.25501227500E+03  0.44995915013E+03  0.86474987012E+03  0.25500000920E-02 0. -1.
       -2    1    3    3    0  502 -0.69303523769E+03  0.25501227500E+03  0.78833636379E+02  0.74265997827E+03  0.25500000920E-02 0.  1.
</event>
<event>
 5   0  0.6146552E-04  0.1504449E+04  0.7818609E-02  0.8881500E-01
       -1   -1    0    0    0  501  0.00000000000E+00  0.00000000000E+00  0.61843533972E+03  0.61843533974E+03  0.50400001928E-02 0.  1.
        1   -1    0    0  501    0  0.00000000000E+00  0.00000000000E+00 -0.91495682891E+03  0.91495682893E+03  0.50400001928E-02 0. -1.
    10030    2    1    2    0    0  0.00000000000E+00  0.00000000000E+00 -0.29652148919E+03  0.15333921687E+04  0.15044489188E+04 0.  0.
        5    1    3    3  502    0  0.62097759423E+02 -0.61880611744E+03 -0.57953520987E+03  0.85009428429E+03  0.46999998093E+01 0. -1.
       -5    1    3    3    0  502 -0.62097759423E+02  0.61880611744E+03  0.28301372068E+03  0.68329788438E+03  0.46999998093E+01 0.  1.
</event>
<event>
 5   0  0.5914645E-04  0.1641573E+04  0.7818609E-02  0.8795407E-01
       -1   -1    0    0    0  501  0.00000000000E+00  0.00000000000E+00  0.48974792739E+03  0.48974792741E+03  0.50400001928E-02 0. -1.
        1   -1    0    0  501    0  0.00000000000E+00  0.00000000000E+00 -0.13755860964E+04  0.13755860964E+04  0.50400001928E-02 0.  1.
    10030    2    1    2    0    0  0.00000000000E+00  0.00000000000E+00 -0.88583816900E+03  0.18653340238E+04  0.16415729526E+04 0.  0.
        2    1    3    3  502    0 -0.22453406347E+03  0.28309981078E+03 -0.12803482391E+04  0.13303580954E+04  0.25500000920E-02 0.  1.
       -2    1    3    3    0  502  0.22453406347E+03 -0.28309981078E+03  0.39451007014E+03  0.53497592841E+03  0.25500000920E-02 0. -1.
</event>
<event>
 5   0  0.6146552E-04  0.1451938E+04  0.7818609E-02  0.8917058E-01
        1   -1    0    0  501    0  0.00000000000E+00  0.00000000000E+00  0.17121476647E+04  0.17121476647E+04  0.50400001928E-02 0. -1.
       -1   -1    0    0    0  501  0.00000000000E+00  0.00000000000E+00 -0.30781858969E+03  0.30781858973E+03  0.50400001928E-02 0.  1.
    10030    2    1    2    0    0  0.00000000000E+00  0.00000000000E+00  0.14043290750E+04  0.20199662544E+04  0.14519378493E+04 0.  0.
        5    1    3    3  502    0 -0.30983578123E+03  0.29611770113E+03  0.15173355530E+04  0.15767096038E+04  0.46999998093E+01 0. -1.
       -5    1    3    3    0  502  0.30983578123E+03 -0.29611770113E+03 -0.11300647802E+03  0.44325665063E+03  0.46999998093E+01 0.  1.
</event>
<event>
 5   0  0.5914645E-04  0.1514595E+04  0.7818609E-02  0.8874805E-01
        1   -1    0    0  501    0  0.00000000000E+00  0.00000000000E+00  0.50904589086E+03  0.50904589088E+03  0.50400001928E-02 0. -1.
       -1   -1    0    0    0  501  0.00000000000E+00  0.00000000000E+00 -0.11266168653E+04  0.11266168653E+04  0.50400001928E-02 0.  1.
    10030    2    1    2    0    0  0.00000000000E+00  0.00000000000E+00 -0.61757097440E+03  0.16356627561E+04  0.15145952408E+04 0.  0.
        2    1    3    3  502    0 -0.58673980288E+03  0.47483691887E+03 -0.37505850713E+03  0.84285383050E+03  0.25500000920E-02 0. -1.
       -2    1    3    3    0  502  0.58673980288E+03 -0.47483691887E+03 -0.24251246726E+03  0.79280892565E+03  0.25500000920E-02 0.  1.
</event>
<event>
 5   0  0.1126175E-03  0.1489684E+04  0.7818609E-02  0.8891342E-01
       -2   -1    0    0    0  501  0.00000000000E+00  0.00000000000E+00  0.11111020345E+04  0.11111020345E+04  0.25500000920E-02 0. -1.
        2   -1    0    0  501    0  0.00000000000E+00  0.00000000000E+00 -0.49931491861E+03  0.49931491862E+03  0.25500000920E-02 0.  1.
    10030    2    1    2    0    0  0.00000000000E+00  0.00000000000E+00  0.61178711590E+03  0.16104169531E+04  0.14896842913E+04 0.  0.
        3    1    3    3  502    0  0.48501172515E+03  0.56500863054E+03  0.28659497926E+03  0.79787706977E+03  0.10100000352E+00 0. -1.
       -3    1    3    3    0  502 -0.48501172515E+03 -0.56500863054E+03  0.32519213664E+03  0.81253988336E+03  0.10100000352E+00 0.  1.
</event>
<event>
 5   0  0.1097156E-03  0.1473295E+04  0.7818609E-02  0.8902408E-01
       -2   -1    0    0    0  501  0.00000000000E+00  0.00000000000E+00  0.32469146853E+03  0.32469146854E+03  0.25500000920E-02 0.  1.
        2   -1    0    0  501    0  0.00000000000E+00  0.00000000000E+00 -0.16712785241E+04  0.16712785241E+04  0.25500000920E-02 0. -1.
    10030    2    1    2    0    0  0.00000000000E+00  0.00000000000E+00 -0.13465870556E+04  0.19959699927E+04  0.14732954603E+04 0.  0.
        2    1    3    3  502    0 -0.12325416242E+03 -0.15327961809E+03  0.28845994430E+03  0.34913517346E+03  0.25500000920E-02 0.  1.
       -2    1    3    3    0  502  0.12325416242E+03  0.15327961809E+03 -0.16350469999E+04  0.16468348192E+04  0.25500000920E-02 0. -1.
</event>
<event>
 5   0  0.1149716E-03  0.1501634E+04  0.7818609E-02  0.8883367E-01
       -2   -1    0    0    0  501  0.00000000000E+00  0.00000000000E+00  0.28153605982E+03  0.28153605984E+03  0.25500000920E-02 0. -1.
        2   -1    0    0  501    0  0.00000000000E+00  0.00000000000E+00 -0.20023239031E+04  0.20023239031E+04  0.25500000920E-02 0.  1.
    10030    2    1    2    0    0  0.00000000000E+00  0.00000000000E+00 -0.17207878433E+04  0.22838599629E+04  0.15016342860E+04 0.  0.
        1    1    3    3  502    0  0.24031934444E+03 -0.48984168252E+03 -0.75937054991E+02  0.55087629972E+03  0.50400001928E-02 0. -1.
       -1    1    3    3    0  502 -0.24031934444E+03  0.48984168252E+03 -0.16448507883E+04  0.17329836632E+04  0.50400001928E-02 0.  1.
</event>
<event>
 5   0  0.5914645E-04  0.1484624E+04  0.7818609E-02  0.8894742E-01
        1   -1    0    0  501    0  0.00000000000E+00  0.00000000000E+00  0.82634194942E+03  0.82634194943E+03  0.50400001928E-02 0. -1.
       -1   -1    0    0    0  501  0.00000000000E+00  0.00000000000E+00 -0.66682722949E+03  0.66682722951E+03  0.50400001928E-02 0.  1.
    10030    2    1    2    0    0  0.00000000000E+00  0.00000000000E+00  0.15951471993E+03  0.14931691789E+04  0.14846242794E+04 0.  0.
        2    1    3    3  502    0  0.19303331689E+03 -0.35965463738E+03  0.70333717994E+03  0.81320139468E+03  0.25500000920E-02 0. -1.
       -2    1    3    3    0  502 -0.19303331689E+03  0.35965463738E+03 -0.54382246001E+03  0.67996778426E+03  0.25500000920E-02 0.  1.
</event>
<event>
 5   0  0.1147755E-03  0.1277832E+04  0.7818609E-02  0.9047332E-01
        2   -1    0    0  501    0  0.00000000000E+00  0.00000000000E+00  0.23849521183E+04  0.23849521183E+04  0.25500000920E-02 0. -1.
       -2   -1    0    0    0  501  0.00000000000E+00  0.00000000000E+00 -0.17116215171E+03  0.17116215173E+03  0.25500000920E-02 0.  1.
    10030    2    1    2    0    0  0.00000000000E+00  0.00000000000E+00  0.22137899665E+04  0.25561142700E+04  0.12778318142E+04 0.  0.
        4    1    3    3  502    0  0.59547020474E+03  0.19338108863E+03  0.13617411154E+04  0.14987733279E+04  0.12699999809E+01 0. -1.
       -4    1    3    3    0  502 -0.59547020474E+03 -0.19338108863E+03  0.85204885118E+03  0.10573409421E+04  0.12699999809E+01 0.  1.
</event>
<event>
 5   0  0.5924403E-04  0.1525759E+04  0.7818609E-02  0.8867502E-01
       -1   -1    0    0    0  501  0.00000000000E+00  0.00000000000E+00  0.47829569682E+03  0.47829569685E+03  0.50400001928E-02 0.  1.
        1   -1    0    0  501    0  0.00000000000E+00  0.00000000000E+00 -0.12167891837E+04  0.12167891837E+04  0.50400001928E-02 0. -1.
    10030    2    1    2    0    0  0.00000000000E+00  0.00000000000E+00 -0.73849348692E+03  0.16950848806E+04  0.15257588676E+04 0.  0.
        1    1    3    3  502    0  0.49037676576E+03  0.57634833663E+03 -0.26188776623E+03  0.80076961709E+03  0.50400001928E-02 0.  1.
       -1    1    3    3    0  502 -0.49037676576E+03 -0.57634833663E+03 -0.47660572069E+03  0.89431526351E+03  0.50400001928E-02 0. -1.
</event>
<event>
 5   0  0.5606965E-04  0.1524422E+04  0.7818609E-02  0.8868373E-01
        1   -1    0    0  501    0  0.00000000000E+00  0.00000000000E+00  0.23063209611E+03  0.23063209617E+03  0.50400001928E-02 0. -1.
       -1   -1    0    0    0  501  0.00000000000E+00  0.00000000000E+00 -0.25190130620E+04  0.25190130620E+04  0.50400001928E-02 0.  1.
    10030    2    1    2    0    0  0.00000000000E+00  0.00000000000E+00 -0.22883809659E+04  0.27496451582E+04  0.15244215463E+04 0.  0.
        4    1    3    3  502    0  0.11256729060E+03  0.17856969534E+03 -0.24652367556E+04  0.24742579503E+04  0.12699999809E+01 0.  1.
       -4    1    3    3    0  502 -0.11256729060E+03 -0.17856969534E+03  0.17685578966E+03  0.27538720784E+03  0.12699999809E+01 0. -1.
</event>
<event>
 5   0  0.1126175E-03  0.1487151E+04  0.7818609E-02  0.8893043E-01
       -2   -1    0    0    0  501  0.00000000000E+00  0.00000000000E+00  0.54242730762E+03  0.54242730762E+03  0.25500000920E-02 0.  1.
        2   -1    0    0  501    0  0.00000000000E+00  0.00000000000E+00 -0.10193155510E+04  0.10193155510E+04  0.25500000920E-02 0. -1.
    10030    2    1    2    0    0  0.00000000000E+00  0.00000000000E+00 -0.47688824339E+03  0.15617428586E+04  0.14871510884E+04 0.  0.
        3    1    3    3  502    0 -0.25970615576E+02 -0.21501324381E+03 -0.98545932631E+03  0.10089773347E+04  0.10100000352E+00 0. -1.
       -3    1    3    3    0  502  0.25970615576E+02  0.21501324381E+03  0.50857108292E+03  0.55276552395E+03  0.10100000352E+00 0.  1.
</event>
<event>
 5   0  0.6146552E-04  0.1507329E+04  0.7818609E-02  0.8879594E-01
        1   -1    0    0  501    0  0.00000000000E+00  0.00000000000E+00  0.13979809804E+04  0.13979809804E+04  0.50400001928E-02 0. -1.
       -1   -1    0    0    0  501  0.00000000000E+00  0.00000000000E+00 -0.40630760597E+03  0.40630760600E+03  0.50400001928E-02 0.  1.
    10030    2    1    2    0    0  0.00000000000E+00  0.00000000000E+00  0.99167337440E+03  0.18042885864E+04  0.15073291682E+04 0.  0.
        5    1    3    3  502    0  0.11501652206E+03 -0.45616461067E+03 -0.20895061776E+03  0.51477898465E+03  0.46999998093E+01 0.  1.
       -5    1    3    3    0  502 -0.11501652206E+03  0.45616461067E+03  0.12006239922E+04  0.12895096017E+04  0.46999998093E+01 0. -1.
</event>
<event>
 5   0  0.1126175E-03  0.1509740E+04  0.7818609E-02  0.8878001E-01
       -2   -1    0    0    0  501  0.00000000000E+00  0.00000000000E+00  0.70409704585E+03  0.70409704585E+03  0.25500000920E-02 0.  1.
        2   -1    0    0  501    0  0.00000000000E+00  0.00000000000E+00 -0.80930451223E+03  0.80930451224E+03  0.25500000920E-02 0. -1.
    10030    2    1    2    0    0  0.00000000000E+00  0.00000000000E+00 -0.10520746639E+03  0.15134015581E+04  0.15097402641E+04 0.  0.
        3    1    3    3  502    0 -0.15794796448E+02  0.62833040488E+03 -0.47168497299E+03  0.78583414105E+03  0.10100000352E+00 0.  1.
       -3    1    3    3    0  502  0.15794796448E+02 -0.62833040488E+03  0.36647750660E+03  0.72756741704E+03  0.10100000352E+00 0. -1.
</event>
<event>
 5   0  0.5606965E-04  0.1513053E+04  0.7818609E-02  0.8875819E-01
        1   -1    0    0  501    0  0.00000000000E+00  0.00000000000E+00  0.13624834633E+04  0.13624834633E+04  0.50400001928E-02 0. -1.
       -1   -1    0    0    0  501  0.00000000000E+00  0.00000000000E+00 -0.42006569138E+03  0.42006569141E+03  0.50400001928E-02 0.  1.
    10030    2    1    2    0    0  0.00000000000E+00  0.00000000000E+00  0.94241777187E+03  0.17825491547E+04  0.15130532813E+04 0.  0.
        4    1    3    3  502    0  0.41235878589E+03 -0.27150519726E+03  0.11465221519E+04  0.12483066523E+04  0.12699999809E+01 0. -1.
       -4    1    3    3    0  502 -0.41235878589E+03  0.27150519726E+03 -0.20410438008E+03  0.53424250234E+03  0.12699999809E+01 0.  1.
</event>
<event>
 5   0  0.6146552E-04  0.1488625E+04  0.7818609E-02  0.8892052E-01
        1   -1    0    0  501    0  0.00000000000E+00  0.00000000000E+00  0.65014597723E+03  0.65014597725E+03  0.50400001928E-02 0.  1.
       -1   -1    0    0    0  501  0.00000000000E+00  0.00000000000E+00 -0.85211839166E+03  0.85211839168E+03  0.50400001928E-02 0. -1.
    10030    2    1    2    0    0  0.00000000000E+00  0.00000000000E+00 -0.20197241443E+03  0.15022643689E+04  0.14886253316E+04 0.  0.
        5    1    3    3  502    0 -0.32454490792E+03  0.34967010398E+03 -0.67751789218E+03  0.82864417158E+03  0.46999998093E+01 0. -1.
       -5    1    3    3    0  502  0.32454490792E+03 -0.34967010398E+03  0.47554547775E+03  0.67362019735E+03  0.46999998093E+01 0.  1.
</event>
<event>
 5   0  0.1082667E-03  0.1484126E+04  0.7818609E-02  0.8895078E-01
       -2   -1    0    0    0  501  0.00000000000E+00  0.00000000000E+00  0.57087976634E+03  0.57087976635E+03  0.25500000920E-02 0. -1.
        2   -1    0    0  501    0  0.00000000000E+00  0.00000000000E+00 -0.96457651541E+03  0.96457651542E+03  0.25500000920E-02 0.  1.
    10030    2    1    2    0    0  0.00000000000E+00  0.00000000000E+00 -0.39369674907E+03  0.15354562818E+04  0.14841256224E+04 0.  0.
        5    1    3    3  502    0  0.61697589715E+03  0.12443426384E+03  0.20980067831E+03  0.66346179867E+03  0.46999998093E+01 0.  1.
       -5    1    3    3    0  502 -0.61697589715E+03 -0.12443426384E+03 -0.60349742739E+03  0.87199448309E+03  0.46999998093E+01 0. -1.
</event>
<event>
 5   0  0.5924403E-04  0.1496412E+04  0.7818609E-02  0.8886842E-01
       -1   -1    0    0    0  501  0.00000000000E+00  0.00000000000E+00  0.13559599793E+04  0.13559599793E+04  0.50400001928E-02 0.  1.
        1   -1    0    0  501    0  0.00000000000E+00  0.00000000000E+00 -0.41285302532E+03  0.41285302535E+03  0.50400001928E-02 0. -1.
    10030    2    1    2    0    0  0.00000000000E+00  0.00000000000E+00  0.94310695398E+03  0.17688130047E+04  0.14964119482E+04 0.  0.
        1    1    3    3  502    0  0.23570739051E+03  0.35599227031E+03  0.11978314471E+04  0.12716480040E+04  0.50400001928E-02 0.  1.
       -1    1    3    3    0  502 -0.23570739051E+03 -0.35599227031E+03 -0.25472449310E+03  0.49716500066E+03  0.50400001928E-02 0. -1.
</event>
<event>
 5   0  0.1082667E-03  0.1476429E+04  0.7818609E-02  0.8900280E-01
       -2   -1    0    0    0  501  0.00000000000E+00  0.00000000000E+00  0.55348471439E+03  0.55348471439E+03  0.25500000920E-02 0. -1.
        2   -1    0    0  501    0  0.00000000000E+00  0.00000000000E+00 -0.98459955930E+03  0.98459955930E+03  0.25500000920E-02 0.  1.
    10030    2    1    2    0    0  0.00000000000E+00  0.00000000000E+00 -0.43111484491E+03  0.15380842737E+04  0.14764292138E+04 0.  0.
        5    1    3    3  502    0  0.79188982551E+02  0.19383851344E+03 -0.95299845488E+03  0.97574197883E+03  0.46999998093E+01 0.  1.
       -5    1    3    3    0  502 -0.79188982551E+02 -0.19383851344E+03  0.52188360997E+03  0.56234229487E+03  0.46999998093E+01 0. -1.
</event>
<event>
 5   0  0.5914645E-04  0.1501984E+04  0.7818609E-02  0.8883135E-01
       -1   -1    0    0    0  501  0.00000000000E+00  0.00000000000E+00  0.15443893131E+04  0.15443893131E+04  0.50400001928E-02 0. -1.
        1   -1    0    0  501    0  0.00000000000E+00  0.00000000000E+00 -0.36518573770E+03  0.36518573773E+03  0.50400001928E-02 0.  1.
    10030    2    1    2    0    0  0.00000000000E+00  0.00000000000E+00  0.11792035754E+04  0.19095750509E+04  0.15019839555E+04 0.  0.
        2    1    3    3  502    0 -0.90299733877E+01 -0.19262966531E+03 -0.33317109885E+03  0.38495546430E+03  0.25500000920E-02 0.  1.
       -2    1    3    3    0  502  0.90299733877E+01  0.19262966531E+03  0.15123746743E+04  0.15246195866E+04  0.25500000920E-02 0. -1.
</event>
<event>
 5   0  0.5840834E-04  0.1498095E+04  0.7818609E-02  0.8885721E-01
       -1   -1    0    0    0  501  0.00000000000E+00  0.00000000000E+00  0.56373494748E+03  0.56373494750E+03  0.50400001928E-02 0. -1.
        1   -1    0    0  501    0  0.00000000000E+00  0.00000000000E+00 -0.99527622675E+03  0.99527622676E+03  0.50400001928E-02 0.  1.
    10030    2    1    2    0    0  0.00000000000E+00  0.00000000000E+00 -0.43154127927E+03  0.15590111743E+04  0.14980947786E+04 0.  0.
        3    1    3    3  502    0  0.60382470098E+03 -0.72704449775E+02 -0.67079346425E+03  0.90545794403E+03  0.10100000352E+00 0.  1.
       -3    1    3    3    0  502 -0.60382470098E+03  0.72704449775E+02  0.23925218498E+03  0.65355323023E+03  0.10100000352E+00 0. -1.
</event>
<event>
 5   0  0.6146552E-04  0.1490924E+04  0.7818609E-02  0.8890511E-01
       -1   -1    0    0    0  501  0.00000000000E+00  0.00000000000E+00  0.24658809551E+03  0.24658809556E+03  0.50400001928E-02 0.  1.
        1   -1    0    0  501    0  0.00000000000E+00  0.00000000000E+00 -0.22536116285E+04  0.22536116285E+04  0.50400001928E-02 0. -1.
    10030    2    1    2    0    0  0.00000000000E+00  0.00000000000E+00 -0.20070235329E+04  0.25001997240E+04  0.14909242765E+04 0.  0.
        5    1    3    3  502    0  0.58880822150E+03  0.12326752816E+03 -0.17417523440E+04  0.18427190027E+04  0.46999998093E+01 0. -1.
       -5    1    3    3    0  502 -0.58880822150E+03 -0.12326752816E+03 -0.26527118897E+03  0.65748072131E+03  0.46999998093E+01 0.  1.
</event>
<event>
 5   0  0.1097156E-03  0.1498712E+04  0.7818609E-02  0.8885310E-01
        2   -1    0    0  501    0  0.00000000000E+00  0.00000000000E+00  0.10020120406E+04  0.10020120407E+04  0.25500000920E-02 0.  1.
       -2   -1    0    0    0  501  0.00000000000E+00  0.00000000000E+00 -0.56040721312E+03  0.56040721313E+03  0.25500000920E-02 0. -1.
    10030    2    1    2    0    0  0.00000000000E+00  0.00000000000E+00  0.44160482753E+03  0.15624192538E+04  0.14987124811E+04 0.  0.
        2    1    3    3  502    0  0.49058369627E+03 -0.37002242546E+03  0.66792253668E+03  0.90758441668E+03  0.25500000920E-02 0.  1.
       -2    1    3    3    0  502 -0.49058369627E+03  0.37002242546E+03 -0.22631770916E+03  0.65483483710E+03  0.25500000920E-02 0. -1.
</event>
<event>
 5   0  0.1149716E-03  0.1539205E+04  0.7818609E-02  0.8858793E-01
       -2   -1    0    0    0  501  0.00000000000E+00  0.00000000000E+00  0.37887591734E+03  0.37887591735E+03  0.25500000920E-02 0. -1.
        2   -1    0    0  501    0  0.00000000000E+00  0.00000000000E+00 -0.15632762956E+04  0.15632762956E+04  0.25500000920E-02 0.  1.
    10030    2    1    2    0    0  0.00000000000E+00  0.00000000000E+00 -0.11844003782E+04  0.19421522129E+04  0.15392046525E+04 0.  0.
        1    1    3    3  502    0 -0.38364020713E+03 -0.44334721586E+03  0.36863778304E+02  0.58744829604E+03  0.50400001928E-02 0. -1.
       -1    1    3    3    0  502  0.38364020713E+03  0.44334721586E+03 -0.12212641565E+04  0.13547039169E+04  0.50400001928E-02 0.  1.
</event>
<event>
 5   0  0.5924403E-04  0.1495902E+04  0.7818609E-02  0.8887183E-01
       -1   -1    0    0    0  501  0.00000000000E+00  0.00000000000E+00  0.34028883964E+03  0.34028883968E+03  0.50400001928E-02 0.  1.
        1   -1    0    0  501    0  0.00000000000E+00  0.00000000000E+00 -0.16439868881E+04  0.16439868881E+04  0.50400001928E-02 0. -1.
    10030    2    1    2    0    0  0.00000000000E+00  0.00000000000E+00 -0.13036980485E+04  0.19842757278E+04  0.14959015885E+04 0.  0.
        1    1    3    3  502    0 -0.65563366918E+03 -0.31882023632E+03 -0.43017076221E+03  0.84649201764E+03  0.50400001928E-02 0. -1.
       -1    1    3    3    0  502  0.65563366918E+03  0.31882023632E+03 -0.87352728626E+03  0.11377837102E+04  0.50400001928E-02 0.  1.
</event>
<event>
 5   0  0.5840834E-04  0.1495779E+04  0.7818609E-02  0.8887265E-01
        1   -1    0    0  501    0  0.00000000000E+00  0.00000000000E+00  0.59005482735E+03  0.59005482737E+03  0.50400001928E-02 0.  1.
       -1   -1    0    0    0  501  0.00000000000E+00  0.00000000000E+00 -0.94794384365E+03  0.94794384366E+03  0.50400001928E-02 0. -1.
    10030    2    1    2    0    0  0.00000000000E+00  0.00000000000E+00 -0.35788901630E+03  0.15379986710E+04  0.14957791829E+04 0.  0.
        3    1    3    3  502    0 -0.49267409397E+02 -0.59701912081E+02  0.58592499920E+03  0.59101582958E+03  0.10100000352E+00 0.  1.
       -3    1    3    3    0  502  0.49267409397E+02  0.59701912081E+02 -0.94381401550E+03  0.94698284144E+03  0.10100000352E+00 0. -1.
</event>
<event>
 5   0  0.5840834E-04  0.1510378E+04  0.7818609E-02  0.8877581E-01
        1   -1    0    0  501    0  0.00000000000E+00  0.00000000000E+00  0.42969257574E+03  0.42969257577E+03  0.50400001928E-02 0.  1.
       -1   -1    0    0    0  501  0.00000000000E+00  0.00000000000E+00 -0.13272527982E+04  0.13272527982E+04  0.50400001928E-02 0. -1.
    10030    2    1    2    0    0  0.00000000000E+00  0.00000000000E+00 -0.89756022241E+03  0.17569453739E+04  0.15103783281E+04 0.  0.
        3    1    3    3  502    0 -0.12374488852E+03  0.52314466352E+03  0.16819963679E+03  0.56327991658E+03  0.10100000352E+00 0.  1.
       -3    1    3    3    0  502  0.12374488852E+03 -0.52314466352E+03 -0.10657598592E+04  0.11936654574E+04  0.10100000352E+00 0. -1.
</event>
<event>
 5   0  0.5606965E-04  0.1512943E+04  0.7818609E-02  0.8875891E-01
       -1   -1    0    0    0  501  0.00000000000E+00  0.00000000000E+00  0.41544435510E+03  0.41544435513E+03  0.50400001928E-02 0.  1.
        1   -1    0    0  501    0  0.00000000000E+00  0.00000000000E+00 -0.13774394898E+04  0.13774394898E+04  0.50400001928E-02 0. -1.
    10030    2    1    2    0    0  0.00000000000E+00  0.00000000000E+00 -0.96199513467E+03  0.17928838449E+04  0.15129434365E+04 0.  0.
        4    1    3    3  502    0 -0.23139939637E+03  0.45535623398E+03  0.18023752973E+03  0.54164763499E+03  0.12699999809E+01 0.  1.
       -4    1    3    3    0  502  0.23139939637E+03 -0.45535623398E+03 -0.11422326644E+04  0.12512362099E+04  0.12699999809E+01 0. -1.
</event>
<event>
 5   0  0.1149716E-03  0.1478979E+04  0.7818609E-02  0.8898553E-01
       -2   -1    0    0    0  501  0.00000000000E+00  0.00000000000E+00  0.38720400421E+03  0.38720400421E+03  0.25500000920E-02 0. -1.
        2   -1    0    0  501    0  0.00000000000E+00  0.00000000000E+00 -0.14122905272E+04  0.14122905272E+04  0.25500000920E-02 0.  1.
    10030    2    1    2    0    0  0.00000000000E+00  0.00000000000E+00 -0.10250865230E+04  0.17994945314E+04  0.14789787656E+04 0.  0.
        1    1    3    3  502    0  0.43371113948E+03  0.35860919163E+03 -0.10962347575E+04  0.12322485741E+04  0.50400001928E-02 0.  1.
       -1    1    3    3    0  502 -0.43371113948E+03 -0.35860919163E+03  0.71148234461E+02  0.56724595734E+03  0.50400001928E-02 0. -1.
</event>
<event>
 5   0  0.1126175E-03  0.1528722E+04  0.7818609E-02  0.8865575E-01
        2   -1    0    0  501    0  0.00000000000E+00  0.00000000000E+00  0.27335828179E+04  0.27335828179E+04  0.25500000920E-02 0. -1.
       -2   -1    0    0    0  501  0.00000000000E+00  0.00000000000E+00 -0.21372962517E+03  0.21372962519E+03  0.25500000920E-02 0.  1.
    10030    2    1    2    0    0  0.00000000000E+00  0.00000000000E+00  0.25198531927E+04  0.29473124431E+04  0.15287218597E+04 0.  0.
        3    1    3    3  502    0 -0.11583331797E+03 -0.73377838625E+03  0.91289649637E+03  0.11769571364E+04  0.10100000352E+00 0.  1.
       -3    1    3    3    0  502  0.11583331797E+03  0.73377838625E+03  0.16069566964E+04  0.17703553067E+04  0.10100000352E+00 0. -1.
</event>
<event>
 5   0  0.5840834E-04  0.1477937E+04  0.7818609E-02  0.8899258E-01
       -1   -1    0    0    0  501  0.00000000000E+00  0.00000000000E+00  0.59672848828E+03  0.59672848830E+03  0.50400001928E-02 0. -1.
        1   -1    0    0  501    0  0.00000000000E+00  0.00000000000E+00 -0.91511427142E+03  0.91511427144E+03  0.50400001928E-02 0.  1.
    10030    2    1    2    0    0  0.00000000000E+00  0.00000000000E+00 -0.31838578314E+03  0.15118427597E+04  0.14779374220E+04 0.  0.
        3    1    3    3  502    0  0.17465324308E+03  0.51866503879E+03 -0.66712977191E+03  0.86289009761E+03  0.10100000352E+00 0.  1.
       -3    1    3    3    0  502 -0.17465324308E+03 -0.51866503879E+03  0.34874398876E+03  0.64895266213E+03  0.10100000352E+00 0. -1.
</event>
<event>
 5   0  0.1147755E-03  0.1491440E+04  0.7818609E-02  0.8890165E-01
        2   -1    0    0  501    0  0.00000000000E+00  0.00000000000E+00  0.67206389773E+03  0.67206389773E+03  0.25500000920E-02 0.  1.
       -2   -1    0    0    0  501  0.00000000000E+00  0.00000000000E+00 -0.82744837542E+03  0.82744837542E+03  0.25500000920E-02 0. -1.
    10030    2    1    2    0    0  0.00000000000E+00  0.00000000000E+00 -0.15538447769E+03  0.14995122732E+04  0.14914398149E+04 0.  0.
        4    1    3    3  502    0  0.27765143114E+03  0.88469907989E+02  0.61244808795E+03  0.67824148736E+03  0.12699999809E+01 0.  1.
       -4    1    3    3    0  502 -0.27765143114E+03 -0.88469907989E+02 -0.76783256564E+03  0.82127078579E+03  0.12699999809E+01 0. -1.
</event>
<event>
 5   0  0.5840834E-04  0.1489942E+04  0.7818609E-02  0.8891169E-01
        1   -1    0    0  501    0  0.00000000000E+00  0.00000000000E+00  0.48941565682E+03  0.48941565685E+03  0.50400001928E-02 0. -1.
       -1   -1    0    0    0  501  0.00000000000E+00  0.00000000000E+00 -0.11339677420E+04  0.11339677420E+04  0.50400001928E-02 0.  1.
    10030    2    1    2    0    0  0.00000000000E+00  0.00000000000E+00 -0.64455208517E+03  0.16233833989E+04  0.14899416999E+04 0.  0.
        3    1    3    3  502    0  0.54334539639E+03  0.14051461853E+03  0.21151242808E+03  0.59975502935E+03  0.10100000352E+00 0. -1.
       -3    1    3    3    0  502 -0.54334539639E+03 -0.14051461853E+03 -0.85606451325E+03  0.10236283695E+04  0.10100000352E+00 0.  1.
</event>
<event>
 5   0  0.5840834E-04  0.1524887E+04  0.7818609E-02  0.8868070E-01
        1   -1    0    0  501    0  0.00000000000E+00  0.00000000000E+00  0.39590367789E+03  0.39590367792E+03  0.50400001928E-02 0. -1.
       -1   -1    0    0    0  501  0.00000000000E+00  0.00000000000E+00 -0.14683377799E+04  0.14683377799E+04  0.50400001928E-02 0.  1.
    10030    2    1    2    0    0  0.00000000000E+00  0.00000000000E+00 -0.10724341020E+04  0.18642414579E+04  0.15248873106E+04 0.  0.
        3    1    3    3  502    0 -0.43945530417E+03  0.20033498442E+03 -0.12574818592E+04  0.13470396085E+04  0.10100000352E+00 0.  1.
       -3    1    3    3    0  502  0.43945530417E+03 -0.20033498442E+03  0.18504775720E+03  0.51720184937E+03  0.10100000352E+00 0. -1.
</event>
<event>
 5   0  0.1082667E-03  0.1509086E+04  0.7818609E-02  0.8878433E-01
        2   -1    0    0  501    0  0.00000000000E+00  0.00000000000E+00  0.84005084855E+03  0.84005084855E+03  0.25500000920E-02 0.  1.
       -2   -1    0    0    0  501  0.00000000000E+00  0.00000000000E+00 -0.67773913707E+03  0.67773913708E+03  0.25500000920E-02 0. -1.
    10030    2    1    2    0    0  0.00000000000E+00  0.00000000000E+00  0.16231171147E+03  0.15177899856E+04  0.15090862629E+04 0.  0.
        5    1    3    3  502    0  0.41529455795E+03 -0.12980856763E+03  0.70114723597E+03  0.82519656482E+03  0.46999998093E+01 0.  1.
       -5    1    3    3    0  502 -0.41529455795E+03  0.12980856763E+03 -0.53883552449E+03  0.69259342081E+03  0.46999998093E+01 0. -1.
</event>
<event>
 5   0  0.5606965E-04  0.1485508E+04  0.7818609E-02  0.8894147E-01
        1   -1    0    0  501    0  0.00000000000E+00  0.00000000000E+00  0.11967706250E+04  0.11967706250E+04  0.50400001928E-02 0. -1.
       -1   -1    0    0    0  501  0.00000000000E+00  0.00000000000E+00 -0.46097684988E+03  0.46097684991E+03  0.50400001928E-02 0.  1.
    10030    2    1    2    0    0  0.00000000000E+00  0.00000000000E+00  0.73579377515E+03  0.16577474750E+04  0.14855080650E+04 0.  0.
        4    1    3    3  502    0  0.72041899311E+03  0.56406595843E+02  0.17623747539E+03  0.74380541159E+03  0.12699999809E+01 0.  1.
       -4    1    3    3    0  502 -0.72041899311E+03 -0.56406595843E+02  0.55955629976E+03  0.91394206336E+03  0.12699999809E+01 0. -1.
</event>
<event>
 5   0  0.5840834E-04  0.1499143E+04  0.7818609E-02  0.8885023E-01
        1   -1    0    0  501    0  0.00000000000E+00  0.00000000000E+00  0.79799751000E+03  0.79799751001E+03  0.50400001928E-02 0.  1.
       -1   -1    0    0    0  501  0.00000000000E+00  0.00000000000E+00 -0.70408448391E+03  0.70408448393E+03  0.50400001928E-02 0. -1.
    10030    2    1    2    0    0  0.00000000000E+00  0.00000000000E+00  0.93913026088E+02  0.15020819939E+04  0.14991433087E+04 0.  0.
        3    1    3    3  502    0 -0.16071194051E+02  0.71528928254E+03  0.27091337425E+03  0.76504320633E+03  0.10100000352E+00 0. -1.
       -3    1    3    3    0  502  0.16071194051E+02 -0.71528928254E+03 -0.17700034816E+03  0.73703878762E+03  0.10100000352E+00 0.  1.
</event>
<event>
 5   0  0.1097156E-03  0.1499682E+04  0.7818609E-02  0.8884664E-01
       -2   -1    0    0    0  501  0.00000000000E+00  0.00000000000E+00  0.57656413281E+03  0.57656413281E+03  0.25500000920E-02 0. -1.
        2   -1    0    0  501    0  0.00000000000E+00  0.00000000000E+00 -0.97519343424E+03  0.97519343424E+03  0.25500000920E-02 0.  1.
    10030    2    1    2    0    0  0.00000000000E+00  0.00000000000E+00 -0.39862930143E+03  0.15517575671E+04  0.14996820420E+04 0.  0.
        2    1    3    3  502    0 -0.19144973234E+03  0.39486604123E+03  0.42981935506E+03  0.61426123801E+03  0.25500000920E-02 0. -1.
       -2    1    3    3    0  502  0.19144973234E+03 -0.39486604123E+03 -0.82844865649E+03  0.93749632905E+03  0.25500000920E-02 0.  1.
</event>
<event>
 5   0  0.5606965E-04  0.1490693E+04  0.7818609E-02  0.8890666E-01
       -1   -1    0    0    0  501  0.00000000000E+00  0.00000000000E+00  0.37162832773E+03  0.37162832776E+03  0.50400001928E-02 0. -1.
        1   -1    0    0  501    0  0.00000000000E+00  0.00000000000E+00 -0.14948836288E+04  0.14948836288E+04  0.50400001928E-02 0.  1.
    10030    2    1    2    0    0  0.00000000000E+00  0.00000000000E+00 -0.11232553011E+04  0.18665119566E+04  0.14906925949E+04 0.  0.
        4    1    3    3  502    0  0.60766225280E+03  0.18524891153E+03 -0.10497403052E+04  0.12269991418E+04  0.12699999809E+01 0. -1.
       -4    1    3    3    0  502 -0.60766225280E+03 -0.18524891153E+03 -0.73514995825E+02  0.63951281474E+03  0.12699999809E+01 0.  1.
</event>
<event>
 5   0  0.1149716E-03  0.1499523E+04  0.7818609E-02  0.8884770E-01
        2   -1    0    0  501    0  0.00000000000E+00  0.00000000000E+00  0.22301227991E+04  0.22301227991E+04  0.25500000920E-02 0.  1.
       -2   -1    0    0    0  501  0.00000000000E+00  0.00000000000E+00 -0.25206794046E+03  0.25206794048E+03  0.25500000920E-02 0. -1.
    10030    2    1    2    0    0  0.00000000000E+00  0.00000000000E+00  0.19780548587E+04  0.24821907396E+04  0.14995232055E+04 0.  0.
        1    1    3    3  502    0 -0.86707365664E+02  0.62275528071E+02 -0.23942305674E+03  0.26214463333E+03  0.50400001928E-02 0. -1.
       -1    1    3    3    0  502  0.86707365664E+02 -0.62275528071E+02  0.22174779154E+04  0.22200461063E+04  0.50400001928E-02 0.  1.
</event>
<event>
 5   0  0.5914645E-04  0.1480345E+04  0.7818609E-02  0.8897630E-01
        1   -1    0    0  501    0  0.00000000000E+00  0.00000000000E+00  0.10974079131E+04  0.10974079131E+04  0.50400001928E-02 0.  1.
       -1   -1    0    0    0  501  0.00000000000E+00  0.00000000000E+00 -0.49922641494E+03  0.49922641497E+03  0.50400001928E-02 0. -1.
    10030    2    1    2    0    0  0.00000000000E+00  0.00000000000E+00  0.59818149815E+03  0.15966343281E+04  0.14803445791E+04 0.  0.
        2    1    3    3  502    0  0.47576810027E+03  0.14313729873E+03 -0.29265364227E+03  0.57661922086E+03  0.25500000920E-02 0. -1.
       -2    1    3    3    0  502 -0.47576810027E+03 -0.14313729873E+03  0.89083514042E+03  0.10200151072E+04  0.25500000920E-02 0.  1.
</event>
<event>
 5   0  0.5606965E-04  0.1497961E+04  0.7818609E-02  0.8885810E-01
       -1   -1    0    0    0  501  0.00000000000E+00  0.00000000000E+00  0.42249299071E+03  0.42249299074E+03  0.50400001928E-02 0.  1.
        1   -1    0    0  501    0  0.00000000000E+00  0.00000000000E+00 -0.13277658288E+04  0.13277658288E+04  0.50400001928E-02 0. -1.
    10030    2    1    2    0    0  0.00000000000E+00  0.00000000000E+00 -0.90527283807E+03  0.17502588195E+04  0.14979609554E+04 0.  0.
        4    1    3    3  502    0  0.37551070606E+03  0.64120751009E+03 -0.34293618280E+03  0.81839000467E+03  0.12699999809E+01 0.  1.
       -4    1    3    3    0  502 -0.37551070606E+03 -0.64120751009E+03 -0.56233665526E+03  0.93186881486E+03  0.12699999809E+01 0. -1.
</event>
<event>
 5   0  0.1126175E-03  0.1509164E+04  0.7818609E-02  0.8878382E-01
       -2   -1    0    0    0  501  0.00000000000E+00  0.00000000000E+00  0.57429779576E+03  0.57429779576E+03  0.25500000920E-02 0.  1.
        2   -1    0    0  501    0  0.00000000000E+00  0.00000000000E+00 -0.99146156582E+03  0.99146156582E+03  0.25500000920E-02 0. -1.
    10030    2    1    2    0    0  0.00000000000E+00  0.00000000000E+00 -0.41716377006E+03  0.15657593616E+04  0.15091642612E+04 0.  0.
        3    1    3    3  502    0 -0.32406123457E+03  0.68123536172E+03 -0.19070553482E+03  0.77811690189E+03  0.10100000352E+00 0.  1.
       -3    1    3    3    0  502  0.32406123457E+03 -0.68123536172E+03 -0.22645823525E+03  0.78764245969E+03  0.10100000352E+00 0. -1.
</event>
<event>
 5   0  0.5840834E-04  0.1497281E+04  0.7818609E-02  0.8886263E-01
        1   -1    0    0  501    0  0.00000000000E+00  0.00000000000E+00  0.28323607952E+04  0.28323607952E+04  0.50400001928E-02 0.  1.
       -1   -1    0    0    0  501  0.00000000000E+00  0.00000000000E+00 -0.19787837853E+03  0.19787837860E+03  0.50400001928E-02 0. -1.
    10030    2    1    2    0    0  0.00000000000E+00  0.00000000000E+00  0.26344824167E+04  0.30302391738E+04  0.14972814855E+04 0.  0.
        3    1    3    3  502    0 -0.43911540351E+03  0.20104747839E+03  0.24749350489E+04  0.25216157385E+04  0.10100000352E+00 0.  1.
       -3    1    3    3    0  502  0.43911540351E+03 -0.20104747839E+03  0.15954736775E+03  0.50862343528E+03  0.10100000352E+00 0. -1.
</event>
<event>
 5   0  0.1097156E-03  0.1537923E+04  0.7818609E-02  0.8859619E-01
        2   -1    0    0  501    0  0.00000000000E+00  0.00000000000E+00  0.46689973929E+03  0.46689973930E+03  0.25500000920E-02 0.  1.
       -2   -1    0    0    0  501  0.00000000000E+00  0.00000000000E+00 -0.12664426371E+04  0.12664426371E+04  0.25500000920E-02 0. -1.
    10030    2    1    2    0    0  0.00000000000E+00  0.00000000000E+00 -0.79954289780E+03  0.17333423764E+04  0.15379229332E+04 0.  0.
        2    1    3    3  502    0  0.46606331381E+03 -0.57284127897E+02 -0.10860852319E+04  0.11832487544E+04  0.25500000920E-02 0. -1.
       -2    1    3    3    0  502 -0.46606331381E+03  0.57284127897E+02  0.28654233407E+03  0.55009362204E+03  0.25500000920E-02 0.  1.
</event>
<event>
 5   0  0.1126175E-03  0.1407748E+04  0.7818609E-02  0.8948229E-01
       -2   -1    0    0    0  501  0.00000000000E+00  0.00000000000E+00  0.62516925341E+03  0.62516925341E+03  0.25500000920E-02 0.  1.
        2   -1    0    0  501    0  0.00000000000E+00  0.00000000000E+00 -0.79248717108E+03  0.79248717108E+03  0.25500000920E-02 0. -1.
    10030    2    1    2    0    0  0.00000000000E+00  0.00000000000E+00 -0.16731791767E+03  0.14176564245E+04  0.14077480074E+04 0.  0.
        3    1    3    3  502    0 -0.33414815758E+03 -0.35782262348E+03 -0.59293235292E+03  0.76893485188E+03  0.10100000352E+00 0. -1.
       -3    1    3    3    0  502  0.33414815758E+03  0.35782262348E+03  0.42561443525E+03  0.64872157262E+03  0.10100000352E+00 0.  1.
</event>
<event>
 5   0  0.1097156E-03  0.1500911E+04  0.7818609E-02  0.8883847E-01
       -2   -1    0    0    0  501  0.00000000000E+00  0.00000000000E+00  0.68928536511E+03  0.68928536511E+03  0.25500000920E-02 0.  1.
        2   -1    0    0  501    0  0.00000000000E+00  0.00000000000E+00 -0.81705448258E+03  0.81705448258E+03  0.25500000920E-02 0. -1.
    10030    2    1    2    0    0  0.00000000000E+00  0.00000000000E+00 -0.12776911747E+03  0.15063398477E+04  0.15009113196E+04 0.  0.
        2    1    3    3  502    0 -0.51309387860E+03 -0.41987336239E+03  0.28899021074E+03  0.72323876459E+03  0.25500000920E-02 0.  1.
       -2    1    3    3    0  502  0.51309387860E+03  0.41987336239E+03 -0.41675932821E+03  0.78310108310E+03  0.25500000920E-02 0. -1.
</event>
<event>
 5   0  0.1097156E-03  0.1484267E+04  0.7818609E-02  0.8894983E-01
        2   -1    0    0  501    0  0.00000000000E+00  0.00000000000E+00  0.15573331752E+04  0.15573331752E+04  0.25500000920E-02 0.  1.
       -2   -1    0    0    0  501  0.00000000000E+00  0.00000000000E+00 -0.35365721148E+03  0.35365721148E+03  0.25500000920E-02 0. -1.
    10030    2    1    2    0    0  0.00000000000E+00  0.00000000000E+00  0.12036759637E+04  0.19109903867E+04  0.14842669680E+04 0.  0.
        2    1    3    3  502    0  0.67290051482E+03  0.71458745604E+02  0.20949819994E+03  0.70837204275E+03  0.25500000920E-02 0. -1.
       -2    1    3    3    0  502 -0.67290051482E+03 -0.71458745604E+02  0.99417776377E+03  0.12026183439E+04  0.25500000920E-02 0.  1.
</event>
<event>
 5   0  0.6146552E-04  0.1503994E+04  0.7818609E-02  0.8881802E-01
        1   -1    0    0  501    0  0.00000000000E+00  0.00000000000E+00  0.10533307543E+04  0.10533307543E+04  0.50400001928E-02 0. -1.
       -1   -1    0    0    0  501  0.00000000000E+00  0.00000000000E+00 -0.53686760786E+03  0.53686760788E+03  0.50400001928E-02 0.  1.
    10030    2    1    2    0    0  0.00000000000E+00  0.00000000000E+00  0.51646314646E+03  0.15901983622E+04  0.15039935670E+04 0.  0.
        5    1    3    3  502    0  0.10991274525E+03  0.63791150823E+03 -0.14641186382E+03  0.66367946162E+03  0.46999998093E+01 0.  1.
       -5    1    3    3    0  502 -0.10991274525E+03 -0.63791150823E+03  0.66287501028E+03  0.92651890060E+03  0.46999998093E+01 0. -1.
</event>
<event>
 5   0  0.5924403E-04  0.1340026E+04  0.7818609E-02  0.8998412E-01
        1   -1    0    0  501    0  0.00000000000E+00  0.00000000000E+00  0.20795461529E+04  0.20795461529E+04  0.50400001928E-02 0. -1.
       -1   -1    0    0    0  501  0.00000000000E+00  0.00000000000E+00 -0.21587292515E+03  0.21587292520E+03  0.50400001928E-02 0.  1.
    10030    2    1    2    0    0  0.00000000000E+00  0.00000000000E+00  0.18636732278E+04  0.22954190781E+04  0.13400264342E+04 0.  0.
        1    1    3    3  502    0 -0.59839522921E+03  0.29292039287E+03  0.10534270544E+04  0.12464300084E+04  0.50400001928E-02 0.  1.
       -1    1    3    3    0  502  0.59839522921E+03 -0.29292039287E+03  0.81024617340E+03  0.10489890697E+04  0.50400001928E-02 0. -1.
</event>
<event>
 5   0  0.1097156E-03  0.1507013E+04  0.7818609E-02  0.8879803E-01
        2   -1    0    0  501    0  0.00000000000E+00  0.00000000000E+00  0.12433085959E+04  0.12433085959E+04  0.25500000920E-02 0. -1.
       -2   -1    0    0    0  501  0.00000000000E+00  0.00000000000E+00 -0.45666219253E+03  0.45666219253E+03  0.25500000920E-02 0.  1.
    10030    2    1    2    0    0  0.00000000000E+00  0.00000000000E+00  0.78664640337E+03  0.16999707884E+04  0.15070129786E+04 0.  0.
        2    1    3    3  502    0  0.57746122081E+03  0.18744194893E+03  0.89675780183E+03  0.10829452899E+04  0.25500000920E-02 0. -1.
       -2    1    3    3    0  502 -0.57746122081E+03 -0.18744194893E+03 -0.11011139846E+03  0.61702549853E+03  0.25500000920E-02 0.  1.
</event>
<event>
 5   0  0.1097156E-03  0.1500455E+04  0.7818609E-02  0.8884151E-01
       -2   -1    0    0    0  501  0.00000000000E+00  0.00000000000E+00  0.73983766979E+03  0.73983766979E+03  0.25500000920E-02 0. -1.
        2   -1    0    0  501    0  0.00000000000E+00  0.00000000000E+00 -0.76076288668E+03  0.76076288668E+03  0.25500000920E-02 0.  1.
    10030    2    1    2    0    0  0.00000000000E+00  0.00000000000E+00 -0.20925216891E+02  0.15006005565E+04  0.15004546529E+04 0.  0.
        2    1    3    3  502    0  0.74256495941E+03  0.75282262535E+02 -0.86436457391E+02  0.75135970025E+03  0.25500000920E-02 0. -1.
       -2    1    3    3    0  502 -0.74256495941E+03 -0.75282262535E+02  0.65511240500E+02  0.74924085622E+03  0.25500000920E-02 0.  1.
</event>
<event>
 5   0  0.4070625E-04  0.1430058E+04  0.7818609E-02  0.8932344E-01
       -3   -1    0    0    0  501  0.00000000000E+00  0.00000000000E+00  0.67308174119E+03  0.67308174877E+03  0.10100000352E+00 0. -1.
        3   -1    0    0  501    0  0.00000000000E+00  0.00000000000E+00 -0.75959061908E+03  0.75959062580E+03  0.10100000352E+00 0.  1.
    10030    2    1    2    0    0  0.00000000000E+00  0.00000000000E+00 -0.86508877893E+02  0.14326723746E+04  0.14300581621E+04 0.  0.
        5    1    3    3  502    0  0.25487274771E+03  0.53638309672E+03 -0.44220037124E+03  0.74042568992E+03  0.46999998093E+01 0.  1.
       -5    1    3    3    0  502 -0.25487274771E+03 -0.53638309672E+03  0.35569149334E+03  0.69224668465E+03  0.46999998093E+01 0. -1.
</event>
<event>
 5   0  0.1126175E-03  0.1473494E+04  0.7818609E-02  0.8902273E-01
        2   -1    0    0  501    0  0.00000000000E+00  0.00000000000E+00  0.22482533945E+04  0.22482533945E+04  0.25500000920E-02 0. -1.
       -2   -1    0    0    0  501  0.00000000000E+00  0.00000000000E+00 -0.24143018205E+03  0.24143018206E+03  0.25500000920E-02 0.  1.
    10030    2    1    2    0    0  0.00000000000E+00  0.00000000000E+00  0.20068232124E+04  0.24896835766E+04  0.14734941145E+04 0.  0.
        3    1    3    3  502    0  0.36289852933E+03 -0.60889715756E+03  0.66402767030E+03  0.97127949026E+03  0.10100000352E+00 0.  1.
       -3    1    3    3    0  502 -0.36289852933E+03  0.60889715756E+03  0.13427955421E+04  0.15184040863E+04  0.10100000352E+00 0. -1.
</event>
<event>
 5   0  0.5914645E-04  0.1509481E+04  0.7818609E-02  0.8878173E-01
       -1   -1    0    0    0  501  0.00000000000E+00  0.00000000000E+00  0.65795236957E+03  0.65795236959E+03  0.50400001928E-02 0. -1.
        1   -1    0    0  501    0  0.00000000000E+00  0.00000000000E+00 -0.86576660525E+03  0.86576660527E+03  0.50400001928E-02 0.  1.
    10030    2    1    2    0    0  0.00000000000E+00  0.00000000000E+00 -0.20781423568E+03  0.15237189749E+04  0.15094809564E+04 0.  0.
        2    1    3    3  502    0  0.63828913658E+03 -0.30286801554E+02  0.30150646454E+03  0.70656667087E+03  0.25500000920E-02 0. -1.
       -2    1    3    3    0  502 -0.63828913658E+03  0.30286801554E+02 -0.50932070022E+03  0.81715230398E+03  0.25500000920E-02 0.  1.
</event>
<event>
 5   0  0.5924403E-04  0.1593781E+04  0.7818609E-02  0.8824377E-01
        1   -1    0    0  501    0  0.00000000000E+00  0.00000000000E+00  0.11310587211E+04  0.11310587211E+04  0.50400001928E-02 0.  1.
       -1   -1    0    0    0  501  0.00000000000E+00  0.00000000000E+00 -0.56145169805E+03  0.56145169808E+03  0.50400001928E-02 0. -1.
    10030    2    1    2    0    0  0.00000000000E+00  0.00000000000E+00  0.56960702304E+03  0.16925104192E+04  0.15937814650E+04 0.  0.
        1    1    3    3  502    0 -0.68570624303E+03  0.90890164564E+01 -0.14624622780E+03  0.70118729390E+03  0.50400001928E-02 0. -1.
       -1    1    3    3    0  502  0.68570624303E+03 -0.90890164564E+01  0.71585325084E+03  0.99132312528E+03  0.50400001928E-02 0.  1.
</event>
<event>
 5   0  0.1097156E-03  0.1494119E+04  0.7818609E-02  0.8888373E-01
       -2   -1    0    0    0  501  0.00000000000E+00  0.00000000000E+00  0.46057841650E+03  0.46057841651E+03  0.25500000920E-02 0.  1.
        2   -1    0    0  501    0  0.00000000000E+00  0.00000000000E+00 -0.12117322291E+04  0.12117322291E+04  0.25500000920E-02 0. -1.
    10030    2    1    2    0    0  0.00000000000E+00  0.00000000000E+00 -0.75115381263E+03  0.16723106456E+04  0.14941187521E+04 0.  0.
        2    1    3    3  502    0 -0.28088702625E+03 -0.93976330619E+02  0.39205146389E+03  0.49135875140E+03  0.25500000920E-02 0.  1.
       -2    1    3    3    0  502  0.28088702625E+03  0.93976330619E+02 -0.11432052765E+04  0.11809518942E+04  0.25500000920E-02 0. -1.
</event>
<event>
 5   0  0.1082667E-03  0.1451808E+04  0.7818609E-02  0.8917148E-01
        2   -1    0    0  501    0  0.00000000000E+00  0.00000000000E+00  0.16372514769E+04  0.16372514769E+04  0.25500000920E-02 0.  1.
       -2   -1    0    0    0  501  0.00000000000E+00  0.00000000000E+00 -0.32184212053E+03  0.32184212054E+03  0.25500000920E-02 0. -1.
    10030    2    1    2    0    0  0.00000000000E+00  0.00000000000E+00  0.13154093563E+04  0.19590935974E+04  0.14518078209E+04 0.  0.
        5    1    3    3  502    0 -0.48628693125E+03  0.11531228294E+03  0.13680959469E+04  0.14565302990E+04  0.46999998093E+01 0.  1.
       -5    1    3    3    0  502  0.48628693125E+03 -0.11531228294E+03 -0.52686590518E+02  0.50256329842E+03  0.46999998093E+01 0. -1.
</event>
<event>
 5   0  0.5914645E-04  0.1502378E+04  0.7818609E-02  0.8882873E-01
       -1   -1    0    0    0  501  0.00000000000E+00  0.00000000000E+00  0.50929488649E+03  0.50929488651E+03  0.50400001928E-02 0.  1.
        1   -1    0    0  501    0  0.00000000000E+00  0.00000000000E+00 -0.11079732570E+04  0.11079732570E+04  0.50400001928E-02 0. -1.
    10030    2    1    2    0    0  0.00000000000E+00  0.00000000000E+00 -0.59867837048E+03  0.16172681435E+04  0.15023782668E+04 0.  0.
        2    1    3    3  502    0  0.18507981648E+03 -0.53272767165E+03 -0.83350342776E+03  0.10063703467E+04  0.25500000920E-02 0. -1.
       -2    1    3    3    0  502 -0.18507981648E+03  0.53272767165E+03  0.23482505728E+03  0.61089779680E+03  0.25500000920E-02 0.  1.
</event>
<event>
 5   0  0.6146552E-04  0.1485770E+04  0.7818609E-02  0.8893971E-01
       -1   -1    0    0    0  501  0.00000000000E+00  0.00000000000E+00  0.58100157160E+03  0.58100157162E+03  0.50400001928E-02 0. -1.
        1   -1    0    0  501    0  0.00000000000E+00  0.00000000000E+00 -0.94987423165E+03  0.94987423166E+03  0.50400001928E-02 0.  1.
    10030    2    1    2    0    0  0.00000000000E+00  0.00000000000E+00 -0.36887266004E+03  0.15308758033E+04  0.14857704014E+04 0.  0.
        5    1    3    3  502    0  0.73454189593E+03 -0.10400343340E+03 -0.22417959222E+03  0.77501425187E+03  0.46999998093E+01 0.  1.
       -5    1    3    3    0  502 -0.73454189593E+03  0.10400343340E+03 -0.14469306783E+03  0.75586155142E+03  0.46999998093E+01 0. -1.
</event>
<event>
 5   0  0.1147755E-03  0.1511460E+04  0.7818609E-02  0.8876868E-01
       -2   -1    0    0    0  501  0.00000000000E+00  0.00000000000E+00  0.28944911557E+03  0.28944911558E+03  0.25500000920E-02 0.  1.
        2   -1    0    0  501    0  0.00000000000E+00  0.00000000000E+00 -0.19731539727E+04  0.19731539727E+04  0.25500000920E-02 0. -1.
    10030    2    1    2    0    0  0.00000000000E+00  0.00000000000E+00 -0.16837048571E+04  0.22626030883E+04  0.15114597875E+04 0.  0.
        4    1    3    3  502    0  0.73490986124E+03 -0.17593055948E+03 -0.82829736954E+03  0.11212146142E+04  0.12699999809E+01 0. -1.
       -4    1    3    3    0  502 -0.73490986124E+03  0.17593055948E+03 -0.85540748756E+03  0.11413884740E+04  0.12699999809E+01 0.  1.
</event>
<event>
 5   0  0.5840834E-04  0.1501791E+04  0.7818609E-02  0.8883263E-01
       -1   -1    0    0    0  501  0.00000000000E+00  0.00000000000E+00  0.71508344521E+03  0.71508344523E+03  0.50400001928E-02 0.  1.
        1   -1    0    0  501    0  0.00000000000E+00  0.00000000000E+00 -0.78850109430E+03  0.78850109432E+03  0.50400001928E-02 0. -1.
    10030    2    1    2    0    0  0.00000000000E+00  0.00000000000E+00 -0.73417649089E+02  0.15035845396E+04  0.15017910362E+04 0.  0.
        3    1    3    3  502    0  0.39969622242E+02 -0.54081990385E+03 -0.55671366420E+03  0.77718328161E+03  0.10100000352E+00 0. -1.
       -3    1    3    3    0  502 -0.39969622242E+02  0.54081990385E+03  0.48329601512E+03  0.72640125794E+03  0.10100000352E+00 0.  1.
</event>
<event>
 5   0  0.5914645E-04  0.1487489E+04  0.7818609E-02  0.8892816E-01
       -1   -1    0    0    0  501  0.00000000000E+00  0.00000000000E+00  0.86782614454E+03  0.86782614456E+03  0.50400001928E-02 0. -1.
        1   -1    0    0  501    0  0.00000000000E+00  0.00000000000E+00 -0.63740392505E+03  0.63740392507E+03  0.50400001928E-02 0.  1.
    10030    2    1    2    0    0  0.00000000000E+00  0.00000000000E+00  0.23042221949E+03  0.15052300696E+04  0.14874888784E+04 0.  0.
        2    1    3    3  502    0  0.28280366811E+03 -0.52923215011E+03  0.55987350939E+03  0.82068442774E+03  0.25500000920E-02 0. -1.
       -2    1    3    3    0  502 -0.28280366811E+03  0.52923215011E+03 -0.32945128990E+03  0.68454564189E+03  0.25500000920E-02 0.  1.
</event>
<event>
 5   0  0.1097156E-03  0.1502958E+04  0.7818609E-02  0.8882489E-01
        2   -1    0    0  501    0  0.00000000000E+00  0.00000000000E+00  0.55921600491E+03  0.55921600492E+03  0.25500000920E-02 0. -1.
       -2   -1    0    0    0  501  0.00000000000E+00  0.00000000000E+00 -0.10098430303E+04  0.10098430303E+04  0.25500000920E-02 0.  1.
    10030    2    1    2    0    0  0.00000000000E+00  0.00000000000E+00 -0.45062702536E+03  0.15690590352E+04  0.15029575975E+04 0.  0.
        2    1    3    3  502    0  0.71744711169E+02 -0.63391589546E+02 -0.10034502597E+04  0.10080070540E+04  0.25500000920E-02 0.  1.
       -2    1    3    3    0  502 -0.71744711169E+02  0.63391589546E+02  0.55282323433E+03  0.56105198121E+03  0.25500000920E-02 0. -1.
</event>
<event>
 5   0  0.1082667E-03  0.1396222E+04  0.7818609E-02  0.8956558E-01
       -2   -1    0    0    0  501  0.00000000000E+00  0.00000000000E+00  0.21551814474E+03  0.21551814476E+03  0.25500000920E-02 0. -1.
        2   -1    0    0  501    0  0.00000000000E+00  0.00000000000E+00 -0.22613371978E+04  0.22613371978E+04  0.25500000920E-02 0.  1.
    10030    2    1    2    0    0  0.00000000000E+00  0.00000000000E+00 -0.20458190531E+04  0.24768553426E+04  0.13962223283E+04 0.  0.
        5    1    3    3  502    0  0.12255844687E+03 -0.61492352630E+03 -0.47848422715E+03  0.78874632280E+03  0.46999998093E+01 0. -1.
       -5    1    3    3    0  502 -0.12255844687E+03  0.61492352630E+03 -0.15673348259E+04  0.16881090198E+04  0.46999998093E+01 0.  1.
</event>
<event>
 5   0  0.5606965E-04  0.1591671E+04  0.7818609E-02  0.8825682E-01
        1   -1    0    0  501    0  0.00000000000E+00  0.00000000000E+00  0.17027967646E+04  0.17027967646E+04  0.50400001928E-02 0. -1.
       -1   -1    0    0    0  501  0.00000000000E+00  0.00000000000E+00 -0.37194913058E+03  0.37194913061E+03  0.50400001928E-02 0.  1.
    10030    2    1    2    0    0  0.00000000000E+00  0.00000000000E+00  0.13308476340E+04  0.20747458952E+04  0.15916705390E+04 0.  0.
        4    1    3    3  502    0 -0.14185012680E+03 -0.24605385974E+03 -0.30363878491E+03  0.41576686372E+03  0.12699999809E+01 0.  1.
       -4    1    3    3    0  502  0.14185012680E+03  0.24605385974E+03  0.16344864189E+04  0.16589790315E+04  0.12699999809E+01 0. -1.
</event>
<event>
 5   0  0.1082667E-03  0.1490588E+04  0.7818609E-02  0.8890736E-01
        2   -1    0    0  501    0  0.00000000000E+00  0.00000000000E+00  0.58063235742E+03  0.58063235743E+03  0.25500000920E-02 0. -1.
       -2   -1    0    0    0  501  0.00000000000E+00  0.00000000000E+00 -0.95665175446E+03  0.95665175446E+03  0.25500000920E-02 0.  1.
    10030    2    1    2    0    0  0.00000000000E+00  0.00000000000E+00 -0.37601939703E+03  0.15372841119E+04  0.14905877545E+04 0.  0.
        5    1    3    3  502    0 -0.49682536567E+03 -0.52981045451E+03 -0.15724562396E+02  0.72650114490E+03  0.46999998093E+01 0. -1.
       -5    1    3    3    0  502  0.49682536567E+03  0.52981045451E+03 -0.36029483464E+03  0.81078296698E+03  0.46999998093E+01 0.  1.
</event>
<event>
 5   0  0.5840834E-04  0.1494327E+04  0.7818609E-02  0.8888234E-01
        1   -1    0    0  501    0  0.00000000000E+00  0.00000000000E+00  0.11031766964E+04  0.11031766964E+04  0.50400001928E-02 0. -1.
       -1   -1    0    0    0  501  0.00000000000E+00  0.00000000000E+00 -0.50604167495E+03  0.50604167498E+03  0.50400001928E-02 0.  1.
    10030    2    1    2    0    0  0.00000000000E+00  0.00000000000E+00  0.59713502142E+03  0.16092183714E+04  0.14943271171E+04 0.  0.
        3    1    3    3  502    0  0.78351543962E+02  0.18188654955E+03  0.10743969276E+04  0.10924973454E+04  0.10100000352E+00 0. -1.
       -3    1    3    3    0  502 -0.78351543962E+02 -0.18188654955E+03 -0.47726190622E+03  0.51672102597E+03  0.10100000352E+00 0.  1.
</event>
<event>
 5   0  0.1097156E-03  0.1503386E+04  0.7818609E-02  0.8882204E-01
        2   -1    0    0  501    0  0.00000000000E+00  0.00000000000E+00  0.13133374164E+04  0.13133374164E+04  0.25500000920E-02 0.  1.
       -2   -1    0    0    0  501  0.00000000000E+00  0.00000000000E+00 -0.43023397395E+03  0.43023397396E+03  0.25500000920E-02 0. -1.
    10030    2    1    2    0    0  0.00000000000E+00  0.00000000000E+00  0.88310344249E+03  0.17435713904E+04  0.15033860127E+04 0.  0.
        2    1    3    3  502    0 -0.51601789742E+03  0.25429798028E+03  0.10026905822E+04  0.11559975506E+04  0.25500000920E-02 0.  1.
       -2    1    3    3    0  502  0.51601789742E+03 -0.25429798028E+03 -0.11958713976E+03  0.58757383981E+03  0.25500000920E-02 0. -1.
</event>
<event>
 5   0  0.1126175E-03  0.1500946E+04  0.7818609E-02  0.8883824E-01
        2   -1    0    0  501    0  0.00000000000E+00  0.00000000000E+00  0.15064991519E+04  0.15064991519E+04  0.25500000920E-02 0.  1.
       -2   -1    0    0    0  501  0.00000000000E+00  0.00000000000E+00 -0.37385319996E+03  0.37385319997E+03  0.25500000920E-02 0. -1.
    10030    2    1    2    0    0  0.00000000000E+00  0.00000000000E+00  0.11326459520E+04  0.18803523519E+04  0.15009457401E+04 0.  0.
        3    1    3    3  502    0 -0.33120881240E+03  0.63044624370E+03  0.26973507332E+03  0.76152397440E+03  0.10100000352E+00 0. -1.
       -3    1    3    3    0  502  0.33120881240E+03 -0.63044624370E+03  0.86291087866E+03  0.11188283775E+04  0.10100000352E+00 0.  1.
</event>
<event>
 5   0  0.1149716E-03  0.1484925E+04  0.7818609E-02  0.8894540E-01
       -2   -1    0    0    0  501  0.00000000000E+00  0.00000000000E+00  0.61342181732E+03  0.61342181733E+03  0.25500000920E-02 0. -1.
        2   -1    0    0  501    0  0.00000000000E+00  0.00000000000E+00 -0.89864872840E+03  0.89864872840E+03  0.25500000920E-02 0.  1.
    10030    2    1    2    0    0  0.00000000000E+00  0.00000000000E+00 -0.28522691108E+03  0.15120705457E+04  0.14849252319E+04 0.  0.
        1    1    3    3  502    0 -0.31316229667E+03  0.35492826168E+03  0.43986266222E+03  0.64616085972E+03  0.50400001928E-02 0. -1.
       -1    1    3    3    0  502  0.31316229667E+03 -0.35492826168E+03 -0.72508957329E+03  0.86590968601E+03  0.50400001928E-02 0.  1.
</event>
<event>
 5   0  0.5924403E-04  0.1535593E+04  0.7818609E-02  0.8861123E-01
        1   -1    0    0  501    0  0.00000000000E+00  0.00000000000E+00  0.16163002551E+04  0.16163002551E+04  0.50400001928E-02 0.  1.
       -1   -1    0    0    0  501  0.00000000000E+00  0.00000000000E+00 -0.36472884992E+03  0.36472884995E+03  0.50400001928E-02 0. -1.
    10030    2    1    2    0    0  0.00000000000E+00  0.00000000000E+00  0.12515714052E+04  0.19810291051E+04  0.15355928278E+04 0.  0.
        1    1    3    3  502    0 -0.29493179056E+03 -0.43949044892E+03 -0.91772595211E+02  0.53717671676E+03  0.50400001928E-02 0. -1.
       -1    1    3    3    0  502  0.29493179056E+03  0.43949044892E+03  0.13433440004E+04  0.14438523883E+04  0.50400001928E-02 0.  1.
</event>
<event>
 5   0  0.1126175E-03  0.1475991E+04  0.7818609E-02  0.8900578E-01
       -2   -1    0    0    0  501  0.00000000000E+00  0.00000000000E+00  0.39207513079E+03  0.39207513079E+03  0.25500000920E-02 0. -1.
        2   -1    0    0  501    0  0.00000000000E+00  0.00000000000E+00 -0.13891139176E+04  0.13891139176E+04  0.25500000920E-02 0.  1.
    10030    2    1    2    0    0  0.00000000000E+00  0.00000000000E+00 -0.99703878683E+03  0.17811890484E+04  0.14759905432E+04 0.  0.
        3    1    3    3  502    0  0.45385896513E+03  0.57065355417E+03 -0.36090693034E+03  0.81356454057E+03  0.10100000352E+00 0. -1.
       -3    1    3    3    0  502 -0.45385896513E+03 -0.57065355417E+03 -0.63613185649E+03  0.96762450783E+03  0.10100000352E+00 0.  1.
</event>
<event>
 5   0  0.5606965E-04  0.1487326E+04  0.7818609E-02  0.8892925E-01
        1   -1    0    0  501    0  0.00000000000E+00  0.00000000000E+00  0.63196382364E+03  0.63196382366E+03  0.50400001928E-02 0.  1.
       -1   -1    0    0    0  501  0.00000000000E+00  0.00000000000E+00 -0.87510528856E+03  0.87510528857E+03  0.50400001928E-02 0. -1.
    10030    2    1    2    0    0  0.00000000000E+00  0.00000000000E+00 -0.24314146492E+03  0.15070691122E+04  0.14873263048E+04 0.  0.
        4    1    3    3  502    0  0.37620467864E+03 -0.15643455492E+03 -0.75194734146E+03  0.85523572623E+03  0.12699999809E+01 0. -1.
       -4    1    3    3    0  502 -0.37620467864E+03  0.15643455492E+03  0.50880587654E+03  0.65183338600E+03  0.12699999809E+01 0.  1.
</event>
<event>
 5   0  0.1082667E-03  0.1519575E+04  0.7818609E-02  0.8871539E-01
        2   -1    0    0  501    0  0.00000000000E+00  0.00000000000E+00  0.16250276575E+04  0.16250276575E+04  0.25500000920E-02 0.  1.
       -2   -1    0    0    0  501  0.00000000000E+00  0.00000000000E+00 -0.35524144129E+03  0.35524144130E+03  0.25500000920E-02 0. -1.
    10030    2    1    2    0    0  0.00000000000E+00  0.00000000000E+00  0.12697862162E+04  0.19802690988E+04  0.15195751606E+04 0.  0.
        5    1    3    3  502    0 -0.15615736614E+03 -0.69487472735E+03  0.97972719230E+03  0.12112487239E+04  0.46999998093E+01 0.  1.
       -5    1    3    3    0  502  0.15615736614E+03  0.69487472735E+03  0.29005902390E+03  0.76902037493E+03  0.46999998093E+01 0. -1.
</event>
<event>
 5   0  0.5606965E-04  0.1498361E+04  0.7818609E-02  0.8885544E-01
        1   -1    0    0  501    0  0.00000000000E+00  0.00000000000E+00  0.94382894496E+03  0.94382894497E+03  0.50400001928E-02 0.  1.
       -1   -1    0    0    0  501  0.00000000000E+00  0.00000000000E+00 -0.59467491635E+03  0.59467491637E+03  0.50400001928E-02 0. -1.
    10030    2    1    2    0    0  0.00000000000E+00  0.00000000000E+00  0.34915402861E+03  0.15385038613E+04  0.14983609698E+04 0.  0.
        4    1    3    3  502    0  0.71952331102E+03 -0.20275484272E+03  0.22536390366E+03  0.78077770416E+03  0.12699999809E+01 0.  1.
       -4    1    3    3    0  502 -0.71952331102E+03  0.20275484272E+03  0.12379012495E+03  0.75772615718E+03  0.12699999809E+01 0. -1.
</event>
<event>
 5   0  0.5840834E-04  0.1468199E+04  0.7818609E-02  0.8905880E-01
       -1   -1    0    0    0  501  0.00000000000E+00  0.00000000000E+00  0.58874656808E+03  0.58874656811E+03  0.50400001928E-02 0. -1.
        1   -1    0    0  501    0  0.00000000000E+00  0.00000000000E+00 -0.91533797248E+03  0.91533797249E+03  0.50400001928E-02 0.  1.
    10030    2    1    2    0    0  0.00000000000E+00  0.00000000000E+00 -0.32659140439E+03  0.15040845406E+04  0.14681990192E+04 0.  0.
        3    1    3    3  502    0 -0.23080916522E+03  0.38901505984E+03 -0.75561137956E+03  0.88065552553E+03  0.10100000352E+00 0.  1.
       -3    1    3    3    0  502  0.23080916522E+03 -0.38901505984E+03  0.42901997516E+03  0.62342901507E+03  0.10100000352E+00 0. -1.
</event>
<event>
 5   0  0.1149716E-03  0.1475784E+04  0.7818609E-02  0.8900718E-01
       -2   -1    0    0    0  501  0.00000000000E+00  0.00000000000E+00  0.54992052562E+03  0.54992052562E+03  0.25500000920E-02 0.  1.
        2   -1    0    0  501    0  0.00000000000E+00  0.00000000000E+00 -0.99011512952E+03  0.99011512952E+03  0.25500000920E-02 0. -1.
    10030    2    1    2    0    0  0.00000000000E+00  0.00000000000E+00 -0.44019460390E+03  0.15400356551E+04  0.14757840390E+04 0.  0.
        1    1    3    3  502    0  0.39782647300E+03 -0.21348967439E+03  0.38895747718E+03  0.59592924309E+03  0.50400001928E-02 0.  1.
       -1    1    3    3    0  502 -0.39782647300E+03  0.21348967439E+03 -0.82915208108E+03  0.94410641205E+03  0.50400001928E-02 0. -1.
</event>
<event>
 5   0  0.1147755E-03  0.1118699E+04  0.7818609E-02  0.9187156E-01
        2   -1    0    0  501    0  0.00000000000E+00  0.00000000000E+00  0.50321724021E+03  0.50321724022E+03  0.25500000920E-02 0. -1.
       -2   -1    0    0    0  501  0.00000000000E+00  0.00000000000E+00 -0.62174275422E+03  0.62174275422E+03  0.25500000920E-02 0.  1.
    10030    2    1    2    0    0  0.00000000000E+00  0.00000000000E+00 -0.11852551401E+03  0.11249599944E+04  0.11186986599E+04 0.  0.
        4    1    3    3  502    0 -0.20712059497E+03  0.29453896041E+03 -0.48969811069E+03  0.60783056239E+03  0.12699999809E+01 0.  1.
       -4    1    3    3    0  502  0.20712059497E+03 -0.29453896041E+03  0.37117259668E+03  0.51712943205E+03  0.12699999809E+01 0. -1.
</event>
<event>
 5   0  0.1126175E-03  0.1511046E+04  0.7818609E-02  0.8877140E-01
        2   -1    0    0  501    0  0.00000000000E+00  0.00000000000E+00  0.66817864317E+03  0.66817864318E+03  0.25500000920E-02 0. -1.
       -2   -1    0    0    0  501  0.00000000000E+00  0.00000000000E+00 -0.85428549941E+03  0.85428549941E+03  0.25500000920E-02 0.  1.
    10030    2    1    2    0    0  0.00000000000E+00  0.00000000000E+00 -0.18610685623E+03  0.15224641426E+04  0.15110464267E+04 0.  0.
        3    1    3    3  502    0 -0.25429438277E+03  0.43743414602E+03  0.47225746113E+03  0.69212815650E+03  0.10100000352E+00 0.  1.
       -3    1    3    3    0  502  0.25429438277E+03 -0.43743414602E+03 -0.65836431737E+03  0.83033598609E+03  0.10100000352E+00 0. -1.
</event>
<event>
 5   0  0.5606965E-04  0.1449629E+04  0.7818609E-02  0.8918658E-01
       -1   -1    0    0    0  501  0.00000000000E+00  0.00000000000E+00  0.13560685028E+04  0.13560685028E+04  0.50400001928E-02 0.  1.
        1   -1    0    0  501    0  0.00000000000E+00  0.00000000000E+00 -0.38741133109E+03  0.38741133112E+03  0.50400001928E-02 0. -1.
    10030    2    1    2    0    0  0.00000000000E+00  0.00000000000E+00  0.96865717174E+03  0.17434798340E+04  0.14496293371E+04 0.  0.
        4    1    3    3  502    0 -0.12032505999E+03 -0.49914793066E+03 -0.13096867384E+03  0.52988789680E+03  0.12699999809E+01 0. -1.
       -4    1    3    3    0  502  0.12032505999E+03  0.49914793066E+03  0.10996258456E+04  0.12135919372E+04  0.12699999809E+01 0.  1.
</event>
<event>
 5   0  0.5914645E-04  0.1372086E+04  0.7818609E-02  0.8974276E-01
       -1   -1    0    0    0  501  0.00000000000E+00  0.00000000000E+00  0.31743186559E+03  0.31743186563E+03  0.50400001928E-02 0.  1.
        1   -1    0    0  501    0  0.00000000000E+00  0.00000000000E+00 -0.14826954689E+04  0.14826954689E+04  0.50400001928E-02 0. -1.
    10030    2    1    2    0    0  0.00000000000E+00  0.00000000000E+00 -0.11652636033E+04  0.18001273346E+04  0.13720856954E+04 0.  0.
        2    1    3    3  502    0  0.48681568617E+03  0.37688008931E+03 -0.18550156643E+03  0.64299218127E+03  0.25500000920E-02 0. -1.
       -2    1    3    3    0  502 -0.48681568617E+03 -0.37688008931E+03 -0.97976203692E+03  0.11571351533E+04  0.25500000920E-02 0.  1.
</event>
<event>
 5   0  0.1082667E-03  0.1501608E+04  0.7818609E-02  0.8883385E-01
       -2   -1    0    0    0  501  0.00000000000E+00  0.00000000000E+00  0.84999276173E+03  0.84999276173E+03  0.25500000920E-02 0. -1.
        2   -1    0    0  501    0  0.00000000000E+00  0.00000000000E+00 -0.66318950170E+03  0.66318950170E+03  0.25500000920E-02 0.  1.
    10030    2    1    2    0    0  0.00000000000E+00  0.00000000000E+00  0.18680326003E+03  0.15131822634E+04  0.15016075068E+04 0.  0.
        5    1    3    3  502    0 -0.55915256957E+02  0.25316280670E+03  0.80343650798E+03  0.84424536422E+03  0.46999998093E+01 0. -1.
       -5    1    3    3    0  502  0.55915256957E+02 -0.25316280670E+03 -0.61663324795E+03  0.66893689921E+03  0.46999998093E+01 0.  1.
</event>
<event>
 5   0  0.5924403E-04  0.1503386E+04  0.7818609E-02  0.8882204E-01
       -1   -1    0    0    0  501  0.00000000000E+00  0.00000000000E+00  0.57361517034E+03  0.57361517037E+03  0.50400001928E-02 0.  1.
        1   -1    0    0  501    0  0.00000000000E+00  0.00000000000E+00 -0.98505533821E+03  0.98505533823E+03  0.50400001928E-02 0. -1.
    10030    2    1    2    0    0  0.00000000000E+00  0.00000000000E+00 -0.41144016787E+03  0.15586705086E+04  0.15033864249E+04 0.  0.
        1    1    3    3  502    0 -0.65964071959E+03  0.14839389482E+03  0.13483430696E+03  0.68943956757E+03  0.50400001928E-02 0.  1.
       -1    1    3    3    0  502  0.65964071959E+03 -0.14839389482E+03 -0.54627447483E+03  0.86923094103E+03  0.50400001928E-02 0. -1.
</event>
<event>
 5   0  0.1126175E-03  0.1483735E+04  0.7818609E-02  0.8895341E-01
       -2   -1    0    0    0  501  0.00000000000E+00  0.00000000000E+00  0.41986326787E+03  0.41986326788E+03  0.25500000920E-02 0.  1.
        2   -1    0    0  501    0  0.00000000000E+00  0.00000000000E+00 -0.13108255244E+04  0.13108255244E+04  0.25500000920E-02 0. -1.
    10030    2    1    2    0    0  0.00000000000E+00  0.00000000000E+00 -0.89096225651E+03  0.17306887923E+04  0.14837351358E+04 0.  0.
        3    1    3    3  502    0 -0.44177425743E+03 -0.73769495307E+02  0.24435878593E+03  0.51021334697E+03  0.10100000352E+00 0.  1.
       -3    1    3    3    0  502  0.44177425743E+03  0.73769495307E+02 -0.11353210424E+04  0.12204754453E+04  0.10100000352E+00 0. -1.
</event>
<event>
 5   0  0.5914645E-04  0.1476839E+04  0.7818609E-02  0.8900003E-01
       -1   -1    0    0    0  501  0.00000000000E+00  0.00000000000E+00  0.36732965151E+03  0.36732965154E+03  0.50400001928E-02 0. -1.
        1   -1    0    0  501    0  0.00000000000E+00  0.00000000000E+00 -0.14843976898E+04  0.14843976898E+04  0.50400001928E-02 0.  1.
    10030    2    1    2    0    0  0.00000000000E+00  0.00000000000E+00 -0.11170680383E+04  0.18517273414E+04  0.14768389027E+04 0.  0.
        2    1    3    3  502    0  0.49916568822E+03 -0.34056531400E+03 -0.26406838455E+02  0.60485406382E+03  0.25500000920E-02 0. -1.
       -2    1    3    3    0  502 -0.49916568822E+03  0.34056531400E+03 -0.10906611999E+04  0.12468732776E+04  0.25500000920E-02 0.  1.
</event>
<event>
 5   0  0.5606965E-04  0.1504651E+04  0.7818609E-02  0.8881366E-01
       -1   -1    0    0    0  501  0.00000000000E+00  0.00000000000E+00  0.85485194034E+03  0.85485194035E+03  0.50400001928E-02 0. -1.
        1   -1    0    0  501    0  0.00000000000E+00  0.00000000000E+00 -0.66209571221E+03  0.66209571223E+03  0.50400001928E-02 0.  1.
    10030    2    1    2    0    0  0.00000000000E+00  0.00000000000E+00  0.19275622812E+03  0.15169476526E+04  0.15046511945E+04 0.  0.
        4    1    3    3  502    0  0.13117851799E+03 -0.71570883321E+03 -0.96352298770E+02  0.73398386623E+03  0.12699999809E+01 0.  1.
       -4    1    3    3    0  502 -0.13117851799E+03  0.71570883321E+03  0.28910852689E+03  0.78296378635E+03  0.12699999809E+01 0. -1.
</event>
<event>
 5   0  0.4070625E-04  0.1506087E+04  0.7818609E-02  0.8880415E-01
       -3   -1    0    0    0  501  0.00000000000E+00  0.00000000000E+00  0.10410296234E+04  0.10410296283E+04  0.10100000352E+00 0.  1.
        3   -1    0    0  501    0  0.00000000000E+00  0.00000000000E+00 -0.54472467675E+03  0.54472468612E+03  0.10100000352E+00 0. -1.
    10030    2    1    2    0    0  0.00000000000E+00  0.00000000000E+00  0.49630494664E+03  0.15857543144E+04  0.15060870312E+04 0.  0.
        1    1    3    3  502    0 -0.94513470559E+02  0.63003192913E+03 -0.17458464600E+03  0.66057007689E+03  0.50400001928E-02 0. -1.
       -1    1    3    3    0  502  0.94513470559E+02 -0.63003192913E+03  0.67088959264E+03  0.92518423753E+03  0.50400001928E-02 0.  1.
</event>
<event>
 5   0  0.1147755E-03  0.1498133E+04  0.7818609E-02  0.8885695E-01
       -2   -1    0    0    0  501  0.00000000000E+00  0.00000000000E+00  0.40893548880E+03  0.40893548880E+03  0.25500000920E-02 0. -1.
        2   -1    0    0  501    0  0.00000000000E+00  0.00000000000E+00 -0.13721014262E+04  0.13721014262E+04  0.25500000920E-02 0.  1.
    10030    2    1    2    0    0  0.00000000000E+00  0.00000000000E+00 -0.96316593744E+03  0.17810369150E+04  0.14981334619E+04 0.  0.
        4    1    3    3  502    0 -0.68038950304E+03  0.26019123267E+03 -0.68910234418E+03  0.10027427422E+04  0.12699999809E+01 0.  1.
       -4    1    3    3    0  502  0.68038950304E+03 -0.26019123267E+03 -0.27406359326E+03  0.77829417283E+03  0.12699999809E+01 0. -1.
</event>
<event>
 5   0  0.6146552E-04  0.1471210E+04  0.7818609E-02  0.8903827E-01
        1   -1    0    0  501    0  0.00000000000E+00  0.00000000000E+00  0.71626292645E+03  0.71626292647E+03  0.50400001928E-02 0. -1.
       -1   -1    0    0    0  501  0.00000000000E+00  0.00000000000E+00 -0.75546958012E+03  0.75546958013E+03  0.50400001928E-02 0.  1.
    10030    2    1    2    0    0  0.00000000000E+00  0.00000000000E+00 -0.39206653663E+02  0.14717325066E+04  0.14712101853E+04 0.  0.
        5    1    3    3  502    0 -0.73253888044E+03  0.85700374159E+01 -0.86005394373E+02  0.73763519083E+03  0.46999998093E+01 0.  1.
       -5    1    3    3    0  502  0.73253888044E+03 -0.85700374159E+01  0.46798740709E+02  0.73409731577E+03  0.46999998093E+01 0. -1.
</event>
<event>
 5   0  0.1097156E-03  0.1474188E+04  0.7818609E-02  0.8901801E-01
        2   -1    0    0  501    0  0.00000000000E+00  0.00000000000E+00  0.14204988064E+04  0.14204988064E+04  0.25500000920E-02 0.  1.
       -2   -1    0    0    0  501  0.00000000000E+00  0.00000000000E+00 -0.38247674104E+03  0.38247674105E+03  0.25500000920E-02 0. -1.
    10030    2    1    2    0    0  0.00000000000E+00  0.00000000000E+00  0.10380220653E+04  0.18029755474E+04  0.14741882568E+04 0.  0.
        2    1    3    3  502    0 -0.45981904402E+03 -0.43227433578E+03  0.98474778131E+03  0.11696250884E+04  0.25500000920E-02 0.  1.
       -2    1    3    3    0  502  0.45981904402E+03  0.43227433578E+03  0.53274284031E+02  0.63335045904E+03  0.25500000920E-02 0. -1.
</event>
<event>
 5   0  0.5606965E-04  0.1497980E+04  0.7818609E-02  0.8885797E-01
        1   -1    0    0  501    0  0.00000000000E+00  0.00000000000E+00  0.12755925512E+04  0.12755925512E+04  0.50400001928E-02 0. -1.
       -1   -1    0    0    0  501  0.00000000000E+00  0.00000000000E+00 -0.43978466099E+03  0.43978466102E+03  0.50400001928E-02 0.  1.
    10030    2    1    2    0    0  0.00000000000E+00  0.00000000000E+00  0.83580789019E+03  0.17153772122E+04  0.14979800235E+04 0.  0.
        4    1    3    3  502    0  0.66323450589E+03 -0.21254212249E+03  0.10235912052E+03  0.70394116664E+03  0.12699999809E+01 0.  1.
       -4    1    3    3    0  502 -0.66323450589E+03  0.21254212249E+03  0.73344876967E+03  0.10114360456E+04  0.12699999809E+01 0. -1.
</event>
<event>
 5   0  0.5924403E-04  0.1489304E+04  0.7818609E-02  0.8891597E-01
        1   -1    0    0  501    0  0.00000000000E+00  0.00000000000E+00  0.13617210996E+04  0.13617210996E+04  0.50400001928E-02 0. -1.
       -1   -1    0    0    0  501  0.00000000000E+00  0.00000000000E+00 -0.40721022683E+03  0.40721022686E+03  0.50400001928E-02 0.  1.
    10030    2    1    2    0    0  0.00000000000E+00  0.00000000000E+00  0.95451087278E+03  0.17689313265E+04  0.14893042105E+04 0.  0.
        1    1    3    3  502    0 -0.28621045562E+03 -0.30552286284E+03 -0.25420042596E+03  0.48977392868E+03  0.50400001928E-02 0.  1.
       -1    1    3    3    0  502  0.28621045562E+03  0.30552286284E+03  0.12087112987E+04  0.12791573978E+04  0.50400001928E-02 0. -1.
</event>
<event>
 5   0  0.1097156E-03  0.1493215E+04  0.7818609E-02  0.8888977E-01
       -2   -1    0    0    0  501  0.00000000000E+00  0.00000000000E+00  0.55860290517E+03  0.55860290518E+03  0.25500000920E-02 0.  1.
        2   -1    0    0  501    0  0.00000000000E+00  0.00000000000E+00 -0.99788749585E+03  0.99788749586E+03  0.25500000920E-02 0. -1.
    10030    2    1    2    0    0  0.00000000000E+00  0.00000000000E+00 -0.43928459068E+03  0.15564904010E+04  0.14932151275E+04 0.  0.
        2    1    3    3  502    0  0.77906962413E+02  0.46154147777E+02  0.55285769847E+03  0.56022436123E+03  0.25500000920E-02 0.  1.
       -2    1    3    3    0  502 -0.77906962413E+02 -0.46154147777E+02 -0.99214228915E+03  0.99626603981E+03  0.25500000920E-02 0. -1.
</event>
<event>
 5   0  0.1149716E-03  0.1520156E+04  0.7818609E-02  0.8871159E-01
        2   -1    0    0  501    0  0.00000000000E+00  0.00000000000E+00  0.12910915294E+04  0.12910915294E+04  0.25500000920E-02 0.  1.
       -2   -1    0    0    0  501  0.00000000000E+00  0.00000000000E+00 -0.44746544473E+03  0.44746544474E+03  0.25500000920E-02 0. -1.
    10030    2    1    2    0    0  0.00000000000E+00  0.00000000000E+00  0.84362608467E+03  0.17385569741E+04  0.15201563675E+04 0.  0.
        1    1    3    3  502    0 -0.63215241036E+03  0.36990255254E+03  0.65416182538E+03  0.98202457307E+03  0.50400001928E-02 0.  1.
       -1    1    3    3    0  502  0.63215241036E+03 -0.36990255254E+03  0.18946425929E+03  0.75653240107E+03  0.50400001928E-02 0. -1.
</event>
<event>
 5   0  0.5914645E-04  0.1290605E+04  0.7818609E-02  0.9037049E-01
        1   -1    0    0  501    0  0.00000000000E+00  0.00000000000E+00  0.79070816020E+03  0.79070816021E+03  0.50400001928E-02 0. -1.
       -1   -1    0    0    0  501  0.00000000000E+00  0.00000000000E+00 -0.52663600921E+03  0.52663600924E+03  0.50400001928E-02 0.  1.
    10030    2    1    2    0    0  0.00000000000E+00  0.00000000000E+00  0.26407215098E+03  0.13173441694E+04  0.12906051138E+04 0.  0.
        2    1    3    3  502    0 -0.23883729871E+03 -0.22940590588E+03  0.69735648416E+03  0.77199507182E+03  0.25500000920E-02 0. -1.
       -2    1    3    3    0  502  0.23883729871E+03  0.22940590588E+03 -0.43328433318E+03  0.54534909763E+03  0.25500000920E-02 0.  1.
</event>
<event>
 5   0  0.5924403E-04  0.1469392E+04  0.7818609E-02  0.8905066E-01
       -1   -1    0    0    0  501  0.00000000000E+00  0.00000000000E+00  0.63523853873E+03  0.63523853875E+03  0.50400001928E-02 0. -1.
        1   -1    0    0  501    0  0.00000000000E+00  0.00000000000E+00 -0.84972551541E+03  0.84972551542E+03  0.50400001928E-02 0.  1.
    10030    2    1    2    0    0  0.00000000000E+00  0.00000000000E+00 -0.21448697668E+03  0.14849640542E+04  0.14693922482E+04 0.  0.
        1    1    3    3  502    0 -0.17438533903E+03 -0.39102765123E+03 -0.71061800403E+03  0.82963294182E+03  0.50400001928E-02 0.  1.
       -1    1    3    3    0  502  0.17438533903E+03  0.39102765123E+03  0.49613102734E+03  0.65533111235E+03  0.50400001928E-02 0. -1.
</event>
<event>
 5   0  0.5924403E-04  0.1498664E+04  0.7818609E-02  0.8885342E-01
       -1   -1    0    0    0  501  0.00000000000E+00  0.00000000000E+00  0.45985949013E+03  0.45985949016E+03  0.50400001928E-02 0. -1.
        1   -1    0    0  501    0  0.00000000000E+00  0.00000000000E+00 -0.12210221827E+04  0.12210221827E+04  0.50400001928E-02 0.  1.
    10030    2    1    2    0    0  0.00000000000E+00  0.00000000000E+00 -0.76116269258E+03  0.16808816729E+04  0.14986642565E+04 0.  0.
        1    1    3    3  502    0  0.20716686075E+03 -0.43399079113E+03  0.26394802670E+03  0.54857513232E+03  0.50400001928E-02 0. -1.
       -1    1    3    3    0  502 -0.20716686075E+03  0.43399079113E+03 -0.10251107193E+04  0.11323065406E+04  0.50400001928E-02 0.  1.
</event>
<event>
 5   0  0.1147755E-03  0.1500282E+04  0.7818609E-02  0.8884265E-01
        2   -1    0    0  501    0  0.00000000000E+00  0.00000000000E+00  0.20785663029E+04  0.20785663029E+04  0.25500000920E-02 0. -1.
       -2   -1    0    0    0  501  0.00000000000E+00  0.00000000000E+00 -0.27072107536E+03  0.27072107537E+03  0.25500000920E-02 0.  1.
    10030    2    1    2    0    0  0.00000000000E+00  0.00000000000E+00  0.18078452275E+04  0.23492873782E+04  0.15002822464E+04 0.  0.
        4    1    3    3  502    0  0.24829794042E+03 -0.67214848273E+03  0.55632649925E+03  0.90715833056E+03  0.12699999809E+01 0.  1.
       -4    1    3    3    0  502 -0.24829794042E+03  0.67214848273E+03  0.12515187283E+04  0.14421290477E+04  0.12699999809E+01 0. -1.
</event>
<event>
 5   0  0.5840834E-04  0.1474172E+04  0.7818609E-02  0.8901812E-01
       -1   -1    0    0    0  501  0.00000000000E+00  0.00000000000E+00  0.38856248782E+03  0.38856248785E+03  0.50400001928E-02 0.  1.
        1   -1    0    0  501    0  0.00000000000E+00  0.00000000000E+00 -0.13982191650E+04  0.13982191651E+04  0.50400001928E-02 0. -1.
    10030    2    1    2    0    0  0.00000000000E+00  0.00000000000E+00 -0.10096566772E+04  0.17867816529E+04  0.14741716553E+04 0.  0.
        3    1    3    3  502    0  0.53057567971E+03 -0.63979958501E+02 -0.11201093207E+04  0.12410676402E+04  0.10100000352E+00 0. -1.
       -3    1    3    3    0  502 -0.53057567971E+03  0.63979958501E+02  0.11045264351E+03  0.54571401269E+03  0.10100000352E+00 0.  1.
</event>
<event>
 5   0  0.5924403E-04  0.1511421E+04  0.7818609E-02  0.8876894E-01
        1   -1    0    0  501    0  0.00000000000E+00  0.00000000000E+00  0.38482287406E+03  0.38482287409E+03  0.50400001928E-02 0. -1.
       -1   -1    0    0    0  501  0.00000000000E+00  0.00000000000E+00 -0.14840547734E+04  0.14840547734E+04  0.50400001928E-02 0.  1.
    10030    2    1    2    0    0  0.00000000000E+00  0.00000000000E+00 -0.10992318993E+04  0.18688776475E+04  0.15114208192E+04 0.  0.
        1    1    3    3  502    0  0.37726815922E+03  0.32285674515E+03  0.15479032600E+03  0.52012285750E+03  0.50400001928E-02 0. -1.
       -1    1    3    3    0  502 -0.37726815922E+03 -0.32285674515E+03 -0.12540222253E+04  0.13487547900E+04  0.50400001928E-02 0.  1.
</event>
<event>
 5   0  0.5924403E-04  0.1573455E+04  0.7818609E-02  0.8837024E-01
       -1   -1    0    0    0  501  0.00000000000E+00  0.00000000000E+00  0.45705242176E+03  0.45705242178E+03  0.50400001928E-02 0.  1.
        1   -1    0    0  501    0  0.00000000000E+00  0.00000000000E+00 -0.13541988108E+04  0.13541988108E+04  0.50400001928E-02 0. -1.
    10030    2    1    2    0    0  0.00000000000E+00  0.00000000000E+00 -0.89714638906E+03  0.18112512326E+04  0.15734546019E+04 0.  0.
        1    1    3    3  502    0  0.55734709736E+02  0.77774079126E+03 -0.32810121128E+03  0.84595360460E+03  0.50400001928E-02 0.  1.
       -1    1    3    3    0  502 -0.55734709736E+02 -0.77774079126E+03 -0.56904517777E+03  0.96529762801E+03  0.50400001928E-02 0. -1.
</event>
<event>
 5   0  0.1147755E-03  0.1497434E+04  0.7818609E-02  0.8886161E-01
        2   -1    0    0  501    0  0.00000000000E+00  0.00000000000E+00  0.63163393177E+03  0.63163393177E+03  0.25500000920E-02 0.  1.
       -2   -1    0    0    0  501  0.00000000000E+00  0.00000000000E+00 -0.88750332941E+03  0.88750332941E+03  0.25500000920E-02 0. -1.
    10030    2    1    2    0    0  0.00000000000E+00  0.00000000000E+00 -0.25586939764E+03  0.15191372612E+04  0.14974340953E+04 0.  0.
        4    1    3    3  502    0  0.26089199126E+03 -0.67448535686E+03 -0.32460122275E+03  0.79269331675E+03  0.12699999809E+01 0. -1.
       -4    1    3    3    0  502 -0.26089199126E+03  0.67448535686E+03  0.68731825108E+02  0.72644394443E+03  0.12699999809E+01 0.  1.
</event>
<event>
 5   0  0.1126175E-03  0.1497265E+04  0.7818609E-02  0.8886274E-01
        2   -1    0    0  501    0  0.00000000000E+00  0.00000000000E+00  0.11921577872E+04  0.11921577872E+04  0.25500000920E-02 0.  1.
       -2   -1    0    0    0  501  0.00000000000E+00  0.00000000000E+00 -0.47011455655E+03  0.47011455655E+03  0.25500000920E-02 0. -1.
    10030    2    1    2    0    0  0.00000000000E+00  0.00000000000E+00  0.72204323067E+03  0.16622723438E+04  0.14972651462E+04 0.  0.
        3    1    3    3  502    0 -0.68869390682E+03 -0.30735383683E+02  0.68509285123E+03  0.97190338311E+03  0.10100000352E+00 0.  1.
       -3    1    3    3    0  502  0.68869390682E+03  0.30735383683E+02  0.36950379436E+02  0.69036896066E+03  0.10100000352E+00 0. -1.
</event>
<event>
 5   0  0.1082667E-03  0.1446517E+04  0.7818609E-02  0.8920819E-01
        2   -1    0    0  501    0  0.00000000000E+00  0.00000000000E+00  0.24979531634E+04  0.24979531634E+04  0.25500000920E-02 0.  1.
       -2   -1    0    0    0  501  0.00000000000E+00  0.00000000000E+00 -0.20941251510E+03  0.20941251511E+03  0.25500000920E-02 0. -1.
    10030    2    1    2    0    0  0.00000000000E+00  0.00000000000E+00  0.22885406483E+04  0.27073656785E+04  0.14465167190E+04 0.  0.
        5    1    3    3  502    0  0.28745841948E+01  0.34295236532E+03  0.23360481880E+04  0.23610946222E+04  0.46999998093E+01 0.  1.
       -5    1    3    3    0  502 -0.28745841948E+01 -0.34295236532E+03 -0.47507539733E+02  0.34627105632E+03  0.46999998093E+01 0. -1.
</event>
<event>
 5   0  0.1126175E-03  0.1509006E+04  0.7818609E-02  0.8878486E-01
       -2   -1    0    0    0  501  0.00000000000E+00  0.00000000000E+00  0.79135021345E+03  0.79135021346E+03  0.25500000920E-02 0.  1.
        2   -1    0    0  501    0  0.00000000000E+00  0.00000000000E+00 -0.71937162920E+03  0.71937162920E+03  0.25500000920E-02 0. -1.
    10030    2    1    2    0    0  0.00000000000E+00  0.00000000000E+00  0.71978584254E+02  0.15107218427E+04  0.15090061528E+04 0.  0.
        3    1    3    3  502    0  0.37113212936E+03 -0.41785242422E+03 -0.47147475773E+03  0.73118271537E+03  0.10100000352E+00 0. -1.
       -3    1    3    3    0  502 -0.37113212936E+03  0.41785242422E+03  0.54345334198E+03  0.77953912730E+03  0.10100000352E+00 0.  1.
</event>
<event>
 5   0  0.6146552E-04  0.1514221E+04  0.7818609E-02  0.8875051E-01
        1   -1    0    0  501    0  0.00000000000E+00  0.00000000000E+00  0.81833228330E+03  0.81833228331E+03  0.50400001928E-02 0.  1.
       -1   -1    0    0    0  501  0.00000000000E+00  0.00000000000E+00 -0.70046911744E+03  0.70046911746E+03  0.50400001928E-02 0. -1.
    10030    2    1    2    0    0  0.00000000000E+00  0.00000000000E+00  0.11786316585E+03  0.15188014008E+04  0.15142212418E+04 0.  0.
        5    1    3    3  502    0 -0.69234764562E+03  0.66876242151E+02 -0.24093207343E+03  0.73613045594E+03  0.46999998093E+01 0. -1.
       -5    1    3    3    0  502  0.69234764562E+03 -0.66876242151E+02  0.35879523929E+03  0.78267094484E+03  0.46999998093E+01 0.  1.
</event>
<event>
 5   0  0.1082667E-03  0.1510274E+04  0.7818609E-02  0.8877649E-01
       -2   -1    0    0    0  501  0.00000000000E+00  0.00000000000E+00  0.52401740129E+03  0.52401740129E+03  0.25500000920E-02 0. -1.
        2   -1    0    0  501    0  0.00000000000E+00  0.00000000000E+00 -0.10881933075E+04  0.10881933075E+04  0.25500000920E-02 0.  1.
    10030    2    1    2    0    0  0.00000000000E+00  0.00000000000E+00 -0.56417590622E+03  0.16122107088E+04  0.15102744507E+04 0.  0.
        5    1    3    3  502    0 -0.60099248063E+03  0.21359969107E+03 -0.71359025182E+03  0.95710497193E+03  0.46999998093E+01 0.  1.
       -5    1    3    3    0  502  0.60099248063E+03 -0.21359969107E+03  0.14941434561E+03  0.65510573687E+03  0.46999998093E+01 0. -1.
</event>
<event>
 5   0  0.1097156E-03  0.1473391E+04  0.7818609E-02  0.8902343E-01
       -2   -1    0    0    0  501  0.00000000000E+00  0.00000000000E+00  0.41842914593E+03  0.41842914594E+03  0.25500000920E-02 0. -1.
        2   -1    0    0  501    0  0.00000000000E+00  0.00000000000E+00 -0.12970427026E+04  0.12970427026E+04  0.25500000920E-02 0.  1.
    10030    2    1    2    0    0  0.00000000000E+00  0.00000000000E+00 -0.87861355670E+03  0.17154718486E+04  0.14733912859E+04 0.  0.
        2    1    3    3  502    0 -0.68198195492E+03  0.21390873469E+03 -0.64714076908E+03  0.96418230051E+03  0.25500000920E-02 0.  1.
       -2    1    3    3    0  502  0.68198195492E+03 -0.21390873469E+03 -0.23147278762E+03  0.75128954806E+03  0.25500000920E-02 0. -1.
</event>
<event>
 5   0  0.1082667E-03  0.1493153E+04  0.7818609E-02  0.8889019E-01
        2   -1    0    0  501    0  0.00000000000E+00  0.00000000000E+00  0.11118779095E+04  0.11118779095E+04  0.25500000920E-02 0.  1.
       -2   -1    0    0    0  501  0.00000000000E+00  0.00000000000E+00 -0.50129261063E+03  0.50129261064E+03  0.25500000920E-02 0. -1.
    10030    2    1    2    0    0  0.00000000000E+00  0.00000000000E+00  0.61058529885E+03  0.16131705201E+04  0.14931526110E+04 0.  0.
        5    1    3    3  502    0  0.26653814040E+03  0.34822529823E+03 -0.34746601128E+03  0.55951600299E+03  0.46999998093E+01 0. -1.
       -5    1    3    3    0  502 -0.26653814040E+03 -0.34822529823E+03  0.95805131013E+03  0.10536545171E+04  0.46999998093E+01 0.  1.
</event>
<event>
 5   0  0.5924403E-04  0.1490396E+04  0.7818609E-02  0.8890864E-01
        1   -1    0    0  501    0  0.00000000000E+00  0.00000000000E+00  0.99855224014E+03  0.99855224015E+03  0.50400001928E-02 0.  1.
       -1   -1    0    0    0  501  0.00000000000E+00  0.00000000000E+00 -0.55612549689E+03  0.55612549691E+03  0.50400001928E-02 0. -1.
    10030    2    1    2    0    0  0.00000000000E+00  0.00000000000E+00  0.44242674325E+03  0.15546777371E+04  0.14903964046E+04 0.  0.
        1    1    3    3  502    0 -0.11370677112E+02 -0.96320439604E+02  0.99194020422E+03  0.99667060163E+03  0.50400001928E-02 0.  1.
       -1    1    3    3    0  502  0.11370677112E+02  0.96320439604E+02 -0.54951346097E+03  0.55800713543E+03  0.50400001928E-02 0. -1.
</event>
<event>
 5   0  0.1097156E-03  0.1493008E+04  0.7818609E-02  0.8889116E-01
       -2   -1    0    0    0  501  0.00000000000E+00  0.00000000000E+00  0.43363857256E+03  0.43363857256E+03  0.25500000920E-02 0.  1.
        2   -1    0    0  501    0  0.00000000000E+00  0.00000000000E+00 -0.12850981088E+04  0.12850981088E+04  0.25500000920E-02 0. -1.
    10030    2    1    2    0    0  0.00000000000E+00  0.00000000000E+00 -0.85145953622E+03  0.17187366813E+04  0.14930078493E+04 0.  0.
        2    1    3    3  502    0 -0.30511722417E+03  0.39982519117E+03 -0.10607775008E+04  0.11739700210E+04  0.25500000920E-02 0. -1.
       -2    1    3    3    0  502  0.30511722417E+03 -0.39982519117E+03  0.20931796454E+03  0.54476666039E+03  0.25500000920E-02 0.  1.
</event>
<event>
 5   0  0.6146552E-04  0.1372316E+04  0.7818609E-02  0.8974105E-01
       -1   -1    0    0    0  501  0.00000000000E+00  0.00000000000E+00  0.40478734948E+03  0.40478734952E+03  0.50400001928E-02 0.  1.
        1   -1    0    0  501    0  0.00000000000E+00  0.00000000000E+00 -0.11631117534E+04  0.11631117534E+04  0.50400001928E-02 0. -1.
    10030    2    1    2    0    0  0.00000000000E+00  0.00000000000E+00 -0.75832440388E+03  0.15678991029E+04  0.13723161791E+04 0.  0.
        5    1    3    3  502    0  0.63336994564E+03  0.14012641644E+03 -0.63463222907E+03  0.90750925989E+03  0.46999998093E+01 0. -1.
       -5    1    3    3    0  502 -0.63336994564E+03 -0.14012641644E+03 -0.12369217481E+03  0.66038984300E+03  0.46999998093E+01 0.  1.
</event>
<event>
 5   0  0.5840834E-04  0.1480487E+04  0.7818609E-02  0.8897534E-01
        1   -1    0    0  501    0  0.00000000000E+00  0.00000000000E+00  0.14113098659E+04  0.14113098660E+04  0.50400001928E-02 0.  1.
       -1   -1    0    0    0  501  0.00000000000E+00  0.00000000000E+00 -0.38826352806E+03  0.38826352810E+03  0.50400001928E-02 0. -1.
    10030    2    1    2    0    0  0.00000000000E+00  0.00000000000E+00  0.10230463379E+04  0.17995733941E+04  0.14804866062E+04 0.  0.
        3    1    3    3  502    0 -0.37029428241E+03 -0.16269636209E+03 -0.24207711251E+03  0.47136960067E+03  0.10100000352E+00 0. -1.
       -3    1    3    3    0  502  0.37029428241E+03  0.16269636209E+03  0.12651234504E+04  0.13282037934E+04  0.10100000352E+00 0.  1.
</event>
<event>
 5   0  0.1147755E-03  0.1516795E+04  0.7818609E-02  0.8873361E-01
       -2   -1    0    0    0  501  0.00000000000E+00  0.00000000000E+00  0.11722145852E+04  0.11722145852E+04  0.25500000920E-02 0.  1.
        2   -1    0    0  501    0  0.00000000000E+00  0.00000000000E+00 -0.49066674236E+03  0.49066674237E+03  0.25500000920E-02 0. -1.
    10030    2    1    2    0    0  0.00000000000E+00  0.00000000000E+00  0.68154784286E+03  0.16628813276E+04  0.15167949260E+04 0.  0.
        4    1    3    3  502    0  0.35304930399E+03  0.66279186276E+03  0.45694288868E+03  0.87905362795E+03  0.12699999809E+01 0.  1.
       -4    1    3    3    0  502 -0.35304930399E+03 -0.66279186276E+03  0.22460495418E+03  0.78382769965E+03  0.12699999809E+01 0. -1.
</event>
<event>
 5   0  0.6146552E-04  0.1510097E+04  0.7818609E-02  0.8877766E-01
       -1   -1    0    0    0  501  0.00000000000E+00  0.00000000000E+00  0.45711073625E+03  0.45711073628E+03  0.50400001928E-02 0.  1.
        1   -1    0    0  501    0  0.00000000000E+00  0.00000000000E+00 -0.12471775427E+04  0.12471775427E+04  0.50400001928E-02 0. -1.
    10030    2    1    2    0    0  0.00000000000E+00  0.00000000000E+00 -0.79006680640E+03  0.17042882789E+04  0.15100970099E+04 0.  0.
        5    1    3    3  502    0 -0.49786649945E+03  0.50602819714E+03 -0.10478344417E+03  0.71759128182E+03  0.46999998093E+01 0.  1.
       -5    1    3    3    0  502  0.49786649945E+03 -0.50602819714E+03 -0.68528336223E+03  0.98669699712E+03  0.46999998093E+01 0. -1.
</event>
<event>
 5   0  0.5924403E-04  0.1470539E+04  0.7818609E-02  0.8904284E-01
        1   -1    0    0  501    0  0.00000000000E+00  0.00000000000E+00  0.93307029047E+03  0.93307029048E+03  0.50400001928E-02 0. -1.
       -1   -1    0    0    0  501  0.00000000000E+00  0.00000000000E+00 -0.57940048356E+03  0.57940048358E+03  0.50400001928E-02 0.  1.
    10030    2    1    2    0    0  0.00000000000E+00  0.00000000000E+00  0.35366980691E+03  0.15124707741E+04  0.14705391903E+04 0.  0.
        1    1    3    3  502    0 -0.15527047704E+03 -0.24683289083E+02  0.91557980343E+03  0.92898038853E+03  0.50400001928E-02 0. -1.
       -1    1    3    3    0  502  0.15527047704E+03  0.24683289083E+02 -0.56190999651E+03  0.58349038553E+03  0.50400001928E-02 0.  1.
</event>
<event>
 5   0  0.6146552E-04  0.1504310E+04  0.7818609E-02  0.8881592E-01
       -1   -1    0    0    0  501  0.00000000000E+00  0.00000000000E+00  0.34229458336E+03  0.34229458340E+03  0.50400001928E-02 0. -1.
        1   -1    0    0  501    0  0.00000000000E+00  0.00000000000E+00 -0.16527795951E+04  0.16527795951E+04  0.50400001928E-02 0.  1.
    10030    2    1    2    0    0  0.00000000000E+00  0.00000000000E+00 -0.13104850117E+04  0.19950741785E+04  0.15043104772E+04 0.  0.
        5    1    3    3  502    0 -0.66756248672E+03 -0.19296918708E+03 -0.10369564515E+04  0.12482698239E+04  0.46999998093E+01 0.  1.
       -5    1    3    3    0  502  0.66756248672E+03  0.19296918708E+03 -0.27352856020E+03  0.74680435462E+03  0.46999998093E+01 0. -1.
</event>
<event>
 5   0  0.1082667E-03  0.1489984E+04  0.7818609E-02  0.8891141E-01
       -2   -1    0    0    0  501  0.00000000000E+00  0.00000000000E+00  0.28833686067E+03  0.28833686068E+03  0.25500000920E-02 0.  1.
        2   -1    0    0  501    0  0.00000000000E+00  0.00000000000E+00 -0.19248764046E+04  0.19248764046E+04  0.25500000920E-02 0. -1.
    10030    2    1    2    0    0  0.00000000000E+00  0.00000000000E+00 -0.16365395439E+04  0.22132132653E+04  0.14899836505E+04 0.  0.
        5    1    3    3  502    0  0.62626841754E+03  0.36532285397E+03 -0.10726055946E+04  0.12946728428E+04  0.46999998093E+01 0. -1.
       -5    1    3    3    0  502 -0.62626841754E+03 -0.36532285397E+03 -0.56393394934E+03  0.91854042244E+03  0.46999998093E+01 0.  1.
</event>
<event>
 5   0  0.5606965E-04  0.1510924E+04  0.7818609E-02  0.8877221E-01
       -1   -1    0    0    0  501  0.00000000000E+00  0.00000000000E+00  0.48749959557E+03  0.48749959560E+03  0.50400001928E-02 0.  1.
        1   -1    0    0  501    0  0.00000000000E+00  0.00000000000E+00 -0.11707148752E+04  0.11707148752E+04  0.50400001928E-02 0. -1.
    10030    2    1    2    0    0  0.00000000000E+00  0.00000000000E+00 -0.68321527960E+03  0.16582144708E+04  0.15109242578E+04 0.  0.
        4    1    3    3  502    0  0.68498494275E+03  0.14233239709E+03 -0.65445499924E+03  0.95800618056E+03  0.12699999809E+01 0. -1.
       -4    1    3    3    0  502 -0.68498494275E+03 -0.14233239709E+03 -0.28760280356E+02  0.70020829022E+03  0.12699999809E+01 0.  1.
</event>
<event>
 5   0  0.4070625E-04  0.1505076E+04  0.7818609E-02  0.8881084E-01
       -3   -1    0    0    0  501  0.00000000000E+00  0.00000000000E+00  0.55301542630E+03  0.55301543553E+03  0.10100000352E+00 0. -1.
        3   -1    0    0  501    0  0.00000000000E+00  0.00000000000E+00 -0.10240465180E+04  0.10240465230E+04  0.10100000352E+00 0.  1.
    10030    2    1    2    0    0  0.00000000000E+00  0.00000000000E+00 -0.47103109170E+03  0.15770619585E+04  0.15050761215E+04 0.  0.
        4    1    3    3  502    0  0.62107883276E+03  0.14944278169E+03 -0.65233524260E+03  0.91302516019E+03  0.12699999809E+01 0.  1.
       -4    1    3    3    0  502 -0.62107883276E+03 -0.14944278169E+03  0.18130415090E+03  0.66403679833E+03  0.12699999809E+01 0. -1.
</event>
<event>
 5   0  0.1082667E-03  0.1171965E+04  0.7818609E-02  0.9137755E-01
        2   -1    0    0  501    0  0.00000000000E+00  0.00000000000E+00  0.10576689581E+04  0.10576689581E+04  0.25500000920E-02 0. -1.
       -2   -1    0    0    0  501  0.00000000000E+00  0.00000000000E+00 -0.32465322424E+03  0.32465322425E+03  0.25500000920E-02 0.  1.
    10030    2    1    2    0    0  0.00000000000E+00  0.00000000000E+00  0.73301573381E+03  0.13823221823E+04  0.11719652511E+04 0.  0.
        5    1    3    3  502    0  0.83405141680E+02 -0.57991476508E+03  0.37806416847E+03  0.69728914942E+03  0.46999998093E+01 0.  1.
       -5    1    3    3    0  502 -0.83405141680E+02  0.57991476508E+03  0.35495156534E+03  0.68503303289E+03  0.46999998093E+01 0. -1.
</event>
<event>
 5   0  0.6146552E-04  0.1456491E+04  0.7818609E-02  0.8913912E-01
       -1   -1    0    0    0  501  0.00000000000E+00  0.00000000000E+00  0.50586160900E+03  0.50586160902E+03  0.50400001928E-02 0.  1.
        1   -1    0    0  501    0  0.00000000000E+00  0.00000000000E+00 -0.10483931224E+04  0.10483931224E+04  0.50400001928E-02 0. -1.
    10030    2    1    2    0    0  0.00000000000E+00  0.00000000000E+00 -0.54253151344E+03  0.15542547315E+04  0.14564914443E+04 0.  0.
        5    1    3    3  502    0 -0.27692982437E+03 -0.58535444393E+03  0.84247478492E+02  0.65303114802E+03  0.46999998093E+01 0.  1.
       -5    1    3    3    0  502  0.27692982437E+03  0.58535444393E+03 -0.62677899193E+03  0.90122358345E+03  0.46999998093E+01 0. -1.
</event>
<event>
 5   0  0.1147755E-03  0.1324322E+04  0.7818609E-02  0.9010497E-01
        2   -1    0    0  501    0  0.00000000000E+00  0.00000000000E+00  0.22423256425E+04  0.22423256425E+04  0.25500000920E-02 0.  1.
       -2   -1    0    0    0  501  0.00000000000E+00  0.00000000000E+00 -0.19553679868E+03  0.19553679869E+03  0.25500000920E-02 0. -1.
    10030    2    1    2    0    0  0.00000000000E+00  0.00000000000E+00  0.20467888438E+04  0.24378624412E+04  0.13243219816E+04 0.  0.
        4    1    3    3  502    0 -0.24523293802E+03  0.30508210003E+03  0.40239858150E+02  0.39349096652E+03  0.12699999809E+01 0. -1.
       -4    1    3    3    0  502  0.24523293802E+03 -0.30508210003E+03  0.20065489856E+04  0.20443714746E+04  0.12699999809E+01 0.  1.
</event>
<event>
 5   0  0.5606965E-04  0.1503258E+04  0.7818609E-02  0.8882289E-01
       -1   -1    0    0    0  501  0.00000000000E+00  0.00000000000E+00  0.24216386012E+03  0.24216386017E+03  0.50400001928E-02 0.  1.
        1   -1    0    0  501    0  0.00000000000E+00  0.00000000000E+00 -0.23329092145E+04  0.23329092145E+04  0.50400001928E-02 0. -1.
    10030    2    1    2    0    0  0.00000000000E+00  0.00000000000E+00 -0.20907453543E+04  0.25750730746E+04  0.15032581957E+04 0.  0.
        4    1    3    3  502    0  0.11917750528E+03 -0.69050838319E+03 -0.57957804917E+03  0.90935000578E+03  0.12699999809E+01 0.  1.
       -4    1    3    3    0  502 -0.11917750528E+03  0.69050838319E+03 -0.15111673052E+04  0.16657230689E+04  0.12699999809E+01 0. -1.
</event>
<event>
 5   0  0.5914645E-04  0.1408716E+04  0.7818609E-02  0.8947534E-01
        1   -1    0    0  501    0  0.00000000000E+00  0.00000000000E+00  0.11499840752E+04  0.11499840752E+04  0.50400001928E-02 0. -1.
       -1   -1    0    0    0  501  0.00000000000E+00  0.00000000000E+00 -0.43141463077E+03  0.43141463080E+03  0.50400001928E-02 0.  1.
    10030    2    1    2    0    0  0.00000000000E+00  0.00000000000E+00  0.71856944445E+03  0.15813987060E+04  0.14087156636E+04 0.  0.
        2    1    3    3  502    0 -0.44379956004E+03 -0.37298606696E+03  0.80837823723E+03  0.99476229827E+03  0.25500000920E-02 0. -1.
       -2    1    3    3    0  502  0.44379956004E+03  0.37298606696E+03 -0.89808792782E+02  0.58663640776E+03  0.25500000920E-02 0.  1.
</event>
<event>
 5   0  0.5840834E-04  0.1514567E+04  0.7818609E-02  0.8874823E-01
        1   -1    0    0  501    0  0.00000000000E+00  0.00000000000E+00  0.16206672611E+04  0.16206672611E+04  0.50400001928E-02 0.  1.
       -1   -1    0    0    0  501  0.00000000000E+00  0.00000000000E+00 -0.35385323534E+03  0.35385323537E+03  0.50400001928E-02 0. -1.
    10030    2    1    2    0    0  0.00000000000E+00  0.00000000000E+00  0.12668140258E+04  0.19745204965E+04  0.15145670719E+04 0.  0.
        3    1    3    3  502    0 -0.29753198591E+03  0.20362316565E+02  0.15408874106E+04  0.15694820575E+04  0.10100000352E+00 0.  1.
       -3    1    3    3    0  502  0.29753198591E+03 -0.20362316565E+02 -0.27407338482E+03  0.40503843897E+03  0.10100000352E+00 0. -1.
</event>
<event>
 5   0  0.1126175E-03  0.1581844E+04  0.7818609E-02  0.8831780E-01
        2   -1    0    0  501    0  0.00000000000E+00  0.00000000000E+00  0.43897075435E+03  0.43897075436E+03  0.25500000920E-02 0.  1.
       -2   -1    0    0    0  501  0.00000000000E+00  0.00000000000E+00 -0.14250550168E+04  0.14250550168E+04  0.25500000920E-02 0. -1.
    10030    2    1    2    0    0  0.00000000000E+00  0.00000000000E+00 -0.98608426248E+03  0.18640257712E+04  0.15818438301E+04 0.  0.
        3    1    3    3  502    0 -0.92995213619E+02  0.62646312016E+03 -0.10513211665E+04  0.12273468768E+04  0.10100000352E+00 0.  1.
       -3    1    3    3    0  502  0.92995213619E+02 -0.62646312016E+03  0.65236904052E+02  0.63667889436E+03  0.10100000352E+00 0. -1.
</event>
<event>
 5   0  0.5914645E-04  0.1506069E+04  0.7818609E-02  0.8880427E-01
       -1   -1    0    0    0  501  0.00000000000E+00  0.00000000000E+00  0.10563949493E+04  0.10563949493E+04  0.50400001928E-02 0. -1.
        1   -1    0    0  501    0  0.00000000000E+00  0.00000000000E+00 -0.53678897637E+03  0.53678897639E+03  0.50400001928E-02 0.  1.
    10030    2    1    2    0    0  0.00000000000E+00  0.00000000000E+00  0.51960597290E+03  0.15931839257E+04  0.15060692726E+04 0.  0.
        2    1    3    3  502    0 -0.29491153743E+03  0.35147751573E+03 -0.37185551881E+03  0.59058088849E+03  0.25500000920E-02 0.  1.
       -2    1    3    3    0  502  0.29491153743E+03 -0.35147751573E+03  0.89146149171E+03  0.10026030372E+04  0.25500000920E-02 0. -1.
</event>
<event>
 5   0  0.5606965E-04  0.1483663E+04  0.7818609E-02  0.8895390E-01
       -1   -1    0    0    0  501  0.00000000000E+00  0.00000000000E+00  0.10047883941E+04  0.10047883941E+04  0.50400001928E-02 0.  1.
        1   -1    0    0  501    0  0.00000000000E+00  0.00000000000E+00 -0.54769172637E+03  0.54769172639E+03  0.50400001928E-02 0. -1.
    10030    2    1    2    0    0  0.00000000000E+00  0.00000000000E+00  0.45709666771E+03  0.15524801205E+04  0.14836634257E+04 0.  0.
        4    1    3    3  502    0  0.45989665997E+02  0.74037298928E+03  0.22149283476E+03  0.77416270989E+03  0.12699999809E+01 0.  1.
       -4    1    3    3    0  502 -0.45989665997E+02 -0.74037298928E+03  0.23560383295E+03  0.77831741060E+03  0.12699999809E+01 0. -1.
</event>
<event>
 5   0  0.1082667E-03  0.1486360E+04  0.7818609E-02  0.8893574E-01
       -2   -1    0    0    0  501  0.00000000000E+00  0.00000000000E+00  0.52928401954E+03  0.52928401955E+03  0.25500000920E-02 0. -1.
        2   -1    0    0  501    0  0.00000000000E+00  0.00000000000E+00 -0.10435164335E+04  0.10435164335E+04  0.25500000920E-02 0.  1.
    10030    2    1    2    0    0  0.00000000000E+00  0.00000000000E+00 -0.51423241394E+03  0.15728004530E+04  0.14863600807E+04 0.  0.
        5    1    3    3  502    0 -0.40364455855E+03 -0.36929879332E+03 -0.78934219967E+03  0.96041331029E+03  0.46999998093E+01 0.  1.
       -5    1    3    3    0  502  0.40364455855E+03  0.36929879332E+03  0.27510978573E+03  0.61238714275E+03  0.46999998093E+01 0. -1.
</event>
<event>
 5   0  0.1147755E-03  0.1546435E+04  0.7818609E-02  0.8854148E-01
        2   -1    0    0  501    0  0.00000000000E+00  0.00000000000E+00  0.95744451284E+03  0.95744451285E+03  0.25500000920E-02 0.  1.
       -2   -1    0    0    0  501  0.00000000000E+00  0.00000000000E+00 -0.62443858058E+03  0.62443858058E+03  0.25500000920E-02 0. -1.
    10030    2    1    2    0    0  0.00000000000E+00  0.00000000000E+00  0.33300593227E+03  0.15818830934E+04  0.15464349874E+04 0.  0.
        4    1    3    3  502    0 -0.64907583174E+03 -0.32752010995E+03  0.43577615229E+03  0.84762687875E+03  0.12699999809E+01 0.  1.
       -4    1    3    3    0  502  0.64907583174E+03  0.32752010995E+03 -0.10277022003E+03  0.73425621468E+03  0.12699999809E+01 0. -1.
</event>
<event>
 5   0  0.5914645E-04  0.1512033E+04  0.7818609E-02  0.8876490E-01
       -1   -1    0    0    0  501  0.00000000000E+00  0.00000000000E+00  0.13286940900E+04  0.13286940900E+04  0.50400001928E-02 0. -1.
        1   -1    0    0  501    0  0.00000000000E+00  0.00000000000E+00 -0.43016749331E+03  0.43016749334E+03  0.50400001928E-02 0.  1.
    10030    2    1    2    0    0  0.00000000000E+00  0.00000000000E+00  0.89852659671E+03  0.17588615834E+04  0.15120330765E+04 0.  0.
        2    1    3    3  502    0  0.52760906468E+03 -0.54035085354E+03  0.48973739578E+03  0.90010726410E+03  0.25500000920E-02 0.  1.
       -2    1    3    3    0  502 -0.52760906468E+03  0.54035085354E+03  0.40878920093E+03  0.85875431927E+03  0.25500000920E-02 0. -1.
</event>
<event>
 5   0  0.5840834E-04  0.1478300E+04  0.7818609E-02  0.8899013E-01
        1   -1    0    0  501    0  0.00000000000E+00  0.00000000000E+00  0.12583094728E+04  0.12583094728E+04  0.50400001928E-02 0. -1.
       -1   -1    0    0    0  501  0.00000000000E+00  0.00000000000E+00 -0.43418804139E+03  0.43418804142E+03  0.50400001928E-02 0.  1.
    10030    2    1    2    0    0  0.00000000000E+00  0.00000000000E+00  0.82412143137E+03  0.16924975142E+04  0.14783002746E+04 0.  0.
        3    1    3    3  502    0 -0.47153053985E+03 -0.54703700205E+03  0.59218567504E+03  0.93395632422E+03  0.10100000352E+00 0. -1.
       -3    1    3    3    0  502  0.47153053985E+03  0.54703700205E+03  0.23193575633E+03  0.75854118998E+03  0.10100000352E+00 0.  1.
</event>
<event>
 5   0  0.5840834E-04  0.1500195E+04  0.7818609E-02  0.8884323E-01
       -1   -1    0    0    0  501  0.00000000000E+00  0.00000000000E+00  0.99878432731E+03  0.99878432732E+03  0.50400001928E-02 0.  1.
        1   -1    0    0  501    0  0.00000000000E+00  0.00000000000E+00 -0.56333102434E+03  0.56333102437E+03  0.50400001928E-02 0. -1.
    10030    2    1    2    0    0  0.00000000000E+00  0.00000000000E+00  0.43545330297E+03  0.15621153517E+04  0.15001949183E+04 0.  0.
        3    1    3    3  502    0 -0.64336021706E+03 -0.36858640792E+03  0.99561999269E+02  0.74811824660E+03  0.10100000352E+00 0. -1.
       -3    1    3    3    0  502  0.64336021706E+03  0.36858640792E+03  0.33589130370E+03  0.81399710509E+03  0.10100000352E+00 0.  1.
</event>
<event>
 5   0  0.1097156E-03  0.1517852E+04  0.7818609E-02  0.8872668E-01
        2   -1    0    0  501    0  0.00000000000E+00  0.00000000000E+00  0.16368988377E+04  0.16368988377E+04  0.25500000920E-02 0.  1.
       -2   -1    0    0    0  501  0.00000000000E+00  0.00000000000E+00 -0.35186563725E+03  0.35186563725E+03  0.25500000920E-02 0. -1.
    10030    2    1    2    0    0  0.00000000000E+00  0.00000000000E+00  0.12850332005E+04  0.19887644750E+04  0.15178517090E+04 0.  0.
        2    1    3    3  502    0 -0.49640441201E+03  0.56329178849E+03  0.78755520593E+03  0.10880984246E+04  0.25500000920E-02 0.  1.
       -2    1    3    3    0  502  0.49640441201E+03 -0.56329178849E+03  0.49747799456E+03  0.90066605039E+03  0.25500000920E-02 0. -1.
</event>
<event>
 5   0  0.5924403E-04  0.1528074E+04  0.7818609E-02  0.8865996E-01
        1   -1    0    0  501    0  0.00000000000E+00  0.00000000000E+00  0.11303912384E+04  0.11303912384E+04  0.50400001928E-02 0.  1.
       -1   -1    0    0    0  501  0.00000000000E+00  0.00000000000E+00 -0.51641627302E+03  0.51641627305E+03  0.50400001928E-02 0. -1.
    10030    2    1    2    0    0  0.00000000000E+00  0.00000000000E+00  0.61397496540E+03  0.16468075115E+04  0.15280738600E+04 0.  0.
        1    1    3    3  502    0 -0.29920301649E+03 -0.31580453387E+03  0.98388139823E+03  0.10757683554E+04  0.50400001928E-02 0.  1.
       -1    1    3    3    0  502  0.29920301649E+03  0.31580453387E+03 -0.36990643283E+03  0.57103915607E+03  0.50400001928E-02 0. -1.
</event>
<event>
 5   0  0.1082667E-03  0.1502123E+04  0.7818609E-02  0.8883042E-01
       -2   -1    0    0    0  501  0.00000000000E+00  0.00000000000E+00  0.38212324517E+03  0.38212324518E+03  0.25500000920E-02 0. -1.
        2   -1    0    0  501    0  0.00000000000E+00  0.00000000000E+00 -0.14762077170E+04  0.14762077170E+04  0.25500000920E-02 0.  1.
    10030    2    1    2    0    0  0.00000000000E+00  0.00000000000E+00 -0.10940844719E+04  0.18583309622E+04  0.15021228757E+04 0.  0.
        5    1    3    3  502    0  0.69436463097E+02 -0.53371886963E+03 -0.11950867822E+04  0.13106989590E+04  0.46999998093E+01 0.  1.
       -5    1    3    3    0  502 -0.69436463097E+02  0.53371886963E+03  0.10100231036E+03  0.54763200318E+03  0.46999998093E+01 0. -1.
</event>
<event>
 5   0  0.5840834E-04  0.1505269E+04  0.7818609E-02  0.8880957E-01
        1   -1    0    0  501    0  0.00000000000E+00  0.00000000000E+00  0.15392042079E+04  0.15392042079E+04  0.50400001928E-02 0.  1.
       -1   -1    0    0    0  501  0.00000000000E+00  0.00000000000E+00 -0.36802027093E+03  0.36802027096E+03  0.50400001928E-02 0. -1.
    10030    2    1    2    0    0  0.00000000000E+00  0.00000000000E+00  0.11711839370E+04  0.19072244789E+04  0.15052685470E+04 0.  0.
        3    1    3    3  502    0  0.24118987290E+03  0.26406253749E+03 -0.25348293273E+03  0.43835509109E+03  0.10100000352E+00 0. -1.
       -3    1    3    3    0  502 -0.24118987290E+03 -0.26406253749E+03  0.14246668697E+04  0.14688693878E+04  0.10100000352E+00 0.  1.
</event>
<event>
 5   0  0.1097156E-03  0.1530191E+04  0.7818609E-02  0.8864621E-01
       -2   -1    0    0    0  501  0.00000000000E+00  0.00000000000E+00  0.77561448102E+03  0.77561448102E+03  0.25500000920E-02 0.  1.
        2   -1    0    0  501    0  0.00000000000E+00  0.00000000000E+00 -0.75471910322E+03  0.75471910323E+03  0.25500000920E-02 0. -1.
    10030    2    1    2    0    0  0.00000000000E+00  0.00000000000E+00  0.20895377796E+02  0.15303335843E+04  0.15301909235E+04 0.  0.
        2    1    3    3  502    0  0.68505855239E+03 -0.23532108550E+03  0.25682372045E+03  0.76853084315E+03  0.25500000920E-02 0.  1.
       -2    1    3    3    0  502 -0.68505855239E+03  0.23532108550E+03 -0.23592834265E+03  0.76180274110E+03  0.25500000920E-02 0. -1.
</event>
<event>
 5   0  0.4070625E-04  0.1500420E+04  0.7818609E-02  0.8884174E-01
        3   -1    0    0  501    0  0.00000000000E+00  0.00000000000E+00  0.99231296599E+03  0.99231297113E+03  0.10100000352E+00 0.  1.
       -3   -1    0    0    0  501  0.00000000000E+00  0.00000000000E+00 -0.56717498561E+03  0.56717499460E+03  0.10100000352E+00 0. -1.
    10030    2    1    2    0    0  0.00000000000E+00  0.00000000000E+00  0.42513798038E+03  0.15594879657E+04  0.15004200788E+04 0.  0.
        5    1    3    3  502    0  0.73577523640E+03 -0.85102196713E+02  0.88777604101E+02  0.74599673952E+03  0.46999998093E+01 0.  1.
       -5    1    3    3    0  502 -0.73577523640E+03  0.85102196713E+02  0.33636037628E+03  0.81349122621E+03  0.46999998093E+01 0. -1.
</event>
<event>
 5   0  0.1082667E-03  0.1509745E+04  0.7818609E-02  0.8877999E-01
       -2   -1    0    0    0  501  0.00000000000E+00  0.00000000000E+00  0.71815361536E+03  0.71815361536E+03  0.25500000920E-02 0. -1.
        2   -1    0    0  501    0  0.00000000000E+00  0.00000000000E+00 -0.79346854758E+03  0.79346854759E+03  0.25500000920E-02 0.  1.
    10030    2    1    2    0    0  0.00000000000E+00  0.00000000000E+00 -0.75314932225E+02  0.15116221629E+04  0.15097447548E+04 0.  0.
        5    1    3    3  502    0  0.35325478532E+03 -0.34012057941E+03  0.53693705002E+03  0.72718253388E+03  0.46999998093E+01 0. -1.
       -5    1    3    3    0  502 -0.35325478532E+03  0.34012057941E+03 -0.61225198225E+03  0.78443962907E+03  0.46999998093E+01 0.  1.
</event>
<event>
 5   0  0.5924403E-04  0.1511724E+04  0.7818609E-02  0.8876694E-01
        1   -1    0    0  501    0  0.00000000000E+00  0.00000000000E+00  0.55938706316E+03  0.55938706318E+03  0.50400001928E-02 0. -1.
       -1   -1    0    0    0  501  0.00000000000E+00  0.00000000000E+00 -0.10213457399E+04  0.10213457399E+04  0.50400001928E-02 0.  1.
    10030    2    1    2    0    0  0.00000000000E+00  0.00000000000E+00 -0.46195867678E+03  0.15807328031E+04  0.15117243055E+04 0.  0.
        1    1    3    3  502    0 -0.40277681561E+03  0.13144750279E+03  0.42355006599E+03  0.59908452460E+03  0.50400001928E-02 0. -1.
       -1    1    3    3    0  502  0.40277681561E+03 -0.13144750279E+03 -0.88550874277E+03  0.98164827853E+03  0.50400001928E-02 0.  1.
</event>
<event>
 5   0  0.5606965E-04  0.1502047E+04  0.7818609E-02  0.8883093E-01
       -1   -1    0    0    0  501  0.00000000000E+00  0.00000000000E+00  0.51031147139E+03  0.51031147142E+03  0.50400001928E-02 0. -1.
        1   -1    0    0  501    0  0.00000000000E+00  0.00000000000E+00 -0.11052783479E+04  0.11052783479E+04  0.50400001928E-02 0.  1.
    10030    2    1    2    0    0  0.00000000000E+00  0.00000000000E+00 -0.59496687646E+03  0.16155898193E+04  0.15020468968E+04 0.  0.
        4    1    3    3  502    0  0.25330475998E+03  0.70631924258E+03 -0.33123087213E+03  0.82022294372E+03  0.12699999809E+01 0.  1.
       -4    1    3    3    0  502 -0.25330475998E+03 -0.70631924258E+03 -0.26373600433E+03  0.79536687556E+03  0.12699999809E+01 0. -1.
</event>
<event>
 5   0  0.1126175E-03  0.1511626E+04  0.7818609E-02  0.8876758E-01
        2   -1    0    0  501    0  0.00000000000E+00  0.00000000000E+00  0.15506213067E+04  0.15506213067E+04  0.25500000920E-02 0. -1.
       -2   -1    0    0    0  501  0.00000000000E+00  0.00000000000E+00 -0.36840282831E+03  0.36840282832E+03  0.25500000920E-02 0.  1.
    10030    2    1    2    0    0  0.00000000000E+00  0.00000000000E+00  0.11822184784E+04  0.19190241350E+04  0.15116259789E+04 0.  0.
        3    1    3    3  502    0 -0.20871500118E+03 -0.63290886795E+03  0.10437347888E+04  0.12383529006E+04  0.10100000352E+00 0. -1.
       -3    1    3    3    0  502  0.20871500118E+03  0.63290886795E+03  0.13848368954E+03  0.68067123438E+03  0.10100000352E+00 0.  1.
</event>
<event>
 5   0  0.6146552E-04  0.1500433E+04  0.7818609E-02  0.8884165E-01
        1   -1    0    0  501    0  0.00000000000E+00  0.00000000000E+00  0.12721766477E+04  0.12721766477E+04  0.50400001928E-02 0.  1.
       -1   -1    0    0    0  501  0.00000000000E+00  0.00000000000E+00 -0.44241070833E+03  0.44241070836E+03  0.50400001928E-02 0. -1.
    10030    2    1    2    0    0  0.00000000000E+00  0.00000000000E+00  0.82976593937E+03  0.17145873561E+04  0.15004327001E+04 0.  0.
        5    1    3    3  502    0  0.29120108787E+03  0.64081595335E+03  0.11830290843E+03  0.71376524698E+03  0.46999998093E+01 0. -1.
       -5    1    3    3    0  502 -0.29120108787E+03 -0.64081595335E+03  0.71146303094E+03  0.10008221091E+04  0.46999998093E+01 0.  1.
</event>
<event>
 5   0  0.1149716E-03  0.1526958E+04  0.7818609E-02  0.8866721E-01
        2   -1    0    0  501    0  0.00000000000E+00  0.00000000000E+00  0.14064137011E+04  0.14064137011E+04  0.25500000920E-02 0. -1.
       -2   -1    0    0    0  501  0.00000000000E+00  0.00000000000E+00 -0.41445879341E+03  0.41445879342E+03  0.25500000920E-02 0.  1.
    10030    2    1    2    0    0  0.00000000000E+00  0.00000000000E+00  0.99195490765E+03  0.18208724945E+04  0.15269584481E+04 0.  0.
        1    1    3    3  502    0  0.73899360028E+03  0.48537510784E+02  0.27469838110E+03  0.78989026567E+03  0.50400001928E-02 0.  1.
       -1    1    3    3    0  502 -0.73899360028E+03 -0.48537510784E+02  0.71725652655E+03  0.10309822288E+04  0.50400001928E-02 0. -1.
</event>
<event>
 5   0  0.5924403E-04  0.1541356E+04  0.7818609E-02  0.8857408E-01
       -1   -1    0    0    0  501  0.00000000000E+00  0.00000000000E+00  0.49924203459E+03  0.49924203462E+03  0.50400001928E-02 0.  1.
        1   -1    0    0  501    0  0.00000000000E+00  0.00000000000E+00 -0.11896921849E+04  0.11896921849E+04  0.50400001928E-02 0. -1.
    10030    2    1    2    0    0  0.00000000000E+00  0.00000000000E+00 -0.69045015034E+03  0.16889342196E+04  0.15413556980E+04 0.  0.
        1    1    3    3  502    0  0.43191321413E+03  0.56946444045E+02 -0.10418234505E+04  0.11292422345E+04  0.50400001928E-02 0. -1.
       -1    1    3    3    0  502 -0.43191321413E+03 -0.56946444045E+02  0.35137330021E+03  0.55969198507E+03  0.50400001928E-02 0.  1.
</event>
<event>
 5   0  0.1097156E-03  0.1393810E+04  0.7818609E-02  0.8958312E-01
        2   -1    0    0  501    0  0.00000000000E+00  0.00000000000E+00  0.43459276854E+03  0.43459276855E+03  0.25500000920E-02 0.  1.
       -2   -1    0    0    0  501  0.00000000000E+00  0.00000000000E+00 -0.11175438122E+04  0.11175438122E+04  0.25500000920E-02 0. -1.
    10030    2    1    2    0    0  0.00000000000E+00  0.00000000000E+00 -0.68295104370E+03  0.15521365808E+04  0.13938098282E+04 0.  0.
        2    1    3    3  502    0  0.81724710664E+02 -0.21547442979E+03 -0.10738846652E+04  0.10983334796E+04  0.25500000920E-02 0. -1.
       -2    1    3    3    0  502 -0.81724710664E+02  0.21547442979E+03  0.39093362151E+03  0.45380310120E+03  0.25500000920E-02 0.  1.
</event>
<event>
 5   0  0.5840834E-04  0.1297820E+04  0.7818609E-02  0.9031296E-01
       -1   -1    0    0    0  501  0.00000000000E+00  0.00000000000E+00  0.37885983224E+03  0.37885983227E+03  0.50400001928E-02 0. -1.
        1   -1    0    0  501    0  0.00000000000E+00  0.00000000000E+00 -0.11114508039E+04  0.11114508039E+04  0.50400001928E-02 0.  1.
    10030    2    1    2    0    0  0.00000000000E+00  0.00000000000E+00 -0.73259097162E+03  0.14903106362E+04  0.12978198105E+04 0.  0.
        3    1    3    3  502    0  0.26393012339E+03 -0.25775300338E+03 -0.97931732001E+03  0.10464980383E+04  0.10100000352E+00 0.  1.
       -3    1    3    3    0  502 -0.26393012339E+03  0.25775300338E+03  0.24672634838E+03  0.44381259781E+03  0.10100000352E+00 0. -1.
</event>
<event>
 5   0  0.1147755E-03  0.1537909E+04  0.7818609E-02  0.8859628E-01
       -2   -1    0    0    0  501  0.00000000000E+00  0.00000000000E+00  0.66699893520E+03  0.66699893521E+03  0.25500000920E-02 0. -1.
        2   -1    0    0  501    0  0.00000000000E+00  0.00000000000E+00 -0.88649449750E+03  0.88649449751E+03  0.25500000920E-02 0.  1.
    10030    2    1    2    0    0  0.00000000000E+00  0.00000000000E+00 -0.21949556230E+03  0.15534934327E+04  0.15379088216E+04 0.  0.
        4    1    3    3  502    0 -0.42253207896E+03 -0.63712167234E+03 -0.19324062671E+03  0.78854355353E+03  0.12699999809E+01 0.  1.
       -4    1    3    3    0  502  0.42253207896E+03  0.63712167234E+03 -0.26254935596E+02  0.76494987918E+03  0.12699999809E+01 0. -1.
</event>
<event>
 5   0  0.1149716E-03  0.1496504E+04  0.7818609E-02  0.8886781E-01
        2   -1    0    0  501    0  0.00000000000E+00  0.00000000000E+00  0.18533903191E+04  0.18533903191E+04  0.25500000920E-02 0.  1.
       -2   -1    0    0    0  501  0.00000000000E+00  0.00000000000E+00 -0.30208499623E+03  0.30208499624E+03  0.25500000920E-02 0. -1.
    10030    2    1    2    0    0  0.00000000000E+00  0.00000000000E+00  0.15513053229E+04  0.21554753154E+04  0.14965044705E+04 0.  0.
        1    1    3    3  502    0 -0.16551522371E+03  0.76098735939E+02 -0.26965630181E+03  0.32542407412E+03  0.50400001928E-02 0. -1.
       -1    1    3    3    0  502  0.16551522371E+03 -0.76098735939E+02  0.18209616247E+04  0.18300512413E+04  0.50400001928E-02 0.  1.
</event>
<event>
 5   0  0.5840834E-04  0.1493389E+04  0.7818609E-02  0.8888861E-01
       -1   -1    0    0    0  501  0.00000000000E+00  0.00000000000E+00  0.57710859973E+03  0.57710859975E+03  0.50400001928E-02 0.  1.
        1   -1    0    0  501    0  0.00000000000E+00  0.00000000000E+00 -0.96611442375E+03  0.96611442376E+03  0.50400001928E-02 0. -1.
    10030    2    1    2    0    0  0.00000000000E+00  0.00000000000E+00 -0.38900582401E+03  0.15432230235E+04  0.14933893562E+04 0.  0.
        3    1    3    3  502    0  0.32009050765E+03 -0.39339125534E+03 -0.76082175926E+03  0.91436555733E+03  0.10100000352E+00 0. -1.
       -3    1    3    3    0  502 -0.32009050765E+03  0.39339125534E+03  0.37181593524E+03  0.62885746618E+03  0.10100000352E+00 0.  1.
</event>
<event>
 5   0  0.6146552E-04  0.1507749E+04  0.7818609E-02  0.8879316E-01
       -1   -1    0    0    0  501  0.00000000000E+00  0.00000000000E+00  0.29042045964E+03  0.29042045968E+03  0.50400001928E-02 0.  1.
        1   -1    0    0  501    0  0.00000000000E+00  0.00000000000E+00 -0.19569095483E+04  0.19569095483E+04  0.50400001928E-02 0. -1.
    10030    2    1    2    0    0  0.00000000000E+00  0.00000000000E+00 -0.16664890886E+04  0.22473300080E+04  0.15077487464E+04 0.  0.
        5    1    3    3  502    0 -0.19299039769E+03  0.14939113285E+03 -0.18963747262E+04  0.19120204487E+04  0.46999998093E+01 0. -1.
       -5    1    3    3    0  502  0.19299039769E+03 -0.14939113285E+03  0.22988563755E+03  0.33530955925E+03  0.46999998093E+01 0.  1.
</event>
<event>
 5   0  0.5840834E-04  0.1478246E+04  0.7818609E-02  0.8899049E-01
        1   -1    0    0  501    0  0.00000000000E+00  0.00000000000E+00  0.14158563227E+04  0.14158563227E+04  0.50400001928E-02 0. -1.
       -1   -1    0    0    0  501  0.00000000000E+00  0.00000000000E+00 -0.38584623204E+03  0.38584623207E+03  0.50400001928E-02 0.  1.
    10030    2    1    2    0    0  0.00000000000E+00  0.00000000000E+00  0.10300100907E+04  0.18017025548E+04  0.14782460245E+04 0.  0.
        3    1    3    3  502    0 -0.71736268419E+03 -0.34665545520E+02  0.72783296116E+03  0.10225222493E+04  0.10100000352E+00 0. -1.
       -3    1    3    3    0  502  0.71736268419E+03  0.34665545520E+02  0.30217712953E+03  0.77918030553E+03  0.10100000352E+00 0.  1.
</event>
<event>
 5   0  0.4070625E-04  0.1505168E+04  0.7818609E-02  0.8881024E-01
       -3   -1    0    0    0  501  0.00000000000E+00  0.00000000000E+00  0.26756229978E+03  0.26756231884E+03  0.10100000352E+00 0.  1.
        3   -1    0    0  501    0  0.00000000000E+00  0.00000000000E+00 -0.21168247875E+04  0.21168247899E+04  0.10100000352E+00 0. -1.
    10030    2    1    2    0    0  0.00000000000E+00  0.00000000000E+00 -0.18492624877E+04  0.23843871088E+04  0.15051678099E+04 0.  0.
        2    1    3    3  502    0 -0.52780941326E+03  0.27790114229E+03 -0.19770419943E+03  0.62840971674E+03  0.25500000920E-02 0.  1.
       -2    1    3    3    0  502  0.52780941326E+03 -0.27790114229E+03 -0.16515582883E+04  0.17559773920E+04  0.25500000920E-02 0. -1.
</event>
<event>
 5   0  0.1097156E-03  0.1504997E+04  0.7818609E-02  0.8881137E-01
        2   -1    0    0  501    0  0.00000000000E+00  0.00000000000E+00  0.90858507161E+03  0.90858507161E+03  0.25500000920E-02 0. -1.
       -2   -1    0    0    0  501  0.00000000000E+00  0.00000000000E+00 -0.62322599842E+03  0.62322599842E+03  0.25500000920E-02 0.  1.
    10030    2    1    2    0    0  0.00000000000E+00  0.00000000000E+00  0.28535907319E+03  0.15318110700E+04  0.15049967952E+04 0.  0.
        2    1    3    3  502    0 -0.17677934410E+03 -0.55282891695E+03 -0.34479319663E+03  0.67509487952E+03  0.25500000920E-02 0.  1.
       -2    1    3    3    0  502  0.17677934410E+03  0.55282891695E+03  0.63015226982E+03  0.85671619051E+03  0.25500000920E-02 0. -1.
</event>
<event>
 5   0  0.5840834E-04  0.1504247E+04  0.7818609E-02  0.8881633E-01
       -1   -1    0    0    0  501  0.00000000000E+00  0.00000000000E+00  0.42206913645E+03  0.42206913648E+03  0.50400001928E-02 0. -1.
        1   -1    0    0  501    0  0.00000000000E+00  0.00000000000E+00 -0.13402782876E+04  0.13402782876E+04  0.50400001928E-02 0.  1.
    10030    2    1    2    0    0  0.00000000000E+00  0.00000000000E+00 -0.91820915117E+03  0.17623474241E+04  0.15042474524E+04 0.  0.
        3    1    3    3  502    0 -0.13410879665E+03 -0.39046520122E+03 -0.11956570677E+04  0.12649284867E+04  0.10100000352E+00 0.  1.
       -3    1    3    3    0  502  0.13410879665E+03  0.39046520122E+03  0.27744791654E+03  0.49741893741E+03  0.10100000352E+00 0. -1.
</event>
<event>
 5   0  0.1149716E-03  0.1501513E+04  0.7818609E-02  0.8883447E-01
        2   -1    0    0  501    0  0.00000000000E+00  0.00000000000E+00  0.13540481336E+04  0.13540481336E+04  0.25500000920E-02 0. -1.
       -2   -1    0    0    0  501  0.00000000000E+00  0.00000000000E+00 -0.41625961130E+03  0.41625961131E+03  0.25500000920E-02 0.  1.
    10030    2    1    2    0    0  0.00000000000E+00  0.00000000000E+00  0.93778852226E+03  0.17703077449E+04  0.15015133030E+04 0.  0.
        1    1    3    3  502    0 -0.28794826072E+03  0.68650544651E+03  0.58339617632E+03  0.94580919192E+03  0.50400001928E-02 0.  1.
       -1    1    3    3    0  502  0.28794826072E+03 -0.68650544651E+03  0.35439234593E+03  0.82449855295E+03  0.50400001928E-02 0. -1.
</event>
<event>
 5   0  0.1147755E-03  0.1499893E+04  0.7818609E-02  0.8884524E-01
       -2   -1    0    0    0  501  0.00000000000E+00  0.00000000000E+00  0.28360162366E+03  0.28360162367E+03  0.25500000920E-02 0.  1.
        2   -1    0    0  501    0  0.00000000000E+00  0.00000000000E+00 -0.19831336019E+04  0.19831336019E+04  0.25500000920E-02 0. -1.
    10030    2    1    2    0    0  0.00000000000E+00  0.00000000000E+00 -0.16995319782E+04  0.22667352255E+04  0.14998932088E+04 0.  0.
        4    1    3    3  502    0  0.38227270652E+02  0.48805570772E+03  0.88112387293E+01  0.48963144189E+03  0.12699999809E+01 0.  1.
       -4    1    3    3    0  502 -0.38227270652E+02 -0.48805570772E+03 -0.17083432169E+04  0.17771037836E+04  0.12699999809E+01 0. -1.
</event>
<event>
 5   0  0.6146552E-04  0.1498114E+04  0.7818609E-02  0.8885708E-01
        1   -1    0    0  501    0  0.00000000000E+00  0.00000000000E+00  0.49606770696E+03  0.49606770699E+03  0.50400001928E-02 0. -1.
       -1   -1    0    0    0  501  0.00000000000E+00  0.00000000000E+00 -0.11310675478E+04  0.11310675478E+04  0.50400001928E-02 0.  1.
    10030    2    1    2    0    0  0.00000000000E+00  0.00000000000E+00 -0.63499984080E+03  0.16271352548E+04  0.14981135936E+04 0.  0.
        5    1    3    3  502    0  0.19990018007E+03  0.12020607419E+03  0.45559856936E+03  0.51186104430E+03  0.46999998093E+01 0. -1.
       -5    1    3    3    0  502 -0.19990018007E+03 -0.12020607419E+03 -0.10905984102E+04  0.11152742105E+04  0.46999998093E+01 0.  1.
</event>
<event>
 5   0  0.1126175E-03  0.1460136E+04  0.7818609E-02  0.8911404E-01
        2   -1    0    0  501    0  0.00000000000E+00  0.00000000000E+00  0.16901693668E+04  0.16901693668E+04  0.25500000920E-02 0. -1.
       -2   -1    0    0    0  501  0.00000000000E+00  0.00000000000E+00 -0.31535252604E+03  0.31535252605E+03  0.25500000920E-02 0.  1.
    10030    2    1    2    0    0  0.00000000000E+00  0.00000000000E+00  0.13748168408E+04  0.20055218929E+04  0.14601358557E+04 0.  0.
        3    1    3    3  502    0 -0.32329328562E+03  0.27450929017E+03 -0.12879524382E+03  0.44324048095E+03  0.10100000352E+00 0.  1.
       -3    1    3    3    0  502  0.32329328562E+03 -0.27450929017E+03  0.15036120846E+04  0.15622814119E+04  0.10100000352E+00 0. -1.
</event>
<event>
 5   0  0.1126175E-03  0.1498834E+04  0.7818609E-02  0.8885229E-01
       -2   -1    0    0    0  501  0.00000000000E+00  0.00000000000E+00  0.44975547206E+03  0.44975547207E+03  0.25500000920E-02 0. -1.
        2   -1    0    0  501    0  0.00000000000E+00  0.00000000000E+00 -0.12487357579E+04  0.12487357579E+04  0.25500000920E-02 0.  1.
    10030    2    1    2    0    0  0.00000000000E+00  0.00000000000E+00 -0.79898028582E+03  0.16984912300E+04  0.14988338671E+04 0.  0.
        3    1    3    3  502    0 -0.77478839961E+02 -0.42955988686E+03 -0.10898188127E+04  0.11739802902E+04  0.10100000352E+00 0.  1.
       -3    1    3    3    0  502  0.77478839961E+02  0.42955988686E+03  0.29083852686E+03  0.52451093978E+03  0.10100000352E+00 0. -1.
</event>
<event>
 5   0  0.5914645E-04  0.1520653E+04  0.7818609E-02  0.8870834E-01
       -1   -1    0    0    0  501  0.00000000000E+00  0.00000000000E+00  0.66516580643E+03  0.66516580645E+03  0.50400001928E-02 0.  1.
        1   -1    0    0  501    0  0.00000000000E+00  0.00000000000E+00 -0.86910076781E+03  0.86910076782E+03  0.50400001928E-02 0. -1.
    10030    2    1    2    0    0  0.00000000000E+00  0.00000000000E+00 -0.20393496138E+03  0.15342665743E+04  0.15206526403E+04 0.  0.
        2    1    3    3  502    0  0.47848041638E+02 -0.68913784703E+03  0.21851710384E+03  0.72453442429E+03  0.25500000920E-02 0.  1.
       -2    1    3    3    0  502 -0.47848041638E+02  0.68913784703E+03 -0.42245206522E+03  0.80973214998E+03  0.25500000920E-02 0. -1.
</event>
<event>
 5   0  0.6146552E-04  0.1463034E+04  0.7818609E-02  0.8909414E-01
        1   -1    0    0  501    0  0.00000000000E+00  0.00000000000E+00  0.11682867440E+04  0.11682867440E+04  0.50400001928E-02 0. -1.
       -1   -1    0    0    0  501  0.00000000000E+00  0.00000000000E+00 -0.45803584082E+03  0.45803584085E+03  0.50400001928E-02 0.  1.
    10030    2    1    2    0    0  0.00000000000E+00  0.00000000000E+00  0.71025090319E+03  0.16263225849E+04  0.14630341092E+04 0.  0.
        5    1    3    3  502    0  0.58180668098E+02  0.49054547294E+03 -0.24460332612E+03  0.55124652226E+03  0.46999998093E+01 0.  1.
       -5    1    3    3    0  502 -0.58180668098E+02 -0.49054547294E+03  0.95485422931E+03  0.10750760626E+04  0.46999998093E+01 0. -1.
</event>
<event>
 5   0  0.5924403E-04  0.1501681E+04  0.7818609E-02  0.8883336E-01
        1   -1    0    0  501    0  0.00000000000E+00  0.00000000000E+00  0.73583633574E+03  0.73583633576E+03  0.50400001928E-02 0.  1.
       -1   -1    0    0    0  501  0.00000000000E+00  0.00000000000E+00 -0.76615019871E+03  0.76615019873E+03  0.50400001928E-02 0. -1.
    10030    2    1    2    0    0  0.00000000000E+00  0.00000000000E+00 -0.30313862967E+02  0.15019865345E+04  0.15016805984E+04 0.  0.
        1    1    3    3  502    0 -0.12249225607E+03 -0.19268849252E+03 -0.73058438077E+03  0.76543239114E+03  0.50400001928E-02 0. -1.
       -1    1    3    3    0  502  0.12249225607E+03  0.19268849252E+03  0.70027051781E+03  0.73655414335E+03  0.50400001928E-02 0.  1.
</event>
<event>
 5   0  0.1082667E-03  0.1480971E+04  0.7818609E-02  0.8897206E-01
       -2   -1    0    0    0  501  0.00000000000E+00  0.00000000000E+00  0.26345226120E+03  0.26345226121E+03  0.25500000920E-02 0.  1.
        2   -1    0    0  501    0  0.00000000000E+00  0.00000000000E+00 -0.20812843953E+04  0.20812843953E+04  0.25500000920E-02 0. -1.
    10030    2    1    2    0    0  0.00000000000E+00  0.00000000000E+00 -0.18178321341E+04  0.23447366565E+04  0.14809714111E+04 0.  0.
        5    1    3    3  502    0  0.52714206783E+03  0.48466883490E+03 -0.12072820720E+04  0.14036861225E+04  0.46999998093E+01 0. -1.
       -5    1    3    3    0  502 -0.52714206783E+03 -0.48466883490E+03 -0.61055006216E+03  0.94105053403E+03  0.46999998093E+01 0.  1.
</event>
<event>
 5   0  0.1126175E-03  0.1500155E+04  0.7818609E-02  0.8884350E-01
        2   -1    0    0  501    0  0.00000000000E+00  0.00000000000E+00  0.12386946135E+04  0.12386946135E+04  0.25500000920E-02 0.  1.
       -2   -1    0    0    0  501  0.00000000000E+00  0.00000000000E+00 -0.45420065473E+03  0.45420065474E+03  0.25500000920E-02 0. -1.
    10030    2    1    2    0    0  0.00000000000E+00  0.00000000000E+00  0.78449395879E+03  0.16928952683E+04  0.15001545313E+04 0.  0.
        3    1    3    3  502    0  0.58316813121E+03 -0.67819577675E+02  0.91905687905E+03  0.10905732995E+04  0.10100000352E+00 0.  1.
       -3    1    3    3    0  502 -0.58316813121E+03  0.67819577675E+02 -0.13456292026E+03  0.60232196879E+03  0.10100000352E+00 0. -1.
</event>
<event>
 5   0  0.1147755E-03  0.1499806E+04  0.7818609E-02  0.8884582E-01
       -2   -1    0    0    0  501  0.00000000000E+00  0.00000000000E+00  0.25350706204E+03  0.25350706205E+03  0.25500000920E-02 0.  1.
        2   -1    0    0  501    0  0.00000000000E+00  0.00000000000E+00 -0.22182992491E+04  0.22182992491E+04  0.25500000920E-02 0. -1.
    10030    2    1    2    0    0  0.00000000000E+00  0.00000000000E+00 -0.19647921870E+04  0.24718063111E+04  0.14998060213E+04 0.  0.
        4    1    3    3  502    0 -0.20531179844E+03 -0.67640851420E+03 -0.56981018785E+03  0.90794640577E+03  0.12699999809E+01 0.  1.
       -4    1    3    3    0  502  0.20531179844E+03  0.67640851420E+03 -0.13949819992E+04  0.15638599053E+04  0.12699999809E+01 0. -1.
</event>
<event>
 5   0  0.1126175E-03  0.1493694E+04  0.7818609E-02  0.8888657E-01
       -2   -1    0    0    0  501  0.00000000000E+00  0.00000000000E+00  0.43311762179E+03  0.43311762180E+03  0.25500000920E-02 0.  1.
        2   -1    0    0  501    0  0.00000000000E+00  0.00000000000E+00 -0.12878274268E+04  0.12878274268E+04  0.25500000920E-02 0. -1.
    10030    2    1    2    0    0  0.00000000000E+00  0.00000000000E+00 -0.85470980506E+03  0.17209450486E+04  0.14936944164E+04 0.  0.
        3    1    3    3  502    0  0.36644648541E+03 -0.64573122738E+03 -0.33426015656E+03  0.81423688639E+03  0.10100000352E+00 0.  1.
       -3    1    3    3    0  502 -0.36644648541E+03  0.64573122738E+03 -0.52044964850E+03  0.90670816226E+03  0.10100000352E+00 0. -1.
</event>
<event>
 5   0  0.6146552E-04  0.1465311E+04  0.7818609E-02  0.8907854E-01
       -1   -1    0    0    0  501  0.00000000000E+00  0.00000000000E+00  0.56091456124E+03  0.56091456126E+03  0.50400001928E-02 0.  1.
        1   -1    0    0  501    0  0.00000000000E+00  0.00000000000E+00 -0.95698002105E+03  0.95698002107E+03  0.50400001928E-02 0. -1.
    10030    2    1    2    0    0  0.00000000000E+00  0.00000000000E+00 -0.39606545981E+03  0.15178945823E+04  0.14653109276E+04 0.  0.
        5    1    3    3  502    0  0.58919739666E+03  0.10153080375E+03 -0.63666623325E+03  0.87340028560E+03  0.46999998093E+01 0. -1.
       -5    1    3    3    0  502 -0.58919739666E+03 -0.10153080375E+03  0.24060077343E+03  0.64449429672E+03  0.46999998093E+01 0.  1.
</event>
<event>
 5   0  0.5606965E-04  0.1554185E+04  0.7818609E-02  0.8849199E-01
        1   -1    0    0  501    0  0.00000000000E+00  0.00000000000E+00  0.80320907550E+03  0.80320907551E+03  0.50400001928E-02 0.  1.
       -1   -1    0    0    0  501  0.00000000000E+00  0.00000000000E+00 -0.75182513439E+03  0.75182513440E+03  0.50400001928E-02 0. -1.
    10030    2    1    2    0    0  0.00000000000E+00  0.00000000000E+00  0.51383941110E+02  0.15550342099E+04  0.15541850226E+04 0.  0.
        4    1    3    3  502    0  0.25594596547E+03 -0.14566820057E+03  0.74521186072E+03  0.80129263827E+03  0.12699999809E+01 0.  1.
       -4    1    3    3    0  502 -0.25594596547E+03  0.14566820057E+03 -0.69382791961E+03  0.75374157164E+03  0.12699999809E+01 0. -1.
</event>
<event>
 5   0  0.6146552E-04  0.1503208E+04  0.7818609E-02  0.8882323E-01
        1   -1    0    0  501    0  0.00000000000E+00  0.00000000000E+00  0.10247436066E+04  0.10247436066E+04  0.50400001928E-02 0.  1.
       -1   -1    0    0    0  501  0.00000000000E+00  0.00000000000E+00 -0.55126808207E+03  0.55126808209E+03  0.50400001928E-02 0. -1.
    10030    2    1    2    0    0  0.00000000000E+00  0.00000000000E+00  0.47347552452E+03  0.15760116887E+04  0.15032078268E+04 0.  0.
        5    1    3    3  502    0 -0.11791459734E+03  0.67893880155E+03 -0.77834927614E+02  0.69349990229E+03  0.46999998093E+01 0. -1.
       -5    1    3    3    0  502  0.11791459734E+03 -0.67893880155E+03  0.55131045213E+03  0.88251178641E+03  0.46999998093E+01 0.  1.
</event>
<event>
 5   0  0.5606965E-04  0.1467143E+04  0.7818609E-02  0.8906601E-01
       -1   -1    0    0    0  501  0.00000000000E+00  0.00000000000E+00  0.70126619595E+03  0.70126619597E+03  0.50400001928E-02 0.  1.
        1   -1    0    0  501    0  0.00000000000E+00  0.00000000000E+00 -0.76736535516E+03  0.76736535518E+03  0.50400001928E-02 0. -1.
    10030    2    1    2    0    0  0.00000000000E+00  0.00000000000E+00 -0.66099159212E+02  0.14686315511E+04  0.14671433243E+04 0.  0.
        4    1    3    3  502    0  0.72748568812E+03  0.42210719521E+02  0.51348454722E+02  0.73051724687E+03  0.12699999809E+01 0. -1.
       -4    1    3    3    0  502 -0.72748568812E+03 -0.42210719521E+02 -0.11744761393E+03  0.73811430428E+03  0.12699999809E+01 0.  1.
</event>
<event>
 5   0  0.1126175E-03  0.1443130E+04  0.7818609E-02  0.8923177E-01
       -2   -1    0    0    0  501  0.00000000000E+00  0.00000000000E+00  0.53758359027E+03  0.53758359028E+03  0.25500000920E-02 0. -1.
        2   -1    0    0  501    0  0.00000000000E+00  0.00000000000E+00 -0.96851188539E+03  0.96851188539E+03  0.25500000920E-02 0.  1.
    10030    2    1    2    0    0  0.00000000000E+00  0.00000000000E+00 -0.43092829511E+03  0.15060954757E+04  0.14431300656E+04 0.  0.
        3    1    3    3  502    0 -0.53463091019E+03 -0.36871510315E+03 -0.54362773065E+03  0.84694282992E+03  0.10100000352E+00 0.  1.
       -3    1    3    3    0  502  0.53463091019E+03  0.36871510315E+03  0.11269943554E+03  0.65915264574E+03  0.10100000352E+00 0. -1.
</event>
<event>
 5   0  0.5840834E-04  0.1487198E+04  0.7818609E-02  0.8893011E-01
       -1   -1    0    0    0  501  0.00000000000E+00  0.00000000000E+00  0.54848808081E+03  0.54848808083E+03  0.50400001928E-02 0.  1.
        1   -1    0    0  501    0  0.00000000000E+00  0.00000000000E+00 -0.10081151345E+04  0.10081151346E+04  0.50400001928E-02 0. -1.
    10030    2    1    2    0    0  0.00000000000E+00  0.00000000000E+00 -0.45962705374E+03  0.15566032154E+04  0.14871975463E+04 0.  0.
        3    1    3    3  502    0 -0.58474794953E+02 -0.25832561775E+03  0.49744255353E+03  0.56356058298E+03  0.10100000352E+00 0.  1.
       -3    1    3    3    0  502  0.58474794953E+02  0.25832561775E+03 -0.95706960727E+03  0.99304263241E+03  0.10100000352E+00 0. -1.
</event>
<event>
 5   0  0.4070625E-04  0.1471372E+04  0.7818609E-02  0.8903716E-01
        4   -1    0    0  501    0  0.00000000000E+00  0.00000000000E+00  0.33139402136E+03  0.33139645486E+03  0.12699999809E+01 0. -1.
       -4   -1    0    0    0  501  0.00000000000E+00  0.00000000000E+00 -0.16331952077E+04  0.16331957015E+04  0.12699999809E+01 0.  1.
    10030    2    1    2    0    0  0.00000000000E+00  0.00000000000E+00 -0.13018011863E+04  0.19645921563E+04  0.14713721528E+04 0.  0.
        3    1    3    3  502    0  0.13274640653E+03  0.18395562293E+03 -0.15853314390E+04  0.16014796475E+04  0.10100000352E+00 0.  1.
       -3    1    3    3    0  502 -0.13274640653E+03 -0.18395562293E+03  0.28353025270E+03  0.36311250881E+03  0.10100000352E+00 0. -1.
</event>
<event>
 5   0  0.1126175E-03  0.1488498E+04  0.7818609E-02  0.8892138E-01
        2   -1    0    0  501    0  0.00000000000E+00  0.00000000000E+00  0.17202215086E+04  0.17202215086E+04  0.25500000920E-02 0.  1.
       -2   -1    0    0    0  501  0.00000000000E+00  0.00000000000E+00 -0.32199705740E+03  0.32199705741E+03  0.25500000920E-02 0. -1.
    10030    2    1    2    0    0  0.00000000000E+00  0.00000000000E+00  0.13982244512E+04  0.20422185660E+04  0.14884975833E+04 0.  0.
        3    1    3    3  502    0 -0.43217730830E+03  0.49831413357E+03  0.22619586934E+03  0.69732258177E+03  0.10100000352E+00 0.  1.
       -3    1    3    3    0  502  0.43217730830E+03 -0.49831413357E+03  0.11720285818E+04  0.13448959842E+04  0.10100000352E+00 0. -1.
</event>
<event>
 5   0  0.5840834E-04  0.1448564E+04  0.7818609E-02  0.8919397E-01
       -1   -1    0    0    0  501  0.00000000000E+00  0.00000000000E+00  0.23485561677E+03  0.23485561682E+03  0.50400001928E-02 0.  1.
        1   -1    0    0  501    0  0.00000000000E+00  0.00000000000E+00 -0.22336460145E+04  0.22336460145E+04  0.50400001928E-02 0. -1.
    10030    2    1    2    0    0  0.00000000000E+00  0.00000000000E+00 -0.19987903978E+04  0.24685016313E+04  0.14485638577E+04 0.  0.
        3    1    3    3  502    0 -0.54674521377E+03  0.34829672383E+02 -0.18067171156E+04  0.18879539668E+04  0.10100000352E+00 0. -1.
       -3    1    3    3    0  502  0.54674521377E+03 -0.34829672383E+02 -0.19207328216E+03  0.58054766452E+03  0.10100000352E+00 0.  1.
</event>
<event>
 5   0  0.1147755E-03  0.1479095E+04  0.7818609E-02  0.8898475E-01
       -2   -1    0    0    0  501  0.00000000000E+00  0.00000000000E+00  0.64159035017E+03  0.64159035017E+03  0.25500000920E-02 0. -1.
        2   -1    0    0  501    0  0.00000000000E+00  0.00000000000E+00 -0.85246018326E+03  0.85246018326E+03  0.25500000920E-02 0.  1.
    10030    2    1    2    0    0  0.00000000000E+00  0.00000000000E+00 -0.21086983309E+03  0.14940505334E+04  0.14790946251E+04 0.  0.
        4    1    3    3  502    0  0.33941544444E+03 -0.53754292967E+03 -0.48710922949E+03  0.80089466194E+03  0.12699999809E+01 0.  1.
       -4    1    3    3    0  502 -0.33941544444E+03  0.53754292967E+03  0.27623939640E+03  0.69315587150E+03  0.12699999809E+01 0. -1.
</event>
<event>
 5   0  0.4070625E-04  0.1503576E+04  0.7818609E-02  0.8882078E-01
       -4   -1    0    0    0  501  0.00000000000E+00  0.00000000000E+00  0.56027540979E+03  0.56027684917E+03  0.12699999809E+01 0.  1.
        4   -1    0    0  501    0  0.00000000000E+00  0.00000000000E+00 -0.10087605914E+04  0.10087613908E+04  0.12699999809E+01 0. -1.
    10030    2    1    2    0    0  0.00000000000E+00  0.00000000000E+00 -0.44848518160E+03  0.15690382400E+04  0.15035764166E+04 0.  0.
        5    1    3    3  502    0 -0.10584188509E+03  0.22893698207E+03  0.51479173318E+03  0.57327765083E+03  0.46999998093E+01 0.  1.
       -5    1    3    3    0  502  0.10584188509E+03 -0.22893698207E+03 -0.96327691478E+03  0.99576058917E+03  0.46999998093E+01 0. -1.
</event>
<event>
 5   0  0.5914645E-04  0.1496735E+04  0.7818609E-02  0.8886627E-01
        1   -1    0    0  501    0  0.00000000000E+00  0.00000000000E+00  0.78864974457E+03  0.78864974458E+03  0.50400001928E-02 0.  1.
       -1   -1    0    0    0  501  0.00000000000E+00  0.00000000000E+00 -0.71014300051E+03  0.71014300052E+03  0.50400001928E-02 0. -1.
    10030    2    1    2    0    0  0.00000000000E+00  0.00000000000E+00  0.78506744061E+02  0.14987927451E+04  0.14967352418E+04 0.  0.
        2    1    3    3  502    0 -0.35194953369E+03 -0.51220274135E+03  0.45676053062E+03  0.77126539197E+03  0.25500000920E-02 0.  1.
       -2    1    3    3    0  502  0.35194953369E+03  0.51220274135E+03 -0.37825378656E+03  0.72752735314E+03  0.25500000920E-02 0. -1.
</event>
<event>
 5   0  0.5606965E-04  0.1502271E+04  0.7818609E-02  0.8882944E-01
       -1   -1    0    0    0  501  0.00000000000E+00  0.00000000000E+00  0.66060473751E+03  0.66060473753E+03  0.50400001928E-02 0. -1.
        1   -1    0    0  501    0  0.00000000000E+00  0.00000000000E+00 -0.85407319697E+03  0.85407319698E+03  0.50400001928E-02 0.  1.
    10030    2    1    2    0    0  0.00000000000E+00  0.00000000000E+00 -0.19346845946E+03  0.15146779345E+04  0.15022713472E+04 0.  0.
        4    1    3    3  502    0  0.73925670767E+03  0.13230380109E+03 -0.82532035366E+02  0.75552493366E+03  0.12699999809E+01 0. -1.
       -4    1    3    3    0  502 -0.73925670767E+03 -0.13230380109E+03 -0.11093642409E+03  0.75915300085E+03  0.12699999809E+01 0.  1.
</event>
<event>
 5   0  0.5840834E-04  0.1558159E+04  0.7818609E-02  0.8846673E-01
       -1   -1    0    0    0  501  0.00000000000E+00  0.00000000000E+00  0.97001360672E+03  0.97001360673E+03  0.50400001928E-02 0.  1.
        1   -1    0    0  501    0  0.00000000000E+00  0.00000000000E+00 -0.62572841892E+03  0.62572841894E+03  0.50400001928E-02 0. -1.
    10030    2    1    2    0    0  0.00000000000E+00  0.00000000000E+00  0.34428518780E+03  0.15957420257E+04  0.15581592736E+04 0.  0.
        3    1    3    3  502    0  0.50621552184E+03  0.24026124182E+03  0.72647958699E+03  0.91747055505E+03  0.10100000352E+00 0.  1.
       -3    1    3    3    0  502 -0.50621552184E+03 -0.24026124182E+03 -0.38219439919E+03  0.67827147062E+03  0.10100000352E+00 0. -1.
</event>
<event>
 5   0  0.6146552E-04  0.1496986E+04  0.7818609E-02  0.8886460E-01
       -1   -1    0    0    0  501  0.00000000000E+00  0.00000000000E+00  0.52681102174E+03  0.52681102177E+03  0.50400001928E-02 0.  1.
        1   -1    0    0  501    0  0.00000000000E+00  0.00000000000E+00 -0.10634587101E+04  0.10634587101E+04  0.50400001928E-02 0. -1.
    10030    2    1    2    0    0  0.00000000000E+00  0.00000000000E+00 -0.53664768832E+03  0.15902697318E+04  0.14969859981E+04 0.  0.
        5    1    3    3  502    0  0.40616013309E+03 -0.57433179502E+03  0.33392794767E+01  0.70346023716E+03  0.46999998093E+01 0.  1.
       -5    1    3    3    0  502 -0.40616013309E+03  0.57433179502E+03 -0.53998696780E+03  0.88680949469E+03  0.46999998093E+01 0. -1.
</event>
<event>
 5   0  0.1126175E-03  0.1546572E+04  0.7818609E-02  0.8854060E-01
       -2   -1    0    0    0  501  0.00000000000E+00  0.00000000000E+00  0.66585873428E+03  0.66585873428E+03  0.25500000920E-02 0.  1.
        2   -1    0    0  501    0  0.00000000000E+00  0.00000000000E+00 -0.89804571869E+03  0.89804571869E+03  0.25500000920E-02 0. -1.
    10030    2    1    2    0    0  0.00000000000E+00  0.00000000000E+00 -0.23218698441E+03  0.15639044530E+04  0.15465724497E+04 0.  0.
        3    1    3    3  502    0  0.24278460803E+03 -0.51132182064E+03 -0.64885378155E+03  0.86104913344E+03  0.10100000352E+00 0. -1.
       -3    1    3    3    0  502 -0.24278460803E+03  0.51132182064E+03  0.41666679714E+03  0.70285531954E+03  0.10100000352E+00 0.  1.
</event>
<event>
 5   0  0.5924403E-04  0.1336619E+04  0.7818609E-02  0.9001020E-01
       -1   -1    0    0    0  501  0.00000000000E+00  0.00000000000E+00  0.67360179321E+03  0.67360179323E+03  0.50400001928E-02 0.  1.
        1   -1    0    0  501    0  0.00000000000E+00  0.00000000000E+00 -0.66305835055E+03  0.66305835057E+03  0.50400001928E-02 0. -1.
    10030    2    1    2    0    0  0.00000000000E+00  0.00000000000E+00  0.10543442662E+02  0.13366601438E+04  0.13366185603E+04 0.  0.
        1    1    3    3  502    0  0.63367640353E+03 -0.12532968883E+03 -0.16615116803E+03  0.66697790515E+03  0.50400001928E-02 0.  1.
       -1    1    3    3    0  502 -0.63367640353E+03  0.12532968883E+03  0.17669461069E+03  0.66968223865E+03  0.50400001928E-02 0. -1.
</event>
<event>
 5   0  0.1149716E-03  0.1502266E+04  0.7818609E-02  0.8882947E-01
       -2   -1    0    0    0  501  0.00000000000E+00  0.00000000000E+00  0.29390220307E+03  0.29390220308E+03  0.25500000920E-02 0.  1.
        2   -1    0    0  501    0  0.00000000000E+00  0.00000000000E+00 -0.19196900051E+04  0.19196900051E+04  0.25500000920E-02 0. -1.
    10030    2    1    2    0    0  0.00000000000E+00  0.00000000000E+00 -0.16257878021E+04  0.22135922082E+04  0.15022664500E+04 0.  0.
        1    1    3    3  502    0 -0.11160963956E+03 -0.14238464929E+03 -0.18871070003E+04  0.18957591964E+04  0.50400001928E-02 0. -1.
       -1    1    3    3    0  502  0.11160963956E+03  0.14238464929E+03  0.26131919826E+03  0.31783301182E+03  0.50400001928E-02 0.  1.
</event>
<event>
 5   0  0.5840834E-04  0.1662527E+04  0.7818609E-02  0.8783030E-01
       -1   -1    0    0    0  501  0.00000000000E+00  0.00000000000E+00  0.74538949105E+03  0.74538949107E+03  0.50400001928E-02 0.  1.
        1   -1    0    0  501    0  0.00000000000E+00  0.00000000000E+00 -0.92703056389E+03  0.92703056391E+03  0.50400001928E-02 0. -1.
    10030    2    1    2    0    0  0.00000000000E+00  0.00000000000E+00 -0.18164107284E+03  0.16724200550E+04  0.16625268001E+04 0.  0.
        3    1    3    3  502    0  0.77342045456E+02  0.82752529453E+03 -0.75936375878E+02  0.83459346299E+03  0.10100000352E+00 0. -1.
       -3    1    3    3    0  502 -0.77342045456E+02 -0.82752529453E+03 -0.10570469696E+03  0.83782659199E+03  0.10100000352E+00 0.  1.
</event>
<event>
 5   0  0.5914645E-04  0.1478802E+04  0.7818609E-02  0.8898673E-01
       -1   -1    0    0    0  501  0.00000000000E+00  0.00000000000E+00  0.48492309131E+03  0.48492309133E+03  0.50400001928E-02 0.  1.
        1   -1    0    0  501    0  0.00000000000E+00  0.00000000000E+00 -0.11274245499E+04  0.11274245499E+04  0.50400001928E-02 0. -1.
    10030    2    1    2    0    0  0.00000000000E+00  0.00000000000E+00 -0.64250145861E+03  0.16123476413E+04  0.14788024858E+04 0.  0.
        2    1    3    3  502    0 -0.61014886970E+03 -0.21739651197E+03 -0.71006579950E+03  0.96111202586E+03  0.25500000920E-02 0. -1.
       -2    1    3    3    0  502  0.61014886970E+03  0.21739651197E+03  0.67564340890E+02  0.65123561541E+03  0.25500000920E-02 0.  1.
</event>
<event>
 5   0  0.6146552E-04  0.1530839E+04  0.7818609E-02  0.8864201E-01
       -1   -1    0    0    0  501  0.00000000000E+00  0.00000000000E+00  0.50743082546E+03  0.50743082548E+03  0.50400001928E-02 0.  1.
        1   -1    0    0  501    0  0.00000000000E+00  0.00000000000E+00 -0.11545748834E+04  0.11545748835E+04  0.50400001928E-02 0. -1.
    10030    2    1    2    0    0  0.00000000000E+00  0.00000000000E+00 -0.64714405798E+03  0.16620057089E+04  0.15308388370E+04 0.  0.
        5    1    3    3  502    0  0.49393747075E+03 -0.56532124303E+03 -0.48563531486E+03  0.89410630345E+03  0.46999998093E+01 0. -1.
       -5    1    3    3    0  502 -0.49393747075E+03  0.56532124303E+03 -0.16150874312E+03  0.76789940548E+03  0.46999998093E+01 0.  1.
</event>
<event>
 5   0  0.1082667E-03  0.1492227E+04  0.7818609E-02  0.8889639E-01
        2   -1    0    0  501    0  0.00000000000E+00  0.00000000000E+00  0.22394294727E+04  0.22394294727E+04  0.25500000920E-02 0.  1.
       -2   -1    0    0    0  501  0.00000000000E+00  0.00000000000E+00 -0.24858348304E+03  0.24858348305E+03  0.25500000920E-02 0. -1.
    10030    2    1    2    0    0  0.00000000000E+00  0.00000000000E+00  0.19908459896E+04  0.24880129557E+04  0.14922267634E+04 0.  0.
        5    1    3    3  502    0 -0.36406900373E+03 -0.45392994801E+02 -0.87762957558E+02  0.37726806142E+03  0.46999998093E+01 0. -1.
       -5    1    3    3    0  502  0.36406900373E+03  0.45392994801E+02  0.20786089472E+04  0.21107448943E+04  0.46999998093E+01 0.  1.
</event>
<event>
 5   0  0.1082667E-03  0.1496462E+04  0.7818609E-02  0.8886809E-01
        2   -1    0    0  501    0  0.00000000000E+00  0.00000000000E+00  0.52245932058E+03  0.52245932059E+03  0.25500000920E-02 0.  1.
       -2   -1    0    0    0  501  0.00000000000E+00  0.00000000000E+00 -0.10715654869E+04  0.10715654869E+04  0.25500000920E-02 0. -1.
    10030    2    1    2    0    0  0.00000000000E+00  0.00000000000E+00 -0.54910616630E+03  0.15940248075E+04  0.14964616617E+04 0.  0.
        5    1    3    3  502    0  0.44116905752E+03  0.31933831521E+03  0.27194554937E+03  0.60875575454E+03  0.46999998093E+01 0.  1.
       -5    1    3    3    0  502 -0.44116905752E+03 -0.31933831521E+03 -0.82105171567E+03  0.98526905294E+03  0.46999998093E+01 0. -1.
</event>
<event>
 5   0  0.1082667E-03  0.1491052E+04  0.7818609E-02  0.8890425E-01
        2   -1    0    0  501    0  0.00000000000E+00  0.00000000000E+00  0.72315394149E+03  0.72315394149E+03  0.25500000920E-02 0.  1.
       -2   -1    0    0    0  501  0.00000000000E+00  0.00000000000E+00 -0.76859049802E+03  0.76859049802E+03  0.25500000920E-02 0. -1.
    10030    2    1    2    0    0  0.00000000000E+00  0.00000000000E+00 -0.45436556532E+02  0.14917444395E+04  0.14910523103E+04 0.  0.
        5    1    3    3  502    0 -0.28569878967E+03 -0.34643573678E+03 -0.61809588685E+03  0.76400663183E+03  0.46999998093E+01 0. -1.
       -5    1    3    3    0  502  0.28569878967E+03  0.34643573678E+03  0.57265933032E+03  0.72773780769E+03  0.46999998093E+01 0.  1.
</event>
<event>
 5   0  0.5606965E-04  0.1508087E+04  0.7818609E-02  0.8879093E-01
       -1   -1    0    0    0  501  0.00000000000E+00  0.00000000000E+00  0.52410640396E+03  0.52410640398E+03  0.50400001928E-02 0.  1.
        1   -1    0    0  501    0  0.00000000000E+00  0.00000000000E+00 -0.10848590599E+04  0.10848590599E+04  0.50400001928E-02 0. -1.
    10030    2    1    2    0    0  0.00000000000E+00  0.00000000000E+00 -0.56075265596E+03  0.16089654639E+04  0.15080869746E+04 0.  0.
        4    1    3    3  502    0  0.69848048837E+03 -0.15251843378E+03 -0.53608136169E+03  0.89360041659E+03  0.12699999809E+01 0.  1.
       -4    1    3    3    0  502 -0.69848048837E+03  0.15251843378E+03 -0.24671294265E+02  0.71536504732E+03  0.12699999809E+01 0. -1.
</event>
<event>
 5   0  0.1097156E-03  0.1481532E+04  0.7818609E-02  0.8896828E-01
        2   -1    0    0  501    0  0.00000000000E+00  0.00000000000E+00  0.12248830456E+04  0.12248830456E+04  0.25500000920E-02 0.  1.
       -2   -1    0    0    0  501  0.00000000000E+00  0.00000000000E+00 -0.44798895858E+03  0.44798895859E+03  0.25500000920E-02 0. -1.
    10030    2    1    2    0    0  0.00000000000E+00  0.00000000000E+00  0.77689408705E+03  0.16728720042E+04  0.14815317479E+04 0.  0.
        2    1    3    3  502    0 -0.14227687014E+02  0.73924617859E+03  0.43953083552E+03  0.86015969158E+03  0.25500000920E-02 0. -1.
       -2    1    3    3    0  502  0.14227687014E+02 -0.73924617859E+03  0.33736325153E+03  0.81271231264E+03  0.25500000920E-02 0.  1.
</event>
<event>
 5   0  0.1126175E-03  0.1502920E+04  0.7818609E-02  0.8882513E-01
       -2   -1    0    0    0  501  0.00000000000E+00  0.00000000000E+00  0.64448637743E+03  0.64448637743E+03  0.25500000920E-02 0. -1.
        2   -1    0    0  501    0  0.00000000000E+00  0.00000000000E+00 -0.87618955790E+03  0.87618955790E+03  0.25500000920E-02 0.  1.
    10030    2    1    2    0    0  0.00000000000E+00  0.00000000000E+00 -0.23170318047E+03  0.15206759353E+04  0.15029201364E+04 0.  0.
        3    1    3    3  502    0  0.65769978108E+03 -0.34260028333E+03  0.70256013313E+01  0.74161534871E+03  0.10100000352E+00 0. -1.
       -3    1    3    3    0  502 -0.65769978108E+03  0.34260028333E+03 -0.23872878181E+03  0.77906058662E+03  0.10100000352E+00 0.  1.
</event>
<event>
 5   0  0.5840834E-04  0.1478058E+04  0.7818609E-02  0.8899177E-01
        1   -1    0    0  501    0  0.00000000000E+00  0.00000000000E+00  0.56018054546E+03  0.56018054548E+03  0.50400001928E-02 0.  1.
       -1   -1    0    0    0  501  0.00000000000E+00  0.00000000000E+00 -0.97497826155E+03  0.97497826156E+03  0.50400001928E-02 0. -1.
    10030    2    1    2    0    0  0.00000000000E+00  0.00000000000E+00 -0.41479771609E+03  0.15351588070E+04  0.14780579886E+04 0.  0.
        3    1    3    3  502    0 -0.69633784381E+03  0.64604185499E+01  0.49619550476E+02  0.69813339679E+03  0.10100000352E+00 0.  1.
       -3    1    3    3    0  502  0.69633784381E+03 -0.64604185499E+01 -0.46441726657E+03  0.83702541025E+03  0.10100000352E+00 0. -1.
</event>
<event>
 5   0  0.1126175E-03  0.1550901E+04  0.7818609E-02  0.8851293E-01
        2   -1    0    0  501    0  0.00000000000E+00  0.00000000000E+00  0.20930662621E+04  0.20930662621E+04  0.25500000920E-02 0. -1.
       -2   -1    0    0    0  501  0.00000000000E+00  0.00000000000E+00 -0.28729293384E+03  0.28729293385E+03  0.25500000920E-02 0.  1.
    10030    2    1    2    0    0  0.00000000000E+00  0.00000000000E+00  0.18057733283E+04  0.23803591960E+04  0.15509005735E+04 0.  0.
        3    1    3    3  502    0 -0.65668823466E+03 -0.39507705272E+03  0.72129798416E+03  0.10524239199E+04  0.10100000352E+00 0.  1.
       -3    1    3    3    0  502  0.65668823466E+03  0.39507705272E+03  0.10844753441E+04  0.13279352760E+04  0.10100000352E+00 0. -1.
</event>
<event>
 5   0  0.5606965E-04  0.1518020E+04  0.7818609E-02  0.8872558E-01
        1   -1    0    0  501    0  0.00000000000E+00  0.00000000000E+00  0.49526652568E+03  0.49526652571E+03  0.50400001928E-02 0.  1.
       -1   -1    0    0    0  501  0.00000000000E+00  0.00000000000E+00 -0.11632036101E+04  0.11632036101E+04  0.50400001928E-02 0. -1.
    10030    2    1    2    0    0  0.00000000000E+00  0.00000000000E+00 -0.66793708444E+03  0.16584701358E+04  0.15180195133E+04 0.  0.
        4    1    3    3  502    0  0.43823825553E+03 -0.54082835386E+03 -0.66452852293E+03  0.96236575565E+03  0.12699999809E+01 0. -1.
       -4    1    3    3    0  502 -0.43823825553E+03  0.54082835386E+03 -0.34085615081E+01  0.69610438020E+03  0.12699999809E+01 0.  1.
</event>
<event>
 5   0  0.1082667E-03  0.1550968E+04  0.7818609E-02  0.8851250E-01
       -2   -1    0    0    0  501  0.00000000000E+00  0.00000000000E+00  0.45381578186E+03  0.45381578187E+03  0.25500000920E-02 0.  1.
        2   -1    0    0  501    0  0.00000000000E+00  0.00000000000E+00 -0.13251528807E+04  0.13251528807E+04  0.25500000920E-02 0. -1.
    10030    2    1    2    0    0  0.00000000000E+00  0.00000000000E+00 -0.87133709885E+03  0.17789686626E+04  0.15509678148E+04 0.  0.
        5    1    3    3  502    0  0.41270207115E+03  0.19756823301E+03 -0.11538048512E+04  0.12412267846E+04  0.46999998093E+01 0. -1.
       -5    1    3    3    0  502 -0.41270207115E+03 -0.19756823301E+03  0.28246775233E+03  0.53774187797E+03  0.46999998093E+01 0.  1.
</event>
<event>
 5   0  0.5840834E-04  0.1457697E+04  0.7818609E-02  0.8913082E-01
        1   -1    0    0  501    0  0.00000000000E+00  0.00000000000E+00  0.70690713903E+03  0.70690713904E+03  0.50400001928E-02 0. -1.
       -1   -1    0    0    0  501  0.00000000000E+00  0.00000000000E+00 -0.75147114648E+03  0.75147114650E+03  0.50400001928E-02 0.  1.
    10030    2    1    2    0    0  0.00000000000E+00  0.00000000000E+00 -0.44564007459E+02  0.14583782855E+04  0.14576972501E+04 0.  0.
        3    1    3    3  502    0  0.31286139587E+03 -0.19266779868E+03 -0.65203392774E+03  0.74843262008E+03  0.10100000352E+00 0.  1.
       -3    1    3    3    0  502 -0.31286139587E+03  0.19266779868E+03  0.60746992028E+03  0.70994566547E+03  0.10100000352E+00 0. -1.
</event>
<event>
 5   0  0.1097156E-03  0.1484790E+04  0.7818609E-02  0.8894631E-01
        2   -1    0    0  501    0  0.00000000000E+00  0.00000000000E+00  0.17494295454E+04  0.17494295454E+04  0.25500000920E-02 0. -1.
       -2   -1    0    0    0  501  0.00000000000E+00  0.00000000000E+00 -0.31504561740E+03  0.31504561741E+03  0.25500000920E-02 0.  1.
    10030    2    1    2    0    0  0.00000000000E+00  0.00000000000E+00  0.14343839280E+04  0.20644751628E+04  0.14847896972E+04 0.  0.
        2    1    3    3  502    0 -0.40755372290E+02  0.43836337447E+03  0.15483381736E+04  0.16097125670E+04  0.25500000920E-02 0. -1.
       -2    1    3    3    0  502  0.40755372290E+02 -0.43836337447E+03 -0.11395424563E+03  0.45476259581E+03  0.25500000920E-02 0.  1.
</event>
<event>
 5   0  0.6146552E-04  0.1494110E+04  0.7818609E-02  0.8888379E-01
        1   -1    0    0  501    0  0.00000000000E+00  0.00000000000E+00  0.89927662862E+03  0.89927662863E+03  0.50400001928E-02 0.  1.
       -1   -1    0    0    0  501  0.00000000000E+00  0.00000000000E+00 -0.62060040485E+03  0.62060040487E+03  0.50400001928E-02 0. -1.
    10030    2    1    2    0    0  0.00000000000E+00  0.00000000000E+00  0.27867622377E+03  0.15198770335E+04  0.14941103571E+04 0.  0.
        5    1    3    3  502    0 -0.55873359247E+03 -0.26875339279E+03  0.56324731382E+03  0.83766415706E+03  0.46999998093E+01 0.  1.
       -5    1    3    3    0  502  0.55873359247E+03  0.26875339279E+03 -0.28457109005E+03  0.68221287644E+03  0.46999998093E+01 0. -1.
</event>
<event>
 5   0  0.5914645E-04  0.1562612E+04  0.7818609E-02  0.8843852E-01
        1   -1    0    0  501    0  0.00000000000E+00  0.00000000000E+00  0.13088858370E+04  0.13088858370E+04  0.50400001928E-02 0.  1.
       -1   -1    0    0    0  501  0.00000000000E+00  0.00000000000E+00 -0.46638054923E+03  0.46638054926E+03  0.50400001928E-02 0. -1.
    10030    2    1    2    0    0  0.00000000000E+00  0.00000000000E+00  0.84250528774E+03  0.17752663862E+04  0.15626117823E+04 0.  0.
        2    1    3    3  502    0  0.86860366269E+02 -0.26551181186E+03 -0.40770148748E+03  0.49422843743E+03  0.25500000920E-02 0. -1.
       -2    1    3    3    0  502 -0.86860366269E+02  0.26551181186E+03  0.12502067752E+04  0.12810379488E+04  0.25500000920E-02 0.  1.
</event>
<event>
 5   0  0.6146552E-04  0.1552666E+04  0.7818609E-02  0.8850167E-01
       -1   -1    0    0    0  501  0.00000000000E+00  0.00000000000E+00  0.42111080828E+03  0.42111080831E+03  0.50400001928E-02 0. -1.
        1   -1    0    0  501    0  0.00000000000E+00  0.00000000000E+00 -0.14311975248E+04  0.14311975248E+04  0.50400001928E-02 0.  1.
    10030    2    1    2    0    0  0.00000000000E+00  0.00000000000E+00 -0.10100867165E+04  0.18523083331E+04  0.15526657677E+04 0.  0.
        5    1    3    3  502    0 -0.64179088387E+03 -0.18450247254E+03 -0.32744550208E+02  0.66860376649E+03  0.46999998093E+01 0. -1.
       -5    1    3    3    0  502  0.64179088387E+03  0.18450247254E+03 -0.97734216632E+03  0.11837045666E+04  0.46999998093E+01 0.  1.
</event>
<event>
 5   0  0.1082667E-03  0.1616148E+04  0.7818609E-02  0.8810688E-01
       -2   -1    0    0    0  501  0.00000000000E+00  0.00000000000E+00  0.94631848799E+03  0.94631848800E+03  0.25500000920E-02 0. -1.
        2   -1    0    0  501    0  0.00000000000E+00  0.00000000000E+00 -0.69002550081E+03  0.69002550082E+03  0.25500000920E-02 0.  1.
    10030    2    1    2    0    0  0.00000000000E+00  0.00000000000E+00  0.25629298718E+03  0.16363439888E+04  0.16161483702E+04 0.  0.
        5    1    3    3  502    0  0.17527882909E+01 -0.32839072204E+03  0.87569390475E+03  0.93525688632E+03  0.46999998093E+01 0. -1.
       -5    1    3    3    0  502 -0.17527882909E+01  0.32839072204E+03 -0.61940091757E+03  0.70108710249E+03  0.46999998093E+01 0.  1.
</event>
<event>
 5   0  0.6146552E-04  0.1508397E+04  0.7818609E-02  0.8878888E-01
        1   -1    0    0  501    0  0.00000000000E+00  0.00000000000E+00  0.67422330889E+03  0.67422330891E+03  0.50400001928E-02 0.  1.
       -1   -1    0    0    0  501  0.00000000000E+00  0.00000000000E+00 -0.84365990350E+03  0.84365990352E+03  0.50400001928E-02 0. -1.
    10030    2    1    2    0    0  0.00000000000E+00  0.00000000000E+00 -0.16943659461E+03  0.15178832124E+04  0.15083967273E+04 0.  0.
        5    1    3    3  502    0 -0.14639972974E+03  0.44037682903E+03 -0.68295565403E+03  0.82572098664E+03  0.46999998093E+01 0. -1.
       -5    1    3    3    0  502  0.14639972974E+03 -0.44037682903E+03  0.51351905942E+03  0.69216222578E+03  0.46999998093E+01 0.  1.
</event>
<event>
 5   0  0.1149716E-03  0.1482240E+04  0.7818609E-02  0.8896350E-01
        2   -1    0    0  501    0  0.00000000000E+00  0.00000000000E+00  0.11058139338E+04  0.11058139338E+04  0.25500000920E-02 0.  1.
       -2   -1    0    0    0  501  0.00000000000E+00  0.00000000000E+00 -0.49670083363E+03  0.49670083363E+03  0.25500000920E-02 0. -1.
    10030    2    1    2    0    0  0.00000000000E+00  0.00000000000E+00  0.60911310017E+03  0.16025147674E+04  0.14822397954E+04 0.  0.
        1    1    3    3  502    0  0.14264589263E+03 -0.19495768866E+03 -0.45294081676E+03  0.51333394059E+03  0.50400001928E-02 0. -1.
       -1    1    3    3    0  502 -0.14264589263E+03  0.19495768866E+03  0.10620539169E+04  0.10891808268E+04  0.50400001928E-02 0.  1.
</event>
<event>
 5   0  0.1082667E-03  0.1499270E+04  0.7818609E-02  0.8884939E-01
        2   -1    0    0  501    0  0.00000000000E+00  0.00000000000E+00  0.83726815184E+03  0.83726815185E+03  0.25500000920E-02 0. -1.
       -2   -1    0    0    0  501  0.00000000000E+00  0.00000000000E+00 -0.67117396574E+03  0.67117396575E+03  0.25500000920E-02 0.  1.
    10030    2    1    2    0    0  0.00000000000E+00  0.00000000000E+00  0.16609418610E+03  0.15084421176E+04  0.14992699368E+04 0.  0.
        5    1    3    3  502    0  0.47368212023E+03 -0.27401375620E+03 -0.43240757638E+03  0.69746447345E+03  0.46999998093E+01 0.  1.
       -5    1    3    3    0  502 -0.47368212023E+03  0.27401375620E+03  0.59850176248E+03  0.81097764415E+03  0.46999998093E+01 0. -1.
</event>
<event>
 5   0  0.1082667E-03  0.1532594E+04  0.7818609E-02  0.8863063E-01
       -2   -1    0    0    0  501  0.00000000000E+00  0.00000000000E+00  0.60221295490E+03  0.60221295490E+03  0.25500000920E-02 0. -1.
        2   -1    0    0  501    0  0.00000000000E+00  0.00000000000E+00 -0.97508913379E+03  0.97508913380E+03  0.25500000920E-02 0.  1.
    10030    2    1    2    0    0  0.00000000000E+00  0.00000000000E+00 -0.37287617890E+03  0.15773020887E+04  0.15325942823E+04 0.  0.
        5    1    3    3  502    0  0.34286307037E+03  0.59017696079E+03  0.17204060047E+03  0.70390623543E+03  0.46999998093E+01 0. -1.
       -5    1    3    3    0  502 -0.34286307037E+03 -0.59017696079E+03 -0.54491677937E+03  0.87339585327E+03  0.46999998093E+01 0.  1.
</event>
<event>
 5   0  0.6146552E-04  0.1485104E+04  0.7818609E-02  0.8894419E-01
        1   -1    0    0  501    0  0.00000000000E+00  0.00000000000E+00  0.14936132299E+04  0.14936132299E+04  0.50400001928E-02 0.  1.
       -1   -1    0    0    0  501  0.00000000000E+00  0.00000000000E+00 -0.36916095555E+03  0.36916095559E+03  0.50400001928E-02 0. -1.
    10030    2    1    2    0    0  0.00000000000E+00  0.00000000000E+00  0.11244522744E+04  0.18627741855E+04  0.14851042889E+04 0.  0.
        5    1    3    3  502    0 -0.47860906800E+03  0.22136213103E+03 -0.93493394019E+02  0.53556599757E+03  0.46999998093E+01 0. -1.
       -5    1    3    3    0  502  0.47860906800E+03 -0.22136213103E+03  0.12179456684E+04  0.13272081879E+04  0.46999998093E+01 0.  1.
</event>
<event>
 5   0  0.6146552E-04  0.1422400E+04  0.7818609E-02  0.8937762E-01
       -1   -1    0    0    0  501  0.00000000000E+00  0.00000000000E+00  0.16413332872E+04  0.16413332872E+04  0.50400001928E-02 0.  1.
        1   -1    0    0  501    0  0.00000000000E+00  0.00000000000E+00 -0.30816725575E+03  0.30816725579E+03  0.50400001928E-02 0. -1.
    10030    2    1    2    0    0  0.00000000000E+00  0.00000000000E+00  0.13331660315E+04  0.19495005430E+04  0.14223996273E+04 0.  0.
        5    1    3    3  502    0 -0.35144752953E+03 -0.61675626942E+03  0.72600046530E+03  0.10153828970E+04  0.46999998093E+01 0. -1.
       -5    1    3    3    0  502  0.35144752953E+03  0.61675626942E+03  0.60716556619E+03  0.93411764604E+03  0.46999998093E+01 0.  1.
</event>
<event>
 5   0  0.1082667E-03  0.1510449E+04  0.7818609E-02  0.8877534E-01
        2   -1    0    0  501    0  0.00000000000E+00  0.00000000000E+00  0.10505518448E+04  0.10505518449E+04  0.25500000920E-02 0.  1.
       -2   -1    0    0    0  501  0.00000000000E+00  0.00000000000E+00 -0.54291851137E+03  0.54291851138E+03  0.25500000920E-02 0. -1.
    10030    2    1    2    0    0  0.00000000000E+00  0.00000000000E+00  0.50763333348E+03  0.15934703562E+04  0.15104489978E+04 0.  0.
        5    1    3    3  502    0 -0.80879073670E+02 -0.73850182959E+03  0.11065373383E+03  0.75112762942E+03  0.46999998093E+01 0. -1.
       -5    1    3    3    0  502  0.80879073670E+02  0.73850182959E+03  0.39697959965E+03  0.84234272681E+03  0.46999998093E+01 0.  1.
</event>
<event>
 5   0  0.5606965E-04  0.1418092E+04  0.7818609E-02  0.8940825E-01
       -1   -1    0    0    0  501  0.00000000000E+00  0.00000000000E+00  0.49923535460E+03  0.49923535462E+03  0.50400001928E-02 0. -1.
        1   -1    0    0  501    0  0.00000000000E+00  0.00000000000E+00 -0.10070330656E+04  0.10070330656E+04  0.50400001928E-02 0.  1.
    10030    2    1    2    0    0  0.00000000000E+00  0.00000000000E+00 -0.50779771103E+03  0.15062684203E+04  0.14180923942E+04 0.  0.
        4    1    3    3  502    0 -0.28585252491E+03  0.90303713390E+02 -0.93640876543E+03  0.98322399051E+03  0.12699999809E+01 0.  1.
       -4    1    3    3    0  502  0.28585252491E+03 -0.90303713390E+02  0.42861105439E+03  0.52304442976E+03  0.12699999809E+01 0. -1.
</event>
<event>
 5   0  0.1149716E-03  0.1669159E+04  0.7818609E-02  0.8779152E-01
        2   -1    0    0  501    0  0.00000000000E+00  0.00000000000E+00  0.13949522416E+04  0.13949522416E+04  0.25500000920E-02 0.  1.
       -2   -1    0    0    0  501  0.00000000000E+00  0.00000000000E+00 -0.49931641974E+03  0.49931641975E+03  0.25500000920E-02 0. -1.
    10030    2    1    2    0    0  0.00000000000E+00  0.00000000000E+00  0.89563582186E+03  0.18942686614E+04  0.16691585413E+04 0.  0.
        1    1    3    3  502    0 -0.31829323462E+03 -0.61974939254E+03 -0.73630581469E+02  0.70058643672E+03  0.50400001928E-02 0. -1.
       -1    1    3    3    0  502  0.31829323462E+03  0.61974939254E+03  0.96926640333E+03  0.11936822246E+04  0.50400001928E-02 0.  1.
</event>
<event>
 5   0  0.6146552E-04  0.1503735E+04  0.7818609E-02  0.8881973E-01
        1   -1    0    0  501    0  0.00000000000E+00  0.00000000000E+00  0.25557130463E+04  0.25557130463E+04  0.50400001928E-02 0.  1.
       -1   -1    0    0    0  501  0.00000000000E+00  0.00000000000E+00 -0.22119271246E+03  0.22119271251E+03  0.50400001928E-02 0. -1.
    10030    2    1    2    0    0  0.00000000000E+00  0.00000000000E+00  0.23345203338E+04  0.27769057588E+04  0.15037354835E+04 0.  0.
        5    1    3    3  502    0 -0.36238169526E+03 -0.91339791323E+02  0.23720200087E+04  0.24012839195E+04  0.46999998093E+01 0.  1.
       -5    1    3    3    0  502  0.36238169526E+03  0.91339791323E+02 -0.37499674854E+02  0.37562183929E+03  0.46999998093E+01 0. -1.
</event>
<event>
 5   0  0.5924403E-04  0.1500993E+04  0.7818609E-02  0.8883793E-01
       -1   -1    0    0    0  501  0.00000000000E+00  0.00000000000E+00  0.44932672000E+03  0.44932672003E+03  0.50400001928E-02 0.  1.
        1   -1    0    0  501    0  0.00000000000E+00  0.00000000000E+00 -0.12535314698E+04  0.12535314698E+04  0.50400001928E-02 0. -1.
    10030    2    1    2    0    0  0.00000000000E+00  0.00000000000E+00 -0.80420474975E+03  0.17028581898E+04  0.15009932495E+04 0.  0.
        1    1    3    3  502    0 -0.62004359343E+02  0.64404700321E+03  0.29307466387E+02  0.64768820472E+03  0.50400001928E-02 0.  1.
       -1    1    3    3    0  502  0.62004359343E+02 -0.64404700321E+03 -0.83351221614E+03  0.10551699851E+04  0.50400001928E-02 0. -1.
</event>
<event>
 5   0  0.5924403E-04  0.1502485E+04  0.7818609E-02  0.8882802E-01
       -1   -1    0    0    0  501  0.00000000000E+00  0.00000000000E+00  0.29925192549E+03  0.29925192553E+03  0.50400001928E-02 0.  1.
        1   -1    0    0  501    0  0.00000000000E+00  0.00000000000E+00 -0.18859196848E+04  0.18859196848E+04  0.50400001928E-02 0. -1.
    10030    2    1    2    0    0  0.00000000000E+00  0.00000000000E+00 -0.15866677593E+04  0.21851716104E+04  0.15024847381E+04 0.  0.
        1    1    3    3  502    0 -0.52322990625E+03  0.21305632192E+03 -0.73158972037E+02  0.56966197549E+03  0.50400001928E-02 0.  1.
       -1    1    3    3    0  502  0.52322990625E+03 -0.21305632192E+03 -0.15135087873E+04  0.16155096349E+04  0.50400001928E-02 0. -1.
</event>
<event>
 5   0  0.5606965E-04  0.1508115E+04  0.7818609E-02  0.8879075E-01
        1   -1    0    0  501    0  0.00000000000E+00  0.00000000000E+00  0.12654930632E+04  0.12654930632E+04  0.50400001928E-02 0.  1.
       -1   -1    0    0    0  501  0.00000000000E+00  0.00000000000E+00 -0.44931295186E+03  0.44931295189E+03  0.50400001928E-02 0. -1.
    10030    2    1    2    0    0  0.00000000000E+00  0.00000000000E+00  0.81618011132E+03  0.17148060151E+04  0.15081146161E+04 0.  0.
        4    1    3    3  502    0 -0.40233003780E+03  0.60804430660E+03  0.62684635441E+03  0.96152238821E+03  0.12699999809E+01 0.  1.
       -4    1    3    3    0  502  0.40233003780E+03 -0.60804430660E+03  0.18933375691E+03  0.75328362687E+03  0.12699999809E+01 0. -1.
</event>
<event>
 5   0  0.1147755E-03  0.1503535E+04  0.7818609E-02  0.8882106E-01
        2   -1    0    0  501    0  0.00000000000E+00  0.00000000000E+00  0.31932317227E+04  0.31932317227E+04  0.25500000920E-02 0.  1.
       -2   -1    0    0    0  501  0.00000000000E+00  0.00000000000E+00 -0.17698503280E+03  0.17698503282E+03  0.25500000920E-02 0. -1.
    10030    2    1    2    0    0  0.00000000000E+00  0.00000000000E+00  0.30162466899E+04  0.33702167555E+04  0.15035347967E+04 0.  0.
        4    1    3    3  502    0  0.43230327639E+03  0.56651463420E+03  0.97142971872E+03  0.12047830779E+04  0.12699999809E+01 0. -1.
       -4    1    3    3    0  502 -0.43230327639E+03 -0.56651463420E+03  0.20448169712E+04  0.21654336776E+04  0.12699999809E+01 0.  1.
</event>
<event>
 5   0  0.1126175E-03  0.1497825E+04  0.7818609E-02  0.8885900E-01
        2   -1    0    0  501    0  0.00000000000E+00  0.00000000000E+00  0.25740115423E+04  0.25740115423E+04  0.25500000920E-02 0. -1.
       -2   -1    0    0    0  501  0.00000000000E+00  0.00000000000E+00 -0.21789727397E+03  0.21789727398E+03  0.25500000920E-02 0.  1.
    10030    2    1    2    0    0  0.00000000000E+00  0.00000000000E+00  0.23561142683E+04  0.27919088162E+04  0.14978252211E+04 0.  0.
        3    1    3    3  502    0 -0.20696209420E+03 -0.71937136019E+03  0.12214371533E+04  0.14325631547E+04  0.10100000352E+00 0.  1.
       -3    1    3    3    0  502  0.20696209420E+03  0.71937136019E+03  0.11346771149E+04  0.13593456616E+04  0.10100000352E+00 0. -1.
</event>
<event>
 5   0  0.5606965E-04  0.1508127E+04  0.7818609E-02  0.8879066E-01
       -1   -1    0    0    0  501  0.00000000000E+00  0.00000000000E+00  0.79271456220E+03  0.79271456221E+03  0.50400001928E-02 0.  1.
        1   -1    0    0  501    0  0.00000000000E+00  0.00000000000E+00 -0.71729742063E+03  0.71729742065E+03  0.50400001928E-02 0. -1.
    10030    2    1    2    0    0  0.00000000000E+00  0.00000000000E+00  0.75417141565E+02  0.15100119829E+04  0.15081274625E+04 0.  0.
        4    1    3    3  502    0  0.73981922654E+03 -0.14483273250E+03  0.55093721296E+02  0.75587428809E+03  0.12699999809E+01 0. -1.
       -4    1    3    3    0  502 -0.73981922654E+03  0.14483273250E+03  0.20323420269E+02  0.75413769477E+03  0.12699999809E+01 0.  1.
</event>
<event>
 5   0  0.1082667E-03  0.1508062E+04  0.7818609E-02  0.8879110E-01
       -2   -1    0    0    0  501  0.00000000000E+00  0.00000000000E+00  0.43846696474E+03  0.43846696474E+03  0.25500000920E-02 0. -1.
        2   -1    0    0  501    0  0.00000000000E+00  0.00000000000E+00 -0.12967053778E+04  0.12967053778E+04  0.25500000920E-02 0.  1.
    10030    2    1    2    0    0  0.00000000000E+00  0.00000000000E+00 -0.85823841306E+03  0.17351723425E+04  0.15080616316E+04 0.  0.
        5    1    3    3  502    0  0.53872574110E+03  0.19441672022E+02  0.17747281244E+03  0.56755800751E+03  0.46999998093E+01 0. -1.
       -5    1    3    3    0  502 -0.53872574110E+03 -0.19441672022E+02 -0.10357112255E+04  0.11676143350E+04  0.46999998093E+01 0.  1.
</event>
<event>
 5   0  0.1082667E-03  0.1496713E+04  0.7818609E-02  0.8886642E-01
        2   -1    0    0  501    0  0.00000000000E+00  0.00000000000E+00  0.16520351186E+04  0.16520351186E+04  0.25500000920E-02 0. -1.
       -2   -1    0    0    0  501  0.00000000000E+00  0.00000000000E+00 -0.33899833644E+03  0.33899833645E+03  0.25500000920E-02 0.  1.
    10030    2    1    2    0    0  0.00000000000E+00  0.00000000000E+00  0.13130367821E+04  0.19910334550E+04  0.14967126069E+04 0.  0.
        5    1    3    3  502    0  0.59083887816E+03 -0.25780143479E+03  0.15090529302E+03  0.66207753110E+03  0.46999998093E+01 0.  1.
       -5    1    3    3    0  502 -0.59083887816E+03  0.25780143479E+03  0.11621314891E+04  0.13289559239E+04  0.46999998093E+01 0. -1.
</event>
<event>
 5   0  0.1147755E-03  0.1518602E+04  0.7818609E-02  0.8872176E-01
       -2   -1    0    0    0  501  0.00000000000E+00  0.00000000000E+00  0.36442036591E+03  0.36442036592E+03  0.25500000920E-02 0.  1.
        2   -1    0    0  501    0  0.00000000000E+00  0.00000000000E+00 -0.15820685264E+04  0.15820685264E+04  0.25500000920E-02 0. -1.
    10030    2    1    2    0    0  0.00000000000E+00  0.00000000000E+00 -0.12176481605E+04  0.19464888923E+04  0.15186019772E+04 0.  0.
        4    1    3    3  502    0 -0.47808712422E+03 -0.36777497877E+01  0.14725958485E+03  0.50026775073E+03  0.12699999809E+01 0.  1.
       -4    1    3    3    0  502  0.47808712422E+03  0.36777497877E+01 -0.13649077453E+04  0.14462211416E+04  0.12699999809E+01 0. -1.
</event>
<event>
 5   0  0.1097156E-03  0.1497062E+04  0.7818609E-02  0.8886409E-01
        2   -1    0    0  501    0  0.00000000000E+00  0.00000000000E+00  0.41043500068E+03  0.41043500069E+03  0.25500000920E-02 0. -1.
       -2   -1    0    0    0  501  0.00000000000E+00  0.00000000000E+00 -0.13651344254E+04  0.13651344254E+04  0.25500000920E-02 0.  1.
    10030    2    1    2    0    0  0.00000000000E+00  0.00000000000E+00 -0.95469942469E+03  0.17755694261E+04  0.14970623886E+04 0.  0.
        2    1    3    3  502    0  0.23795924457E+03 -0.70812817817E+03 -0.53334303409E+03  0.91789155722E+03  0.25500000920E-02 0. -1.
       -2    1    3    3    0  502 -0.23795924457E+03  0.70812817817E+03 -0.42135639060E+03  0.85767786884E+03  0.25500000920E-02 0.  1.
</event>
<event>
 5   0  0.1097156E-03  0.1563774E+04  0.7818609E-02  0.8843117E-01
       -2   -1    0    0    0  501  0.00000000000E+00  0.00000000000E+00  0.44207336414E+03  0.44207336415E+03  0.25500000920E-02 0. -1.
        2   -1    0    0  501    0  0.00000000000E+00  0.00000000000E+00 -0.13829093738E+04  0.13829093738E+04  0.25500000920E-02 0.  1.
    10030    2    1    2    0    0  0.00000000000E+00  0.00000000000E+00 -0.94083600961E+03  0.18249827379E+04  0.15637741514E+04 0.  0.
        2    1    3    3  502    0 -0.65064872491E+03 -0.20802047053E+03 -0.26435668807E+02  0.68360450846E+03  0.25500000920E-02 0. -1.
       -2    1    3    3    0  502  0.65064872491E+03  0.20802047053E+03 -0.91440034080E+03  0.11413782294E+04  0.25500000920E-02 0.  1.
</event>
<event>
 5   0  0.1097156E-03  0.1510778E+04  0.7818609E-02  0.8877317E-01
       -2   -1    0    0    0  501  0.00000000000E+00  0.00000000000E+00  0.28290322778E+03  0.28290322779E+03  0.25500000920E-02 0.  1.
        2   -1    0    0  501    0  0.00000000000E+00  0.00000000000E+00 -0.20169874304E+04  0.20169874304E+04  0.25500000920E-02 0. -1.
    10030    2    1    2    0    0  0.00000000000E+00  0.00000000000E+00 -0.17340842026E+04  0.22998906582E+04  0.15107776203E+04 0.  0.
        2    1    3    3  502    0 -0.45560404336E+03 -0.39690988134E+03 -0.15571425375E+04  0.16702710499E+04  0.25500000920E-02 0. -1.
       -2    1    3    3    0  502  0.45560404336E+03  0.39690988134E+03 -0.17694166514E+03  0.62961960826E+03  0.25500000920E-02 0.  1.
</event>
<event>
 5   0  0.1126175E-03  0.1490811E+04  0.7818609E-02  0.8890587E-01
        2   -1    0    0  501    0  0.00000000000E+00  0.00000000000E+00  0.61282251344E+03  0.61282251345E+03  0.25500000920E-02 0. -1.
       -2   -1    0    0    0  501  0.00000000000E+00  0.00000000000E+00 -0.90667199701E+03  0.90667199702E+03  0.25500000920E-02 0.  1.
    10030    2    1    2    0    0  0.00000000000E+00  0.00000000000E+00 -0.29384948357E+03  0.15194945105E+04  0.14908105340E+04 0.  0.
        3    1    3    3  502    0  0.16300377291E+03 -0.70656671783E+03 -0.32293859507E+03  0.79378593029E+03  0.10100000352E+00 0.  1.
       -3    1    3    3    0  502 -0.16300377291E+03  0.70656671783E+03  0.29089111501E+02  0.72570858018E+03  0.10100000352E+00 0. -1.
</event>
<event>
 5   0  0.1147755E-03  0.1502415E+04  0.7818609E-02  0.8882849E-01
       -2   -1    0    0    0  501  0.00000000000E+00  0.00000000000E+00  0.13472925614E+04  0.13472925614E+04  0.25500000920E-02 0.  1.
        2   -1    0    0  501    0  0.00000000000E+00  0.00000000000E+00 -0.41884943827E+03  0.41884943828E+03  0.25500000920E-02 0. -1.
    10030    2    1    2    0    0  0.00000000000E+00  0.00000000000E+00  0.92844312315E+03  0.17661419997E+04  0.15024150326E+04 0.  0.
        4    1    3    3  502    0 -0.24496571296E+03  0.69341301810E+03  0.28408709534E+03  0.78837611889E+03  0.12699999809E+01 0.  1.
       -4    1    3    3    0  502  0.24496571296E+03 -0.69341301810E+03  0.64435602781E+03  0.97776588081E+03  0.12699999809E+01 0. -1.
</event>
<event>
 5   0  0.1149716E-03  0.1499308E+04  0.7818609E-02  0.8884913E-01
       -2   -1    0    0    0  501  0.00000000000E+00  0.00000000000E+00  0.11393337177E+04  0.11393337177E+04  0.25500000920E-02 0. -1.
        2   -1    0    0  501    0  0.00000000000E+00  0.00000000000E+00 -0.49325419354E+03  0.49325419355E+03  0.25500000920E-02 0.  1.
    10030    2    1    2    0    0  0.00000000000E+00  0.00000000000E+00  0.64607952414E+03  0.16325879112E+04  0.14993080192E+04 0.  0.
        1    1    3    3  502    0 -0.29856228329E+03  0.45991897892E+03 -0.23359317963E+03  0.59601231343E+03  0.50400001928E-02 0.  1.
       -1    1    3    3    0  502  0.29856228329E+03 -0.45991897892E+03  0.87967270376E+03  0.10365755978E+04  0.50400001928E-02 0. -1.
</event>
<event>
 5   0  0.5924403E-04  0.1504079E+04  0.7818609E-02  0.8881745E-01
       -1   -1    0    0    0  501  0.00000000000E+00  0.00000000000E+00  0.31290301882E+03  0.31290301887E+03  0.50400001928E-02 0.  1.
        1   -1    0    0  501    0  0.00000000000E+00  0.00000000000E+00 -0.18074713875E+04  0.18074713875E+04  0.50400001928E-02 0. -1.
    10030    2    1    2    0    0  0.00000000000E+00  0.00000000000E+00 -0.14945683686E+04  0.21203744063E+04  0.15040787926E+04 0.  0.
        1    1    3    3  502    0 -0.29596751138E+03  0.32879190421E+03 -0.16046418584E+04  0.16645048447E+04  0.50400001928E-02 0. -1.
       -1    1    3    3    0  502  0.29596751138E+03 -0.32879190421E+03  0.11007348980E+03  0.45586956166E+03  0.50400001928E-02 0.  1.
</event>
<event>
 5   0  0.5840834E-04  0.1516897E+04  0.7818609E-02  0.8873294E-01
        1   -1    0    0  501    0  0.00000000000E+00  0.00000000000E+00  0.14928674979E+04  0.14928674979E+04  0.50400001928E-02 0. -1.
       -1   -1    0    0    0  501  0.00000000000E+00  0.00000000000E+00 -0.38532830863E+03  0.38532830866E+03  0.50400001928E-02 0.  1.
    10030    2    1    2    0    0  0.00000000000E+00  0.00000000000E+00  0.11075391893E+04  0.18781958066E+04  0.15168969748E+04 0.  0.
        3    1    3    3  502    0 -0.32165725191E+03 -0.49301031250E+03 -0.38389380890E+02  0.58991212118E+03  0.10100000352E+00 0.  1.
       -3    1    3    3    0  502  0.32165725191E+03  0.49301031250E+03  0.11459285702E+04  0.12882836854E+04  0.10100000352E+00 0. -1.
</event>
<event>
 5   0  0.5924403E-04  0.1498559E+04  0.7818609E-02  0.8885412E-01
        1   -1    0    0  501    0  0.00000000000E+00  0.00000000000E+00  0.54391889362E+03  0.54391889364E+03  0.50400001928E-02 0.  1.
       -1   -1    0    0    0  501  0.00000000000E+00  0.00000000000E+00 -0.10321757479E+04  0.10321757479E+04  0.50400001928E-02 0. -1.
    10030    2    1    2    0    0  0.00000000000E+00  0.00000000000E+00 -0.48825685429E+03  0.15760946416E+04  0.14985591625E+04 0.  0.
        1    1    3    3  502    0  0.59686077723E+03 -0.30711477208E+03  0.10605144094E+03  0.67956543377E+03  0.50400001928E-02 0.  1.
       -1    1    3    3    0  502 -0.59686077723E+03  0.30711477208E+03 -0.59430829523E+03  0.89652920779E+03  0.50400001928E-02 0. -1.
</event>
<event>
 5   0  0.1147755E-03  0.1497749E+04  0.7818609E-02  0.8885951E-01
       -2   -1    0    0    0  501  0.00000000000E+00  0.00000000000E+00  0.46475942145E+03  0.46475942146E+03  0.25500000920E-02 0. -1.
        2   -1    0    0  501    0  0.00000000000E+00  0.00000000000E+00 -0.12066731957E+04  0.12066731957E+04  0.25500000920E-02 0.  1.
    10030    2    1    2    0    0  0.00000000000E+00  0.00000000000E+00 -0.74191377424E+03  0.16714326171E+04  0.14977486255E+04 0.  0.
        4    1    3    3  502    0 -0.26397716895E+03 -0.68866898755E+03 -0.22604396851E+03  0.77139251276E+03  0.12699999809E+01 0.  1.
       -4    1    3    3    0  502  0.26397716895E+03  0.68866898755E+03 -0.51586980573E+03  0.90004010439E+03  0.12699999809E+01 0. -1.
</event>
<event>
 5   0  0.1097156E-03  0.1491010E+04  0.7818609E-02  0.8890453E-01
        2   -1    0    0  501    0  0.00000000000E+00  0.00000000000E+00  0.44384758952E+03  0.44384758953E+03  0.25500000920E-02 0. -1.
       -2   -1    0    0    0  501  0.00000000000E+00  0.00000000000E+00 -0.12521811421E+04  0.12521811421E+04  0.25500000920E-02 0.  1.
    10030    2    1    2    0    0  0.00000000000E+00  0.00000000000E+00 -0.80833355256E+03  0.16960287316E+04  0.14910098344E+04 0.  0.
        2    1    3    3  502    0 -0.71078143836E+03  0.21735385912E+03 -0.33857879715E+03  0.81675489290E+03  0.25500000920E-02 0. -1.
       -2    1    3    3    0  502  0.71078143836E+03 -0.21735385912E+03 -0.46975475542E+03  0.87927383871E+03  0.25500000920E-02 0.  1.
</event>
<event>
 5   0  0.1097156E-03  0.1499260E+04  0.7818609E-02  0.8884945E-01
       -2   -1    0    0    0  501  0.00000000000E+00  0.00000000000E+00  0.36067348704E+03  0.36067348705E+03  0.25500000920E-02 0.  1.
        2   -1    0    0  501    0  0.00000000000E+00  0.00000000000E+00 -0.15580434620E+04  0.15580434620E+04  0.25500000920E-02 0. -1.
    10030    2    1    2    0    0  0.00000000000E+00  0.00000000000E+00 -0.11973699750E+04  0.19187169491E+04  0.14992597753E+04 0.  0.
        2    1    3    3  502    0 -0.21206889683E+03  0.44732273219E+03 -0.13190911369E+04  0.14089259282E+04  0.25500000920E-02 0. -1.
       -2    1    3    3    0  502  0.21206889683E+03 -0.44732273219E+03  0.12172116188E+03  0.50979102090E+03  0.25500000920E-02 0.  1.
</event>
<event>
 5   0  0.1149716E-03  0.1507449E+04  0.7818609E-02  0.8879514E-01
       -2   -1    0    0    0  501  0.00000000000E+00  0.00000000000E+00  0.33018850070E+03  0.33018850071E+03  0.25500000920E-02 0.  1.
        2   -1    0    0  501    0  0.00000000000E+00  0.00000000000E+00 -0.17205346452E+04  0.17205346452E+04  0.25500000920E-02 0. -1.
    10030    2    1    2    0    0  0.00000000000E+00  0.00000000000E+00 -0.13903461445E+04  0.20507231459E+04  0.15074491765E+04 0.  0.
        1    1    3    3  502    0 -0.52083100881E+03  0.53761248087E+03 -0.81538620963E+03  0.11068634921E+04  0.50400001928E-02 0. -1.
       -1    1    3    3    0  502  0.52083100881E+03 -0.53761248087E+03 -0.57495993489E+03  0.94385965380E+03  0.50400001928E-02 0.  1.
</event>
<event>
 5   0  0.1082667E-03  0.1505288E+04  0.7818609E-02  0.8880944E-01
       -2   -1    0    0    0  501  0.00000000000E+00  0.00000000000E+00  0.82924729220E+03  0.82924729220E+03  0.25500000920E-02 0.  1.
        2   -1    0    0  501    0  0.00000000000E+00  0.00000000000E+00 -0.68311726867E+03  0.68311726867E+03  0.25500000920E-02 0. -1.
    10030    2    1    2    0    0  0.00000000000E+00  0.00000000000E+00  0.14613002353E+03  0.15123645609E+04  0.15052882054E+04 0.  0.
        5    1    3    3  502    0  0.37583325672E+03  0.24266857340E+03  0.68114769044E+03  0.81493738383E+03  0.46999998093E+01 0.  1.
       -5    1    3    3    0  502 -0.37583325672E+03 -0.24266857340E+03 -0.53501766691E+03  0.69742717704E+03  0.46999998093E+01 0. -1.
</event>
<event>
 5   0  0.5914645E-04  0.1503416E+04  0.7818609E-02  0.8882185E-01
       -1   -1    0    0    0  501  0.00000000000E+00  0.00000000000E+00  0.63725774078E+03  0.63725774080E+03  0.50400001928E-02 0. -1.
        1   -1    0    0  501    0  0.00000000000E+00  0.00000000000E+00 -0.88671302154E+03  0.88671302155E+03  0.50400001928E-02 0.  1.
    10030    2    1    2    0    0  0.00000000000E+00  0.00000000000E+00 -0.24945528076E+03  0.15239707623E+04  0.15034157600E+04 0.  0.
        2    1    3    3  502    0  0.39418811205E+03 -0.63937662058E+03 -0.15476393344E+03  0.76690195313E+03  0.25500000920E-02 0. -1.
       -2    1    3    3    0  502 -0.39418811205E+03  0.63937662058E+03 -0.94691347318E+02  0.75706880921E+03  0.25500000920E-02 0.  1.
</event>
<event>
 5   0  0.5840834E-04  0.1263304E+04  0.7818609E-02  0.9059182E-01
        1   -1    0    0  501    0  0.00000000000E+00  0.00000000000E+00  0.15529618522E+04  0.15529618522E+04  0.50400001928E-02 0. -1.
       -1   -1    0    0    0  501  0.00000000000E+00  0.00000000000E+00 -0.25691832804E+03  0.25691832809E+03  0.50400001928E-02 0.  1.
    10030    2    1    2    0    0  0.00000000000E+00  0.00000000000E+00  0.12960435242E+04  0.18098801803E+04  0.12633041797E+04 0.  0.
        3    1    3    3  502    0  0.35879503218E+03 -0.25551559670E+03 -0.58106707604E+00  0.44047978741E+03  0.10100000352E+00 0.  1.
       -3    1    3    3    0  502 -0.35879503218E+03  0.25551559670E+03  0.12966245912E+04  0.13694003929E+04  0.10100000352E+00 0. -1.
</event>
<event>
 5   0  0.5924403E-04  0.1475337E+04  0.7818609E-02  0.8901021E-01
       -1   -1    0    0    0  501  0.00000000000E+00  0.00000000000E+00  0.23633740036E+03  0.23633740041E+03  0.50400001928E-02 0.  1.
        1   -1    0    0  501    0  0.00000000000E+00  0.00000000000E+00 -0.23024479785E+04  0.23024479785E+04  0.50400001928E-02 0. -1.
    10030    2    1    2    0    0  0.00000000000E+00  0.00000000000E+00 -0.20661105782E+04  0.25387853790E+04  0.14753366664E+04 0.  0.
        1    1    3    3  502    0  0.54964647699E+03  0.42425278209E+03 -0.14617181749E+04  0.16182464879E+04  0.50400001928E-02 0. -1.
       -1    1    3    3    0  502 -0.54964647699E+03 -0.42425278209E+03 -0.60439240331E+03  0.92053889108E+03  0.50400001928E-02 0.  1.
</event>
<event>
 5   0  0.5914645E-04  0.1511847E+04  0.7818609E-02  0.8876613E-01
       -1   -1    0    0    0  501  0.00000000000E+00  0.00000000000E+00  0.42828007202E+03  0.42828007205E+03  0.50400001928E-02 0. -1.
        1   -1    0    0  501    0  0.00000000000E+00  0.00000000000E+00 -0.13342215432E+04  0.13342215432E+04  0.50400001928E-02 0.  1.
    10030    2    1    2    0    0  0.00000000000E+00  0.00000000000E+00 -0.90594147118E+03  0.17625016153E+04  0.15118472127E+04 0.  0.
        2    1    3    3  502    0  0.29964367875E+03  0.56441567470E+02 -0.12593497651E+04  0.12957367848E+04  0.25500000920E-02 0.  1.
       -2    1    3    3    0  502 -0.29964367875E+03 -0.56441567470E+02  0.35340829389E+03  0.46676483045E+03  0.25500000920E-02 0. -1.
</event>
<event>
 5   0  0.1126175E-03  0.1512211E+04  0.7818609E-02  0.8876373E-01
       -2   -1    0    0    0  501  0.00000000000E+00  0.00000000000E+00  0.76979575649E+03  0.76979575650E+03  0.25500000920E-02 0. -1.
        2   -1    0    0  501    0  0.00000000000E+00  0.00000000000E+00 -0.74265846520E+03  0.74265846520E+03  0.25500000920E-02 0.  1.
    10030    2    1    2    0    0  0.00000000000E+00  0.00000000000E+00  0.27137291293E+02  0.15124542217E+04  0.15122107459E+04 0.  0.
        3    1    3    3  502    0  0.76450722945E+01  0.63021422959E+03  0.43132825076E+03  0.76372278505E+03  0.10100000352E+00 0. -1.
       -3    1    3    3    0  502 -0.76450722945E+01 -0.63021422959E+03 -0.40419095947E+03  0.74873143665E+03  0.10100000352E+00 0.  1.
</event>
<event>
 5   0  0.5914645E-04  0.1509807E+04  0.7818609E-02  0.8877958E-01
        1   -1    0    0  501    0  0.00000000000E+00  0.00000000000E+00  0.11985898955E+04  0.11985898955E+04  0.50400001928E-02 0. -1.
       -1   -1    0    0    0  501  0.00000000000E+00  0.00000000000E+00 -0.47545791943E+03  0.47545791946E+03  0.50400001928E-02 0.  1.
    10030    2    1    2    0    0  0.00000000000E+00  0.00000000000E+00  0.72313197604E+03  0.16740478149E+04  0.15098066869E+04 0.  0.
        2    1    3    3  502    0  0.81354995927E+02 -0.55654267957E+03  0.91984744014E+03  0.10781825925E+04  0.25500000920E-02 0. -1.
       -2    1    3    3    0  502 -0.81354995927E+02  0.55654267957E+03 -0.19671546410E+03  0.59586522248E+03  0.25500000920E-02 0.  1.
</event>
<event>
 5   0  0.1082667E-03  0.1495089E+04  0.7818609E-02  0.8887725E-01
       -2   -1    0    0    0  501  0.00000000000E+00  0.00000000000E+00  0.89497124123E+03  0.89497124123E+03  0.25500000920E-02 0.  1.
        2   -1    0    0  501    0  0.00000000000E+00  0.00000000000E+00 -0.62440330325E+03  0.62440330326E+03  0.25500000920E-02 0. -1.
    10030    2    1    2    0    0  0.00000000000E+00  0.00000000000E+00  0.27056793797E+03  0.15193745445E+04  0.14950892941E+04 0.  0.
        5    1    3    3  502    0 -0.55358227132E+03 -0.45810367545E+02  0.64365861109E+03  0.85021786533E+03  0.46999998093E+01 0.  1.
       -5    1    3    3    0  502  0.55358227132E+03  0.45810367545E+02 -0.37309067312E+03  0.66915667916E+03  0.46999998093E+01 0. -1.
</event>
<event>
 5   0  0.1149716E-03  0.1504625E+04  0.7818609E-02  0.8881383E-01
       -2   -1    0    0    0  501  0.00000000000E+00  0.00000000000E+00  0.46429866763E+03  0.46429866764E+03  0.25500000920E-02 0.  1.
        2   -1    0    0  501    0  0.00000000000E+00  0.00000000000E+00 -0.12189866407E+04  0.12189866407E+04  0.25500000920E-02 0. -1.
    10030    2    1    2    0    0  0.00000000000E+00  0.00000000000E+00 -0.75468797309E+03  0.16832853084E+04  0.15046247016E+04 0.  0.
        1    1    3    3  502    0  0.39034594867E+03 -0.14623459070E+03 -0.10779825828E+04  0.11557685599E+04  0.50400001928E-02 0. -1.
       -1    1    3    3    0  502 -0.39034594867E+03  0.14623459070E+03  0.32329460976E+03  0.52751674844E+03  0.50400001928E-02 0.  1.
</event>
<event>
 5   0  0.6146552E-04  0.1550355E+04  0.7818609E-02  0.8851641E-01
       -1   -1    0    0    0  501  0.00000000000E+00  0.00000000000E+00  0.47154735024E+03  0.47154735026E+03  0.50400001928E-02 0.  1.
        1   -1    0    0  501    0  0.00000000000E+00  0.00000000000E+00 -0.12743161695E+04  0.12743161695E+04  0.50400001928E-02 0. -1.
    10030    2    1    2    0    0  0.00000000000E+00  0.00000000000E+00 -0.80276881924E+03  0.17458635197E+04  0.15503553310E+04 0.  0.
        5    1    3    3  502    0  0.62245729991E+03  0.90064152369E+02  0.10887143563E+03  0.63831005104E+03  0.46999998093E+01 0.  1.
       -5    1    3    3    0  502 -0.62245729991E+03 -0.90064152369E+02 -0.91164025487E+03  0.11075534687E+04  0.46999998093E+01 0. -1.
</event>
<event>
 5   0  0.5840834E-04  0.1472642E+04  0.7818609E-02  0.8902852E-01
        1   -1    0    0  501    0  0.00000000000E+00  0.00000000000E+00  0.15951293082E+04  0.15951293082E+04  0.50400001928E-02 0. -1.
       -1   -1    0    0    0  501  0.00000000000E+00  0.00000000000E+00 -0.33989028691E+03  0.33989028695E+03  0.50400001928E-02 0.  1.
    10030    2    1    2    0    0  0.00000000000E+00  0.00000000000E+00  0.12552390213E+04  0.19350195952E+04  0.14726424661E+04 0.  0.
        3    1    3    3  502    0 -0.22648296845E+03 -0.64853616035E+03  0.27929079101E+03  0.74155043147E+03  0.10100000352E+00 0.  1.
       -3    1    3    3    0  502  0.22648296845E+03  0.64853616035E+03  0.97594823028E+03  0.11934691637E+04  0.10100000352E+00 0. -1.
</event>
<event>
 5   0  0.5924403E-04  0.1534545E+04  0.7818609E-02  0.8861801E-01
        1   -1    0    0  501    0  0.00000000000E+00  0.00000000000E+00  0.15432385485E+04  0.15432385485E+04  0.50400001928E-02 0. -1.
       -1   -1    0    0    0  501  0.00000000000E+00  0.00000000000E+00 -0.38147488180E+03  0.38147488183E+03  0.50400001928E-02 0.  1.
    10030    2    1    2    0    0  0.00000000000E+00  0.00000000000E+00  0.11617636667E+04  0.19247134303E+04  0.15345445486E+04 0.  0.
        1    1    3    3  502    0  0.65382616841E+03 -0.23687782017E+03  0.17424907684E+03  0.71691178048E+03  0.50400001928E-02 0.  1.
       -1    1    3    3    0  502 -0.65382616841E+03  0.23687782017E+03  0.98751458984E+03  0.12078016498E+04  0.50400001928E-02 0. -1.
</event>
<event>
 5   0  0.6146552E-04  0.1175328E+04  0.7818609E-02  0.9134730E-01
       -1   -1    0    0    0  501  0.00000000000E+00  0.00000000000E+00  0.49918417263E+03  0.49918417265E+03  0.50400001928E-02 0. -1.
        1   -1    0    0  501    0  0.00000000000E+00  0.00000000000E+00 -0.69182651162E+03  0.69182651164E+03  0.50400001928E-02 0.  1.
    10030    2    1    2    0    0  0.00000000000E+00  0.00000000000E+00 -0.19264233899E+03  0.11910106843E+04  0.11753277753E+04 0.  0.
        5    1    3    3  502    0  0.88799656235E+01 -0.56633476216E+03  0.62333718697E+02  0.56984339876E+03  0.46999998093E+01 0. -1.
       -5    1    3    3    0  502 -0.88799656235E+01  0.56633476216E+03 -0.25497605769E+03  0.62116728553E+03  0.46999998093E+01 0.  1.
</event>
<event>
 5   0  0.1097156E-03  0.1489794E+04  0.7818609E-02  0.8891268E-01
       -2   -1    0    0    0  501  0.00000000000E+00  0.00000000000E+00  0.53713516604E+03  0.53713516605E+03  0.25500000920E-02 0. -1.
        2   -1    0    0  501    0  0.00000000000E+00  0.00000000000E+00 -0.10330209316E+04  0.10330209316E+04  0.25500000920E-02 0.  1.
    10030    2    1    2    0    0  0.00000000000E+00  0.00000000000E+00 -0.49588576558E+03  0.15701560977E+04  0.14897944417E+04 0.  0.
        2    1    3    3  502    0  0.47383435549E+03 -0.35203209201E+03 -0.72679231076E+03  0.93630799059E+03  0.25500000920E-02 0.  1.
       -2    1    3    3    0  502 -0.47383435549E+03  0.35203209201E+03  0.23090654518E+03  0.63384810709E+03  0.25500000920E-02 0. -1.
</event>
<event>
 5   0  0.5914645E-04  0.1504024E+04  0.7818609E-02  0.8881781E-01
        1   -1    0    0  501    0  0.00000000000E+00  0.00000000000E+00  0.12323165746E+04  0.12323165746E+04  0.50400001928E-02 0.  1.
       -1   -1    0    0    0  501  0.00000000000E+00  0.00000000000E+00 -0.45890993457E+03  0.45890993460E+03  0.50400001928E-02 0. -1.
    10030    2    1    2    0    0  0.00000000000E+00  0.00000000000E+00  0.77340663999E+03  0.16912265092E+04  0.15040243597E+04 0.  0.
        2    1    3    3  502    0 -0.21121648167E+03 -0.19004007627E+03 -0.39623190426E+03  0.48757292242E+03  0.25500000920E-02 0. -1.
       -2    1    3    3    0  502  0.21121648167E+03  0.19004007627E+03  0.11696385443E+04  0.12036535868E+04  0.25500000920E-02 0.  1.
</event>
<event>
 5   0  0.1082667E-03  0.1503707E+04  0.7818609E-02  0.8881992E-01
       -2   -1    0    0    0  501  0.00000000000E+00  0.00000000000E+00  0.37914257556E+03  0.37914257557E+03  0.25500000920E-02 0. -1.
        2   -1    0    0  501    0  0.00000000000E+00  0.00000000000E+00 -0.14909518155E+04  0.14909518155E+04  0.25500000920E-02 0.  1.
    10030    2    1    2    0    0  0.00000000000E+00  0.00000000000E+00 -0.11118092399E+04  0.18700943911E+04  0.15037065024E+04 0.  0.
        5    1    3    3  502    0  0.10580688691E+03 -0.57777420120E+03  0.27744186961E+02  0.58805608133E+03  0.46999998093E+01 0. -1.
       -5    1    3    3    0  502 -0.10580688691E+03  0.57777420120E+03 -0.11395534269E+04  0.12820383097E+04  0.46999998093E+01 0.  1.
</event>
<event>
 5   0  0.5924403E-04  0.1514047E+04  0.7818609E-02  0.8875165E-01
       -1   -1    0    0    0  501  0.00000000000E+00  0.00000000000E+00  0.41646999217E+03  0.41646999220E+03  0.50400001928E-02 0.  1.
        1   -1    0    0  501    0  0.00000000000E+00  0.00000000000E+00 -0.13760529142E+04  0.13760529142E+04  0.50400001928E-02 0. -1.
    10030    2    1    2    0    0  0.00000000000E+00  0.00000000000E+00 -0.95958292203E+03  0.17925229064E+04  0.15140472205E+04 0.  0.
        1    1    3    3  502    0 -0.25943120840E+02 -0.75542508662E+03 -0.43034011328E+03  0.86978889401E+03  0.50400001928E-02 0.  1.
       -1    1    3    3    0  502  0.25943120840E+02  0.75542508662E+03 -0.52924280874E+03  0.92273401241E+03  0.50400001928E-02 0. -1.
</event>
<event>
 5   0  0.1082667E-03  0.1505155E+04  0.7818609E-02  0.8881032E-01
       -2   -1    0    0    0  501  0.00000000000E+00  0.00000000000E+00  0.50791400371E+03  0.50791400372E+03  0.25500000920E-02 0.  1.
        2   -1    0    0  501    0  0.00000000000E+00  0.00000000000E+00 -0.11150958778E+04  0.11150958778E+04  0.25500000920E-02 0. -1.
    10030    2    1    2    0    0  0.00000000000E+00  0.00000000000E+00 -0.60718187408E+03  0.16230098815E+04  0.15051548915E+04 0.  0.
        5    1    3    3  502    0 -0.21786083020E+03  0.44394216541E+03  0.30810392776E+03  0.58266466159E+03  0.46999998093E+01 0.  1.
       -5    1    3    3    0  502  0.21786083020E+03 -0.44394216541E+03 -0.91528580184E+03  0.10403452199E+04  0.46999998093E+01 0. -1.
</event>
<event>
 5   0  0.1082667E-03  0.1506585E+04  0.7818609E-02  0.8880086E-01
       -2   -1    0    0    0  501  0.00000000000E+00  0.00000000000E+00  0.36490757319E+03  0.36490757320E+03  0.25500000920E-02 0. -1.
        2   -1    0    0  501    0  0.00000000000E+00  0.00000000000E+00 -0.15550497107E+04  0.15550497107E+04  0.25500000920E-02 0.  1.
    10030    2    1    2    0    0  0.00000000000E+00  0.00000000000E+00 -0.11901421375E+04  0.19199572839E+04  0.15065847685E+04 0.  0.
        5    1    3    3  502    0  0.22371983390E+03 -0.67191985046E+03 -0.26792457366E+03  0.75718724018E+03  0.46999998093E+01 0. -1.
       -5    1    3    3    0  502 -0.22371983390E+03  0.67191985046E+03 -0.92221756385E+03  0.11627700437E+04  0.46999998093E+01 0.  1.
</event>
<event>
 5   0  0.4070625E-04  0.1494340E+04  0.7818609E-02  0.8888226E-01
       -4   -1    0    0    0  501  0.00000000000E+00  0.00000000000E+00  0.92390605393E+03  0.92390692680E+03  0.12699999809E+01 0. -1.
        4   -1    0    0  501    0  0.00000000000E+00  0.00000000000E+00 -0.60424022523E+03  0.60424155988E+03  0.12699999809E+01 0.  1.
    10030    2    1    2    0    0  0.00000000000E+00  0.00000000000E+00  0.31966582870E+03  0.15281484867E+04  0.14943398393E+04 0.  0.
        2    1    3    3  502    0  0.39327640148E+03  0.47867863234E+03  0.58697096059E+03  0.85342514001E+03  0.25500000920E-02 0. -1.
       -2    1    3    3    0  502 -0.39327640148E+03 -0.47867863234E+03 -0.26730513189E+03  0.67472334668E+03  0.25500000920E-02 0.  1.
</event>
<event>
 5   0  0.1126175E-03  0.1494898E+04  0.7818609E-02  0.8887852E-01
       -2   -1    0    0    0  501  0.00000000000E+00  0.00000000000E+00  0.75941539719E+03  0.75941539719E+03  0.25500000920E-02 0. -1.
        2   -1    0    0  501    0  0.00000000000E+00  0.00000000000E+00 -0.73567160538E+03  0.73567160539E+03  0.25500000920E-02 0.  1.
    10030    2    1    2    0    0  0.00000000000E+00  0.00000000000E+00  0.23743791806E+02  0.14950870026E+04  0.14948984506E+04 0.  0.
        3    1    3    3  502    0  0.25723010469E+03  0.17977270542E+03 -0.66659024612E+03  0.73676870101E+03  0.10100000352E+00 0.  1.
       -3    1    3    3    0  502 -0.25723010469E+03 -0.17977270542E+03  0.69033403792E+03  0.75831830157E+03  0.10100000352E+00 0. -1.
</event>
<event>
 5   0  0.5924403E-04  0.1524292E+04  0.7818609E-02  0.8868458E-01
       -1   -1    0    0    0  501  0.00000000000E+00  0.00000000000E+00  0.76652082151E+03  0.76652082152E+03  0.50400001928E-02 0.  1.
        1   -1    0    0  501    0  0.00000000000E+00  0.00000000000E+00 -0.75779610135E+03  0.75779610137E+03  0.50400001928E-02 0. -1.
    10030    2    1    2    0    0  0.00000000000E+00  0.00000000000E+00  0.87247201569E+01  0.15243169229E+04  0.15242919539E+04 0.  0.
        1    1    3    3  502    0  0.73035686215E+03 -0.14874506807E+03 -0.15476362243E+03  0.76124767337E+03  0.50400001928E-02 0. -1.
       -1    1    3    3    0  502 -0.73035686215E+03  0.14874506807E+03  0.16348834259E+03  0.76306924951E+03  0.50400001928E-02 0.  1.
</event>
<event>
 5   0  0.5606965E-04  0.1460335E+04  0.7818609E-02  0.8911267E-01
        1   -1    0    0  501    0  0.00000000000E+00  0.00000000000E+00  0.90283570811E+03  0.90283570813E+03  0.50400001928E-02 0. -1.
       -1   -1    0    0    0  501  0.00000000000E+00  0.00000000000E+00 -0.59052196520E+03  0.59052196522E+03  0.50400001928E-02 0.  1.
    10030    2    1    2    0    0  0.00000000000E+00  0.00000000000E+00  0.31231374292E+03  0.14933576733E+04  0.14603346420E+04 0.  0.
        4    1    3    3  502    0  0.30715243791E+03  0.62586743561E+02  0.83052596346E+03  0.88771319099E+03  0.12699999809E+01 0. -1.
       -4    1    3    3    0  502 -0.30715243791E+03 -0.62586743561E+02 -0.51821222055E+03  0.60564448235E+03  0.12699999809E+01 0.  1.
</event>
<event>
 5   0  0.6146552E-04  0.1427670E+04  0.7818609E-02  0.8934030E-01
       -1   -1    0    0    0  501  0.00000000000E+00  0.00000000000E+00  0.75027308941E+03  0.75027308943E+03  0.50400001928E-02 0.  1.
        1   -1    0    0  501    0  0.00000000000E+00  0.00000000000E+00 -0.67916621297E+03  0.67916621299E+03  0.50400001928E-02 0. -1.
    10030    2    1    2    0    0  0.00000000000E+00  0.00000000000E+00  0.71106876445E+02  0.14294393024E+04  0.14276696156E+04 0.  0.
        5    1    3    3  502    0  0.18223674561E+02  0.22373545633E+03  0.71399826173E+03  0.74846861289E+03  0.46999998093E+01 0.  1.
       -5    1    3    3    0  502 -0.18223674561E+02 -0.22373545633E+03 -0.64289138528E+03  0.68097068953E+03  0.46999998093E+01 0. -1.
</event>
<event>
 5   0  0.1097156E-03  0.1506914E+04  0.7818609E-02  0.8879868E-01
       -2   -1    0    0    0  501  0.00000000000E+00  0.00000000000E+00  0.68465531925E+03  0.68465531925E+03  0.25500000920E-02 0. -1.
        2   -1    0    0  501    0  0.00000000000E+00  0.00000000000E+00 -0.82917234385E+03  0.82917234386E+03  0.25500000920E-02 0.  1.
    10030    2    1    2    0    0  0.00000000000E+00  0.00000000000E+00 -0.14451702461E+03  0.15138276631E+04  0.15069137411E+04 0.  0.
        2    1    3    3  502    0  0.32016354472E+03  0.33502159782E+03 -0.66908286793E+03  0.81388945843E+03  0.25500000920E-02 0.  1.
       -2    1    3    3    0  502 -0.32016354472E+03 -0.33502159782E+03  0.52456584332E+03  0.69993820468E+03  0.25500000920E-02 0. -1.
</event>
<event>
 5   0  0.5840834E-04  0.1479723E+04  0.7818609E-02  0.8898050E-01
       -1   -1    0    0    0  501  0.00000000000E+00  0.00000000000E+00  0.40895539056E+03  0.40895539060E+03  0.50400001928E-02 0.  1.
        1   -1    0    0  501    0  0.00000000000E+00  0.00000000000E+00 -0.13385203418E+04  0.13385203418E+04  0.50400001928E-02 0. -1.
    10030    2    1    2    0    0  0.00000000000E+00  0.00000000000E+00 -0.92956495120E+03  0.17474757324E+04  0.14797230946E+04 0.  0.
        3    1    3    3  502    0  0.60495214276E+03  0.21133334711E+03 -0.90151961356E+03  0.11060589959E+04  0.10100000352E+00 0. -1.
       -3    1    3    3    0  502 -0.60495214276E+03 -0.21133334711E+03 -0.28045337636E+02  0.64141673644E+03  0.10100000352E+00 0.  1.
</event>
<event>
 5   0  0.5606965E-04  0.1494362E+04  0.7818609E-02  0.8888211E-01
        1   -1    0    0  501    0  0.00000000000E+00  0.00000000000E+00  0.92377556569E+03  0.92377556571E+03  0.50400001928E-02 0. -1.
       -1   -1    0    0    0  501  0.00000000000E+00  0.00000000000E+00 -0.60434520613E+03  0.60434520615E+03  0.50400001928E-02 0.  1.
    10030    2    1    2    0    0  0.00000000000E+00  0.00000000000E+00  0.31943035956E+03  0.15281207719E+04  0.14943618500E+04 0.  0.
        4    1    3    3  502    0 -0.19372970026E+03  0.14848676696E+03 -0.56242383630E+03  0.61310822965E+03  0.12699999809E+01 0.  1.
       -4    1    3    3    0  502  0.19372970026E+03 -0.14848676696E+03  0.88185419587E+03  0.91501254221E+03  0.12699999809E+01 0. -1.
</event>
<event>
 5   0  0.1147755E-03  0.1418784E+04  0.7818609E-02  0.8940333E-01
        2   -1    0    0  501    0  0.00000000000E+00  0.00000000000E+00  0.10680612663E+04  0.10680612663E+04  0.25500000920E-02 0. -1.
       -2   -1    0    0    0  501  0.00000000000E+00  0.00000000000E+00 -0.47116849312E+03  0.47116849312E+03  0.25500000920E-02 0.  1.
    10030    2    1    2    0    0  0.00000000000E+00  0.00000000000E+00  0.59689277318E+03  0.15392297594E+04  0.14187837290E+04 0.  0.
        4    1    3    3  502    0 -0.53182041010E+03  0.42197659846E+03  0.75216440913E+02  0.68304928383E+03  0.12699999809E+01 0.  1.
       -4    1    3    3    0  502  0.53182041010E+03 -0.42197659846E+03  0.52167633227E+03  0.85618047560E+03  0.12699999809E+01 0. -1.
</event>
<event>
 5   0  0.5606965E-04  0.1380543E+04  0.7818609E-02  0.8968024E-01
       -1   -1    0    0    0  501  0.00000000000E+00  0.00000000000E+00  0.12607869767E+04  0.12607869767E+04  0.50400001928E-02 0. -1.
        1   -1    0    0  501    0  0.00000000000E+00  0.00000000000E+00 -0.37791877716E+03  0.37791877719E+03  0.50400001928E-02 0.  1.
    10030    2    1    2    0    0  0.00000000000E+00  0.00000000000E+00  0.88286819955E+03  0.16387057539E+04  0.13805434764E+04 0.  0.
        4    1    3    3  502    0  0.36452301158E+03  0.25908387742E+03  0.10655661005E+04  0.11556098862E+04  0.12699999809E+01 0. -1.
       -4    1    3    3    0  502 -0.36452301158E+03 -0.25908387742E+03 -0.18269790097E+03  0.48309586774E+03  0.12699999809E+01 0.  1.
</event>
<event>
 5   0  0.5606965E-04  0.1511127E+04  0.7818609E-02  0.8877087E-01
        1   -1    0    0  501    0  0.00000000000E+00  0.00000000000E+00  0.85009849646E+03  0.85009849648E+03  0.50400001928E-02 0. -1.
       -1   -1    0    0    0  501  0.00000000000E+00  0.00000000000E+00 -0.67154167730E+03  0.67154167732E+03  0.50400001928E-02 0.  1.
    10030    2    1    2    0    0  0.00000000000E+00  0.00000000000E+00  0.17855681917E+03  0.15216401738E+04  0.15111274866E+04 0.  0.
        4    1    3    3  502    0  0.69147790796E+03 -0.24870378504E+03  0.26622708189E+03  0.78158412338E+03  0.12699999809E+01 0. -1.
       -4    1    3    3    0  502 -0.69147790796E+03  0.24870378504E+03 -0.87670262723E+02  0.74005605042E+03  0.12699999809E+01 0.  1.
</event>
<event>
 5   0  0.5924403E-04  0.1496710E+04  0.7818609E-02  0.8886644E-01
        1   -1    0    0  501    0  0.00000000000E+00  0.00000000000E+00  0.18297749582E+04  0.18297749582E+04  0.50400001928E-02 0.  1.
       -1   -1    0    0    0  501  0.00000000000E+00  0.00000000000E+00 -0.30606789128E+03  0.30606789132E+03  0.50400001928E-02 0. -1.
    10030    2    1    2    0    0  0.00000000000E+00  0.00000000000E+00  0.15237070669E+04  0.21358428495E+04  0.14967102098E+04 0.  0.
        1    1    3    3  502    0 -0.41886940309E+03 -0.14479710352E+03  0.16223597516E+04  0.16818052627E+04  0.50400001928E-02 0.  1.
       -1    1    3    3    0  502  0.41886940309E+03  0.14479710352E+03 -0.98652684675E+02  0.45403758683E+03  0.50400001928E-02 0. -1.
</event>
<event>
 5   0  0.1149716E-03  0.1490366E+04  0.7818609E-02  0.8890885E-01
       -2   -1    0    0    0  501  0.00000000000E+00  0.00000000000E+00  0.37473980339E+03  0.37473980340E+03  0.25500000920E-02 0. -1.
        2   -1    0    0  501    0  0.00000000000E+00  0.00000000000E+00 -0.14818220522E+04  0.14818220522E+04  0.25500000920E-02 0.  1.
    10030    2    1    2    0    0  0.00000000000E+00  0.00000000000E+00 -0.11070822488E+04  0.18565618556E+04  0.14903660014E+04 0.  0.
        1    1    3    3  502    0 -0.44459628308E+03 -0.56883678437E+03 -0.32365281183E+03  0.79119674216E+03  0.50400001928E-02 0. -1.
       -1    1    3    3    0  502  0.44459628308E+03  0.56883678437E+03 -0.78342943695E+03  0.10653651134E+04  0.50400001928E-02 0.  1.
</event>
<event>
 5   0  0.5840834E-04  0.1479700E+04  0.7818609E-02  0.8898065E-01
        1   -1    0    0  501    0  0.00000000000E+00  0.00000000000E+00  0.73369378238E+03  0.73369378240E+03  0.50400001928E-02 0. -1.
       -1   -1    0    0    0  501  0.00000000000E+00  0.00000000000E+00 -0.74605830256E+03  0.74605830258E+03  0.50400001928E-02 0.  1.
    10030    2    1    2    0    0  0.00000000000E+00  0.00000000000E+00 -0.12364520177E+02  0.14797520850E+04  0.14797004263E+04 0.  0.
        3    1    3    3  502    0  0.25657909585E+03  0.64447651172E+02  0.68477745591E+03  0.73410251770E+03  0.10100000352E+00 0. -1.
       -3    1    3    3    0  502 -0.25657909585E+03 -0.64447651172E+02 -0.69714197609E+03  0.74564956728E+03  0.10100000352E+00 0.  1.
</event>
<event>
 5   0  0.1097156E-03  0.1340237E+04  0.7818609E-02  0.8998252E-01
       -2   -1    0    0    0  501  0.00000000000E+00  0.00000000000E+00  0.16281484697E+04  0.16281484697E+04  0.25500000920E-02 0. -1.
        2   -1    0    0  501    0  0.00000000000E+00  0.00000000000E+00 -0.27580935068E+03  0.27580935069E+03  0.25500000920E-02 0.  1.
    10030    2    1    2    0    0  0.00000000000E+00  0.00000000000E+00  0.13523391190E+04  0.19039578204E+04  0.13402366541E+04 0.  0.
        2    1    3    3  502    0  0.59072107237E+02  0.33266962308E+03  0.14982861125E+04  0.15359101103E+04  0.25500000920E-02 0. -1.
       -2    1    3    3    0  502 -0.59072107237E+02 -0.33266962308E+03 -0.14594699350E+03  0.36804771008E+03  0.25500000920E-02 0.  1.
</event>
<event>
 5   0  0.1082667E-03  0.1479830E+04  0.7818609E-02  0.8897978E-01
        2   -1    0    0  501    0  0.00000000000E+00  0.00000000000E+00  0.37135200474E+03  0.37135200475E+03  0.25500000920E-02 0. -1.
       -2   -1    0    0    0  501  0.00000000000E+00  0.00000000000E+00 -0.14742724525E+04  0.14742724525E+04  0.25500000920E-02 0.  1.
    10030    2    1    2    0    0  0.00000000000E+00  0.00000000000E+00 -0.11029204478E+04  0.18456244573E+04  0.14798297615E+04 0.  0.
        5    1    3    3  502    0  0.28008195463E+03  0.48396658256E+03  0.52856113823E+02  0.56168088192E+03  0.46999998093E+01 0. -1.
       -5    1    3    3    0  502 -0.28008195463E+03 -0.48396658256E+03 -0.11557765616E+04  0.12839435754E+04  0.46999998093E+01 0.  1.
</event>
<event>
 5   0  0.6146552E-04  0.1509190E+04  0.7818609E-02  0.8878364E-01
       -1   -1    0    0    0  501  0.00000000000E+00  0.00000000000E+00  0.34406983900E+03  0.34406983904E+03  0.50400001928E-02 0. -1.
        1   -1    0    0  501    0  0.00000000000E+00  0.00000000000E+00 -0.16549367078E+04  0.16549367078E+04  0.50400001928E-02 0.  1.
    10030    2    1    2    0    0  0.00000000000E+00  0.00000000000E+00 -0.13108668688E+04  0.19990065468E+04  0.15091902553E+04 0.  0.
        5    1    3    3  502    0 -0.70209920250E+03  0.26594050191E+03 -0.55522069882E+03  0.93378785337E+03  0.46999998093E+01 0. -1.
       -5    1    3    3    0  502  0.70209920250E+03 -0.26594050191E+03 -0.75564616995E+03  0.10652186934E+04  0.46999998093E+01 0.  1.
</event>
<event>
 5   0  0.1147755E-03  0.1252091E+04  0.7818609E-02  0.9068445E-01
       -2   -1    0    0    0  501  0.00000000000E+00  0.00000000000E+00  0.20613576940E+03  0.20613576942E+03  0.25500000920E-02 0. -1.
        2   -1    0    0  501    0  0.00000000000E+00  0.00000000000E+00 -0.19013336493E+04  0.19013336493E+04  0.25500000920E-02 0.  1.
    10030    2    1    2    0    0  0.00000000000E+00  0.00000000000E+00 -0.16951978799E+04  0.21074694187E+04  0.12520908509E+04 0.  0.
        4    1    3    3  502    0 -0.45067443432E+03  0.38945926573E+03 -0.11719963314E+04  0.13146721945E+04  0.12699999809E+01 0.  1.
       -4    1    3    3    0  502  0.45067443432E+03 -0.38945926573E+03 -0.52320154855E+03  0.79279722422E+03  0.12699999809E+01 0. -1.
</event>
<event>
 5   0  0.1147755E-03  0.1505740E+04  0.7818609E-02  0.8880645E-01
        2   -1    0    0  501    0  0.00000000000E+00  0.00000000000E+00  0.10228982391E+04  0.10228982391E+04  0.25500000920E-02 0. -1.
       -2   -1    0    0    0  501  0.00000000000E+00  0.00000000000E+00 -0.55412455184E+03  0.55412455185E+03  0.25500000920E-02 0.  1.
    10030    2    1    2    0    0  0.00000000000E+00  0.00000000000E+00  0.46877368722E+03  0.15770227909E+04  0.15057397229E+04 0.  0.
        4    1    3    3  502    0 -0.42829555547E+03 -0.35767240764E+03 -0.29495543121E+03  0.63116317488E+03  0.12699999809E+01 0.  1.
       -4    1    3    3    0  502  0.42829555547E+03  0.35767240764E+03  0.76372911843E+03  0.94585961604E+03  0.12699999809E+01 0. -1.
</event>
<event>
 5   0  0.1097156E-03  0.1462221E+04  0.7818609E-02  0.8909972E-01
       -2   -1    0    0    0  501  0.00000000000E+00  0.00000000000E+00  0.47002426666E+03  0.47002426667E+03  0.25500000920E-02 0. -1.
        2   -1    0    0  501    0  0.00000000000E+00  0.00000000000E+00 -0.11372228882E+04  0.11372228882E+04  0.25500000920E-02 0.  1.
    10030    2    1    2    0    0  0.00000000000E+00  0.00000000000E+00 -0.66719862153E+03  0.16072471549E+04  0.14622207139E+04 0.  0.
        2    1    3    3  502    0  0.59526346192E+03 -0.38401052705E+03 -0.53242580645E+03  0.88616020750E+03  0.25500000920E-02 0. -1.
       -2    1    3    3    0  502 -0.59526346192E+03  0.38401052705E+03 -0.13477281509E+03  0.72108694737E+03  0.25500000920E-02 0.  1.
</event>
<event>
 5   0  0.6146552E-04  0.1520581E+04  0.7818609E-02  0.8870881E-01
        1   -1    0    0  501    0  0.00000000000E+00  0.00000000000E+00  0.14604895911E+04  0.14604895911E+04  0.50400001928E-02 0. -1.
       -1   -1    0    0    0  501  0.00000000000E+00  0.00000000000E+00 -0.39578640753E+03  0.39578640757E+03  0.50400001928E-02 0.  1.
    10030    2    1    2    0    0  0.00000000000E+00  0.00000000000E+00  0.10647031836E+04  0.18562759987E+04  0.15205813737E+04 0.  0.
        5    1    3    3  502    0  0.21477903033E+03 -0.24505486876E+03  0.13709022467E+04  0.14091050282E+04  0.46999998093E+01 0. -1.
       -5    1    3    3    0  502 -0.21477903033E+03  0.24505486876E+03 -0.30619906312E+03  0.44717097046E+03  0.46999998093E+01 0.  1.
</event>
<event>
 5   0  0.1126175E-03  0.1461621E+04  0.7818609E-02  0.8910383E-01
       -2   -1    0    0    0  501  0.00000000000E+00  0.00000000000E+00  0.82177729587E+03  0.82177729587E+03  0.25500000920E-02 0.  1.
        2   -1    0    0  501    0  0.00000000000E+00  0.00000000000E+00 -0.64991361275E+03  0.64991361275E+03  0.25500000920E-02 0. -1.
    10030    2    1    2    0    0  0.00000000000E+00  0.00000000000E+00  0.17186368312E+03  0.14716909086E+04  0.14616213617E+04 0.  0.
        3    1    3    3  502    0 -0.55497152821E+02 -0.15440579520E+03  0.80299196888E+03  0.81958355025E+03  0.10100000352E+00 0.  1.
       -3    1    3    3    0  502  0.55497152821E+02  0.15440579520E+03 -0.63112828576E+03  0.65210735837E+03  0.10100000352E+00 0. -1.
</event>
<event>
 5   0  0.4070625E-04  0.1340063E+04  0.7818609E-02  0.8998384E-01
        3   -1    0    0  501    0  0.00000000000E+00  0.00000000000E+00  0.10679690981E+04  0.10679691028E+04  0.10100000352E+00 0.  1.
       -3   -1    0    0    0  501  0.00000000000E+00  0.00000000000E+00 -0.42037028071E+03  0.42037029285E+03  0.10100000352E+00 0. -1.
    10030    2    1    2    0    0  0.00000000000E+00  0.00000000000E+00  0.64759881735E+03  0.14883393957E+04  0.13400634047E+04 0.  0.
        1    1    3    3  502    0  0.15465431969E+03 -0.27479298720E+03 -0.33281212470E+03  0.45846816115E+03  0.50400001928E-02 0. -1.
       -1    1    3    3    0  502 -0.15465431969E+03  0.27479298720E+03  0.98041094206E+03  0.10298712345E+04  0.50400001928E-02 0.  1.
</event>
<event>
 5   0  0.5840834E-04  0.1440669E+04  0.7818609E-02  0.8924895E-01
        1   -1    0    0  501    0  0.00000000000E+00  0.00000000000E+00  0.66472668478E+03  0.66472668480E+03  0.50400001928E-02 0.  1.
       -1   -1    0    0    0  501  0.00000000000E+00  0.00000000000E+00 -0.78059472392E+03  0.78059472394E+03  0.50400001928E-02 0. -1.
    10030    2    1    2    0    0  0.00000000000E+00  0.00000000000E+00 -0.11586803915E+03  0.14453214087E+04  0.14406694874E+04 0.  0.
        3    1    3    3  502    0  0.24798283310E+03  0.47370689257E+02 -0.73475506065E+03  0.77691986528E+03  0.10100000352E+00 0. -1.
       -3    1    3    3    0  502 -0.24798283310E+03 -0.47370689257E+02  0.61888702150E+03  0.66840154346E+03  0.10100000352E+00 0.  1.
</event>
<event>
 5   0  0.4070625E-04  0.1504170E+04  0.7818609E-02  0.8881684E-01
        3   -1    0    0  501    0  0.00000000000E+00  0.00000000000E+00  0.42240589445E+03  0.42240590652E+03  0.10100000352E+00 0.  1.
       -3   -1    0    0    0  501  0.00000000000E+00  0.00000000000E+00 -0.13390723877E+04  0.13390723916E+04  0.10100000352E+00 0. -1.
    10030    2    1    2    0    0  0.00000000000E+00  0.00000000000E+00 -0.91666649329E+03  0.17614782981E+04  0.15041703144E+04 0.  0.
        3    1    3    3  502    0  0.33401870572E+03 -0.62433459863E+03 -0.16145112124E+03  0.72624283925E+03  0.10100000352E+00 0.  1.
       -3    1    3    3    0  502 -0.33401870572E+03  0.62433459863E+03 -0.75521537206E+03  0.10352354588E+04  0.10100000352E+00 0. -1.
</event>
<event>
 5   0  0.1147755E-03  0.1480086E+04  0.7818609E-02  0.8897805E-01
        2   -1    0    0  501    0  0.00000000000E+00  0.00000000000E+00  0.86607078291E+03  0.86607078291E+03  0.25500000920E-02 0.  1.
       -2   -1    0    0    0  501  0.00000000000E+00  0.00000000000E+00 -0.63235398254E+03  0.63235398254E+03  0.25500000920E-02 0. -1.
    10030    2    1    2    0    0  0.00000000000E+00  0.00000000000E+00  0.23371680037E+03  0.14984247655E+04  0.14800855499E+04 0.  0.
        4    1    3    3  502    0 -0.29755688109E+03 -0.50138955479E+03 -0.34456312677E+03  0.67724216080E+03  0.12699999809E+01 0. -1.
       -4    1    3    3    0  502  0.29755688109E+03  0.50138955479E+03  0.57827992715E+03  0.82118260465E+03  0.12699999809E+01 0.  1.
</event>
<event>
 5   0  0.5606965E-04  0.1506536E+04  0.7818609E-02  0.8880118E-01
       -1   -1    0    0    0  501  0.00000000000E+00  0.00000000000E+00  0.42113829873E+03  0.42113829876E+03  0.50400001928E-02 0. -1.
        1   -1    0    0  501    0  0.00000000000E+00  0.00000000000E+00 -0.13473307469E+04  0.13473307469E+04  0.50400001928E-02 0.  1.
    10030    2    1    2    0    0  0.00000000000E+00  0.00000000000E+00 -0.92619244819E+03  0.17684690457E+04  0.15065358656E+04 0.  0.
        4    1    3    3  502    0 -0.38672719239E+03 -0.62253585458E+03 -0.66743685923E+03  0.99125293721E+03  0.12699999809E+01 0.  1.
       -4    1    3    3    0  502  0.38672719239E+03  0.62253585458E+03 -0.25875558896E+03  0.77721610848E+03  0.12699999809E+01 0. -1.
</event>
<event>
 5   0  0.5840834E-04  0.1491276E+04  0.7818609E-02  0.8890275E-01
       -1   -1    0    0    0  501  0.00000000000E+00  0.00000000000E+00  0.70192822761E+03  0.70192822762E+03  0.50400001928E-02 0.  1.
        1   -1    0    0  501    0  0.00000000000E+00  0.00000000000E+00 -0.79206987740E+03  0.79206987742E+03  0.50400001928E-02 0. -1.
    10030    2    1    2    0    0  0.00000000000E+00  0.00000000000E+00 -0.90141649796E+02  0.14939981050E+04  0.14912762389E+04 0.  0.
        3    1    3    3  502    0 -0.15354103148E+03 -0.15796815256E+03 -0.75872443713E+03  0.79005795184E+03  0.10100000352E+00 0. -1.
       -3    1    3    3    0  502  0.15354103148E+03  0.15796815256E+03  0.66858278733E+03  0.70394015320E+03  0.10100000352E+00 0.  1.
</event>
<event>
 5   0  0.1097156E-03  0.1493966E+04  0.7818609E-02  0.8888475E-01
       -2   -1    0    0    0  501  0.00000000000E+00  0.00000000000E+00  0.58769928296E+03  0.58769928297E+03  0.25500000920E-02 0.  1.
        2   -1    0    0  501    0  0.00000000000E+00  0.00000000000E+00 -0.94943785154E+03  0.94943785155E+03  0.25500000920E-02 0. -1.
    10030    2    1    2    0    0  0.00000000000E+00  0.00000000000E+00 -0.36173856858E+03  0.15371371345E+04  0.14939664582E+04 0.  0.
        2    1    3    3  502    0 -0.41237180434E+03 -0.13440368265E+03  0.44487340831E+03  0.62131087577E+03  0.25500000920E-02 0.  1.
       -2    1    3    3    0  502  0.41237180434E+03  0.13440368265E+03 -0.80661197689E+03  0.91582625874E+03  0.25500000920E-02 0. -1.
</event>
<event>
 5   0  0.5840834E-04  0.1547662E+04  0.7818609E-02  0.8853363E-01
       -1   -1    0    0    0  501  0.00000000000E+00  0.00000000000E+00  0.24636472788E+03  0.24636472793E+03  0.50400001928E-02 0. -1.
        1   -1    0    0  501    0  0.00000000000E+00  0.00000000000E+00 -0.24305998947E+04  0.24305998947E+04  0.50400001928E-02 0.  1.
    10030    2    1    2    0    0  0.00000000000E+00  0.00000000000E+00 -0.21842351668E+04  0.26769646227E+04  0.15476615673E+04 0.  0.
        3    1    3    3  502    0 -0.21286523514E+03  0.58175892728E+03 -0.18942488750E+04  0.19929711158E+04  0.10100000352E+00 0.  1.
       -3    1    3    3    0  502  0.21286523514E+03 -0.58175892728E+03 -0.28998629189E+03  0.68399350690E+03  0.10100000352E+00 0. -1.
</event>
<event>
 5   0  0.1149716E-03  0.1491394E+04  0.7818609E-02  0.8890196E-01
       -2   -1    0    0    0  501  0.00000000000E+00  0.00000000000E+00  0.51653879548E+03  0.51653879548E+03  0.25500000920E-02 0. -1.
        2   -1    0    0  501    0  0.00000000000E+00  0.00000000000E+00 -0.10765190966E+04  0.10765190966E+04  0.25500000920E-02 0.  1.
    10030    2    1    2    0    0  0.00000000000E+00  0.00000000000E+00 -0.55998030111E+03  0.15930578921E+04  0.14913938145E+04 0.  0.
        1    1    3    3  502    0 -0.14823603814E+03 -0.71246511796E+03 -0.45382072844E+03  0.85763262584E+03  0.50400001928E-02 0.  1.
       -1    1    3    3    0  502  0.14823603814E+03  0.71246511796E+03 -0.10615957267E+03  0.73542526623E+03  0.50400001928E-02 0. -1.
</event>
<event>
 5   0  0.1149716E-03  0.1426069E+04  0.7818609E-02  0.8935162E-01
        2   -1    0    0  501    0  0.00000000000E+00  0.00000000000E+00  0.64106006661E+03  0.64106006662E+03  0.25500000920E-02 0.  1.
       -2   -1    0    0    0  501  0.00000000000E+00  0.00000000000E+00 -0.79308949133E+03  0.79308949133E+03  0.25500000920E-02 0. -1.
    10030    2    1    2    0    0  0.00000000000E+00  0.00000000000E+00 -0.15202942471E+03  0.14341495580E+04  0.14260687251E+04 0.  0.
        1    1    3    3  502    0 -0.72093553349E+02  0.54032311362E+01  0.63736468280E+03  0.64145180197E+03  0.50400001928E-02 0.  1.
       -1    1    3    3    0  502  0.72093553349E+02 -0.54032311362E+01 -0.78939410751E+03  0.79269775599E+03  0.50400001928E-02 0. -1.
</event>
<event>
 5   0  0.1126175E-03  0.1496422E+04  0.7818609E-02  0.8886836E-01
        2   -1    0    0  501    0  0.00000000000E+00  0.00000000000E+00  0.11393509408E+04  0.11393509408E+04  0.25500000920E-02 0. -1.
       -2   -1    0    0    0  501  0.00000000000E+00  0.00000000000E+00 -0.49134969683E+03  0.49134969684E+03  0.25500000920E-02 0.  1.
    10030    2    1    2    0    0  0.00000000000E+00  0.00000000000E+00  0.64800124395E+03  0.16307006376E+04  0.14964220519E+04 0.  0.
        3    1    3    3  502    0 -0.37288272373E+03  0.44018671462E+03 -0.19521329875E+03  0.60902718461E+03  0.10100000352E+00 0.  1.
       -3    1    3    3    0  502  0.37288272373E+03 -0.44018671462E+03  0.84321454270E+03  0.10216734530E+04  0.10100000352E+00 0. -1.
</event>
<event>
 5   0  0.1126175E-03  0.1499252E+04  0.7818609E-02  0.8884951E-01
        2   -1    0    0  501    0  0.00000000000E+00  0.00000000000E+00  0.21937933556E+04  0.21937933556E+04  0.25500000920E-02 0.  1.
       -2   -1    0    0    0  501  0.00000000000E+00  0.00000000000E+00 -0.25614942316E+03  0.25614942317E+03  0.25500000920E-02 0. -1.
    10030    2    1    2    0    0  0.00000000000E+00  0.00000000000E+00  0.19376439325E+04  0.24499427788E+04  0.14992516835E+04 0.  0.
        3    1    3    3  502    0  0.43202977634E+03  0.50851438044E+03  0.41058179638E+03  0.78346284180E+03  0.10100000352E+00 0. -1.
       -3    1    3    3    0  502 -0.43202977634E+03 -0.50851438044E+03  0.15270621361E+04  0.16664799370E+04  0.10100000352E+00 0.  1.
</event>
<event>
 5   0  0.1082667E-03  0.1534267E+04  0.7818609E-02  0.8861980E-01
        2   -1    0    0  501    0  0.00000000000E+00  0.00000000000E+00  0.50518126296E+03  0.50518126297E+03  0.25500000920E-02 0.  1.
       -2   -1    0    0    0  501  0.00000000000E+00  0.00000000000E+00 -0.11649159846E+04  0.11649159846E+04  0.25500000920E-02 0. -1.
    10030    2    1    2    0    0  0.00000000000E+00  0.00000000000E+00 -0.65973472162E+03  0.16700972476E+04  0.15342668977E+04 0.  0.
        5    1    3    3  502    0  0.32475331542E+03 -0.48861720778E+02 -0.10845103094E+04  0.11331535134E+04  0.46999998093E+01 0. -1.
       -5    1    3    3    0  502 -0.32475331542E+03  0.48861720778E+02  0.42477558783E+03  0.53694373416E+03  0.46999998093E+01 0.  1.
</event>
<event>
 5   0  0.5840834E-04  0.1498148E+04  0.7818609E-02  0.8885685E-01
       -1   -1    0    0    0  501  0.00000000000E+00  0.00000000000E+00  0.12080192277E+04  0.12080192277E+04  0.50400001928E-02 0. -1.
        1   -1    0    0  501    0  0.00000000000E+00  0.00000000000E+00 -0.46448937838E+03  0.46448937840E+03  0.50400001928E-02 0.  1.
    10030    2    1    2    0    0  0.00000000000E+00  0.00000000000E+00  0.74352984930E+03  0.16725086061E+04  0.14981483240E+04 0.  0.
        3    1    3    3  502    0 -0.40922243485E+03 -0.15001306468E+03 -0.30835493181E+03  0.53390045414E+03  0.10100000352E+00 0.  1.
       -3    1    3    3    0  502  0.40922243485E+03  0.15001306468E+03  0.10518847811E+04  0.11386081520E+04  0.10100000352E+00 0. -1.
</event>
<event>
 5   0  0.5606965E-04  0.1691828E+04  0.7818609E-02  0.8766039E-01
        1   -1    0    0  501    0  0.00000000000E+00  0.00000000000E+00  0.17046332642E+04  0.17046332642E+04  0.50400001928E-02 0. -1.
       -1   -1    0    0    0  501  0.00000000000E+00  0.00000000000E+00 -0.41977988175E+03  0.41977988178E+03  0.50400001928E-02 0.  1.
    10030    2    1    2    0    0  0.00000000000E+00  0.00000000000E+00  0.12848533824E+04  0.21244131460E+04  0.16918283011E+04 0.  0.
        4    1    3    3  502    0 -0.15103614574E+02 -0.76242481437E+03  0.11021697330E+04  0.13402609634E+04  0.12699999809E+01 0. -1.
       -4    1    3    3    0  502  0.15103614574E+02  0.76242481437E+03  0.18268364939E+03  0.78415218255E+03  0.12699999809E+01 0.  1.
</event>
<event>
 5   0  0.1147755E-03  0.1494273E+04  0.7818609E-02  0.8888270E-01
        2   -1    0    0  501    0  0.00000000000E+00  0.00000000000E+00  0.13316438837E+04  0.13316438837E+04  0.25500000920E-02 0.  1.
       -2   -1    0    0    0  501  0.00000000000E+00  0.00000000000E+00 -0.41919074618E+03  0.41919074619E+03  0.25500000920E-02 0. -1.
    10030    2    1    2    0    0  0.00000000000E+00  0.00000000000E+00  0.91245313748E+03  0.17508346299E+04  0.14942727907E+04 0.  0.
        4    1    3    3  502    0 -0.46234157342E+02 -0.21041671839E+03  0.12944594565E+04  0.13122650990E+04  0.12699999809E+01 0.  1.
       -4    1    3    3    0  502  0.46234157342E+02  0.21041671839E+03 -0.38200631903E+03  0.43856953082E+03  0.12699999809E+01 0. -1.
</event>
<event>
 5   0  0.5840834E-04  0.1489529E+04  0.7818609E-02  0.8891446E-01
       -1   -1    0    0    0  501  0.00000000000E+00  0.00000000000E+00  0.97608989006E+03  0.97608989007E+03  0.50400001928E-02 0.  1.
        1   -1    0    0  501    0  0.00000000000E+00  0.00000000000E+00 -0.56826142470E+03  0.56826142473E+03  0.50400001928E-02 0. -1.
    10030    2    1    2    0    0  0.00000000000E+00  0.00000000000E+00  0.40782846535E+03  0.15443513148E+04  0.14895290955E+04 0.  0.
        3    1    3    3  502    0  0.32177762291E+03 -0.16369131711E+03 -0.47147377957E+03  0.59382086603E+03  0.10100000352E+00 0. -1.
       -3    1    3    3    0  502 -0.32177762291E+03  0.16369131711E+03  0.87930224493E+03  0.95053044877E+03  0.10100000352E+00 0.  1.
</event>
<event>
 5   0  0.5606965E-04  0.1516039E+04  0.7818609E-02  0.8873857E-01
        1   -1    0    0  501    0  0.00000000000E+00  0.00000000000E+00  0.31916505650E+03  0.31916505654E+03  0.50400001928E-02 0. -1.
       -1   -1    0    0    0  501  0.00000000000E+00  0.00000000000E+00 -0.18003018397E+04  0.18003018397E+04  0.50400001928E-02 0.  1.
    10030    2    1    2    0    0  0.00000000000E+00  0.00000000000E+00 -0.14811367832E+04  0.21194668963E+04  0.15160388365E+04 0.  0.
        4    1    3    3  502    0  0.60070529426E+03 -0.18014169798E+01 -0.94228485312E+02  0.60805486265E+03  0.12699999809E+01 0. -1.
       -4    1    3    3    0  502 -0.60070529426E+03  0.18014169798E+01 -0.13869082979E+04  0.15114120336E+04  0.12699999809E+01 0.  1.
</event>
<event>
 5   0  0.6146552E-04  0.1528978E+04  0.7818609E-02  0.8865408E-01
        1   -1    0    0  501    0  0.00000000000E+00  0.00000000000E+00  0.62183111386E+03  0.62183111389E+03  0.50400001928E-02 0.  1.
       -1   -1    0    0    0  501  0.00000000000E+00  0.00000000000E+00 -0.93987471128E+03  0.93987471129E+03  0.50400001928E-02 0. -1.
    10030    2    1    2    0    0  0.00000000000E+00  0.00000000000E+00 -0.31804359741E+03  0.15617058252E+04  0.15289778790E+04 0.  0.
        5    1    3    3  502    0 -0.86206280021E+02  0.52194205208E+03  0.40466633801E+03  0.66605702726E+03  0.46999998093E+01 0. -1.
       -5    1    3    3    0  502  0.86206280021E+02 -0.52194205208E+03 -0.72270993543E+03  0.89564879792E+03  0.46999998093E+01 0.  1.
</event>
<event>
 5   0  0.5840834E-04  0.1197216E+04  0.7818609E-02  0.9115296E-01
        1   -1    0    0  501    0  0.00000000000E+00  0.00000000000E+00  0.14009585130E+04  0.14009585130E+04  0.50400001928E-02 0. -1.
       -1   -1    0    0    0  501  0.00000000000E+00  0.00000000000E+00 -0.25577616243E+03  0.25577616248E+03  0.50400001928E-02 0.  1.
    10030    2    1    2    0    0  0.00000000000E+00  0.00000000000E+00  0.11451823506E+04  0.16567346755E+04  0.11972164253E+04 0.  0.
        3    1    3    3  502    0  0.18808044724E+03  0.30631863845E+03  0.12349874473E+04  0.12862345696E+04  0.10100000352E+00 0. -1.
       -3    1    3    3    0  502 -0.18808044724E+03 -0.30631863845E+03 -0.89805096672E+02  0.37050010592E+03  0.10100000352E+00 0.  1.
</event>
<event>
 5   0  0.6146552E-04  0.1509769E+04  0.7818609E-02  0.8877982E-01
        1   -1    0    0  501    0  0.00000000000E+00  0.00000000000E+00  0.91766563110E+03  0.91766563111E+03  0.50400001928E-02 0.  1.
       -1   -1    0    0    0  501  0.00000000000E+00  0.00000000000E+00 -0.62097865270E+03  0.62097865272E+03  0.50400001928E-02 0. -1.
    10030    2    1    2    0    0  0.00000000000E+00  0.00000000000E+00  0.29668697840E+03  0.15386442838E+04  0.15097692105E+04 0.  0.
        5    1    3    3  502    0  0.34819662444E+03 -0.51384554911E+03 -0.28946615401E+03  0.68490209660E+03  0.46999998093E+01 0. -1.
       -5    1    3    3    0  502 -0.34819662444E+03  0.51384554911E+03  0.58615313241E+03  0.85374218723E+03  0.46999998093E+01 0.  1.
</event>
<event>
 5   0  0.5914645E-04  0.1536549E+04  0.7818609E-02  0.8860506E-01
        1   -1    0    0  501    0  0.00000000000E+00  0.00000000000E+00  0.41395319119E+03  0.41395319122E+03  0.50400001928E-02 0.  1.
       -1   -1    0    0    0  501  0.00000000000E+00  0.00000000000E+00 -0.14258747048E+04  0.14258747048E+04  0.50400001928E-02 0. -1.
    10030    2    1    2    0    0  0.00000000000E+00  0.00000000000E+00 -0.10119215136E+04  0.18398278960E+04  0.15365485796E+04 0.  0.
        2    1    3    3  502    0 -0.31713504342E+03  0.62294425605E+03 -0.12427873917E+03  0.70998548360E+03  0.25500000920E-02 0.  1.
       -2    1    3    3    0  502  0.31713504342E+03 -0.62294425605E+03 -0.88764277445E+03  0.11298424124E+04  0.25500000920E-02 0. -1.
</event>
<event>
 5   0  0.5914645E-04  0.1509956E+04  0.7818609E-02  0.8877859E-01
       -1   -1    0    0    0  501  0.00000000000E+00  0.00000000000E+00  0.64596046279E+03  0.64596046281E+03  0.50400001928E-02 0.  1.
        1   -1    0    0  501    0  0.00000000000E+00  0.00000000000E+00 -0.88239477758E+03  0.88239477759E+03  0.50400001928E-02 0. -1.
    10030    2    1    2    0    0  0.00000000000E+00  0.00000000000E+00 -0.23643431478E+03  0.15283552404E+04  0.15099564748E+04 0.  0.
        2    1    3    3  502    0 -0.61902387229E+03 -0.19881840825E+02  0.31879163123E+03  0.69657300135E+03  0.25500000920E-02 0.  1.
       -2    1    3    3    0  502  0.61902387229E+03  0.19881840825E+02 -0.55522594602E+03  0.83178223905E+03  0.25500000920E-02 0. -1.
</event>
<event>
 5   0  0.1082667E-03  0.1493755E+04  0.7818609E-02  0.8888617E-01
        2   -1    0    0  501    0  0.00000000000E+00  0.00000000000E+00  0.59603901614E+03  0.59603901615E+03  0.25500000920E-02 0.  1.
       -2   -1    0    0    0  501  0.00000000000E+00  0.00000000000E+00 -0.93588784919E+03  0.93588784919E+03  0.25500000920E-02 0. -1.
    10030    2    1    2    0    0  0.00000000000E+00  0.00000000000E+00 -0.33984883305E+03  0.15319268653E+04  0.14937545620E+04 0.  0.
        5    1    3    3  502    0  0.30772918789E+03 -0.22496635561E+03  0.48874713330E+03  0.61984108007E+03  0.46999998093E+01 0.  1.
       -5    1    3    3    0  502 -0.30772918789E+03  0.22496635561E+03 -0.82859596635E+03  0.91208578527E+03  0.46999998093E+01 0. -1.
</event>
<event>
 5   0  0.5840834E-04  0.1512319E+04  0.7818609E-02  0.8876302E-01
        1   -1    0    0  501    0  0.00000000000E+00  0.00000000000E+00  0.95462853913E+03  0.95462853915E+03  0.50400001928E-02 0.  1.
       -1   -1    0    0    0  501  0.00000000000E+00  0.00000000000E+00 -0.59895269319E+03  0.59895269321E+03  0.50400001928E-02 0. -1.
    10030    2    1    2    0    0  0.00000000000E+00  0.00000000000E+00  0.35567584595E+03  0.15535812324E+04  0.15123191919E+04 0.  0.
        3    1    3    3  502    0  0.18210040132E+03  0.25541395930E+03  0.88463651286E+03  0.93860461157E+03  0.10100000352E+00 0.  1.
       -3    1    3    3    0  502 -0.18210040132E+03 -0.25541395930E+03 -0.52896066692E+03  0.61497662078E+03  0.10100000352E+00 0. -1.
</event>
<event>
 5   0  0.1082667E-03  0.1523411E+04  0.7818609E-02  0.8869033E-01
        2   -1    0    0  501    0  0.00000000000E+00  0.00000000000E+00  0.11638319841E+04  0.11638319841E+04  0.25500000920E-02 0. -1.
       -2   -1    0    0    0  501  0.00000000000E+00  0.00000000000E+00 -0.49852126462E+03  0.49852126463E+03  0.25500000920E-02 0.  1.
    10030    2    1    2    0    0  0.00000000000E+00  0.00000000000E+00  0.66531071946E+03  0.16623532487E+04  0.15234106374E+04 0.  0.
        5    1    3    3  502    0  0.72100087010E+03  0.24210869155E+03  0.37783215870E+03  0.84925738346E+03  0.46999998093E+01 0. -1.
       -5    1    3    3    0  502 -0.72100087010E+03 -0.24210869155E+03  0.28747856076E+03  0.81309586526E+03  0.46999998093E+01 0.  1.
</event>
<event>
 5   0  0.5840834E-04  0.1518974E+04  0.7818609E-02  0.8871933E-01
        1   -1    0    0  501    0  0.00000000000E+00  0.00000000000E+00  0.19940659958E+04  0.19940659958E+04  0.50400001928E-02 0. -1.
       -1   -1    0    0    0  501  0.00000000000E+00  0.00000000000E+00 -0.28926834124E+03  0.28926834129E+03  0.50400001928E-02 0.  1.
    10030    2    1    2    0    0  0.00000000000E+00  0.00000000000E+00  0.17047976546E+04  0.22833343371E+04  0.15189735521E+04 0.  0.
        3    1    3    3  502    0 -0.40338960257E+03 -0.63682131245E+03  0.99144033360E+03  0.12454792253E+04  0.10100000352E+00 0. -1.
       -3    1    3    3    0  502  0.40338960257E+03  0.63682131245E+03  0.71335732097E+03  0.10378551118E+04  0.10100000352E+00 0.  1.
</event>
<event>
 5   0  0.1147755E-03  0.1503966E+04  0.7818609E-02  0.8881820E-01
       -2   -1    0    0    0  501  0.00000000000E+00  0.00000000000E+00  0.67835142145E+03  0.67835142145E+03  0.25500000920E-02 0. -1.
        2   -1    0    0  501    0  0.00000000000E+00  0.00000000000E+00 -0.83360662982E+03  0.83360662983E+03  0.25500000920E-02 0.  1.
    10030    2    1    2    0    0  0.00000000000E+00  0.00000000000E+00 -0.15525520838E+03  0.15119580513E+04  0.15039657473E+04 0.  0.
        4    1    3    3  502    0 -0.48640272508E+03  0.32989550129E+03 -0.54922386647E+03  0.80440482416E+03  0.12699999809E+01 0.  1.
       -4    1    3    3    0  502  0.48640272508E+03 -0.32989550129E+03  0.39396865810E+03  0.70755322711E+03  0.12699999809E+01 0. -1.
</event>
<event>
 5   0  0.5606965E-04  0.1493558E+04  0.7818609E-02  0.8888748E-01
        1   -1    0    0  501    0  0.00000000000E+00  0.00000000000E+00  0.67126722159E+03  0.67126722161E+03  0.50400001928E-02 0.  1.
       -1   -1    0    0    0  501  0.00000000000E+00  0.00000000000E+00 -0.83078548151E+03  0.83078548152E+03  0.50400001928E-02 0. -1.
    10030    2    1    2    0    0  0.00000000000E+00  0.00000000000E+00 -0.15951825991E+03  0.15020527031E+04  0.14935582505E+04 0.  0.
        4    1    3    3  502    0 -0.33560779410E+03  0.38844463248E+03  0.46568664846E+03  0.69309991445E+03  0.12699999809E+01 0.  1.
       -4    1    3    3    0  502  0.33560779410E+03 -0.38844463248E+03 -0.62520490837E+03  0.80895278868E+03  0.12699999809E+01 0. -1.
</event>
<event>
 5   0  0.1147755E-03  0.1525715E+04  0.7818609E-02  0.8867530E-01
        2   -1    0    0  501    0  0.00000000000E+00  0.00000000000E+00  0.51136818786E+03  0.51136818787E+03  0.25500000920E-02 0. -1.
       -2   -1    0    0    0  501  0.00000000000E+00  0.00000000000E+00 -0.11380287616E+04  0.11380287616E+04  0.25500000920E-02 0.  1.
    10030    2    1    2    0    0  0.00000000000E+00  0.00000000000E+00 -0.62666057377E+03  0.16493969495E+04  0.15257151839E+04 0.  0.
        4    1    3    3  502    0 -0.87336071961E+02 -0.67690030089E+03  0.55070967666E+02  0.68473062673E+03  0.12699999809E+01 0. -1.
       -4    1    3    3    0  502  0.87336071961E+02  0.67690030089E+03 -0.68173154143E+03  0.96466632277E+03  0.12699999809E+01 0.  1.
</event>
<event>
 5   0  0.1097156E-03  0.1324471E+04  0.7818609E-02  0.9010382E-01
        2   -1    0    0  501    0  0.00000000000E+00  0.00000000000E+00  0.10390466443E+04  0.10390466443E+04  0.25500000920E-02 0.  1.
       -2   -1    0    0    0  501  0.00000000000E+00  0.00000000000E+00 -0.42207504127E+03  0.42207504127E+03  0.25500000920E-02 0. -1.
    10030    2    1    2    0    0  0.00000000000E+00  0.00000000000E+00  0.61697160302E+03  0.14611216856E+04  0.13244706947E+04 0.  0.
        2    1    3    3  502    0 -0.25104448216E+03 -0.17567945581E+03 -0.33917136849E+03  0.45708185309E+03  0.25500000920E-02 0. -1.
       -2    1    3    3    0  502  0.25104448216E+03  0.17567945581E+03  0.95614297151E+03  0.10040398325E+04  0.25500000920E-02 0.  1.
</event>
<event>
 5   0  0.5924403E-04  0.1509046E+04  0.7818609E-02  0.8878460E-01
        1   -1    0    0  501    0  0.00000000000E+00  0.00000000000E+00  0.86461603105E+03  0.86461603107E+03  0.50400001928E-02 0.  1.
       -1   -1    0    0    0  501  0.00000000000E+00  0.00000000000E+00 -0.65844832172E+03  0.65844832174E+03  0.50400001928E-02 0. -1.
    10030    2    1    2    0    0  0.00000000000E+00  0.00000000000E+00  0.20616770933E+03  0.15230643528E+04  0.15090460226E+04 0.  0.
        1    1    3    3  502    0 -0.34674633198E+03 -0.55707103509E+03  0.47902736201E+03  0.81242130108E+03  0.50400001928E-02 0.  1.
       -1    1    3    3    0  502  0.34674633198E+03  0.55707103509E+03 -0.27285965267E+03  0.71064305172E+03  0.50400001928E-02 0. -1.
</event>
<event>
 5   0  0.4070625E-04  0.1495155E+04  0.7818609E-02  0.8887681E-01
        3   -1    0    0  501    0  0.00000000000E+00  0.00000000000E+00  0.13429654572E+04  0.13429654610E+04  0.10100000352E+00 0.  1.
       -3   -1    0    0    0  501  0.00000000000E+00  0.00000000000E+00 -0.41614767015E+03  0.41614768241E+03  0.10100000352E+00 0. -1.
    10030    2    1    2    0    0  0.00000000000E+00  0.00000000000E+00  0.92681778701E+03  0.17591131434E+04  0.14951547883E+04 0.  0.
        3    1    3    3  502    0  0.36432351384E+03 -0.40287207129E+03  0.10677377683E+04  0.11979572115E+04  0.10100000352E+00 0.  1.
       -3    1    3    3    0  502 -0.36432351384E+03  0.40287207129E+03 -0.14091998127E+03  0.56115593188E+03  0.10100000352E+00 0. -1.
</event>
<event>
 5   0  0.5924403E-04  0.1504435E+04  0.7818609E-02  0.8881509E-01
        1   -1    0    0  501    0  0.00000000000E+00  0.00000000000E+00  0.63247531770E+03  0.63247531772E+03  0.50400001928E-02 0.  1.
       -1   -1    0    0    0  501  0.00000000000E+00  0.00000000000E+00 -0.89462975217E+03  0.89462975218E+03  0.50400001928E-02 0. -1.
    10030    2    1    2    0    0  0.00000000000E+00  0.00000000000E+00 -0.26215443447E+03  0.15271050699E+04  0.15044350923E+04 0.  0.
        1    1    3    3  502    0  0.23808558530E+03  0.64700471038E+03  0.17434109392E+03  0.71112211205E+03  0.50400001928E-02 0. -1.
       -1    1    3    3    0  502 -0.23808558530E+03 -0.64700471038E+03 -0.43649552839E+03  0.81598295786E+03  0.50400001928E-02 0.  1.
</event>
<event>
 5   0  0.1082667E-03  0.1498378E+04  0.7818609E-02  0.8885533E-01
       -2   -1    0    0    0  501  0.00000000000E+00  0.00000000000E+00  0.26844122621E+03  0.26844122622E+03  0.25500000920E-02 0.  1.
        2   -1    0    0  501    0  0.00000000000E+00  0.00000000000E+00 -0.20909002735E+04  0.20909002735E+04  0.25500000920E-02 0. -1.
    10030    2    1    2    0    0  0.00000000000E+00  0.00000000000E+00 -0.18224590473E+04  0.23593414997E+04  0.14983775670E+04 0.  0.
        5    1    3    3  502    0 -0.88479649521E+02 -0.68207263718E+03 -0.13788876511E+04  0.15409104371E+04  0.46999998093E+01 0. -1.
       -5    1    3    3    0  502  0.88479649521E+02  0.68207263718E+03 -0.44357139618E+03  0.81843106263E+03  0.46999998093E+01 0.  1.
</event>
<event>
 5   0  0.1126175E-03  0.1503965E+04  0.7818609E-02  0.8881820E-01
        2   -1    0    0  501    0  0.00000000000E+00  0.00000000000E+00  0.18296833488E+04  0.18296833488E+04  0.25500000920E-02 0.  1.
       -2   -1    0    0    0  501  0.00000000000E+00  0.00000000000E+00 -0.30905774736E+03  0.30905774737E+03  0.25500000920E-02 0. -1.
    10030    2    1    2    0    0  0.00000000000E+00  0.00000000000E+00  0.15206256014E+04  0.21387410961E+04  0.15039651780E+04 0.  0.
        3    1    3    3  502    0  0.21174760933E+03 -0.13166459436E+03 -0.24855935826E+03  0.35207155558E+03  0.10100000352E+00 0. -1.
       -3    1    3    3    0  502 -0.21174760933E+03  0.13166459436E+03  0.17691849597E+04  0.17866695406E+04  0.10100000352E+00 0.  1.
</event>
<event>
 5   0  0.1082667E-03  0.1503443E+04  0.7818609E-02  0.8882167E-01
        2   -1    0    0  501    0  0.00000000000E+00  0.00000000000E+00  0.16625660017E+04  0.16625660017E+04  0.25500000920E-02 0. -1.
       -2   -1    0    0    0  501  0.00000000000E+00  0.00000000000E+00 -0.33988721019E+03  0.33988721019E+03  0.25500000920E-02 0.  1.
    10030    2    1    2    0    0  0.00000000000E+00  0.00000000000E+00  0.13226787916E+04  0.20024532119E+04  0.15034426096E+04 0.  0.
        5    1    3    3  502    0  0.12822771632E+03  0.12050245581E+03  0.16347289153E+04  0.16441787936E+04  0.46999998093E+01 0. -1.
       -5    1    3    3    0  502 -0.12822771632E+03 -0.12050245581E+03 -0.31205012371E+03  0.35827441828E+03  0.46999998093E+01 0.  1.
</event>
<event>
 5   0  0.5914645E-04  0.1413518E+04  0.7818609E-02  0.8944091E-01
       -1   -1    0    0    0  501  0.00000000000E+00  0.00000000000E+00  0.14810894137E+04  0.14810894137E+04  0.50400001928E-02 0.  1.
        1   -1    0    0  501    0  0.00000000000E+00  0.00000000000E+00 -0.33725752951E+03  0.33725752955E+03  0.50400001928E-02 0. -1.
    10030    2    1    2    0    0  0.00000000000E+00  0.00000000000E+00  0.11438318842E+04  0.18183469433E+04  0.14135183857E+04 0.  0.
        2    1    3    3  502    0 -0.20571897709E+03 -0.17267418089E+03 -0.26904972135E+03  0.38016367902E+03  0.25500000920E-02 0. -1.
       -2    1    3    3    0  502  0.20571897709E+03  0.17267418089E+03  0.14128816055E+04  0.14381832642E+04  0.25500000920E-02 0.  1.
</event>
<event>
 5   0  0.1147755E-03  0.1506878E+04  0.7818609E-02  0.8879892E-01
        2   -1    0    0  501    0  0.00000000000E+00  0.00000000000E+00  0.63124090359E+03  0.63124090359E+03  0.25500000920E-02 0.  1.
       -2   -1    0    0    0  501  0.00000000000E+00  0.00000000000E+00 -0.89929319282E+03  0.89929319283E+03  0.25500000920E-02 0. -1.
    10030    2    1    2    0    0  0.00000000000E+00  0.00000000000E+00 -0.26805228924E+03  0.15305340964E+04  0.15068784259E+04 0.  0.
        4    1    3    3  502    0  0.65902214235E+03 -0.16260466329E+03  0.19809105936E+03  0.70710122425E+03  0.12699999809E+01 0.  1.
       -4    1    3    3    0  502 -0.65902214235E+03  0.16260466329E+03 -0.46614334860E+03  0.82343287217E+03  0.12699999809E+01 0. -1.
</event>
<event>
 5   0  0.5924403E-04  0.1457424E+04  0.7818609E-02  0.8913269E-01
        1   -1    0    0  501    0  0.00000000000E+00  0.00000000000E+00  0.81121971998E+03  0.81121972000E+03  0.50400001928E-02 0.  1.
       -1   -1    0    0    0  501  0.00000000000E+00  0.00000000000E+00 -0.65459643229E+03  0.65459643231E+03  0.50400001928E-02 0. -1.
    10030    2    1    2    0    0  0.00000000000E+00  0.00000000000E+00  0.15662328769E+03  0.14658161523E+04  0.14574244880E+04 0.  0.
        1    1    3    3  502    0 -0.11401573416E+03 -0.60164395867E+03 -0.31899007892E+03  0.69045616162E+03  0.50400001928E-02 0. -1.
       -1    1    3    3    0  502  0.11401573416E+03  0.60164395867E+03  0.47561336662E+03  0.77535999069E+03  0.50400001928E-02 0.  1.
</event>
<event>
 5   0  0.1126175E-03  0.1492125E+04  0.7818609E-02  0.8889707E-01
       -2   -1    0    0    0  501  0.00000000000E+00  0.00000000000E+00  0.40796998542E+03  0.40796998543E+03  0.25500000920E-02 0.  1.
        2   -1    0    0  501    0  0.00000000000E+00  0.00000000000E+00 -0.13643379177E+04  0.13643379177E+04  0.25500000920E-02 0. -1.
    10030    2    1    2    0    0  0.00000000000E+00  0.00000000000E+00 -0.95636793225E+03  0.17723079031E+04  0.14921245530E+04 0.  0.
        3    1    3    3  502    0 -0.59807197053E+03 -0.26149204064E+03 -0.90733200679E+03  0.11177296408E+04  0.10100000352E+00 0.  1.
       -3    1    3    3    0  502  0.59807197053E+03  0.26149204064E+03 -0.49035925469E+02  0.65457826227E+03  0.10100000352E+00 0. -1.
</event>
<event>
 5   0  0.5924403E-04  0.1473717E+04  0.7818609E-02  0.8902121E-01
       -1   -1    0    0    0  501  0.00000000000E+00  0.00000000000E+00  0.29386926838E+03  0.29386926842E+03  0.50400001928E-02 0. -1.
        1   -1    0    0  501    0  0.00000000000E+00  0.00000000000E+00 -0.18476258265E+04  0.18476258265E+04  0.50400001928E-02 0.  1.
    10030    2    1    2    0    0  0.00000000000E+00  0.00000000000E+00 -0.15537565582E+04  0.21414950950E+04  0.14737170012E+04 0.  0.
        1    1    3    3  502    0  0.18617825490E+03 -0.84112173968E+02 -0.18056489966E+04  0.18171696397E+04  0.50400001928E-02 0.  1.
       -1    1    3    3    0  502 -0.18617825490E+03  0.84112173968E+02  0.25189243842E+03  0.32432545531E+03  0.50400001928E-02 0. -1.
</event>
<event>
 5   0  0.1082667E-03  0.1513962E+04  0.7818609E-02  0.8875221E-01
       -2   -1    0    0    0  501  0.00000000000E+00  0.00000000000E+00  0.29529832354E+03  0.29529832355E+03  0.25500000920E-02 0.  1.
        2   -1    0    0  501    0  0.00000000000E+00  0.00000000000E+00 -0.19404789793E+04  0.19404789793E+04  0.25500000920E-02 0. -1.
    10030    2    1    2    0    0  0.00000000000E+00  0.00000000000E+00 -0.16451806557E+04  0.22357773028E+04  0.15139619407E+04 0.  0.
        5    1    3    3  502    0  0.49651911996E+03  0.44317988523E+03 -0.13551679032E+04  0.15097820317E+04  0.46999998093E+01 0. -1.
       -5    1    3    3    0  502 -0.49651911996E+03 -0.44317988523E+03 -0.29001275250E+03  0.72599527117E+03  0.46999998093E+01 0.  1.
</event>
<event>
 5   0  0.5606965E-04  0.1545147E+04  0.7818609E-02  0.8854974E-01
        1   -1    0    0  501    0  0.00000000000E+00  0.00000000000E+00  0.10901764968E+04  0.10901764968E+04  0.50400001928E-02 0. -1.
       -1   -1    0    0    0  501  0.00000000000E+00  0.00000000000E+00 -0.54749833471E+03  0.54749833473E+03  0.50400001928E-02 0.  1.
    10030    2    1    2    0    0  0.00000000000E+00  0.00000000000E+00  0.54267816213E+03  0.16376748316E+04  0.15451470048E+04 0.  0.
        4    1    3    3  502    0  0.23904894215E+03  0.32834298466E+03  0.96789639804E+03  0.10496564021E+04  0.12699999809E+01 0. -1.
       -4    1    3    3    0  502 -0.23904894215E+03 -0.32834298466E+03 -0.42521823591E+03  0.58801842944E+03  0.12699999809E+01 0.  1.
</event>
<event>
 5   0  0.1097156E-03  0.1543274E+04  0.7818609E-02  0.8856175E-01
       -2   -1    0    0    0  501  0.00000000000E+00  0.00000000000E+00  0.22126872787E+03  0.22126872789E+03  0.25500000920E-02 0. -1.
        2   -1    0    0  501    0  0.00000000000E+00  0.00000000000E+00 -0.26909536869E+04  0.26909536869E+04  0.25500000920E-02 0.  1.
    10030    2    1    2    0    0  0.00000000000E+00  0.00000000000E+00 -0.24696849590E+04  0.29122224148E+04  0.15432743101E+04 0.  0.
        2    1    3    3  502    0 -0.38038153537E+03 -0.41903579580E+03 -0.24501277990E+03  0.61669471615E+03  0.25500000920E-02 0. -1.
       -2    1    3    3    0  502  0.38038153537E+03  0.41903579580E+03 -0.22246721791E+04  0.22955276986E+04  0.25500000920E-02 0.  1.
</event>
<event>
 5   0  0.1126175E-03  0.1505437E+04  0.7818609E-02  0.8880845E-01
        2   -1    0    0  501    0  0.00000000000E+00  0.00000000000E+00  0.13029405486E+04  0.13029405487E+04  0.25500000920E-02 0.  1.
       -2   -1    0    0    0  501  0.00000000000E+00  0.00000000000E+00 -0.43485115726E+03  0.43485115727E+03  0.25500000920E-02 0. -1.
    10030    2    1    2    0    0  0.00000000000E+00  0.00000000000E+00  0.86808939139E+03  0.17377917059E+04  0.15054370866E+04 0.  0.
        3    1    3    3  502    0  0.66401579010E+03 -0.22475897117E+03  0.75049412256E+03  0.10269737109E+04  0.10100000352E+00 0.  1.
       -3    1    3    3    0  502 -0.66401579010E+03  0.22475897117E+03  0.11759526882E+03  0.71081799504E+03  0.10100000352E+00 0. -1.
</event>
<event>
 5   0  0.6146552E-04  0.1503904E+04  0.7818609E-02  0.8881861E-01
       -1   -1    0    0    0  501  0.00000000000E+00  0.00000000000E+00  0.50601146693E+03  0.50601146695E+03  0.50400001928E-02 0.  1.
        1   -1    0    0  501    0  0.00000000000E+00  0.00000000000E+00 -0.11174289755E+04  0.11174289755E+04  0.50400001928E-02 0. -1.
    10030    2    1    2    0    0  0.00000000000E+00  0.00000000000E+00 -0.61141750856E+03  0.16234404424E+04  0.15039040862E+04 0.  0.
        5    1    3    3  502    0 -0.66969105246E+03 -0.51804375978E+02 -0.67056794623E+03  0.94913289882E+03  0.46999998093E+01 0. -1.
       -5    1    3    3    0  502  0.66969105246E+03  0.51804375978E+02  0.59150437671E+02  0.67430754363E+03  0.46999998093E+01 0.  1.
</event>
<event>
 5   0  0.5914645E-04  0.1501770E+04  0.7818609E-02  0.8883276E-01
        1   -1    0    0  501    0  0.00000000000E+00  0.00000000000E+00  0.76407859715E+03  0.76407859717E+03  0.50400001928E-02 0. -1.
       -1   -1    0    0    0  501  0.00000000000E+00  0.00000000000E+00 -0.73791960331E+03  0.73791960333E+03  0.50400001928E-02 0.  1.
    10030    2    1    2    0    0  0.00000000000E+00  0.00000000000E+00  0.26158993835E+02  0.15019982005E+04  0.15017703890E+04 0.  0.
        2    1    3    3  502    0 -0.37378445195E+03 -0.60321541650E+01  0.66439051536E+03  0.76234241671E+03  0.25500000920E-02 0. -1.
       -2    1    3    3    0  502  0.37378445195E+03  0.60321541650E+01 -0.63823152153E+03  0.73965578378E+03  0.25500000920E-02 0.  1.
</event>
<event>
 5   0  0.1149716E-03  0.1488996E+04  0.7818609E-02  0.8891804E-01
       -2   -1    0    0    0  501  0.00000000000E+00  0.00000000000E+00  0.73094515784E+03  0.73094515785E+03  0.25500000920E-02 0.  1.
        2   -1    0    0  501    0  0.00000000000E+00  0.00000000000E+00 -0.75830210843E+03  0.75830210844E+03  0.25500000920E-02 0. -1.
    10030    2    1    2    0    0  0.00000000000E+00  0.00000000000E+00 -0.27356950589E+02  0.14892472663E+04  0.14889959763E+04 0.  0.
        1    1    3    3  502    0 -0.66263653875E+03  0.33921511043E+03 -0.24779028058E+02  0.74482754641E+03  0.50400001928E-02 0. -1.
       -1    1    3    3    0  502  0.66263653875E+03 -0.33921511043E+03 -0.25779225311E+01  0.74441971988E+03  0.50400001928E-02 0.  1.
</event>
<event>
 5   0  0.1097156E-03  0.1512351E+04  0.7818609E-02  0.8876281E-01
        2   -1    0    0  501    0  0.00000000000E+00  0.00000000000E+00  0.62201642315E+03  0.62201642316E+03  0.25500000920E-02 0.  1.
       -2   -1    0    0    0  501  0.00000000000E+00  0.00000000000E+00 -0.91927092669E+03  0.91927092669E+03  0.25500000920E-02 0. -1.
    10030    2    1    2    0    0  0.00000000000E+00  0.00000000000E+00 -0.29725450353E+03  0.15412873499E+04  0.15123513001E+04 0.  0.
        2    1    3    3  502    0  0.59480955530E+03  0.45918396685E+03 -0.62431892583E+02  0.75401993588E+03  0.25500000920E-02 0.  1.
       -2    1    3    3    0  502 -0.59480955530E+03 -0.45918396685E+03 -0.23482261095E+03  0.78726741397E+03  0.25500000920E-02 0. -1.
</event>
<event>
 5   0  0.5914645E-04  0.1525899E+04  0.7818609E-02  0.8867411E-01
       -1   -1    0    0    0  501  0.00000000000E+00  0.00000000000E+00  0.54746656778E+03  0.54746656780E+03  0.50400001928E-02 0.  1.
        1   -1    0    0  501    0  0.00000000000E+00  0.00000000000E+00 -0.10632464296E+04  0.10632464296E+04  0.50400001928E-02 0. -1.
    10030    2    1    2    0    0  0.00000000000E+00  0.00000000000E+00 -0.51577986185E+03  0.16107129974E+04  0.15258989135E+04 0.  0.
        2    1    3    3  502    0  0.24335321522E+03 -0.63476664682E+03 -0.62346683372E+03  0.92242093212E+03  0.25500000920E-02 0. -1.
       -2    1    3    3    0  502 -0.24335321522E+03  0.63476664682E+03  0.10768697187E+03  0.68829206532E+03  0.25500000920E-02 0.  1.
</event>
<event>
 5   0  0.1097156E-03  0.1483977E+04  0.7818609E-02  0.8895178E-01
       -2   -1    0    0    0  501  0.00000000000E+00  0.00000000000E+00  0.56025344267E+03  0.56025344268E+03  0.25500000920E-02 0.  1.
        2   -1    0    0  501    0  0.00000000000E+00  0.00000000000E+00 -0.98267498053E+03  0.98267498053E+03  0.25500000920E-02 0. -1.
    10030    2    1    2    0    0  0.00000000000E+00  0.00000000000E+00 -0.42242153786E+03  0.15429284232E+04  0.14839771439E+04 0.  0.
        2    1    3    3  502    0  0.21140503380E+02  0.23205392320E+03  0.52122459880E+03  0.57093872399E+03  0.25500000920E-02 0.  1.
       -2    1    3    3    0  502 -0.21140503380E+02 -0.23205392320E+03 -0.94364613665E+03  0.97198969922E+03  0.25500000920E-02 0. -1.
</event>
<event>
 5   0  0.1082667E-03  0.1515490E+04  0.7818609E-02  0.8874217E-01
       -2   -1    0    0    0  501  0.00000000000E+00  0.00000000000E+00  0.32897912374E+03  0.32897912375E+03  0.25500000920E-02 0. -1.
        2   -1    0    0  501    0  0.00000000000E+00  0.00000000000E+00 -0.17453316301E+04  0.17453316301E+04  0.25500000920E-02 0.  1.
    10030    2    1    2    0    0  0.00000000000E+00  0.00000000000E+00 -0.14163525064E+04  0.20743107539E+04  0.15154902445E+04 0.  0.
        5    1    3    3  502    0 -0.17900729037E+03  0.62116362956E+03 -0.12492485589E+04  0.14066029705E+04  0.46999998093E+01 0.  1.
       -5    1    3    3    0  502  0.17900729037E+03 -0.62116362956E+03 -0.16710394744E+03  0.66770778335E+03  0.46999998093E+01 0. -1.
</event>
<event>
 5   0  0.1147755E-03  0.1531604E+04  0.7818609E-02  0.8863704E-01
       -2   -1    0    0    0  501  0.00000000000E+00  0.00000000000E+00  0.19745656551E+03  0.19745656553E+03  0.25500000920E-02 0.  1.
        2   -1    0    0  501    0  0.00000000000E+00  0.00000000000E+00 -0.29700350296E+04  0.29700350296E+04  0.25500000920E-02 0. -1.
    10030    2    1    2    0    0  0.00000000000E+00  0.00000000000E+00 -0.27725784641E+04  0.31674915951E+04  0.15316042784E+04 0.  0.
        4    1    3    3  502    0 -0.67800041008E+03 -0.16723422706E+03 -0.73624009302E+03  0.10147427902E+04  0.12699999809E+01 0.  1.
       -4    1    3    3    0  502  0.67800041008E+03  0.16723422706E+03 -0.20363383711E+04  0.21527488050E+04  0.12699999809E+01 0. -1.
</event>
<event>
 5   0  0.1097156E-03  0.1487187E+04  0.7818609E-02  0.8893018E-01
        2   -1    0    0  501    0  0.00000000000E+00  0.00000000000E+00  0.41367738567E+03  0.41367738568E+03  0.25500000920E-02 0. -1.
       -2   -1    0    0    0  501  0.00000000000E+00  0.00000000000E+00 -0.13366245789E+04  0.13366245789E+04  0.25500000920E-02 0.  1.
    10030    2    1    2    0    0  0.00000000000E+00  0.00000000000E+00 -0.92294719326E+03  0.17503019646E+04  0.14871870917E+04 0.  0.
        2    1    3    3  502    0  0.42960059245E+03 -0.43589361204E+03 -0.95853500506E+03  0.11372551455E+04  0.25500000920E-02 0.  1.
       -2    1    3    3    0  502 -0.42960059245E+03  0.43589361204E+03  0.35587811803E+02  0.61304681910E+03  0.25500000920E-02 0. -1.
</event>
<event>
 5   0  0.4070625E-04  0.1488812E+04  0.7818609E-02  0.8891927E-01
       -4   -1    0    0    0  501  0.00000000000E+00  0.00000000000E+00  0.10521063167E+04  0.10521070833E+04  0.12699999809E+01 0. -1.
        4   -1    0    0  501    0  0.00000000000E+00  0.00000000000E+00 -0.52669424354E+03  0.52669577469E+03  0.12699999809E+01 0.  1.
    10030    2    1    2    0    0  0.00000000000E+00  0.00000000000E+00  0.52541207321E+03  0.15788028579E+04  0.14888118140E+04 0.  0.
        3    1    3    3  502    0 -0.34934503328E+03  0.51272332713E+03 -0.17351332384E+03  0.64423136078E+03  0.10100000352E+00 0.  1.
       -3    1    3    3    0  502  0.34934503328E+03 -0.51272332713E+03  0.69892539705E+03  0.93457149716E+03  0.10100000352E+00 0. -1.
</event>
<event>
 5   0  0.5924403E-04  0.1516929E+04  0.7818609E-02  0.8873273E-01
       -1   -1    0    0    0  501  0.00000000000E+00  0.00000000000E+00  0.33483625290E+03  0.33483625294E+03  0.50400001928E-02 0. -1.
        1   -1    0    0  501    0  0.00000000000E+00  0.00000000000E+00 -0.17180594725E+04  0.17180594725E+04  0.50400001928E-02 0.  1.
    10030    2    1    2    0    0  0.00000000000E+00  0.00000000000E+00 -0.13832232196E+04  0.20528957254E+04  0.15169292615E+04 0.  0.
        1    1    3    3  502    0 -0.32732399525E+03  0.31609537034E+03 -0.15128138521E+04  0.15797667651E+04  0.50400001928E-02 0.  1.
       -1    1    3    3    0  502  0.32732399525E+03 -0.31609537034E+03  0.12959063253E+03  0.47312896031E+03  0.50400001928E-02 0. -1.
</event>
<event>
 5   0  0.1126175E-03  0.1472364E+04  0.7818609E-02  0.8903041E-01
        2   -1    0    0  501    0  0.00000000000E+00  0.00000000000E+00  0.16708683610E+04  0.16708683610E+04  0.25500000920E-02 0. -1.
       -2   -1    0    0    0  501  0.00000000000E+00  0.00000000000E+00 -0.32436074030E+03  0.32436074031E+03  0.25500000920E-02 0.  1.
    10030    2    1    2    0    0  0.00000000000E+00  0.00000000000E+00  0.13465076207E+04  0.19952291013E+04  0.14723642192E+04 0.  0.
        3    1    3    3  502    0 -0.20784281056E+03  0.67406699663E+03  0.95879238499E+03  0.11903141592E+04  0.10100000352E+00 0. -1.
       -3    1    3    3    0  502  0.20784281056E+03 -0.67406699663E+03  0.38771523572E+03  0.80491494213E+03  0.10100000352E+00 0.  1.
</event>
<event>
 5   0  0.5924403E-04  0.1471718E+04  0.7818609E-02  0.8903481E-01
       -1   -1    0    0    0  501  0.00000000000E+00  0.00000000000E+00  0.51941079994E+03  0.51941079996E+03  0.50400001928E-02 0.  1.
        1   -1    0    0  501    0  0.00000000000E+00  0.00000000000E+00 -0.10425047437E+04  0.10425047437E+04  0.50400001928E-02 0. -1.
    10030    2    1    2    0    0  0.00000000000E+00  0.00000000000E+00 -0.52309394374E+03  0.15619155437E+04  0.14717176671E+04 0.  0.
        1    1    3    3  502    0 -0.45839128442E+03  0.24764817904E+03 -0.81304492245E+03  0.96565741139E+03  0.50400001928E-02 0. -1.
       -1    1    3    3    0  502  0.45839128442E+03 -0.24764817904E+03  0.28995097871E+03  0.59625813227E+03  0.50400001928E-02 0.  1.
</event>
<event>
 5   0  0.1097156E-03  0.1474797E+04  0.7818609E-02  0.8901387E-01
       -2   -1    0    0    0  501  0.00000000000E+00  0.00000000000E+00  0.25532730472E+03  0.25532730473E+03  0.25500000920E-02 0.  1.
        2   -1    0    0  501    0  0.00000000000E+00  0.00000000000E+00 -0.21296464496E+04  0.21296464496E+04  0.25500000920E-02 0. -1.
    10030    2    1    2    0    0  0.00000000000E+00  0.00000000000E+00 -0.18743191449E+04  0.23849737543E+04  0.14747974614E+04 0.  0.
        2    1    3    3  502    0  0.38189444166E+03  0.43980007901E+02  0.80464694512E+02  0.39274950380E+03  0.25500000920E-02 0.  1.
       -2    1    3    3    0  502 -0.38189444166E+03 -0.43980007901E+02 -0.19547838394E+04  0.19922242505E+04  0.25500000920E-02 0. -1.
</event>
<event>
 5   0  0.1082667E-03  0.1510885E+04  0.7818609E-02  0.8877246E-01
       -2   -1    0    0    0  501  0.00000000000E+00  0.00000000000E+00  0.24990551983E+03  0.24990551985E+03  0.25500000920E-02 0. -1.
        2   -1    0    0  501    0  0.00000000000E+00  0.00000000000E+00 -0.22836372379E+04  0.22836372379E+04  0.25500000920E-02 0.  1.
    10030    2    1    2    0    0  0.00000000000E+00  0.00000000000E+00 -0.20337317181E+04  0.25335427578E+04  0.15108852386E+04 0.  0.
        5    1    3    3  502    0  0.95304964553E+02 -0.58807806958E+03 -0.23797826250E+03  0.64154079809E+03  0.46999998093E+01 0. -1.
       -5    1    3    3    0  502 -0.95304964553E+02  0.58807806958E+03 -0.17957534556E+04  0.18920019597E+04  0.46999998093E+01 0.  1.
</event>
<event>
 5   0  0.5840834E-04  0.1506246E+04  0.7818609E-02  0.8880310E-01
       -1   -1    0    0    0  501  0.00000000000E+00  0.00000000000E+00  0.10193532209E+04  0.10193532209E+04  0.50400001928E-02 0.  1.
        1   -1    0    0  501    0  0.00000000000E+00  0.00000000000E+00 -0.55642560642E+03  0.55642560644E+03  0.50400001928E-02 0. -1.
    10030    2    1    2    0    0  0.00000000000E+00  0.00000000000E+00  0.46292761449E+03  0.15757788274E+04  0.15062459748E+04 0.  0.
        3    1    3    3  502    0  0.16674107039E+03 -0.58851864205E+03  0.69110627168E+03  0.92292180902E+03  0.10100000352E+00 0.  1.
       -3    1    3    3    0  502 -0.16674107039E+03  0.58851864205E+03 -0.22817865719E+03  0.65285701834E+03  0.10100000352E+00 0. -1.
</event>
<event>
 5   0  0.5924403E-04  0.1470762E+04  0.7818609E-02  0.8904132E-01
       -1   -1    0    0    0  501  0.00000000000E+00  0.00000000000E+00  0.31474230820E+03  0.31474230824E+03  0.50400001928E-02 0.  1.
        1   -1    0    0  501    0  0.00000000000E+00  0.00000000000E+00 -0.17181837149E+04  0.17181837149E+04  0.50400001928E-02 0. -1.
    10030    2    1    2    0    0  0.00000000000E+00  0.00000000000E+00 -0.14034414067E+04  0.20329260231E+04  0.14707618548E+04 0.  0.
        1    1    3    3  502    0 -0.34500427620E+03 -0.64894720499E+03 -0.73626759910E+03  0.10403126467E+04  0.50400001928E-02 0. -1.
       -1    1    3    3    0  502  0.34500427620E+03  0.64894720499E+03 -0.66717380758E+03  0.99261337640E+03  0.50400001928E-02 0.  1.
</event>
<event>
 5   0  0.6146552E-04  0.1372675E+04  0.7818609E-02  0.8973839E-01
       -1   -1    0    0    0  501  0.00000000000E+00  0.00000000000E+00  0.29772592725E+03  0.29772592729E+03  0.50400001928E-02 0.  1.
        1   -1    0    0  501    0  0.00000000000E+00  0.00000000000E+00 -0.15821897522E+04  0.15821897522E+04  0.50400001928E-02 0. -1.
    10030    2    1    2    0    0  0.00000000000E+00  0.00000000000E+00 -0.12844638250E+04  0.18799156795E+04  0.13726746317E+04 0.  0.
        5    1    3    3  502    0  0.49143957911E+03 -0.40723569082E+03 -0.29662477620E+03  0.70381966131E+03  0.46999998093E+01 0.  1.
       -5    1    3    3    0  502 -0.49143957911E+03  0.40723569082E+03 -0.98783904878E+03  0.11760960182E+04  0.46999998093E+01 0. -1.
</event>
<event>
 5   0  0.4070625E-04  0.1436743E+04  0.7818609E-02  0.8927643E-01
       -3   -1    0    0    0  501  0.00000000000E+00  0.00000000000E+00  0.11755343481E+04  0.11755343524E+04  0.10100000352E+00 0.  1.
        3   -1    0    0  501    0  0.00000000000E+00  0.00000000000E+00 -0.43899853879E+03  0.43899855041E+03  0.10100000352E+00 0. -1.
    10030    2    1    2    0    0  0.00000000000E+00  0.00000000000E+00  0.73653580930E+03  0.16145329028E+04  0.14367433647E+04 0.  0.
        1    1    3    3  502    0 -0.27455518369E+03 -0.89780483241E+02  0.11073954458E+04  0.11444499803E+04  0.50400001928E-02 0.  1.
       -1    1    3    3    0  502  0.27455518369E+03  0.89780483241E+02 -0.37085963648E+03  0.47008292254E+03  0.50400001928E-02 0. -1.
</event>
<event>
 5   0  0.5840834E-04  0.1456870E+04  0.7818609E-02  0.8913651E-01
       -1   -1    0    0    0  501  0.00000000000E+00  0.00000000000E+00  0.65434925640E+03  0.65434925642E+03  0.50400001928E-02 0. -1.
        1   -1    0    0  501    0  0.00000000000E+00  0.00000000000E+00 -0.81090901005E+03  0.81090901007E+03  0.50400001928E-02 0.  1.
    10030    2    1    2    0    0  0.00000000000E+00  0.00000000000E+00 -0.15655975365E+03  0.14652582665E+04  0.14568702176E+04 0.  0.
        3    1    3    3  502    0 -0.55399507307E+03 -0.39281667450E+03  0.18667992257E+03  0.70431873782E+03  0.10100000352E+00 0. -1.
       -3    1    3    3    0  502  0.55399507307E+03  0.39281667450E+03 -0.34323967622E+03  0.76093952867E+03  0.10100000352E+00 0.  1.
</event>
<event>
 5   0  0.1082667E-03  0.1497934E+04  0.7818609E-02  0.8885828E-01
       -2   -1    0    0    0  501  0.00000000000E+00  0.00000000000E+00  0.47568347091E+03  0.47568347092E+03  0.25500000920E-02 0. -1.
        2   -1    0    0  501    0  0.00000000000E+00  0.00000000000E+00 -0.11792546083E+04  0.11792546083E+04  0.25500000920E-02 0.  1.
    10030    2    1    2    0    0  0.00000000000E+00  0.00000000000E+00 -0.70357113740E+03  0.16549380792E+04  0.14979344781E+04 0.  0.
        5    1    3    3  502    0  0.42916748866E+03 -0.60050515921E+03 -0.21143227492E+03  0.76780002373E+03  0.46999998093E+01 0.  1.
       -5    1    3    3    0  502 -0.42916748866E+03  0.60050515921E+03 -0.49213886248E+03  0.88713805550E+03  0.46999998093E+01 0. -1.
</event>
<event>
 5   0  0.4070625E-04  0.1389926E+04  0.7818609E-02  0.8961143E-01
        3   -1    0    0  501    0  0.00000000000E+00  0.00000000000E+00  0.75320637990E+03  0.75320638667E+03  0.10100000352E+00 0.  1.
       -3   -1    0    0    0  501  0.00000000000E+00  0.00000000000E+00 -0.64122362218E+03  0.64122363013E+03  0.10100000352E+00 0. -1.
    10030    2    1    2    0    0  0.00000000000E+00  0.00000000000E+00  0.11198275773E+03  0.13944300168E+04  0.13899262332E+04 0.  0.
        1    1    3    3  502    0  0.62732983525E+03 -0.74780921543E+02 -0.23449619716E+03  0.67388676714E+03  0.50400001928E-02 0. -1.
       -1    1    3    3    0  502 -0.62732983525E+03  0.74780921543E+02  0.34647895489E+03  0.72054324966E+03  0.50400001928E-02 0.  1.
</event>
<event>
 5   0  0.1082667E-03  0.1517974E+04  0.7818609E-02  0.8872588E-01
       -2   -1    0    0    0  501  0.00000000000E+00  0.00000000000E+00  0.18224288652E+04  0.18224288652E+04  0.25500000920E-02 0.  1.
        2   -1    0    0  501    0  0.00000000000E+00  0.00000000000E+00 -0.31609534214E+03  0.31609534215E+03  0.25500000920E-02 0. -1.
    10030    2    1    2    0    0  0.00000000000E+00  0.00000000000E+00  0.15063335230E+04  0.21385242073E+04  0.15179740125E+04 0.  0.
        5    1    3    3  502    0  0.82088699787E+02  0.46869729760E+03 -0.79843068138E+02  0.48250670144E+03  0.46999998093E+01 0. -1.
       -5    1    3    3    0  502 -0.82088699787E+02 -0.46869729760E+03  0.15861765912E+04  0.16560175059E+04  0.46999998093E+01 0.  1.
</event>
<event>
 5   0  0.5924403E-04  0.1496221E+04  0.7818609E-02  0.8886970E-01
       -1   -1    0    0    0  501  0.00000000000E+00  0.00000000000E+00  0.46831226338E+03  0.46831226341E+03  0.50400001928E-02 0.  1.
        1   -1    0    0  501    0  0.00000000000E+00  0.00000000000E+00 -0.11950777360E+04  0.11950777360E+04  0.50400001928E-02 0. -1.
    10030    2    1    2    0    0  0.00000000000E+00  0.00000000000E+00 -0.72676547265E+03  0.16633899994E+04  0.14962213199E+04 0.  0.
        1    1    3    3  502    0  0.73930403182E+03  0.42289598949E+02 -0.24514858250E+03  0.78003633837E+03  0.50400001928E-02 0.  1.
       -1    1    3    3    0  502 -0.73930403182E+03 -0.42289598949E+02 -0.48161689015E+03  0.88335366108E+03  0.50400001928E-02 0. -1.
</event>
<event>
 5   0  0.6146552E-04  0.1510841E+04  0.7818609E-02  0.8877276E-01
        1   -1    0    0  501    0  0.00000000000E+00  0.00000000000E+00  0.11053706530E+04  0.11053706530E+04  0.50400001928E-02 0. -1.
       -1   -1    0    0    0  501  0.00000000000E+00  0.00000000000E+00 -0.51626135174E+03  0.51626135177E+03  0.50400001928E-02 0.  1.
    10030    2    1    2    0    0  0.00000000000E+00  0.00000000000E+00  0.58910930128E+03  0.16216320048E+04  0.15108410208E+04 0.  0.
        5    1    3    3  502    0  0.34741740144E+03  0.67031562889E+03  0.26791172986E+03  0.80113711570E+03  0.46999998093E+01 0.  1.
       -5    1    3    3    0  502 -0.34741740144E+03 -0.67031562889E+03  0.32119757141E+03  0.82049488910E+03  0.46999998093E+01 0. -1.
</event>
<event>
 5   0  0.1126175E-03  0.1494403E+04  0.7818609E-02  0.8888183E-01
        2   -1    0    0  501    0  0.00000000000E+00  0.00000000000E+00  0.97992018419E+03  0.97992018419E+03  0.25500000920E-02 0. -1.
       -2   -1    0    0    0  501  0.00000000000E+00  0.00000000000E+00 -0.56975066313E+03  0.56975066313E+03  0.25500000920E-02 0.  1.
    10030    2    1    2    0    0  0.00000000000E+00  0.00000000000E+00  0.41016952106E+03  0.15496708473E+04  0.14944031247E+04 0.  0.
        3    1    3    3  502    0  0.73864327475E+03 -0.21457471048E+02  0.90284337553E+02  0.74444985205E+03  0.10100000352E+00 0.  1.
       -3    1    3    3    0  502 -0.73864327475E+03  0.21457471048E+02  0.31988518350E+03  0.80522099527E+03  0.10100000352E+00 0. -1.
</event>
<event>
 5   0  0.1082667E-03  0.1486585E+04  0.7818609E-02  0.8893423E-01
       -2   -1    0    0    0  501  0.00000000000E+00  0.00000000000E+00  0.75286477025E+03  0.75286477026E+03  0.25500000920E-02 0.  1.
        2   -1    0    0  501    0  0.00000000000E+00  0.00000000000E+00 -0.73384192582E+03  0.73384192583E+03  0.25500000920E-02 0. -1.
    10030    2    1    2    0    0  0.00000000000E+00  0.00000000000E+00  0.19022844433E+02  0.14867066961E+04  0.14865849897E+04 0.  0.
        5    1    3    3  502    0 -0.64277269466E+03 -0.29878981143E+03 -0.21417976365E+03  0.74049115428E+03  0.46999998093E+01 0. -1.
       -5    1    3    3    0  502  0.64277269466E+03  0.29878981143E+03  0.23320260809E+03  0.74621554180E+03  0.46999998093E+01 0.  1.
</event>
<event>
 5   0  0.4070625E-04  0.1504078E+04  0.7818609E-02  0.8881746E-01
        3   -1    0    0  501    0  0.00000000000E+00  0.00000000000E+00  0.36616714091E+03  0.36616715484E+03  0.10100000352E+00 0. -1.
       -3   -1    0    0    0  501  0.00000000000E+00  0.00000000000E+00 -0.15445478683E+04  0.15445478716E+04  0.10100000352E+00 0.  1.
    10030    2    1    2    0    0  0.00000000000E+00  0.00000000000E+00 -0.11783807274E+04  0.19107150264E+04  0.15040780477E+04 0.  0.
        3    1    3    3  502    0 -0.71002874631E+03  0.61213566734E+02 -0.28410705251E+03  0.76720580605E+03  0.10100000352E+00 0. -1.
       -3    1    3    3    0  502  0.71002874631E+03 -0.61213566734E+02 -0.89427367487E+03  0.11435092204E+04  0.10100000352E+00 0.  1.
</event>
<event>
 5   0  0.1147755E-03  0.1495022E+04  0.7818609E-02  0.8887770E-01
       -2   -1    0    0    0  501  0.00000000000E+00  0.00000000000E+00  0.19860956627E+03  0.19860956629E+03  0.25500000920E-02 0.  1.
        2   -1    0    0  501    0  0.00000000000E+00  0.00000000000E+00 -0.28134222601E+04  0.28134222601E+04  0.25500000920E-02 0. -1.
    10030    2    1    2    0    0  0.00000000000E+00  0.00000000000E+00 -0.26148126939E+04  0.30120318264E+04  0.14950218391E+04 0.  0.
        4    1    3    3  502    0  0.24575092056E+03 -0.37700784850E+03 -0.25099058412E+04  0.25499328182E+04  0.12699999809E+01 0. -1.
       -4    1    3    3    0  502 -0.24575092056E+03  0.37700784850E+03 -0.10490685270E+03  0.46209900826E+03  0.12699999809E+01 0.  1.
</event>
<event>
 5   0  0.5840834E-04  0.1484127E+04  0.7818609E-02  0.8895077E-01
       -1   -1    0    0    0  501  0.00000000000E+00  0.00000000000E+00  0.79678431951E+03  0.79678431953E+03  0.50400001928E-02 0. -1.
        1   -1    0    0  501    0  0.00000000000E+00  0.00000000000E+00 -0.69110118517E+03  0.69110118518E+03  0.50400001928E-02 0.  1.
    10030    2    1    2    0    0  0.00000000000E+00  0.00000000000E+00  0.10568313435E+03  0.14878855047E+04  0.14841274710E+04 0.  0.
        3    1    3    3  502    0 -0.27013149870E+03 -0.48789662990E+03  0.54361605433E+03  0.77880201128E+03  0.10100000352E+00 0. -1.
       -3    1    3    3    0  502  0.27013149870E+03  0.48789662990E+03 -0.43793291998E+03  0.70908349343E+03  0.10100000352E+00 0.  1.
</event>
<event>
 5   0  0.5606965E-04  0.1483848E+04  0.7818609E-02  0.8895265E-01
       -1   -1    0    0    0  501  0.00000000000E+00  0.00000000000E+00  0.57944481915E+03  0.57944481918E+03  0.50400001928E-02 0.  1.
        1   -1    0    0  501    0  0.00000000000E+00  0.00000000000E+00 -0.94996306659E+03  0.94996306661E+03  0.50400001928E-02 0. -1.
    10030    2    1    2    0    0  0.00000000000E+00  0.00000000000E+00 -0.37051824744E+03  0.15294078858E+04  0.14838479401E+04 0.  0.
        4    1    3    3  502    0 -0.49140864664E+03  0.62480138722E+02 -0.75454306940E+03  0.90262012066E+03  0.12699999809E+01 0. -1.
       -4    1    3    3    0  502  0.49140864664E+03 -0.62480138722E+02  0.38402482196E+03  0.62678776513E+03  0.12699999809E+01 0.  1.
</event>
<event>
 5   0  0.5606965E-04  0.1516213E+04  0.7818609E-02  0.8873742E-01
        1   -1    0    0  501    0  0.00000000000E+00  0.00000000000E+00  0.81653424331E+03  0.81653424333E+03  0.50400001928E-02 0.  1.
       -1   -1    0    0    0  501  0.00000000000E+00  0.00000000000E+00 -0.70385984581E+03  0.70385984583E+03  0.50400001928E-02 0. -1.
    10030    2    1    2    0    0  0.00000000000E+00  0.00000000000E+00  0.11267439750E+03  0.15203940892E+04  0.15162132655E+04 0.  0.
        4    1    3    3  502    0 -0.51123341074E+03  0.14850585982E+03  0.59755730512E+03  0.80030615171E+03  0.12699999809E+01 0.  1.
       -4    1    3    3    0  502  0.51123341074E+03 -0.14850585982E+03 -0.48488290762E+03  0.72008793745E+03  0.12699999809E+01 0. -1.
</event>
<event>
 5   0  0.5606965E-04  0.1501452E+04  0.7818609E-02  0.8883488E-01
        1   -1    0    0  501    0  0.00000000000E+00  0.00000000000E+00  0.70072396807E+03  0.70072396808E+03  0.50400001928E-02 0.  1.
       -1   -1    0    0    0  501  0.00000000000E+00  0.00000000000E+00 -0.80429628728E+03  0.80429628729E+03  0.50400001928E-02 0. -1.
    10030    2    1    2    0    0  0.00000000000E+00  0.00000000000E+00 -0.10357231921E+03  0.15050202554E+04  0.15014522116E+04 0.  0.
        4    1    3    3  502    0 -0.13713789605E+03 -0.68821754138E+03  0.21556453039E+03  0.73411161717E+03  0.12699999809E+01 0.  1.
       -4    1    3    3    0  502  0.13713789605E+03  0.68821754138E+03 -0.31913684961E+03  0.77090863821E+03  0.12699999809E+01 0. -1.
</event>
<event>
 5   0  0.5924403E-04  0.1506251E+04  0.7818609E-02  0.8880306E-01
        1   -1    0    0  501    0  0.00000000000E+00  0.00000000000E+00  0.10376579240E+04  0.10376579240E+04  0.50400001928E-02 0. -1.
       -1   -1    0    0    0  501  0.00000000000E+00  0.00000000000E+00 -0.54661400308E+03  0.54661400310E+03  0.50400001928E-02 0.  1.
    10030    2    1    2    0    0  0.00000000000E+00  0.00000000000E+00  0.49104392089E+03  0.15842719271E+04  0.15062514421E+04 0.  0.
        1    1    3    3  502    0 -0.49710032173E+00  0.32926557746E+03  0.95794108697E+03  0.10129497489E+04  0.50400001928E-02 0. -1.
       -1    1    3    3    0  502  0.49710032173E+00 -0.32926557746E+03 -0.46689716607E+03  0.57132217821E+03  0.50400001928E-02 0.  1.
</event>
<event>
 5   0  0.6146552E-04  0.1503589E+04  0.7818609E-02  0.8882070E-01
        1   -1    0    0  501    0  0.00000000000E+00  0.00000000000E+00  0.10593920445E+04  0.10593920445E+04  0.50400001928E-02 0. -1.
       -1   -1    0    0    0  501  0.00000000000E+00  0.00000000000E+00 -0.53350863034E+03  0.53350863037E+03  0.50400001928E-02 0.  1.
    10030    2    1    2    0    0  0.00000000000E+00  0.00000000000E+00  0.52588341418E+03  0.15929006749E+04  0.15035887718E+04 0.  0.
        5    1    3    3  502    0 -0.23862517452E+03  0.60504509081E+03  0.66236634120E+03  0.92831718490E+03  0.46999998093E+01 0. -1.
       -5    1    3    3    0  502  0.23862517452E+03 -0.60504509081E+03 -0.13648292702E+03  0.66458349001E+03  0.46999998093E+01 0.  1.
</event>
<event>
 5   0  0.1147755E-03  0.1505683E+04  0.7818609E-02  0.8880683E-01
       -2   -1    0    0    0  501  0.00000000000E+00  0.00000000000E+00  0.30180923594E+03  0.30180923596E+03  0.25500000920E-02 0.  1.
        2   -1    0    0  501    0  0.00000000000E+00  0.00000000000E+00 -0.18779093366E+04  0.18779093366E+04  0.25500000920E-02 0. -1.
    10030    2    1    2    0    0  0.00000000000E+00  0.00000000000E+00 -0.15761001007E+04  0.21797185726E+04  0.15056830770E+04 0.  0.
        4    1    3    3  502    0  0.56341997666E+02 -0.51695958572E+03  0.24353459030E-01  0.52002235285E+03  0.12699999809E+01 0.  1.
       -4    1    3    3    0  502 -0.56341997666E+02  0.51695958572E+03 -0.15761244541E+04  0.16596962197E+04  0.12699999809E+01 0. -1.
</event>
<event>
 5   0  0.6146552E-04  0.1497938E+04  0.7818609E-02  0.8885825E-01
       -1   -1    0    0    0  501  0.00000000000E+00  0.00000000000E+00  0.64864164333E+03  0.64864164335E+03  0.50400001928E-02 0.  1.
        1   -1    0    0  501    0  0.00000000000E+00  0.00000000000E+00 -0.86481477700E+03  0.86481477701E+03  0.50400001928E-02 0. -1.
    10030    2    1    2    0    0  0.00000000000E+00  0.00000000000E+00 -0.21617313367E+03  0.15134564204E+04  0.14979384208E+04 0.  0.
        5    1    3    3  502    0 -0.37399176360E+03 -0.52191993131E+03 -0.49764869149E+03  0.81237095226E+03  0.46999998093E+01 0.  1.
       -5    1    3    3    0  502  0.37399176360E+03  0.52191993131E+03  0.28147555782E+03  0.70108546811E+03  0.46999998093E+01 0. -1.
</event>
<event>
 5   0  0.1147755E-03  0.1505205E+04  0.7818609E-02  0.8880999E-01
        2   -1    0    0  501    0  0.00000000000E+00  0.00000000000E+00  0.52843558235E+03  0.52843558235E+03  0.25500000920E-02 0. -1.
       -2   -1    0    0    0  501  0.00000000000E+00  0.00000000000E+00 -0.10718634798E+04  0.10718634798E+04  0.25500000920E-02 0.  1.
    10030    2    1    2    0    0  0.00000000000E+00  0.00000000000E+00 -0.54342789745E+03  0.16002990622E+04  0.15052053709E+04 0.  0.
        4    1    3    3  502    0  0.51548875952E+03  0.77070122347E+02 -0.84891280867E+03  0.99615412190E+03  0.12699999809E+01 0.  1.
       -4    1    3    3    0  502 -0.51548875952E+03 -0.77070122347E+02  0.30548491122E+03  0.60414494025E+03  0.12699999809E+01 0. -1.
</event>
<event>
 5   0  0.5924403E-04  0.1482870E+04  0.7818609E-02  0.8895925E-01
       -1   -1    0    0    0  501  0.00000000000E+00  0.00000000000E+00  0.51538757134E+03  0.51538757137E+03  0.50400001928E-02 0.  1.
        1   -1    0    0  501    0  0.00000000000E+00  0.00000000000E+00 -0.10666254301E+04  0.10666254302E+04  0.50400001928E-02 0. -1.
    10030    2    1    2    0    0  0.00000000000E+00  0.00000000000E+00 -0.55123785880E+03  0.15820130015E+04  0.14828695020E+04 0.  0.
        1    1    3    3  502    0 -0.12056144660E+03  0.53589587487E+03 -0.80691700529E+03  0.97613242164E+03  0.50400001928E-02 0. -1.
       -1    1    3    3    0  502  0.12056144660E+03 -0.53589587487E+03  0.25567914649E+03  0.60588057989E+03  0.50400001928E-02 0.  1.
</event>
<event>
 5   0  0.1126175E-03  0.1495091E+04  0.7818609E-02  0.8887724E-01
        2   -1    0    0  501    0  0.00000000000E+00  0.00000000000E+00  0.17270411782E+04  0.17270411782E+04  0.25500000920E-02 0.  1.
       -2   -1    0    0    0  501  0.00000000000E+00  0.00000000000E+00 -0.32357304183E+03  0.32357304184E+03  0.25500000920E-02 0. -1.
    10030    2    1    2    0    0  0.00000000000E+00  0.00000000000E+00  0.14034681363E+04  0.20506142200E+04  0.14950905891E+04 0.  0.
        3    1    3    3  502    0  0.18104412322E+03  0.32911363648E+03  0.15882058426E+04  0.16320203947E+04  0.10100000352E+00 0.  1.
       -3    1    3    3    0  502 -0.18104412322E+03 -0.32911363648E+03 -0.18473770623E+03  0.41859382529E+03  0.10100000352E+00 0. -1.
</event>
<event>
 5   0  0.5840834E-04  0.1505177E+04  0.7818609E-02  0.8881017E-01
        1   -1    0    0  501    0  0.00000000000E+00  0.00000000000E+00  0.11965624816E+04  0.11965624816E+04  0.50400001928E-02 0. -1.
       -1   -1    0    0    0  501  0.00000000000E+00  0.00000000000E+00 -0.47334724527E+03  0.47334724530E+03  0.50400001928E-02 0.  1.
    10030    2    1    2    0    0  0.00000000000E+00  0.00000000000E+00  0.72321523630E+03  0.16699097269E+04  0.15051771384E+04 0.  0.
        3    1    3    3  502    0  0.49124444029E+03  0.54173531924E+03  0.16441572893E+03  0.74955373279E+03  0.10100000352E+00 0. -1.
       -3    1    3    3    0  502 -0.49124444029E+03 -0.54173531924E+03  0.55879950738E+03  0.92035599409E+03  0.10100000352E+00 0.  1.
</event>
<event>
 5   0  0.1097156E-03  0.1517917E+04  0.7818609E-02  0.8872625E-01
        2   -1    0    0  501    0  0.00000000000E+00  0.00000000000E+00  0.94874123569E+03  0.94874123569E+03  0.25500000920E-02 0.  1.
       -2   -1    0    0    0  501  0.00000000000E+00  0.00000000000E+00 -0.60713923772E+03  0.60713923772E+03  0.25500000920E-02 0. -1.
    10030    2    1    2    0    0  0.00000000000E+00  0.00000000000E+00  0.34160199797E+03  0.15558804734E+04  0.15179170341E+04 0.  0.
        2    1    3    3  502    0  0.67164134742E+03  0.19862941146E+02 -0.19090039602E+03  0.69852673335E+03  0.25500000920E-02 0. -1.
       -2    1    3    3    0  502 -0.67164134742E+03 -0.19862941146E+02  0.53250239400E+03  0.85735374007E+03  0.25500000920E-02 0.  1.
</event>
<event>
 5   0  0.5924403E-04  0.1496136E+04  0.7818609E-02  0.8887026E-01
       -1   -1    0    0    0  501  0.00000000000E+00  0.00000000000E+00  0.11775877945E+04  0.11775877945E+04  0.50400001928E-02 0. -1.
        1   -1    0    0  501    0  0.00000000000E+00  0.00000000000E+00 -0.47521388527E+03  0.47521388530E+03  0.50400001928E-02 0.  1.
    10030    2    1    2    0    0  0.00000000000E+00  0.00000000000E+00  0.70237390921E+03  0.16528016798E+04  0.14961364525E+04 0.  0.
        1    1    3    3  502    0 -0.13203184083E+03 -0.15708076846E+03 -0.44351525939E+03  0.48868452007E+03  0.50400001928E-02 0.  1.
       -1    1    3    3    0  502  0.13203184083E+03  0.15708076846E+03  0.11458891686E+04  0.11641171597E+04  0.50400001928E-02 0. -1.
</event>
<event>
 5   0  0.5840834E-04  0.1491388E+04  0.7818609E-02  0.8890200E-01
       -1   -1    0    0    0  501  0.00000000000E+00  0.00000000000E+00  0.47135282911E+03  0.47135282914E+03  0.50400001928E-02 0. -1.
        1   -1    0    0  501    0  0.00000000000E+00  0.00000000000E+00 -0.11797100160E+04  0.11797100160E+04  0.50400001928E-02 0.  1.
    10030    2    1    2    0    0  0.00000000000E+00  0.00000000000E+00 -0.70835718690E+03  0.16510628452E+04  0.14913881502E+04 0.  0.
        3    1    3    3  502    0  0.11527460369E+03  0.56689381761E+03 -0.87509073389E+03  0.10490188928E+04  0.10100000352E+00 0.  1.
       -3    1    3    3    0  502 -0.11527460369E+03 -0.56689381761E+03  0.16673354699E+03  0.60204395237E+03  0.10100000352E+00 0. -1.
</event>
<event>
 5   0  0.5924403E-04  0.1492693E+04  0.7818609E-02  0.8889327E-01
       -1   -1    0    0    0  501  0.00000000000E+00  0.00000000000E+00  0.10278530775E+04  0.10278530775E+04  0.50400001928E-02 0. -1.
        1   -1    0    0  501    0  0.00000000000E+00  0.00000000000E+00 -0.54193839666E+03  0.54193839669E+03  0.50400001928E-02 0.  1.
    10030    2    1    2    0    0  0.00000000000E+00  0.00000000000E+00  0.48591468080E+03  0.15697914742E+04  0.14926929340E+04 0.  0.
        1    1    3    3  502    0  0.53975250015E+03 -0.41291160713E+02 -0.29738575844E+03  0.61763744277E+03  0.50400001928E-02 0. -1.
       -1    1    3    3    0  502 -0.53975250015E+03  0.41291160713E+02  0.78330043924E+03  0.95215403139E+03  0.50400001928E-02 0.  1.
</event>
<event>
 5   0  0.1082667E-03  0.1514487E+04  0.7818609E-02  0.8874876E-01
        2   -1    0    0  501    0  0.00000000000E+00  0.00000000000E+00  0.11323382090E+04  0.11323382091E+04  0.25500000920E-02 0. -1.
       -2   -1    0    0    0  501  0.00000000000E+00  0.00000000000E+00 -0.50640134228E+03  0.50640134228E+03  0.25500000920E-02 0.  1.
    10030    2    1    2    0    0  0.00000000000E+00  0.00000000000E+00  0.62593686677E+03  0.16387395513E+04  0.15144868292E+04 0.  0.
        5    1    3    3  502    0 -0.69280925394E+03 -0.12656230259E+03  0.11948835603E+02  0.70439161229E+03  0.46999998093E+01 0.  1.
       -5    1    3    3    0  502  0.69280925394E+03  0.12656230259E+03  0.61398803117E+03  0.93434793905E+03  0.46999998093E+01 0. -1.
</event>
<event>
 5   0  0.1126175E-03  0.1504307E+04  0.7818609E-02  0.8881594E-01
       -2   -1    0    0    0  501  0.00000000000E+00  0.00000000000E+00  0.40645576084E+03  0.40645576085E+03  0.25500000920E-02 0.  1.
        2   -1    0    0  501    0  0.00000000000E+00  0.00000000000E+00 -0.13918734976E+04  0.13918734976E+04  0.25500000920E-02 0. -1.
    10030    2    1    2    0    0  0.00000000000E+00  0.00000000000E+00 -0.98541773679E+03  0.17983292585E+04  0.15043071515E+04 0.  0.
        3    1    3    3  502    0  0.88282930971E+02  0.70594730955E+03 -0.20091164221E+03  0.73927057153E+03  0.10100000352E+00 0.  1.
       -3    1    3    3    0  502 -0.88282930971E+02 -0.70594730955E+03 -0.78450609458E+03  0.10590586869E+04  0.10100000352E+00 0. -1.
</event>
<event>
 5   0  0.1149716E-03  0.1474712E+04  0.7818609E-02  0.8901446E-01
       -2   -1    0    0    0  501  0.00000000000E+00  0.00000000000E+00  0.58757009606E+03  0.58757009606E+03  0.25500000920E-02 0.  1.
        2   -1    0    0  501    0  0.00000000000E+00  0.00000000000E+00 -0.92532588870E+03  0.92532588871E+03  0.25500000920E-02 0. -1.
    10030    2    1    2    0    0  0.00000000000E+00  0.00000000000E+00 -0.33775579265E+03  0.15128959848E+04  0.14747119330E+04 0.  0.
        1    1    3    3  502    0 -0.65336175267E+03 -0.67189563231E+02  0.17490756600E+03  0.67969748707E+03  0.50400001928E-02 0.  1.
       -1    1    3    3    0  502  0.65336175267E+03  0.67189563231E+02 -0.51266335864E+03  0.83319849770E+03  0.50400001928E-02 0. -1.
</event>
<event>
 5   0  0.5914645E-04  0.1492816E+04  0.7818609E-02  0.8889244E-01
        1   -1    0    0  501    0  0.00000000000E+00  0.00000000000E+00  0.66840526101E+03  0.66840526102E+03  0.50400001928E-02 0.  1.
       -1   -1    0    0    0  501  0.00000000000E+00  0.00000000000E+00 -0.83351387765E+03  0.83351387767E+03  0.50400001928E-02 0. -1.
    10030    2    1    2    0    0  0.00000000000E+00  0.00000000000E+00 -0.16510861665E+03  0.15019191387E+04  0.14928162124E+04 0.  0.
        2    1    3    3  502    0 -0.23450228387E+03  0.61966113291E+03  0.26327682863E+03  0.71294174326E+03  0.25500000920E-02 0.  1.
       -2    1    3    3    0  502  0.23450228387E+03 -0.61966113291E+03 -0.42838544528E+03  0.78897739544E+03  0.25500000920E-02 0. -1.
</event>
<event>
 5   0  0.5924403E-04  0.1479251E+04  0.7818609E-02  0.8898369E-01
        1   -1    0    0  501    0  0.00000000000E+00  0.00000000000E+00  0.14710529149E+04  0.14710529150E+04  0.50400001928E-02 0.  1.
       -1   -1    0    0    0  501  0.00000000000E+00  0.00000000000E+00 -0.37187393840E+03  0.37187393843E+03  0.50400001928E-02 0. -1.
    10030    2    1    2    0    0  0.00000000000E+00  0.00000000000E+00  0.10991789766E+04  0.18429268534E+04  0.14792514879E+04 0.  0.
        1    1    3    3  502    0 -0.16410554110E+03  0.47574006863E+03  0.12248671296E+04  0.13242200447E+04  0.50400001928E-02 0.  1.
       -1    1    3    3    0  502  0.16410554110E+03 -0.47574006863E+03 -0.12568815309E+03  0.51870680868E+03  0.50400001928E-02 0. -1.
</event>
<event>
 5   0  0.1082667E-03  0.1494982E+04  0.7818609E-02  0.8887796E-01
        2   -1    0    0  501    0  0.00000000000E+00  0.00000000000E+00  0.73687312797E+03  0.73687312797E+03  0.25500000920E-02 0. -1.
       -2   -1    0    0    0  501  0.00000000000E+00  0.00000000000E+00 -0.75826218167E+03  0.75826218167E+03  0.25500000920E-02 0.  1.
    10030    2    1    2    0    0  0.00000000000E+00  0.00000000000E+00 -0.21389053702E+02  0.14951353096E+04  0.14949823084E+04 0.  0.
        5    1    3    3  502    0  0.24770218399E+03 -0.53944716450E+03 -0.46501111459E+03  0.75406700096E+03  0.46999998093E+01 0.  1.
       -5    1    3    3    0  502 -0.24770218399E+03  0.53944716450E+03  0.44362206089E+03  0.74106830869E+03  0.46999998093E+01 0. -1.
</event>
<event>
 5   0  0.6146552E-04  0.1494155E+04  0.7818609E-02  0.8888349E-01
       -1   -1    0    0    0  501  0.00000000000E+00  0.00000000000E+00  0.51538576423E+03  0.51538576426E+03  0.50400001928E-02 0.  1.
        1   -1    0    0  501    0  0.00000000000E+00  0.00000000000E+00 -0.10829255967E+04  0.10829255967E+04  0.50400001928E-02 0. -1.
    10030    2    1    2    0    0  0.00000000000E+00  0.00000000000E+00 -0.56753983244E+03  0.15983113609E+04  0.14941545252E+04 0.  0.
        5    1    3    3  502    0  0.56665504388E+03 -0.28456357353E+03 -0.70630922275E+03  0.94919396030E+03  0.46999998093E+01 0. -1.
       -5    1    3    3    0  502 -0.56665504388E+03  0.28456357353E+03  0.13876939030E+03  0.64911740065E+03  0.46999998093E+01 0.  1.
</event>
<event>
 5   0  0.5606965E-04  0.1500013E+04  0.7818609E-02  0.8884444E-01
        1   -1    0    0  501    0  0.00000000000E+00  0.00000000000E+00  0.10191792086E+04  0.10191792086E+04  0.50400001928E-02 0.  1.
       -1   -1    0    0    0  501  0.00000000000E+00  0.00000000000E+00 -0.55192431903E+03  0.55192431905E+03  0.50400001928E-02 0. -1.
    10030    2    1    2    0    0  0.00000000000E+00  0.00000000000E+00  0.46725488960E+03  0.15711035277E+04  0.15000130542E+04 0.  0.
        4    1    3    3  502    0 -0.14710520815E+03 -0.64253858378E+03  0.60837239706E+03  0.89700298791E+03  0.12699999809E+01 0.  1.
       -4    1    3    3    0  502  0.14710520815E+03  0.64253858378E+03 -0.14111750746E+03  0.67410053978E+03  0.12699999809E+01 0. -1.
</event>
<event>
 5   0  0.1082667E-03  0.1519115E+04  0.7818609E-02  0.8871840E-01
        2   -1    0    0  501    0  0.00000000000E+00  0.00000000000E+00  0.11508587466E+04  0.11508587466E+04  0.25500000920E-02 0. -1.
       -2   -1    0    0    0  501  0.00000000000E+00  0.00000000000E+00 -0.50130163175E+03  0.50130163175E+03  0.25500000920E-02 0.  1.
    10030    2    1    2    0    0  0.00000000000E+00  0.00000000000E+00  0.64955711488E+03  0.16521603784E+04  0.15191146996E+04 0.  0.
        5    1    3    3  502    0 -0.73423236922E+02 -0.51304854254E+02  0.11450786827E+04  0.11485862786E+04  0.46999998093E+01 0. -1.
       -5    1    3    3    0  502  0.73423236922E+02  0.51304854254E+02 -0.49552156783E+03  0.50357409978E+03  0.46999998093E+01 0.  1.
</event>
<event>
 5   0  0.4070625E-04  0.1497321E+04  0.7818609E-02  0.8886237E-01
        3   -1    0    0  501    0  0.00000000000E+00  0.00000000000E+00  0.54426160198E+03  0.54426161135E+03  0.10100000352E+00 0.  1.
       -3   -1    0    0    0  501  0.00000000000E+00  0.00000000000E+00 -0.10298214127E+04  0.10298214176E+04  0.10100000352E+00 0. -1.
    10030    2    1    2    0    0  0.00000000000E+00  0.00000000000E+00 -0.48555981068E+03  0.15740830290E+04  0.14973206244E+04 0.  0.
        4    1    3    3  502    0 -0.28814396197E+03 -0.30771989304E+02 -0.96847123549E+03  0.10108966342E+04  0.12699999809E+01 0. -1.
       -4    1    3    3    0  502  0.28814396197E+03  0.30771989304E+02  0.48291142481E+03  0.56318639477E+03  0.12699999809E+01 0.  1.
</event>
<event>
 5   0  0.1082667E-03  0.1531929E+04  0.7818609E-02  0.8863494E-01
       -2   -1    0    0    0  501  0.00000000000E+00  0.00000000000E+00  0.23248065945E+03  0.23248065946E+03  0.25500000920E-02 0.  1.
        2   -1    0    0  501    0  0.00000000000E+00  0.00000000000E+00 -0.25236568509E+04  0.25236568509E+04  0.25500000920E-02 0. -1.
    10030    2    1    2    0    0  0.00000000000E+00  0.00000000000E+00 -0.22911761914E+04  0.27561375103E+04  0.15319287306E+04 0.  0.
        5    1    3    3  502    0 -0.23123648687E+02 -0.78732038105E+02 -0.25157000482E+04  0.25170423635E+04  0.46999998093E+01 0. -1.
       -5    1    3    3    0  502  0.23123648687E+02  0.78732038105E+02  0.22452385683E+03  0.23909514683E+03  0.46999998093E+01 0.  1.
</event>
<event>
 5   0  0.1147755E-03  0.1492055E+04  0.7818609E-02  0.8889753E-01
        2   -1    0    0  501    0  0.00000000000E+00  0.00000000000E+00  0.20979567951E+04  0.20979567952E+04  0.25500000920E-02 0.  1.
       -2   -1    0    0    0  501  0.00000000000E+00  0.00000000000E+00 -0.26528539819E+03  0.26528539820E+03  0.25500000920E-02 0. -1.
    10030    2    1    2    0    0  0.00000000000E+00  0.00000000000E+00  0.18326713970E+04  0.23632421934E+04  0.14920553660E+04 0.  0.
        4    1    3    3  502    0  0.33984986301E+03  0.58863820677E+03  0.42927452859E+03  0.80390988403E+03  0.12699999809E+01 0. -1.
       -4    1    3    3    0  502 -0.33984986301E+03 -0.58863820677E+03  0.14033968684E+04  0.15593323093E+04  0.12699999809E+01 0.  1.
</event>
<event>
 5   0  0.1149716E-03  0.1572796E+04  0.7818609E-02  0.8837437E-01
       -2   -1    0    0    0  501  0.00000000000E+00  0.00000000000E+00  0.57325176037E+03  0.57325176037E+03  0.25500000920E-02 0.  1.
        2   -1    0    0  501    0  0.00000000000E+00  0.00000000000E+00 -0.10787959164E+04  0.10787959164E+04  0.25500000920E-02 0. -1.
    10030    2    1    2    0    0  0.00000000000E+00  0.00000000000E+00 -0.50554415599E+03  0.16520476767E+04  0.15727958013E+04 0.  0.
        1    1    3    3  502    0 -0.70879965348E+02 -0.12286164755E+03 -0.10652484096E+04  0.10746502352E+04  0.50400001928E-02 0. -1.
       -1    1    3    3    0  502  0.70879965348E+02  0.12286164755E+03  0.55970425360E+03  0.57739744150E+03  0.50400001928E-02 0.  1.
</event>
<event>
 5   0  0.1149716E-03  0.1481706E+04  0.7818609E-02  0.8896710E-01
        2   -1    0    0  501    0  0.00000000000E+00  0.00000000000E+00  0.10130132438E+04  0.10130132438E+04  0.25500000920E-02 0. -1.
       -2   -1    0    0    0  501  0.00000000000E+00  0.00000000000E+00 -0.54181239289E+03  0.54181239289E+03  0.25500000920E-02 0.  1.
    10030    2    1    2    0    0  0.00000000000E+00  0.00000000000E+00  0.47120085090E+03  0.15548256367E+04  0.14817059488E+04 0.  0.
        1    1    3    3  502    0  0.36740518571E+03 -0.61701410266E+03  0.44486018506E+02  0.71949425240E+03  0.50400001928E-02 0. -1.
       -1    1    3    3    0  502 -0.36740518571E+03  0.61701410266E+03  0.42671483239E+03  0.83533138429E+03  0.50400001928E-02 0.  1.
</event>
<event>
 5   0  0.5914645E-04  0.1505443E+04  0.7818609E-02  0.8880841E-01
        1   -1    0    0  501    0  0.00000000000E+00  0.00000000000E+00  0.65324042231E+03  0.65324042233E+03  0.50400001928E-02 0. -1.
       -1   -1    0    0    0  501  0.00000000000E+00  0.00000000000E+00 -0.86735285720E+03  0.86735285721E+03  0.50400001928E-02 0.  1.
    10030    2    1    2    0    0  0.00000000000E+00  0.00000000000E+00 -0.21411243488E+03  0.15205932795E+04  0.15054433855E+04 0.  0.
        2    1    3    3  502    0  0.32068807730E+03 -0.66643949642E+03 -0.24849215271E+03  0.78021201944E+03  0.25500000920E-02 0. -1.
       -2    1    3    3    0  502 -0.32068807730E+03  0.66643949642E+03  0.34379717827E+02  0.74038126011E+03  0.25500000920E-02 0.  1.
</event>
<event>
 5   0  0.1149716E-03  0.1455971E+04  0.7818609E-02  0.8914272E-01
       -2   -1    0    0    0  501  0.00000000000E+00  0.00000000000E+00  0.69139651462E+03  0.69139651463E+03  0.25500000920E-02 0.  1.
        2   -1    0    0  501    0  0.00000000000E+00  0.00000000000E+00 -0.76651057961E+03  0.76651057962E+03  0.25500000920E-02 0. -1.
    10030    2    1    2    0    0  0.00000000000E+00  0.00000000000E+00 -0.75114064992E+02  0.14579070942E+04  0.14559708008E+04 0.  0.
        1    1    3    3  502    0  0.32859455719E+03 -0.33656920602E+03 -0.59391229705E+03  0.75761799746E+03  0.50400001928E-02 0. -1.
       -1    1    3    3    0  502 -0.32859455719E+03  0.33656920602E+03  0.51879823206E+03  0.70028909678E+03  0.50400001928E-02 0.  1.
</event>
<event>
 5   0  0.6146552E-04  0.1481242E+04  0.7818609E-02  0.8897024E-01
        1   -1    0    0  501    0  0.00000000000E+00  0.00000000000E+00  0.80784826116E+03  0.80784826118E+03  0.50400001928E-02 0.  1.
       -1   -1    0    0    0  501  0.00000000000E+00  0.00000000000E+00 -0.67898804788E+03  0.67898804790E+03  0.50400001928E-02 0. -1.
    10030    2    1    2    0    0  0.00000000000E+00  0.00000000000E+00  0.12886021328E+03  0.14868363091E+04  0.14812417951E+04 0.  0.
        5    1    3    3  502    0  0.13933923177E+03  0.15416200698E+02  0.79439344713E+03  0.80668216765E+03  0.46999998093E+01 0.  1.
       -5    1    3    3    0  502 -0.13933923177E+03 -0.15416200698E+02 -0.66553323385E+03  0.68015414144E+03  0.46999998093E+01 0. -1.
</event>
<event>
 5   0  0.5840834E-04  0.1467458E+04  0.7818609E-02  0.8906386E-01
        1   -1    0    0  501    0  0.00000000000E+00  0.00000000000E+00  0.71486471561E+03  0.71486471563E+03  0.50400001928E-02 0.  1.
       -1   -1    0    0    0  501  0.00000000000E+00  0.00000000000E+00 -0.75309148380E+03  0.75309148381E+03  0.50400001928E-02 0. -1.
    10030    2    1    2    0    0  0.00000000000E+00  0.00000000000E+00 -0.38226768186E+02  0.14679561994E+04  0.14674583870E+04 0.  0.
        3    1    3    3  502    0  0.38733012032E+03 -0.58200335311E+03 -0.24191297097E+03  0.73977998139E+03  0.10100000352E+00 0.  1.
       -3    1    3    3    0  502 -0.38733012032E+03  0.58200335311E+03  0.20368620279E+03  0.72817621805E+03  0.10100000352E+00 0. -1.
</event>
<event>
 5   0  0.1147755E-03  0.1502543E+04  0.7818609E-02  0.8882764E-01
        2   -1    0    0  501    0  0.00000000000E+00  0.00000000000E+00  0.10344567375E+04  0.10344567375E+04  0.25500000920E-02 0. -1.
       -2   -1    0    0    0  501  0.00000000000E+00  0.00000000000E+00 -0.54560874908E+03  0.54560874909E+03  0.25500000920E-02 0.  1.
    10030    2    1    2    0    0  0.00000000000E+00  0.00000000000E+00  0.48884798846E+03  0.15800654866E+04  0.15025427070E+04 0.  0.
        4    1    3    3  502    0  0.72936426180E+03  0.16037302403E+03  0.33059893337E+03  0.81669394566E+03  0.12699999809E+01 0.  1.
       -4    1    3    3    0  502 -0.72936426180E+03 -0.16037302403E+03  0.15824905508E+03  0.76337154097E+03  0.12699999809E+01 0. -1.
</event>
<event>
 5   0  0.5924403E-04  0.1670994E+04  0.7818609E-02  0.8778083E-01
        1   -1    0    0  501    0  0.00000000000E+00  0.00000000000E+00  0.70539330138E+03  0.70539330140E+03  0.50400001928E-02 0. -1.
       -1   -1    0    0    0  501  0.00000000000E+00  0.00000000000E+00 -0.98959702626E+03  0.98959702627E+03  0.50400001928E-02 0.  1.
    10030    2    1    2    0    0  0.00000000000E+00  0.00000000000E+00 -0.28420372488E+03  0.16949903277E+04  0.16709938521E+04 0.  0.
        1    1    3    3  502    0  0.81916504182E+03 -0.12485635225E+03 -0.25057035391E+03  0.86568237635E+03  0.50400001928E-02 0.  1.
       -1    1    3    3    0  502 -0.81916504182E+03  0.12485635225E+03 -0.33633370972E+02  0.82930795131E+03  0.50400001928E-02 0. -1.
</event>
<event>
 5   0  0.1126175E-03  0.1360524E+04  0.7818609E-02  0.8982900E-01
       -2   -1    0    0    0  501  0.00000000000E+00  0.00000000000E+00  0.65274241944E+03  0.65274241945E+03  0.25500000920E-02 0.  1.
        2   -1    0    0  501    0  0.00000000000E+00  0.00000000000E+00 -0.70894145391E+03  0.70894145391E+03  0.25500000920E-02 0. -1.
    10030    2    1    2    0    0  0.00000000000E+00  0.00000000000E+00 -0.56199034466E+02  0.13616838734E+04  0.13605236637E+04 0.  0.
        3    1    3    3  502    0 -0.35217851801E+03 -0.38347699091E+03 -0.46627628611E+03  0.69892624525E+03  0.10100000352E+00 0. -1.
       -3    1    3    3    0  502  0.35217851801E+03  0.38347699091E+03  0.41007725165E+03  0.66275762811E+03  0.10100000352E+00 0.  1.
</event>
<event>
 5   0  0.1126175E-03  0.1533070E+04  0.7818609E-02  0.8862755E-01
        2   -1    0    0  501    0  0.00000000000E+00  0.00000000000E+00  0.12007862219E+04  0.12007862219E+04  0.25500000920E-02 0. -1.
       -2   -1    0    0    0  501  0.00000000000E+00  0.00000000000E+00 -0.48932570019E+03  0.48932570020E+03  0.25500000920E-02 0.  1.
    10030    2    1    2    0    0  0.00000000000E+00  0.00000000000E+00  0.71146052170E+03  0.16901119221E+04  0.15330695468E+04 0.  0.
        3    1    3    3  502    0 -0.33398213869E+03 -0.63145107833E+03  0.66224136150E+03  0.97408324304E+03  0.10100000352E+00 0. -1.
       -3    1    3    3    0  502  0.33398213869E+03  0.63145107833E+03  0.49219160199E+02  0.71602867905E+03  0.10100000352E+00 0.  1.
</event>
<event>
 5   0  0.1126175E-03  0.1100917E+04  0.7818609E-02  0.9204299E-01
       -2   -1    0    0    0  501  0.00000000000E+00  0.00000000000E+00  0.33396658541E+03  0.33396658542E+03  0.25500000920E-02 0.  1.
        2   -1    0    0  501    0  0.00000000000E+00  0.00000000000E+00 -0.90728936685E+03  0.90728936685E+03  0.25500000920E-02 0. -1.
    10030    2    1    2    0    0  0.00000000000E+00  0.00000000000E+00 -0.57332278143E+03  0.12412559523E+04  0.11009165851E+04 0.  0.
        3    1    3    3  502    0 -0.22432653877E+03 -0.30355557414E+03 -0.73840609088E+03  0.82928399710E+03  0.10100000352E+00 0. -1.
       -3    1    3    3    0  502  0.22432653877E+03  0.30355557414E+03  0.16508330945E+03  0.41197195517E+03  0.10100000352E+00 0.  1.
</event>
<event>
 5   0  0.5914645E-04  0.1471288E+04  0.7818609E-02  0.8903774E-01
       -1   -1    0    0    0  501  0.00000000000E+00  0.00000000000E+00  0.35128368843E+03  0.35128368847E+03  0.50400001928E-02 0. -1.
        1   -1    0    0  501    0  0.00000000000E+00  0.00000000000E+00 -0.15405553420E+04  0.15405553420E+04  0.50400001928E-02 0.  1.
    10030    2    1    2    0    0  0.00000000000E+00  0.00000000000E+00 -0.11892716535E+04  0.18918390304E+04  0.14712878207E+04 0.  0.
        2    1    3    3  502    0  0.97638968620E+02 -0.14031598182E+03 -0.15146622984E+04  0.15242781311E+04  0.25500000920E-02 0.  1.
       -2    1    3    3    0  502 -0.97638968620E+02  0.14031598182E+03  0.32539064484E+03  0.36756089931E+03  0.25500000920E-02 0. -1.
</event>
<event>
 5   0  0.1082667E-03  0.1461662E+04  0.7818609E-02  0.8910355E-01
       -2   -1    0    0    0  501  0.00000000000E+00  0.00000000000E+00  0.15404040321E+04  0.15404040321E+04  0.25500000920E-02 0.  1.
        2   -1    0    0  501    0  0.00000000000E+00  0.00000000000E+00 -0.34673609885E+03  0.34673609886E+03  0.25500000920E-02 0. -1.
    10030    2    1    2    0    0  0.00000000000E+00  0.00000000000E+00  0.11936679333E+04  0.18871401310E+04  0.14616616363E+04 0.  0.
        5    1    3    3  502    0 -0.29129535893E+03  0.33637957698E+03  0.13453194989E+04  0.14170077100E+04  0.46999998093E+01 0.  1.
       -5    1    3    3    0  502  0.29129535893E+03 -0.33637957698E+03 -0.15165156563E+03  0.47013242103E+03  0.46999998093E+01 0. -1.
</event>
<event>
 5   0  0.1082667E-03  0.1504513E+04  0.7818609E-02  0.8881458E-01
        2   -1    0    0  501    0  0.00000000000E+00  0.00000000000E+00  0.12791340507E+04  0.12791340507E+04  0.25500000920E-02 0.  1.
       -2   -1    0    0    0  501  0.00000000000E+00  0.00000000000E+00 -0.44240050765E+03  0.44240050765E+03  0.25500000920E-02 0. -1.
    10030    2    1    2    0    0  0.00000000000E+00  0.00000000000E+00  0.83673354310E+03  0.17215345584E+04  0.15045126166E+04 0.  0.
        5    1    3    3  502    0 -0.44981828533E+01 -0.74655434274E+03  0.31284853353E+03  0.80948126305E+03  0.46999998093E+01 0. -1.
       -5    1    3    3    0  502  0.44981828533E+01  0.74655434274E+03  0.52388500957E+03  0.91205329535E+03  0.46999998093E+01 0.  1.
</event>
<event>
 5   0  0.1147755E-03  0.1343611E+04  0.7818609E-02  0.8995679E-01
        2   -1    0    0  501    0  0.00000000000E+00  0.00000000000E+00  0.12131352847E+04  0.12131352847E+04  0.25500000920E-02 0.  1.
       -2   -1    0    0    0  501  0.00000000000E+00  0.00000000000E+00 -0.37202984191E+03  0.37202984192E+03  0.25500000920E-02 0. -1.
    10030    2    1    2    0    0  0.00000000000E+00  0.00000000000E+00  0.84110544275E+03  0.15851651266E+04  0.13436108487E+04 0.  0.
        4    1    3    3  502    0  0.36354373256E+03 -0.45493419658E+03  0.25385000575E+02  0.58290237592E+03  0.12699999809E+01 0. -1.
       -4    1    3    3    0  502 -0.36354373256E+03  0.45493419658E+03  0.81572044218E+03  0.10022627507E+04  0.12699999809E+01 0.  1.
</event>
<event>
 5   0  0.1147755E-03  0.1486630E+04  0.7818609E-02  0.8893393E-01
       -2   -1    0    0    0  501  0.00000000000E+00  0.00000000000E+00  0.56574802624E+03  0.56574802625E+03  0.25500000920E-02 0. -1.
        2   -1    0    0  501    0  0.00000000000E+00  0.00000000000E+00 -0.97661325728E+03  0.97661325728E+03  0.25500000920E-02 0.  1.
    10030    2    1    2    0    0  0.00000000000E+00  0.00000000000E+00 -0.41086523104E+03  0.15423612835E+04  0.14866297760E+04 0.  0.
        4    1    3    3  502    0 -0.36307455272E+03 -0.49296737953E+03 -0.64275024948E+03  0.88767644118E+03  0.12699999809E+01 0.  1.
       -4    1    3    3    0  502  0.36307455272E+03  0.49296737953E+03  0.23188501844E+03  0.65468484235E+03  0.12699999809E+01 0. -1.
</event>
<event>
 5   0  0.5606965E-04  0.1488362E+04  0.7818609E-02  0.8892229E-01
        1   -1    0    0  501    0  0.00000000000E+00  0.00000000000E+00  0.81754647610E+03  0.81754647612E+03  0.50400001928E-02 0. -1.
       -1   -1    0    0    0  501  0.00000000000E+00  0.00000000000E+00 -0.67739916672E+03  0.67739916673E+03  0.50400001928E-02 0.  1.
    10030    2    1    2    0    0  0.00000000000E+00  0.00000000000E+00  0.14014730939E+03  0.14949456429E+04  0.14883619206E+04 0.  0.
        4    1    3    3  502    0 -0.35500474685E+03 -0.34752111504E+03 -0.48645707121E+03  0.69529949713E+03  0.12699999809E+01 0.  1.
       -4    1    3    3    0  502  0.35500474685E+03  0.34752111504E+03  0.62660438059E+03  0.79964614572E+03  0.12699999809E+01 0. -1.
</event>
<event>
 5   0  0.1126175E-03  0.1499363E+04  0.7818609E-02  0.8884877E-01
       -2   -1    0    0    0  501  0.00000000000E+00  0.00000000000E+00  0.35118070211E+03  0.35118070212E+03  0.25500000920E-02 0.  1.
        2   -1    0    0  501    0  0.00000000000E+00  0.00000000000E+00 -0.16003794669E+04  0.16003794669E+04  0.25500000920E-02 0. -1.
    10030    2    1    2    0    0  0.00000000000E+00  0.00000000000E+00 -0.12491987648E+04  0.19515601690E+04  0.14993630446E+04 0.  0.
        3    1    3    3  502    0  0.38209237779E+02  0.63437750511E+03 -0.11421811822E+04  0.13070855473E+04  0.10100000352E+00 0. -1.
       -3    1    3    3    0  502 -0.38209237779E+02 -0.63437750511E+03 -0.10701758259E+03  0.64447462171E+03  0.10100000352E+00 0.  1.
</event>
<event>
 5   0  0.5606965E-04  0.1388148E+04  0.7818609E-02  0.8962443E-01
        1   -1    0    0  501    0  0.00000000000E+00  0.00000000000E+00  0.60686004928E+03  0.60686004930E+03  0.50400001928E-02 0.  1.
       -1   -1    0    0    0  501  0.00000000000E+00  0.00000000000E+00 -0.79382174832E+03  0.79382174834E+03  0.50400001928E-02 0. -1.
    10030    2    1    2    0    0  0.00000000000E+00  0.00000000000E+00 -0.18696169904E+03  0.14006817976E+04  0.13881479825E+04 0.  0.
        4    1    3    3  502    0  0.31754119482E+03  0.91019094117E+02  0.52245703878E+03  0.61812608436E+03  0.12699999809E+01 0.  1.
       -4    1    3    3    0  502 -0.31754119482E+03 -0.91019094117E+02 -0.70941873782E+03  0.78255571327E+03  0.12699999809E+01 0. -1.
</event>
<event>
 5   0  0.1149716E-03  0.1497342E+04  0.7818609E-02  0.8886222E-01
       -2   -1    0    0    0  501  0.00000000000E+00  0.00000000000E+00  0.32213683143E+03  0.32213683144E+03  0.25500000920E-02 0. -1.
        2   -1    0    0  501    0  0.00000000000E+00  0.00000000000E+00 -0.17399700362E+04  0.17399700362E+04  0.25500000920E-02 0.  1.
    10030    2    1    2    0    0  0.00000000000E+00  0.00000000000E+00 -0.14178332048E+04  0.20621068677E+04  0.14973422244E+04 0.  0.
        1    1    3    3  502    0  0.93828710247E+02 -0.34747893300E+03 -0.16130033204E+04  0.16526721234E+04  0.50400001928E-02 0.  1.
       -1    1    3    3    0  502 -0.93828710247E+02  0.34747893300E+03  0.19517011563E+03  0.40943474426E+03  0.50400001928E-02 0. -1.
</event>
<event>
 5   0  0.1097156E-03  0.1477517E+04  0.7818609E-02  0.8899543E-01
       -2   -1    0    0    0  501  0.00000000000E+00  0.00000000000E+00  0.54896016233E+03  0.54896016233E+03  0.25500000920E-02 0.  1.
        2   -1    0    0  501    0  0.00000000000E+00  0.00000000000E+00 -0.99417822537E+03  0.99417822537E+03  0.25500000920E-02 0. -1.
    10030    2    1    2    0    0  0.00000000000E+00  0.00000000000E+00 -0.44521806304E+03  0.15431383877E+04  0.14775171606E+04 0.  0.
        2    1    3    3  502    0 -0.16405717412E+03  0.63214204569E+03 -0.58326581193E+03  0.87562396592E+03  0.25500000920E-02 0. -1.
       -2    1    3    3    0  502  0.16405717412E+03 -0.63214204569E+03  0.13804774889E+03  0.66751442179E+03  0.25500000920E-02 0.  1.
</event>
<event>
 5   0  0.5606965E-04  0.1519042E+04  0.7818609E-02  0.8871888E-01
       -1   -1    0    0    0  501  0.00000000000E+00  0.00000000000E+00  0.34366031631E+03  0.34366031635E+03  0.50400001928E-02 0.  1.
        1   -1    0    0  501    0  0.00000000000E+00  0.00000000000E+00 -0.16786106193E+04  0.16786106193E+04  0.50400001928E-02 0. -1.
    10030    2    1    2    0    0  0.00000000000E+00  0.00000000000E+00 -0.13349503030E+04  0.20222709356E+04  0.15190416142E+04 0.  0.
        4    1    3    3  502    0  0.31803794285E+03 -0.30523787638E+03  0.15593246185E+03  0.46758404573E+03  0.12699999809E+01 0.  1.
       -4    1    3    3    0  502 -0.31803794285E+03  0.30523787638E+03 -0.14908827648E+04  0.15546868899E+04  0.12699999809E+01 0. -1.
</event>
<event>
 5   0  0.5914645E-04  0.1497952E+04  0.7818609E-02  0.8885816E-01
        1   -1    0    0  501    0  0.00000000000E+00  0.00000000000E+00  0.16099777342E+04  0.16099777342E+04  0.50400001928E-02 0. -1.
       -1   -1    0    0    0  501  0.00000000000E+00  0.00000000000E+00 -0.34843017732E+03  0.34843017735E+03  0.50400001928E-02 0.  1.
    10030    2    1    2    0    0  0.00000000000E+00  0.00000000000E+00  0.12615475569E+04  0.19584079116E+04  0.14979517048E+04 0.  0.
        2    1    3    3  502    0  0.46606199411E+03  0.59367308875E+02  0.13933608800E+04  0.14704396627E+04  0.25500000920E-02 0. -1.
       -2    1    3    3    0  502 -0.46606199411E+03 -0.59367308875E+02 -0.13181332314E+03  0.48796824884E+03  0.25500000920E-02 0.  1.
</event>
<event>
 5   0  0.1147755E-03  0.1509567E+04  0.7818609E-02  0.8878116E-01
        2   -1    0    0  501    0  0.00000000000E+00  0.00000000000E+00  0.15019256934E+04  0.15019256935E+04  0.25500000920E-02 0. -1.
       -2   -1    0    0    0  501  0.00000000000E+00  0.00000000000E+00 -0.37931162951E+03  0.37931162952E+03  0.25500000920E-02 0.  1.
    10030    2    1    2    0    0  0.00000000000E+00  0.00000000000E+00  0.11226140639E+04  0.18812373230E+04  0.15095666692E+04 0.  0.
        4    1    3    3  502    0 -0.14930866192E+02  0.73056339701E+03  0.79693786269E+03  0.10812295675E+04  0.12699999809E+01 0. -1.
       -4    1    3    3    0  502  0.14930866192E+02 -0.73056339701E+03  0.32567620125E+03  0.80000775544E+03  0.12699999809E+01 0.  1.
</event>
<event>
 5   0  0.1147755E-03  0.1474010E+04  0.7818609E-02  0.8901922E-01
        2   -1    0    0  501    0  0.00000000000E+00  0.00000000000E+00  0.18182832235E+04  0.18182832235E+04  0.25500000920E-02 0.  1.
       -2   -1    0    0    0  501  0.00000000000E+00  0.00000000000E+00 -0.29873022467E+03  0.29873022468E+03  0.25500000920E-02 0. -1.
    10030    2    1    2    0    0  0.00000000000E+00  0.00000000000E+00  0.15195529988E+04  0.21170134481E+04  0.14740097094E+04 0.  0.
        4    1    3    3  502    0 -0.22544561375E+03 -0.15466329311E+03  0.17427566200E+04  0.17640716280E+04  0.12699999809E+01 0.  1.
       -4    1    3    3    0  502  0.22544561375E+03  0.15466329311E+03 -0.22320362125E+03  0.35294182018E+03  0.12699999809E+01 0. -1.
</event>
<event>
 5   0  0.5606965E-04  0.1491045E+04  0.7818609E-02  0.8890430E-01
       -1   -1    0    0    0  501  0.00000000000E+00  0.00000000000E+00  0.97190607273E+03  0.97190607274E+03  0.50400001928E-02 0.  1.
        1   -1    0    0  501    0  0.00000000000E+00  0.00000000000E+00 -0.57186962730E+03  0.57186962732E+03  0.50400001928E-02 0. -1.
    10030    2    1    2    0    0  0.00000000000E+00  0.00000000000E+00  0.40003644542E+03  0.15437757001E+04  0.14910446856E+04 0.  0.
        4    1    3    3  502    0 -0.26795811189E+02 -0.24806399150E+03  0.92739314500E+03  0.96037149982E+03  0.12699999809E+01 0.  1.
       -4    1    3    3    0  502  0.26795811189E+02  0.24806399150E+03 -0.52735669958E+03  0.58340420024E+03  0.12699999809E+01 0. -1.
</event>
<event>
 5   0  0.5914645E-04  0.1489664E+04  0.7818609E-02  0.8891356E-01
        1   -1    0    0  501    0  0.00000000000E+00  0.00000000000E+00  0.11846605997E+04  0.11846605997E+04  0.50400001928E-02 0.  1.
       -1   -1    0    0    0  501  0.00000000000E+00  0.00000000000E+00 -0.46829817170E+03  0.46829817173E+03  0.50400001928E-02 0. -1.
    10030    2    1    2    0    0  0.00000000000E+00  0.00000000000E+00  0.71636242798E+03  0.16529587714E+04  0.14896635767E+04 0.  0.
        2    1    3    3  502    0 -0.11296408716E+03  0.32281224323E+03  0.10923815174E+04  0.11446685148E+04  0.25500000920E-02 0.  1.
       -2    1    3    3    0  502  0.11296408716E+03 -0.32281224323E+03 -0.37601908938E+03  0.50829025659E+03  0.25500000920E-02 0. -1.
</event>
<event>
 5   0  0.1082667E-03  0.1524390E+04  0.7818609E-02  0.8868394E-01
        2   -1    0    0  501    0  0.00000000000E+00  0.00000000000E+00  0.14121816012E+04  0.14121816012E+04  0.25500000920E-02 0. -1.
       -2   -1    0    0    0  501  0.00000000000E+00  0.00000000000E+00 -0.41137864380E+03  0.41137864381E+03  0.25500000920E-02 0.  1.
    10030    2    1    2    0    0  0.00000000000E+00  0.00000000000E+00  0.10008029574E+04  0.18235602450E+04  0.15243901757E+04 0.  0.
        5    1    3    3  502    0 -0.55275412902E+03 -0.35936022149E+03  0.95786932743E+03  0.11628467803E+04  0.46999998093E+01 0. -1.
       -5    1    3    3    0  502  0.55275412902E+03  0.35936022149E+03  0.42933629976E+02  0.66071346476E+03  0.46999998093E+01 0.  1.
</event>
<event>
 5   0  0.4070625E-04  0.1469664E+04  0.7818609E-02  0.8904880E-01
        4   -1    0    0  501    0  0.00000000000E+00  0.00000000000E+00  0.40186116708E+03  0.40186317386E+03  0.12699999809E+01 0. -1.
       -4   -1    0    0    0  501  0.00000000000E+00  0.00000000000E+00 -0.13436872945E+04  0.13436878947E+04  0.12699999809E+01 0.  1.
    10030    2    1    2    0    0  0.00000000000E+00  0.00000000000E+00 -0.94182612741E+03  0.17455510685E+04  0.14696639339E+04 0.  0.
        3    1    3    3  502    0 -0.37237974278E+03  0.55829160152E+02  0.27857051066E+03  0.46838563979E+03  0.10100000352E+00 0. -1.
       -3    1    3    3    0  502  0.37237974278E+03 -0.55829160152E+02 -0.12203966381E+04  0.12771654287E+04  0.10100000352E+00 0.  1.
</event>
<event>
 5   0  0.6146552E-04  0.1509168E+04  0.7818609E-02  0.8878379E-01
        1   -1    0    0  501    0  0.00000000000E+00  0.00000000000E+00  0.81134118843E+03  0.81134118845E+03  0.50400001928E-02 0.  1.
       -1   -1    0    0    0  501  0.00000000000E+00  0.00000000000E+00 -0.70179741779E+03  0.70179741781E+03  0.50400001928E-02 0. -1.
    10030    2    1    2    0    0  0.00000000000E+00  0.00000000000E+00  0.10954377064E+03  0.15131386063E+04  0.15091681828E+04 0.  0.
        5    1    3    3  502    0 -0.74453207578E+03  0.57840015825E+01  0.17762421938E+03  0.76546320607E+03  0.46999998093E+01 0.  1.
       -5    1    3    3    0  502  0.74453207578E+03 -0.57840015825E+01 -0.68080448742E+02  0.74767540018E+03  0.46999998093E+01 0. -1.
</event>
<event>
 5   0  0.1097156E-03  0.1440325E+04  0.7818609E-02  0.8925136E-01
        2   -1    0    0  501    0  0.00000000000E+00  0.00000000000E+00  0.10569203107E+04  0.10569203107E+04  0.25500000920E-02 0.  1.
       -2   -1    0    0    0  501  0.00000000000E+00  0.00000000000E+00 -0.49070291805E+03  0.49070291806E+03  0.25500000920E-02 0. -1.
    10030    2    1    2    0    0  0.00000000000E+00  0.00000000000E+00  0.56621739261E+03  0.15476232287E+04  0.14403247975E+04 0.  0.
        2    1    3    3  502    0  0.38906869081E+03 -0.60578199606E+03  0.30133107332E+03  0.78047849982E+03  0.25500000920E-02 0.  1.
       -2    1    3    3    0  502 -0.38906869081E+03  0.60578199606E+03  0.26488631929E+03  0.76714472890E+03  0.25500000920E-02 0. -1.
</event>
<event>
 5   0  0.5606965E-04  0.1470605E+04  0.7818609E-02  0.8904239E-01
       -1   -1    0    0    0  501  0.00000000000E+00  0.00000000000E+00  0.35596061207E+03  0.35596061210E+03  0.50400001928E-02 0. -1.
        1   -1    0    0  501    0  0.00000000000E+00  0.00000000000E+00 -0.15189035900E+04  0.15189035900E+04  0.50400001928E-02 0.  1.
    10030    2    1    2    0    0  0.00000000000E+00  0.00000000000E+00 -0.11629429779E+04  0.18748642021E+04  0.14706051157E+04 0.  0.
        4    1    3    3  502    0 -0.30308505404E+03 -0.23975459262E+03  0.21605070324E+03  0.44274409531E+03  0.12699999809E+01 0. -1.
       -4    1    3    3    0  502  0.30308505404E+03  0.23975459262E+03 -0.13789936811E+04  0.14321201068E+04  0.12699999809E+01 0.  1.
</event>
<event>
 5   0  0.1126175E-03  0.1496174E+04  0.7818609E-02  0.8887001E-01
       -2   -1    0    0    0  501  0.00000000000E+00  0.00000000000E+00  0.10236956117E+04  0.10236956117E+04  0.25500000920E-02 0.  1.
        2   -1    0    0  501    0  0.00000000000E+00  0.00000000000E+00 -0.54668058962E+03  0.54668058963E+03  0.25500000920E-02 0. -1.
    10030    2    1    2    0    0  0.00000000000E+00  0.00000000000E+00  0.47701502212E+03  0.15703762014E+04  0.14961744826E+04 0.  0.
        3    1    3    3  502    0 -0.70352900850E+03  0.75830594496E+02 -0.16289293356E+02  0.70779142135E+03  0.10100000352E+00 0. -1.
       -3    1    3    3    0  502  0.70352900850E+03 -0.75830594496E+02  0.49330431547E+03  0.86258478002E+03  0.10100000352E+00 0.  1.
</event>
<event>
 5   0  0.5914645E-04  0.1509936E+04  0.7818609E-02  0.8877872E-01
        1   -1    0    0  501    0  0.00000000000E+00  0.00000000000E+00  0.67613481104E+03  0.67613481106E+03  0.50400001928E-02 0. -1.
       -1   -1    0    0    0  501  0.00000000000E+00  0.00000000000E+00 -0.84299277867E+03  0.84299277868E+03  0.50400001928E-02 0.  1.
    10030    2    1    2    0    0  0.00000000000E+00  0.00000000000E+00 -0.16685796762E+03  0.15191275897E+04  0.15099361088E+04 0.  0.
        2    1    3    3  502    0  0.57362962824E+03  0.20050640663E+03 -0.53417743492E+03  0.80907311257E+03  0.25500000920E-02 0.  1.
       -2    1    3    3    0  502 -0.57362962824E+03 -0.20050640663E+03  0.36731946729E+03  0.71005447718E+03  0.25500000920E-02 0. -1.
</event>
<event>
 5   0  0.1097156E-03  0.1502537E+04  0.7818609E-02  0.8882768E-01
        2   -1    0    0  501    0  0.00000000000E+00  0.00000000000E+00  0.75339557799E+03  0.75339557799E+03  0.25500000920E-02 0. -1.
       -2   -1    0    0    0  501  0.00000000000E+00  0.00000000000E+00 -0.74914697052E+03  0.74914697053E+03  0.25500000920E-02 0.  1.
    10030    2    1    2    0    0  0.00000000000E+00  0.00000000000E+00  0.42486074610E+01  0.15025425485E+04  0.15025365418E+04 0.  0.
        2    1    3    3  502    0  0.66725043486E+03 -0.27761780154E+03 -0.20308184866E+03  0.75069103086E+03  0.25500000920E-02 0.  1.
       -2    1    3    3    0  502 -0.66725043486E+03  0.27761780154E+03  0.20733045612E+03  0.75185151765E+03  0.25500000920E-02 0. -1.
</event>
<event>
 5   0  0.5840834E-04  0.1518268E+04  0.7818609E-02  0.8872395E-01
       -1   -1    0    0    0  501  0.00000000000E+00  0.00000000000E+00  0.44434182205E+03  0.44434182207E+03  0.50400001928E-02 0.  1.
        1   -1    0    0  501    0  0.00000000000E+00  0.00000000000E+00 -0.12969401668E+04  0.12969401668E+04  0.50400001928E-02 0. -1.
    10030    2    1    2    0    0  0.00000000000E+00  0.00000000000E+00 -0.85259834475E+03  0.17412819889E+04  0.15182684306E+04 0.  0.
        3    1    3    3  502    0 -0.70789624576E+03 -0.19844787906E+03 -0.64325817615E+03  0.97687243121E+03  0.10100000352E+00 0. -1.
       -3    1    3    3    0  502  0.70789624576E+03  0.19844787906E+03 -0.20934016859E+03  0.76440955767E+03  0.10100000352E+00 0.  1.
</event>
<event>
 5   0  0.1097156E-03  0.1542516E+04  0.7818609E-02  0.8856662E-01
       -2   -1    0    0    0  501  0.00000000000E+00  0.00000000000E+00  0.87920767757E+03  0.87920767757E+03  0.25500000920E-02 0.  1.
        2   -1    0    0  501    0  0.00000000000E+00  0.00000000000E+00 -0.67656269443E+03  0.67656269444E+03  0.25500000920E-02 0. -1.
    10030    2    1    2    0    0  0.00000000000E+00  0.00000000000E+00  0.20264498314E+03  0.15557703720E+04  0.15425162758E+04 0.  0.
        2    1    3    3  502    0 -0.38384983789E+03  0.13528307275E+03  0.76208293111E+03  0.86395173576E+03  0.25500000920E-02 0.  1.
       -2    1    3    3    0  502  0.38384983789E+03 -0.13528307275E+03 -0.55943794797E+03  0.69181863625E+03  0.25500000920E-02 0. -1.
</event>
<event>
 5   0  0.6146552E-04  0.1490006E+04  0.7818609E-02  0.8891126E-01
        1   -1    0    0  501    0  0.00000000000E+00  0.00000000000E+00  0.85364153339E+03  0.85364153340E+03  0.50400001928E-02 0. -1.
       -1   -1    0    0    0  501  0.00000000000E+00  0.00000000000E+00 -0.65019041811E+03  0.65019041813E+03  0.50400001928E-02 0.  1.
    10030    2    1    2    0    0  0.00000000000E+00  0.00000000000E+00  0.20345111528E+03  0.15038319515E+04  0.14900061014E+04 0.  0.
        5    1    3    3  502    0 -0.21245677874E+03  0.61580264845E+03 -0.26309311194E+03  0.70256021821E+03  0.46999998093E+01 0.  1.
       -5    1    3    3    0  502  0.21245677874E+03 -0.61580264845E+03  0.46654422722E+03  0.80127173332E+03  0.46999998093E+01 0. -1.
</event>
<event>
 5   0  0.5606965E-04  0.1496488E+04  0.7818609E-02  0.8886791E-01
        1   -1    0    0  501    0  0.00000000000E+00  0.00000000000E+00  0.11845776190E+04  0.11845776190E+04  0.50400001928E-02 0. -1.
       -1   -1    0    0    0  501  0.00000000000E+00  0.00000000000E+00 -0.47263207943E+03  0.47263207946E+03  0.50400001928E-02 0.  1.
    10030    2    1    2    0    0  0.00000000000E+00  0.00000000000E+00  0.71194553961E+03  0.16572096985E+04  0.14964884007E+04 0.  0.
        4    1    3    3  502    0  0.20686408611E+03  0.59731066130E+03 -0.87394971509E+02  0.63813185955E+03  0.12699999809E+01 0.  1.
       -4    1    3    3    0  502 -0.20686408611E+03 -0.59731066130E+03  0.79934051111E+03  0.10190778389E+04  0.12699999809E+01 0. -1.
</event>
<event>
 5   0  0.1126175E-03  0.1510720E+04  0.7818609E-02  0.8877355E-01
        2   -1    0    0  501    0  0.00000000000E+00  0.00000000000E+00  0.21385230039E+04  0.21385230039E+04  0.25500000920E-02 0. -1.
       -2   -1    0    0    0  501  0.00000000000E+00  0.00000000000E+00 -0.26680506747E+03  0.26680506749E+03  0.25500000920E-02 0.  1.
    10030    2    1    2    0    0  0.00000000000E+00  0.00000000000E+00  0.18717179364E+04  0.24053280714E+04  0.15107200593E+04 0.  0.
        3    1    3    3  502    0 -0.22936033466E+02 -0.28379126095E+03 -0.17809947324E+03  0.33583176441E+03  0.10100000352E+00 0.  1.
       -3    1    3    3    0  502  0.22936033466E+02  0.28379126095E+03  0.20498174097E+04  0.20694963070E+04  0.10100000352E+00 0. -1.
</event>
<event>
 5   0  0.5840834E-04  0.1504126E+04  0.7818609E-02  0.8881714E-01
        1   -1    0    0  501    0  0.00000000000E+00  0.00000000000E+00  0.19996597402E+04  0.19996597402E+04  0.50400001928E-02 0.  1.
       -1   -1    0    0    0  501  0.00000000000E+00  0.00000000000E+00 -0.28284754300E+03  0.28284754305E+03  0.50400001928E-02 0. -1.
    10030    2    1    2    0    0  0.00000000000E+00  0.00000000000E+00  0.17168121972E+04  0.22825072832E+04  0.15041261176E+04 0.  0.
        3    1    3    3  502    0  0.16873938223E+03  0.21925832113E+03  0.19196257439E+04  0.19394613163E+04  0.10100000352E+00 0.  1.
       -3    1    3    3    0  502 -0.16873938223E+03 -0.21925832113E+03 -0.20281354673E+03  0.34304596694E+03  0.10100000352E+00 0. -1.
</event>
<event>
 5   0  0.5914645E-04  0.1500248E+04  0.7818609E-02  0.8884288E-01
        1   -1    0    0  501    0  0.00000000000E+00  0.00000000000E+00  0.77200284784E+03  0.77200284786E+03  0.50400001928E-02 0. -1.
       -1   -1    0    0    0  501  0.00000000000E+00  0.00000000000E+00 -0.72886500738E+03  0.72886500740E+03  0.50400001928E-02 0.  1.
    10030    2    1    2    0    0  0.00000000000E+00  0.00000000000E+00  0.43137840456E+02  0.15008678553E+04  0.15002477948E+04 0.  0.
        2    1    3    3  502    0 -0.18447991164E+03 -0.67670564537E+03 -0.24447800270E+03  0.74278722531E+03  0.25500000920E-02 0.  1.
       -2    1    3    3    0  502  0.18447991164E+03  0.67670564537E+03  0.28761584315E+03  0.75808062995E+03  0.25500000920E-02 0. -1.
</event>
<event>
 5   0  0.5914645E-04  0.1508006E+04  0.7818609E-02  0.8879146E-01
        1   -1    0    0  501    0  0.00000000000E+00  0.00000000000E+00  0.28933648330E+03  0.28933648335E+03  0.50400001928E-02 0.  1.
       -1   -1    0    0    0  501  0.00000000000E+00  0.00000000000E+00 -0.19649122413E+04  0.19649122413E+04  0.50400001928E-02 0. -1.
    10030    2    1    2    0    0  0.00000000000E+00  0.00000000000E+00 -0.16755757580E+04  0.22542487246E+04  0.15080063633E+04 0.  0.
        2    1    3    3  502    0  0.23523948591E+03 -0.15851976500E+03 -0.18821061907E+04  0.19033627727E+04  0.25500000920E-02 0. -1.
       -2    1    3    3    0  502 -0.23523948591E+03  0.15851976500E+03  0.20653043268E+03  0.35088595192E+03  0.25500000920E-02 0.  1.
</event>
<event>
 5   0  0.1147755E-03  0.1455430E+04  0.7818609E-02  0.8914645E-01
        2   -1    0    0  501    0  0.00000000000E+00  0.00000000000E+00  0.77023345210E+03  0.77023345210E+03  0.25500000920E-02 0.  1.
       -2   -1    0    0    0  501  0.00000000000E+00  0.00000000000E+00 -0.68754326822E+03  0.68754326823E+03  0.25500000920E-02 0. -1.
    10030    2    1    2    0    0  0.00000000000E+00  0.00000000000E+00  0.82690183873E+02  0.14577767203E+04  0.14554295929E+04 0.  0.
        4    1    3    3  502    0 -0.42043511433E+03 -0.52467907861E+03 -0.23751616348E+03  0.71307037641E+03  0.12699999809E+01 0. -1.
       -4    1    3    3    0  502  0.42043511433E+03  0.52467907861E+03  0.32020634736E+03  0.74470634392E+03  0.12699999809E+01 0.  1.
</event>
<event>
 5   0  0.5924403E-04  0.1503119E+04  0.7818609E-02  0.8882381E-01
       -1   -1    0    0    0  501  0.00000000000E+00  0.00000000000E+00  0.11226817912E+04  0.11226817912E+04  0.50400001928E-02 0.  1.
        1   -1    0    0  501    0  0.00000000000E+00  0.00000000000E+00 -0.50311833692E+03  0.50311833694E+03  0.50400001928E-02 0. -1.
    10030    2    1    2    0    0  0.00000000000E+00  0.00000000000E+00  0.61956345430E+03  0.16258001282E+04  0.15031191513E+04 0.  0.
        1    1    3    3  502    0  0.17656483187E+03  0.41569394640E+03 -0.33996820974E+03  0.56529194280E+03  0.50400001928E-02 0. -1.
       -1    1    3    3    0  502 -0.17656483187E+03 -0.41569394640E+03  0.95953166404E+03  0.10605081854E+04  0.50400001928E-02 0.  1.
</event>
<event>
 5   0  0.5924403E-04  0.1518466E+04  0.7818609E-02  0.8872265E-01
       -1   -1    0    0    0  501  0.00000000000E+00  0.00000000000E+00  0.44199133228E+03  0.44199133230E+03  0.50400001928E-02 0.  1.
        1   -1    0    0  501    0  0.00000000000E+00  0.00000000000E+00 -0.13041765153E+04  0.13041765154E+04  0.50400001928E-02 0. -1.
    10030    2    1    2    0    0  0.00000000000E+00  0.00000000000E+00 -0.86218518307E+03  0.17461678477E+04  0.15184659569E+04 0.  0.
        1    1    3    3  502    0  0.27059932330E+03 -0.31963774840E+03 -0.11593352077E+04  0.12326598914E+04  0.50400001928E-02 0. -1.
       -1    1    3    3    0  502 -0.27059932330E+03  0.31963774840E+03  0.29715002465E+03  0.51350795626E+03  0.50400001928E-02 0.  1.
</event>
<event>
 5   0  0.1082667E-03  0.1506582E+04  0.7818609E-02  0.8880088E-01
       -2   -1    0    0    0  501  0.00000000000E+00  0.00000000000E+00  0.39593461447E+03  0.39593461448E+03  0.25500000920E-02 0. -1.
        2   -1    0    0  501    0  0.00000000000E+00  0.00000000000E+00 -0.14331842548E+04  0.14331842548E+04  0.25500000920E-02 0.  1.
    10030    2    1    2    0    0  0.00000000000E+00  0.00000000000E+00 -0.10372496403E+04  0.18291188693E+04  0.15065819001E+04 0.  0.
        5    1    3    3  502    0 -0.18730286929E+03 -0.22459127604E+03 -0.13614322397E+04  0.13924954001E+04  0.46999998093E+01 0.  1.
       -5    1    3    3    0  502  0.18730286929E+03  0.22459127604E+03  0.32418259935E+03  0.43662346917E+03  0.46999998093E+01 0. -1.
</event>
<event>
 5   0  0.1149716E-03  0.1490507E+04  0.7818609E-02  0.8890790E-01
       -2   -1    0    0    0  501  0.00000000000E+00  0.00000000000E+00  0.71897550231E+03  0.71897550232E+03  0.25500000920E-02 0. -1.
        2   -1    0    0  501    0  0.00000000000E+00  0.00000000000E+00 -0.77249172877E+03  0.77249172877E+03  0.25500000920E-02 0.  1.
    10030    2    1    2    0    0  0.00000000000E+00  0.00000000000E+00 -0.53516226454E+02  0.14914672311E+04  0.14905067980E+04 0.  0.
        1    1    3    3  502    0 -0.52103107101E+03  0.34442003556E+03 -0.43359615522E+03  0.76033161430E+03  0.50400001928E-02 0.  1.
       -1    1    3    3    0  502  0.52103107101E+03 -0.34442003556E+03  0.38007992877E+03  0.73113561679E+03  0.50400001928E-02 0. -1.
</event>
<event>
 5   0  0.1149716E-03  0.1521669E+04  0.7818609E-02  0.8870170E-01
       -2   -1    0    0    0  501  0.00000000000E+00  0.00000000000E+00  0.50642879248E+03  0.50642879248E+03  0.25500000920E-02 0. -1.
        2   -1    0    0  501    0  0.00000000000E+00  0.00000000000E+00 -0.11430415642E+04  0.11430415642E+04  0.25500000920E-02 0.  1.
    10030    2    1    2    0    0  0.00000000000E+00  0.00000000000E+00 -0.63661277171E+03  0.16494703567E+04  0.15216690299E+04 0.  0.
        1    1    3    3  502    0 -0.36530270419E+03 -0.34689388798E+03 -0.93635779127E+03  0.10632720012E+04  0.50400001928E-02 0.  1.
       -1    1    3    3    0  502  0.36530270419E+03  0.34689388798E+03  0.29974501956E+03  0.58619835549E+03  0.50400001928E-02 0. -1.
</event>
<event>
 5   0  0.5840834E-04  0.1482614E+04  0.7818609E-02  0.8896097E-01
       -1   -1    0    0    0  501  0.00000000000E+00  0.00000000000E+00  0.61658544286E+03  0.61658544288E+03  0.50400001928E-02 0. -1.
        1   -1    0    0  501    0  0.00000000000E+00  0.00000000000E+00 -0.89125753707E+03  0.89125753708E+03  0.50400001928E-02 0.  1.
    10030    2    1    2    0    0  0.00000000000E+00  0.00000000000E+00 -0.27467209421E+03  0.15078429800E+04  0.14826144788E+04 0.  0.
        3    1    3    3  502    0 -0.62150437263E+03 -0.30256600757E+03  0.13503171889E+03  0.70430636050E+03  0.10100000352E+00 0.  1.
       -3    1    3    3    0  502  0.62150437263E+03  0.30256600757E+03 -0.40970381310E+03  0.80353661946E+03  0.10100000352E+00 0. -1.
</event>
<event>
 5   0  0.1082667E-03  0.1496066E+04  0.7818609E-02  0.8887073E-01
        2   -1    0    0  501    0  0.00000000000E+00  0.00000000000E+00  0.12379381082E+04  0.12379381082E+04  0.25500000920E-02 0. -1.
       -2   -1    0    0    0  501  0.00000000000E+00  0.00000000000E+00 -0.45200452797E+03  0.45200452797E+03  0.25500000920E-02 0.  1.
    10030    2    1    2    0    0  0.00000000000E+00  0.00000000000E+00  0.78593358022E+03  0.16899426362E+04  0.14960663491E+04 0.  0.
        5    1    3    3  502    0 -0.84001433670E+02 -0.34560350421E+03 -0.35036355906E+03  0.49927420972E+03  0.46999998093E+01 0.  1.
       -5    1    3    3    0  502  0.84001433670E+02  0.34560350421E+03  0.11362971393E+04  0.11906684264E+04  0.46999998093E+01 0. -1.
</event>
<event>
 5   0  0.1097156E-03  0.1411353E+04  0.7818609E-02  0.8945642E-01
        2   -1    0    0  501    0  0.00000000000E+00  0.00000000000E+00  0.62248534539E+03  0.62248534540E+03  0.25500000920E-02 0. -1.
       -2   -1    0    0    0  501  0.00000000000E+00  0.00000000000E+00 -0.79998515211E+03  0.79998515211E+03  0.25500000920E-02 0.  1.
    10030    2    1    2    0    0  0.00000000000E+00  0.00000000000E+00 -0.17749980672E+03  0.14224704975E+04  0.14113525906E+04 0.  0.
        2    1    3    3  502    0  0.28857402918E+03 -0.19401142870E+03  0.53014237536E+03  0.63400815684E+03  0.25500000920E-02 0. -1.
       -2    1    3    3    0  502 -0.28857402918E+03  0.19401142870E+03 -0.70764218208E+03  0.78846234066E+03  0.25500000920E-02 0.  1.
</event>
<event>
 5   0  0.6146552E-04  0.1503454E+04  0.7818609E-02  0.8882159E-01
       -1   -1    0    0    0  501  0.00000000000E+00  0.00000000000E+00  0.32851149131E+03  0.32851149134E+03  0.50400001928E-02 0.  1.
        1   -1    0    0  501    0  0.00000000000E+00  0.00000000000E+00 -0.17201634324E+04  0.17201634324E+04  0.50400001928E-02 0. -1.
    10030    2    1    2    0    0  0.00000000000E+00  0.00000000000E+00 -0.13916519410E+04  0.20486749237E+04  0.15034539627E+04 0.  0.
        5    1    3    3  502    0 -0.31863192602E+03 -0.45824616776E+03 -0.96753763422E+01  0.55823969534E+03  0.46999998093E+01 0.  1.
       -5    1    3    3    0  502  0.31863192602E+03  0.45824616776E+03 -0.13819765647E+04  0.14904352284E+04  0.46999998093E+01 0. -1.
</event>
<event>
 5   0  0.1149716E-03  0.1476138E+04  0.7818609E-02  0.8900478E-01
        2   -1    0    0  501    0  0.00000000000E+00  0.00000000000E+00  0.13727269491E+04  0.13727269491E+04  0.25500000920E-02 0.  1.
       -2   -1    0    0    0  501  0.00000000000E+00  0.00000000000E+00 -0.39683480357E+03  0.39683480358E+03  0.25500000920E-02 0. -1.
    10030    2    1    2    0    0  0.00000000000E+00  0.00000000000E+00  0.97589214550E+03  0.17695617527E+04  0.14761379735E+04 0.  0.
        1    1    3    3  502    0  0.31340588767E+03  0.65728568720E+03  0.63228862433E+03  0.96438406742E+03  0.50400001928E-02 0. -1.
       -1    1    3    3    0  502 -0.31340588767E+03 -0.65728568720E+03  0.34360352118E+03  0.80517768524E+03  0.50400001928E-02 0.  1.
</event>
<event>
 5   0  0.1147755E-03  0.1509822E+04  0.7818609E-02  0.8877948E-01
       -2   -1    0    0    0  501  0.00000000000E+00  0.00000000000E+00  0.36122890988E+03  0.36122890989E+03  0.25500000920E-02 0. -1.
        2   -1    0    0  501    0  0.00000000000E+00  0.00000000000E+00 -0.15776435097E+04  0.15776435097E+04  0.25500000920E-02 0.  1.
    10030    2    1    2    0    0  0.00000000000E+00  0.00000000000E+00 -0.12164145998E+04  0.19388724196E+04  0.15098217712E+04 0.  0.
        4    1    3    3  502    0 -0.69701815352E+03 -0.24593145264E+03 -0.80536967313E+03  0.10931324298E+04  0.12699999809E+01 0.  1.
       -4    1    3    3    0  502  0.69701815352E+03  0.24593145264E+03 -0.41104492669E+03  0.84573998982E+03  0.12699999809E+01 0. -1.
</event>
<event>
 5   0  0.1149716E-03  0.1515240E+04  0.7818609E-02  0.8874382E-01
       -2   -1    0    0    0  501  0.00000000000E+00  0.00000000000E+00  0.12831016638E+04  0.12831016638E+04  0.25500000920E-02 0.  1.
        2   -1    0    0  501    0  0.00000000000E+00  0.00000000000E+00 -0.44734393931E+03  0.44734393932E+03  0.25500000920E-02 0. -1.
    10030    2    1    2    0    0  0.00000000000E+00  0.00000000000E+00  0.83575772449E+03  0.17304456031E+04  0.15152395887E+04 0.  0.
        1    1    3    3  502    0 -0.19652272810E+02  0.43133832926E+03 -0.29307240695E+03  0.52185285460E+03  0.50400001928E-02 0. -1.
       -1    1    3    3    0  502  0.19652272810E+02 -0.43133832926E+03  0.11288301314E+04  0.12085927485E+04  0.50400001928E-02 0.  1.
</event>
<event>
 5   0  0.1097156E-03  0.1469374E+04  0.7818609E-02  0.8905078E-01
        2   -1    0    0  501    0  0.00000000000E+00  0.00000000000E+00  0.97501332510E+03  0.97501332511E+03  0.25500000920E-02 0. -1.
       -2   -1    0    0    0  501  0.00000000000E+00  0.00000000000E+00 -0.55359738251E+03  0.55359738251E+03  0.25500000920E-02 0.  1.
    10030    2    1    2    0    0  0.00000000000E+00  0.00000000000E+00  0.42141594259E+03  0.15286107076E+04  0.14693737778E+04 0.  0.
        2    1    3    3  502    0 -0.66364786735E+02  0.12969525187E+03 -0.53841930516E+03  0.55778175970E+03  0.25500000920E-02 0.  1.
       -2    1    3    3    0  502  0.66364786735E+02 -0.12969525187E+03  0.95983524776E+03  0.97082894792E+03  0.25500000920E-02 0. -1.
</event>
<event>
 5   0  0.5914645E-04  0.1521285E+04  0.7818609E-02  0.8870421E-01
        1   -1    0    0  501    0  0.00000000000E+00  0.00000000000E+00  0.19542022405E+04  0.19542022406E+04  0.50400001928E-02 0. -1.
       -1   -1    0    0    0  501  0.00000000000E+00  0.00000000000E+00 -0.29606802301E+03  0.29606802305E+03  0.50400001928E-02 0.  1.
    10030    2    1    2    0    0  0.00000000000E+00  0.00000000000E+00  0.16581342175E+04  0.22502702636E+04  0.15212847123E+04 0.  0.
        2    1    3    3  502    0 -0.23313924558E+03 -0.72133316854E+03  0.73667573593E+03  0.10570556219E+04  0.25500000920E-02 0. -1.
       -2    1    3    3    0  502  0.23313924558E+03  0.72133316854E+03  0.92145848161E+03  0.11932146417E+04  0.25500000920E-02 0.  1.
</event>
<event>
 5   0  0.5914645E-04  0.1532489E+04  0.7818609E-02  0.8863131E-01
       -1   -1    0    0    0  501  0.00000000000E+00  0.00000000000E+00  0.70412044300E+03  0.70412044302E+03  0.50400001928E-02 0. -1.
        1   -1    0    0  501    0  0.00000000000E+00  0.00000000000E+00 -0.83385020655E+03  0.83385020656E+03  0.50400001928E-02 0.  1.
    10030    2    1    2    0    0  0.00000000000E+00  0.00000000000E+00 -0.12972976355E+03  0.15379706496E+04  0.15324894477E+04 0.  0.
        2    1    3    3  502    0  0.68350561318E+03 -0.30756320854E+03  0.94940093261E+02  0.75550557364E+03  0.25500000920E-02 0. -1.
       -2    1    3    3    0  502 -0.68350561318E+03  0.30756320854E+03 -0.22466985681E+03  0.78246507593E+03  0.25500000920E-02 0.  1.
</event>
<event>
 5   0  0.1149716E-03  0.1577336E+04  0.7818609E-02  0.8834594E-01
        2   -1    0    0  501    0  0.00000000000E+00  0.00000000000E+00  0.12335980817E+04  0.12335980817E+04  0.25500000920E-02 0.  1.
       -2   -1    0    0    0  501  0.00000000000E+00  0.00000000000E+00 -0.50421379971E+03  0.50421379972E+03  0.25500000920E-02 0. -1.
    10030    2    1    2    0    0  0.00000000000E+00  0.00000000000E+00  0.72938428203E+03  0.17378118815E+04  0.15773359517E+04 0.  0.
        1    1    3    3  502    0  0.21477336839E+03  0.37852716319E+03 -0.35993596191E+03  0.56476925354E+03  0.50400001928E-02 0. -1.
       -1    1    3    3    0  502 -0.21477336839E+03 -0.37852716319E+03  0.10893202439E+04  0.11730426279E+04  0.50400001928E-02 0.  1.
</event>
<event>
 5   0  0.5924403E-04  0.1479470E+04  0.7818609E-02  0.8898221E-01
       -1   -1    0    0    0  501  0.00000000000E+00  0.00000000000E+00  0.64403462120E+03  0.64403462122E+03  0.50400001928E-02 0.  1.
        1   -1    0    0  501    0  0.00000000000E+00  0.00000000000E+00 -0.84965642172E+03  0.84965642173E+03  0.50400001928E-02 0. -1.
    10030    2    1    2    0    0  0.00000000000E+00  0.00000000000E+00 -0.20562180052E+03  0.14936910430E+04  0.14794703806E+04 0.  0.
        1    1    3    3  502    0 -0.24858479636E+02 -0.13650823737E+03  0.63077883694E+03  0.64585941507E+03  0.50400001928E-02 0.  1.
       -1    1    3    3    0  502  0.24858479636E+02  0.13650823737E+03 -0.83640063745E+03  0.84783162788E+03  0.50400001928E-02 0. -1.
</event>
<event>
 5   0  0.6146552E-04  0.1455432E+04  0.7818609E-02  0.8914643E-01
        1   -1    0    0  501    0  0.00000000000E+00  0.00000000000E+00  0.72451558852E+03  0.72451558854E+03  0.50400001928E-02 0.  1.
       -1   -1    0    0    0  501  0.00000000000E+00  0.00000000000E+00 -0.73093078645E+03  0.73093078646E+03  0.50400001928E-02 0. -1.
    10030    2    1    2    0    0  0.00000000000E+00  0.00000000000E+00 -0.64151979216E+01  0.14554463750E+04  0.14554322367E+04 0.  0.
        5    1    3    3  502    0  0.60412951102E+03 -0.39285861834E+03 -0.10439306117E+03  0.72816918454E+03  0.46999998093E+01 0. -1.
       -5    1    3    3    0  502 -0.60412951102E+03  0.39285861834E+03  0.97977863249E+02  0.72727719047E+03  0.46999998093E+01 0.  1.
</event>
<event>
 5   0  0.1126175E-03  0.1446312E+04  0.7818609E-02  0.8920962E-01
        2   -1    0    0  501    0  0.00000000000E+00  0.00000000000E+00  0.65718004271E+03  0.65718004272E+03  0.25500000920E-02 0.  1.
       -2   -1    0    0    0  501  0.00000000000E+00  0.00000000000E+00 -0.79575493468E+03  0.79575493468E+03  0.25500000920E-02 0. -1.
    10030    2    1    2    0    0  0.00000000000E+00  0.00000000000E+00 -0.13857489197E+03  0.14529349774E+04  0.14463115321E+04 0.  0.
        3    1    3    3  502    0 -0.27138798702E+03 -0.47300197763E+03 -0.54640661852E+03  0.77197312991E+03  0.10100000352E+00 0.  1.
       -3    1    3    3    0  502  0.27138798702E+03  0.47300197763E+03  0.40783172655E+03  0.68096184748E+03  0.10100000352E+00 0. -1.
</event>
<event>
 5   0  0.5606965E-04  0.1511420E+04  0.7818609E-02  0.8876894E-01
        1   -1    0    0  501    0  0.00000000000E+00  0.00000000000E+00  0.97689093616E+03  0.97689093617E+03  0.50400001928E-02 0.  1.
       -1   -1    0    0    0  501  0.00000000000E+00  0.00000000000E+00 -0.58460731100E+03  0.58460731102E+03  0.50400001928E-02 0. -1.
    10030    2    1    2    0    0  0.00000000000E+00  0.00000000000E+00  0.39228362516E+03  0.15614982472E+04  0.15114199725E+04 0.  0.
        4    1    3    3  502    0 -0.32810577437E+03  0.34708654073E+03 -0.40890172933E+03  0.62874852134E+03  0.12699999809E+01 0. -1.
       -4    1    3    3    0  502  0.32810577437E+03 -0.34708654073E+03  0.80118535449E+03  0.93274972586E+03  0.12699999809E+01 0.  1.
</event>
<event>
 5   0  0.1097156E-03  0.1522082E+04  0.7818609E-02  0.8869900E-01
        2   -1    0    0  501    0  0.00000000000E+00  0.00000000000E+00  0.22166942419E+04  0.22166942419E+04  0.25500000920E-02 0. -1.
       -2   -1    0    0    0  501  0.00000000000E+00  0.00000000000E+00 -0.26128266028E+03  0.26128266029E+03  0.25500000920E-02 0.  1.
    10030    2    1    2    0    0  0.00000000000E+00  0.00000000000E+00  0.19554115816E+04  0.24779769022E+04  0.15220824795E+04 0.  0.
        2    1    3    3  502    0 -0.19340068484E+03 -0.55269545506E+02  0.21726364961E+04  0.21819275633E+04  0.25500000920E-02 0. -1.
       -2    1    3    3    0  502  0.19340068484E+03  0.55269545506E+02 -0.21722491447E+03  0.29604933884E+03  0.25500000920E-02 0.  1.
</event>
<event>
 5   0  0.5606965E-04  0.1454027E+04  0.7818609E-02  0.8915614E-01
       -1   -1    0    0    0  501  0.00000000000E+00  0.00000000000E+00  0.38546322293E+03  0.38546322296E+03  0.50400001928E-02 0. -1.
        1   -1    0    0  501    0  0.00000000000E+00  0.00000000000E+00 -0.13712032939E+04  0.13712032939E+04  0.50400001928E-02 0.  1.
    10030    2    1    2    0    0  0.00000000000E+00  0.00000000000E+00 -0.98574007098E+03  0.17566665169E+04  0.14540267411E+04 0.  0.
        4    1    3    3  502    0  0.13433433777E+03  0.55573186657E+03  0.49668091354E+02  0.57389211009E+03  0.12699999809E+01 0. -1.
       -4    1    3    3    0  502 -0.13433433777E+03 -0.55573186657E+03 -0.10354081623E+04  0.11827744068E+04  0.12699999809E+01 0.  1.
</event>
<event>
 5   0  0.5924403E-04  0.1345693E+04  0.7818609E-02  0.8994095E-01
        1   -1    0    0  501    0  0.00000000000E+00  0.00000000000E+00  0.64907896089E+03  0.64907896091E+03  0.50400001928E-02 0.  1.
       -1   -1    0    0    0  501  0.00000000000E+00  0.00000000000E+00 -0.69748477118E+03  0.69748477120E+03  0.50400001928E-02 0. -1.
    10030    2    1    2    0    0  0.00000000000E+00  0.00000000000E+00 -0.48405810285E+02  0.13465637321E+04  0.13456934131E+04 0.  0.
        1    1    3    3  502    0  0.12726070541E+03  0.16006684040E+03  0.61723117856E+03  0.65022381405E+03  0.50400001928E-02 0.  1.
       -1    1    3    3    0  502 -0.12726070541E+03 -0.16006684040E+03 -0.66563698885E+03  0.69633991806E+03  0.50400001928E-02 0. -1.
</event>
<event>
 5   0  0.1082667E-03  0.1575567E+04  0.7818609E-02  0.8835700E-01
        2   -1    0    0  501    0  0.00000000000E+00  0.00000000000E+00  0.10922090581E+04  0.10922090581E+04  0.25500000920E-02 0. -1.
       -2   -1    0    0    0  501  0.00000000000E+00  0.00000000000E+00 -0.56820862799E+03  0.56820862799E+03  0.25500000920E-02 0.  1.
    10030    2    1    2    0    0  0.00000000000E+00  0.00000000000E+00  0.52400043010E+03  0.16604176861E+04  0.15755667049E+04 0.  0.
        5    1    3    3  502    0 -0.45380080123E+03  0.63228571347E+03  0.13353313401E+03  0.78966675157E+03  0.46999998093E+01 0. -1.
       -5    1    3    3    0  502  0.45380080123E+03 -0.63228571347E+03  0.39046729609E+03  0.87075093452E+03  0.46999998093E+01 0.  1.
</event>
<event>
 5   0  0.5840834E-04  0.1370492E+04  0.7818609E-02  0.8975459E-01
        1   -1    0    0  501    0  0.00000000000E+00  0.00000000000E+00  0.93359397541E+03  0.93359397543E+03  0.50400001928E-02 0. -1.
       -1   -1    0    0    0  501  0.00000000000E+00  0.00000000000E+00 -0.50296180179E+03  0.50296180182E+03  0.50400001928E-02 0.  1.
    10030    2    1    2    0    0  0.00000000000E+00  0.00000000000E+00  0.43063217362E+03  0.14365557772E+04  0.13704920402E+04 0.  0.
        3    1    3    3  502    0 -0.28798497252E+03 -0.41220754790E+03 -0.27264719770E+03  0.57200254507E+03  0.10100000352E+00 0.  1.
       -3    1    3    3    0  502  0.28798497252E+03  0.41220754790E+03  0.70327937132E+03  0.86455323218E+03  0.10100000352E+00 0. -1.
</event>
<event>
 5   0  0.6146552E-04  0.1529052E+04  0.7818609E-02  0.8865360E-01
        1   -1    0    0  501    0  0.00000000000E+00  0.00000000000E+00  0.55136992608E+03  0.55136992611E+03  0.50400001928E-02 0.  1.
       -1   -1    0    0    0  501  0.00000000000E+00  0.00000000000E+00 -0.10600873733E+04  0.10600873733E+04  0.50400001928E-02 0. -1.
    10030    2    1    2    0    0  0.00000000000E+00  0.00000000000E+00 -0.50871744720E+03  0.16114572994E+04  0.15290523819E+04 0.  0.
        5    1    3    3  502    0 -0.24283835234E+03  0.33020841837E+03 -0.93448315172E+03  0.10204356500E+04  0.46999998093E+01 0. -1.
       -5    1    3    3    0  502  0.24283835234E+03 -0.33020841837E+03  0.42576570452E+03  0.59102164941E+03  0.46999998093E+01 0.  1.
</event>
<event>
 5   0  0.1097156E-03  0.1453159E+04  0.7818609E-02  0.8916213E-01
       -2   -1    0    0    0  501  0.00000000000E+00  0.00000000000E+00  0.44490037853E+03  0.44490037853E+03  0.25500000920E-02 0.  1.
        2   -1    0    0  501    0  0.00000000000E+00  0.00000000000E+00 -0.11865977598E+04  0.11865977598E+04  0.25500000920E-02 0. -1.
    10030    2    1    2    0    0  0.00000000000E+00  0.00000000000E+00 -0.74169738124E+03  0.16314981383E+04  0.14531590312E+04 0.  0.
        2    1    3    3  502    0  0.11217176377E+03 -0.40086037529E+03 -0.10394560024E+04  0.11197054639E+04  0.25500000920E-02 0. -1.
       -2    1    3    3    0  502 -0.11217176377E+03  0.40086037529E+03  0.29775862114E+03  0.51179267437E+03  0.25500000920E-02 0.  1.
</event>
<event>
 5   0  0.1147755E-03  0.1503610E+04  0.7818609E-02  0.8882056E-01
        2   -1    0    0  501    0  0.00000000000E+00  0.00000000000E+00  0.65661675037E+03  0.65661675038E+03  0.25500000920E-02 0. -1.
       -2   -1    0    0    0  501  0.00000000000E+00  0.00000000000E+00 -0.86079214875E+03  0.86079214875E+03  0.25500000920E-02 0.  1.
    10030    2    1    2    0    0  0.00000000000E+00  0.00000000000E+00 -0.20417539837E+03  0.15174088991E+04  0.15036097146E+04 0.  0.
        4    1    3    3  502    0 -0.53273307312E+03 -0.48455226804E+01 -0.63740937606E+03  0.83073481442E+03  0.12699999809E+01 0.  1.
       -4    1    3    3    0  502  0.53273307312E+03  0.48455226804E+01  0.43323397769E+03  0.68667408471E+03  0.12699999809E+01 0. -1.
</event>
<event>
 5   0  0.5840834E-04  0.1500996E+04  0.7818609E-02  0.8883791E-01
       -1   -1    0    0    0  501  0.00000000000E+00  0.00000000000E+00  0.96349008779E+03  0.96349008780E+03  0.50400001928E-02 0.  1.
        1   -1    0    0  501    0  0.00000000000E+00  0.00000000000E+00 -0.58459027073E+03  0.58459027075E+03  0.50400001928E-02 0. -1.
    10030    2    1    2    0    0  0.00000000000E+00  0.00000000000E+00  0.37889981706E+03  0.15480803586E+04  0.15009955780E+04 0.  0.
        3    1    3    3  502    0 -0.37357760654E+03 -0.64985265985E+03  0.22773875939E+03  0.78341155235E+03  0.10100000352E+00 0.  1.
       -3    1    3    3    0  502  0.37357760654E+03  0.64985265985E+03  0.15116105767E+03  0.76466880620E+03  0.10100000352E+00 0. -1.
</event>
<event>
 5   0  0.1097156E-03  0.1513712E+04  0.7818609E-02  0.8875386E-01
       -2   -1    0    0    0  501  0.00000000000E+00  0.00000000000E+00  0.90550504422E+03  0.90550504422E+03  0.25500000920E-02 0.  1.
        2   -1    0    0  501    0  0.00000000000E+00  0.00000000000E+00 -0.63260917176E+03  0.63260917176E+03  0.25500000920E-02 0. -1.
    10030    2    1    2    0    0  0.00000000000E+00  0.00000000000E+00  0.27289587246E+03  0.15381142160E+04  0.15137117243E+04 0.  0.
        2    1    3    3  502    0  0.74709875016E+03  0.19780152781E+02  0.25788607882E+03  0.79060295129E+03  0.25500000920E-02 0.  1.
       -2    1    3    3    0  502 -0.74709875016E+03 -0.19780152781E+02  0.15009793638E+02  0.74751126469E+03  0.25500000920E-02 0. -1.
</event>
<event>
 5   0  0.1147755E-03  0.1504608E+04  0.7818609E-02  0.8881394E-01
        2   -1    0    0  501    0  0.00000000000E+00  0.00000000000E+00  0.74528669127E+03  0.74528669127E+03  0.25500000920E-02 0.  1.
       -2   -1    0    0    0  501  0.00000000000E+00  0.00000000000E+00 -0.75938756147E+03  0.75938756147E+03  0.25500000920E-02 0. -1.
    10030    2    1    2    0    0  0.00000000000E+00  0.00000000000E+00 -0.14100870198E+02  0.15046742527E+04  0.15046081790E+04 0.  0.
        4    1    3    3  502    0  0.41563771058E+03  0.17694299762E+03  0.59455415666E+03  0.74669926273E+03  0.12699999809E+01 0.  1.
       -4    1    3    3    0  502 -0.41563771058E+03 -0.17694299762E+03 -0.60865502686E+03  0.75797499001E+03  0.12699999809E+01 0. -1.
</event>
<event>
 5   0  0.1126175E-03  0.1417331E+04  0.7818609E-02  0.8941368E-01
        2   -1    0    0  501    0  0.00000000000E+00  0.00000000000E+00  0.41570362989E+03  0.41570362990E+03  0.25500000920E-02 0. -1.
       -2   -1    0    0    0  501  0.00000000000E+00  0.00000000000E+00 -0.12080878928E+04  0.12080878928E+04  0.25500000920E-02 0.  1.
    10030    2    1    2    0    0  0.00000000000E+00  0.00000000000E+00 -0.79238426286E+03  0.16237915227E+04  0.14173306209E+04 0.  0.
        3    1    3    3  502    0 -0.29336063347E+03 -0.58207697853E+03 -0.71478786931E+03  0.96736538005E+03  0.10100000352E+00 0.  1.
       -3    1    3    3    0  502  0.29336063347E+03  0.58207697853E+03 -0.77596393546E+02  0.65642614260E+03  0.10100000352E+00 0. -1.
</event>
<event>
 5   0  0.6146552E-04  0.1565358E+04  0.7818609E-02  0.8842117E-01
        1   -1    0    0  501    0  0.00000000000E+00  0.00000000000E+00  0.90479771270E+03  0.90479771271E+03  0.50400001928E-02 0.  1.
       -1   -1    0    0    0  501  0.00000000000E+00  0.00000000000E+00 -0.67704277592E+03  0.67704277594E+03  0.50400001928E-02 0. -1.
    10030    2    1    2    0    0  0.00000000000E+00  0.00000000000E+00  0.22775493678E+03  0.15818404887E+04  0.15653584319E+04 0.  0.
        5    1    3    3  502    0 -0.39513845494E+03 -0.61093325894E+03 -0.17758765329E+03  0.74895481176E+03  0.46999998093E+01 0.  1.
       -5    1    3    3    0  502  0.39513845494E+03  0.61093325894E+03  0.40534259007E+03  0.83288567689E+03  0.46999998093E+01 0. -1.
</event>
<event>
 5   0  0.1097156E-03  0.1472544E+04  0.7818609E-02  0.8902919E-01
        2   -1    0    0  501    0  0.00000000000E+00  0.00000000000E+00  0.96348262420E+03  0.96348262420E+03  0.25500000920E-02 0. -1.
       -2   -1    0    0    0  501  0.00000000000E+00  0.00000000000E+00 -0.56264306967E+03  0.56264306967E+03  0.25500000920E-02 0.  1.
    10030    2    1    2    0    0  0.00000000000E+00  0.00000000000E+00  0.40083955453E+03  0.15261256939E+04  0.14725444934E+04 0.  0.
        2    1    3    3  502    0 -0.52442489616E+03 -0.22460597088E+03 -0.28194843401E+03  0.63636800149E+03  0.25500000920E-02 0.  1.
       -2    1    3    3    0  502  0.52442489616E+03  0.22460597088E+03  0.68278798854E+03  0.88975769239E+03  0.25500000920E-02 0. -1.
</event>
<event>
 5   0  0.4070625E-04  0.1493263E+04  0.7818609E-02  0.8888945E-01
        3   -1    0    0  501    0  0.00000000000E+00  0.00000000000E+00  0.89033641765E+03  0.89033642338E+03  0.10100000352E+00 0. -1.
       -3   -1    0    0    0  501  0.00000000000E+00  0.00000000000E+00 -0.62612154628E+03  0.62612155443E+03  0.10100000352E+00 0.  1.
    10030    2    1    2    0    0  0.00000000000E+00  0.00000000000E+00  0.26421487137E+03  0.15164579778E+04  0.14932633057E+04 0.  0.
        1    1    3    3  502    0  0.73489072020E+03  0.80472212788E+02  0.23822297936E+03  0.77671766787E+03  0.50400001928E-02 0.  1.
       -1    1    3    3    0  502 -0.73489072020E+03 -0.80472212788E+02  0.25991892014E+02  0.73974030994E+03  0.50400001928E-02 0. -1.
</event>
<event>
 5   0  0.5606965E-04  0.1529306E+04  0.7818609E-02  0.8865195E-01
       -1   -1    0    0    0  501  0.00000000000E+00  0.00000000000E+00  0.81936512644E+03  0.81936512646E+03  0.50400001928E-02 0. -1.
        1   -1    0    0  501    0  0.00000000000E+00  0.00000000000E+00 -0.71359423563E+03  0.71359423565E+03  0.50400001928E-02 0.  1.
    10030    2    1    2    0    0  0.00000000000E+00  0.00000000000E+00  0.10577089081E+03  0.15329593621E+04  0.15293060271E+04 0.  0.
        4    1    3    3  502    0  0.72138211071E+03  0.17788342530E+03 -0.12826138485E+03  0.75398094033E+03  0.12699999809E+01 0.  1.
       -4    1    3    3    0  502 -0.72138211071E+03 -0.17788342530E+03  0.23403227566E+03  0.77897842178E+03  0.12699999809E+01 0. -1.
</event>
<event>
 5   0  0.1097156E-03  0.1459562E+04  0.7818609E-02  0.8911798E-01
       -2   -1    0    0    0  501  0.00000000000E+00  0.00000000000E+00  0.10459757265E+04  0.10459757265E+04  0.25500000920E-02 0. -1.
        2   -1    0    0  501    0  0.00000000000E+00  0.00000000000E+00 -0.50917049675E+03  0.50917049676E+03  0.25500000920E-02 0.  1.
    10030    2    1    2    0    0  0.00000000000E+00  0.00000000000E+00  0.53680522972E+03  0.15551462232E+04  0.14595615509E+04 0.  0.
        2    1    3    3  502    0  0.43369139161E+03 -0.39206678956E+03  0.73378505272E+03  0.93821377854E+03  0.25500000920E-02 0. -1.
       -2    1    3    3    0  502 -0.43369139161E+03  0.39206678956E+03 -0.19697982301E+03  0.61693244469E+03  0.25500000920E-02 0.  1.
</event>
<event>
 5   0  0.6146552E-04  0.1496433E+04  0.7818609E-02  0.8886828E-01
        1   -1    0    0  501    0  0.00000000000E+00  0.00000000000E+00  0.11079790439E+04  0.11079790439E+04  0.50400001928E-02 0. -1.
       -1   -1    0    0    0  501  0.00000000000E+00  0.00000000000E+00 -0.50526941580E+03  0.50526941582E+03  0.50400001928E-02 0.  1.
    10030    2    1    2    0    0  0.00000000000E+00  0.00000000000E+00  0.60270962808E+03  0.16132484597E+04  0.14964329911E+04 0.  0.
        5    1    3    3  502    0  0.61515458662E+02 -0.39145548359E+03 -0.38284073527E+03  0.55100877114E+03  0.46999998093E+01 0.  1.
       -5    1    3    3    0  502 -0.61515458662E+02  0.39145548359E+03  0.98555036335E+03  0.10622396886E+04  0.46999998093E+01 0. -1.
</event>
<event>
 5   0  0.6146552E-04  0.1469080E+04  0.7818609E-02  0.8905279E-01
       -1   -1    0    0    0  501  0.00000000000E+00  0.00000000000E+00  0.55379665942E+03  0.55379665944E+03  0.50400001928E-02 0.  1.
        1   -1    0    0  501    0  0.00000000000E+00  0.00000000000E+00 -0.97427289342E+03  0.97427289343E+03  0.50400001928E-02 0. -1.
    10030    2    1    2    0    0  0.00000000000E+00  0.00000000000E+00 -0.42047623400E+03  0.15280695529E+04  0.14690800846E+04 0.  0.
        5    1    3    3  502    0 -0.44263335750E+03 -0.56259723237E+03 -0.38142815784E+03  0.81114084143E+03  0.46999998093E+01 0.  1.
       -5    1    3    3    0  502  0.44263335750E+03  0.56259723237E+03 -0.39048076154E+02  0.71692871144E+03  0.46999998093E+01 0. -1.
</event>
<event>
 5   0  0.5840834E-04  0.1413579E+04  0.7818609E-02  0.8944048E-01
        1   -1    0    0  501    0  0.00000000000E+00  0.00000000000E+00  0.97466259835E+03  0.97466259837E+03  0.50400001928E-02 0.  1.
       -1   -1    0    0    0  501  0.00000000000E+00  0.00000000000E+00 -0.51253784016E+03  0.51253784018E+03  0.50400001928E-02 0. -1.
    10030    2    1    2    0    0  0.00000000000E+00  0.00000000000E+00  0.46212475820E+03  0.14872004385E+04  0.14135790930E+04 0.  0.
        3    1    3    3  502    0 -0.23292466087E+03 -0.66305781885E+03  0.31015682993E+03  0.76817760845E+03  0.10100000352E+00 0.  1.
       -3    1    3    3    0  502  0.23292466087E+03  0.66305781885E+03  0.15196792827E+03  0.71902283010E+03  0.10100000352E+00 0. -1.
</event>
<event>
 5   0  0.5914645E-04  0.1501346E+04  0.7818609E-02  0.8883558E-01
       -1   -1    0    0    0  501  0.00000000000E+00  0.00000000000E+00  0.79138314604E+03  0.79138314605E+03  0.50400001928E-02 0. -1.
        1   -1    0    0  501    0  0.00000000000E+00  0.00000000000E+00 -0.71205717428E+03  0.71205717429E+03  0.50400001928E-02 0.  1.
    10030    2    1    2    0    0  0.00000000000E+00  0.00000000000E+00  0.79325971763E+02  0.15034403203E+04  0.15013461250E+04 0.  0.
        2    1    3    3  502    0 -0.57168710590E+03 -0.18675931782E+02 -0.44715822012E+03  0.72603402903E+03  0.25500000920E-02 0.  1.
       -2    1    3    3    0  502  0.57168710590E+03  0.18675931782E+02  0.52648419188E+03  0.77740629132E+03  0.25500000920E-02 0. -1.
</event>
<event>
 5   0  0.1082667E-03  0.1561438E+04  0.7818609E-02  0.8844595E-01
        2   -1    0    0  501    0  0.00000000000E+00  0.00000000000E+00  0.88819820970E+03  0.88819820970E+03  0.25500000920E-02 0.  1.
       -2   -1    0    0    0  501  0.00000000000E+00  0.00000000000E+00 -0.68624551720E+03  0.68624551720E+03  0.25500000920E-02 0. -1.
    10030    2    1    2    0    0  0.00000000000E+00  0.00000000000E+00  0.20195269250E+03  0.15744437269E+04  0.15614378499E+04 0.  0.
        5    1    3    3  502    0 -0.48776736253E+02  0.32450063938E+03  0.81526947599E+03  0.87884369682E+03  0.46999998093E+01 0.  1.
       -5    1    3    3    0  502  0.48776736253E+02 -0.32450063938E+03 -0.61331678348E+03  0.69560003009E+03  0.46999998093E+01 0. -1.
</event>
<event>
 5   0  0.5606965E-04  0.1449031E+04  0.7818609E-02  0.8919072E-01
       -1   -1    0    0    0  501  0.00000000000E+00  0.00000000000E+00  0.86960147797E+03  0.86960147799E+03  0.50400001928E-02 0. -1.
        1   -1    0    0  501    0  0.00000000000E+00  0.00000000000E+00 -0.60363613623E+03  0.60363613625E+03  0.50400001928E-02 0.  1.
    10030    2    1    2    0    0  0.00000000000E+00  0.00000000000E+00  0.26596534174E+03  0.14732376142E+04  0.14490312298E+04 0.  0.
        4    1    3    3  502    0 -0.38332636991E+03  0.20263079493E+03 -0.45716450065E+03  0.63007883513E+03  0.12699999809E+01 0.  1.
       -4    1    3    3    0  502  0.38332636991E+03 -0.20263079493E+03  0.72312984240E+03  0.84315877911E+03  0.12699999809E+01 0. -1.
</event>
<event>
 5   0  0.6146552E-04  0.1360830E+04  0.7818609E-02  0.8982670E-01
        1   -1    0    0  501    0  0.00000000000E+00  0.00000000000E+00  0.90194022321E+03  0.90194022323E+03  0.50400001928E-02 0. -1.
       -1   -1    0    0    0  501  0.00000000000E+00  0.00000000000E+00 -0.51329881600E+03  0.51329881602E+03  0.50400001928E-02 0.  1.
    10030    2    1    2    0    0  0.00000000000E+00  0.00000000000E+00  0.38864140721E+03  0.14152390392E+04  0.13608304063E+04 0.  0.
        5    1    3    3  502    0  0.53919555480E+03  0.12559453207E+03 -0.21701407607E+03  0.59466211584E+03  0.46999998093E+01 0.  1.
       -5    1    3    3    0  502 -0.53919555480E+03 -0.12559453207E+03  0.60565548328E+03  0.82057692341E+03  0.46999998093E+01 0. -1.
</event>
<event>
 5   0  0.1097156E-03  0.1494896E+04  0.7818609E-02  0.8887854E-01
       -2   -1    0    0    0  501  0.00000000000E+00  0.00000000000E+00  0.90283389447E+03  0.90283389447E+03  0.25500000920E-02 0. -1.
        2   -1    0    0  501    0  0.00000000000E+00  0.00000000000E+00 -0.61880581185E+03  0.61880581186E+03  0.25500000920E-02 0.  1.
    10030    2    1    2    0    0  0.00000000000E+00  0.00000000000E+00  0.28402808262E+03  0.15216397063E+04  0.14948964660E+04 0.  0.
        2    1    3    3  502    0 -0.44498669564E+03  0.39785400411E+03 -0.31589819871E+03  0.67534631104E+03  0.25500000920E-02 0.  1.
       -2    1    3    3    0  502  0.44498669564E+03 -0.39785400411E+03  0.59992628133E+03  0.84629339529E+03  0.25500000920E-02 0. -1.
</event>
<event>
 5   0  0.5914645E-04  0.1481091E+04  0.7818609E-02  0.8897126E-01
       -1   -1    0    0    0  501  0.00000000000E+00  0.00000000000E+00  0.69420349133E+03  0.69420349135E+03  0.50400001928E-02 0. -1.
        1   -1    0    0  501    0  0.00000000000E+00  0.00000000000E+00 -0.78998078269E+03  0.78998078271E+03  0.50400001928E-02 0.  1.
    10030    2    1    2    0    0  0.00000000000E+00  0.00000000000E+00 -0.95777291358E+02  0.14841842741E+04  0.14810907028E+04 0.  0.
        2    1    3    3  502    0  0.26158089750E+03  0.67707429037E+03 -0.19500556495E+03  0.75158587732E+03  0.25500000920E-02 0. -1.
       -2    1    3    3    0  502 -0.26158089750E+03 -0.67707429037E+03  0.99228273596E+02  0.73259839674E+03  0.25500000920E-02 0.  1.
</event>
<event>
 5   0  0.1082667E-03  0.1499240E+04  0.7818609E-02  0.8884958E-01
       -2   -1    0    0    0  501  0.00000000000E+00  0.00000000000E+00  0.55376116251E+03  0.55376116252E+03  0.25500000920E-02 0.  1.
        2   -1    0    0  501    0  0.00000000000E+00  0.00000000000E+00 -0.10147520398E+04  0.10147520398E+04  0.25500000920E-02 0. -1.
    10030    2    1    2    0    0  0.00000000000E+00  0.00000000000E+00 -0.46099087731E+03  0.15685132023E+04  0.14992401665E+04 0.  0.
        5    1    3    3  502    0  0.58725788921E+03 -0.10801422363E+03  0.24362066649E+03  0.64491241272E+03  0.46999998093E+01 0.  1.
       -5    1    3    3    0  502 -0.58725788921E+03  0.10801422363E+03 -0.70461154380E+03  0.92360078963E+03  0.46999998093E+01 0. -1.
</event>
<event>
 5   0  0.5924403E-04  0.1494963E+04  0.7818609E-02  0.8887809E-01
        1   -1    0    0  501    0  0.00000000000E+00  0.00000000000E+00  0.58471829596E+03  0.58471829599E+03  0.50400001928E-02 0.  1.
       -1   -1    0    0    0  501  0.00000000000E+00  0.00000000000E+00 -0.95555223990E+03  0.95555223992E+03  0.50400001928E-02 0. -1.
    10030    2    1    2    0    0  0.00000000000E+00  0.00000000000E+00 -0.37083394394E+03  0.15402705359E+04  0.14949633808E+04 0.  0.
        1    1    3    3  502    0  0.17562613154E+03  0.19192107281E+03  0.53657038797E+03  0.59631033660E+03  0.50400001928E-02 0.  1.
       -1    1    3    3    0  502 -0.17562613154E+03 -0.19192107281E+03 -0.90740433191E+03  0.94396019930E+03  0.50400001928E-02 0. -1.
</event>
<event>
 5   0  0.1126175E-03  0.1510815E+04  0.7818609E-02  0.8877293E-01
        2   -1    0    0  501    0  0.00000000000E+00  0.00000000000E+00  0.18697326595E+04  0.18697326595E+04  0.25500000920E-02 0. -1.
       -2   -1    0    0    0  501  0.00000000000E+00  0.00000000000E+00 -0.30519880704E+03  0.30519880705E+03  0.25500000920E-02 0.  1.
    10030    2    1    2    0    0  0.00000000000E+00  0.00000000000E+00  0.15645338525E+04  0.21749314666E+04  0.15108145845E+04 0.  0.
        3    1    3    3  502    0 -0.33484021192E+03  0.29471311388E+02  0.17561411453E+04  0.17880207656E+04  0.10100000352E+00 0. -1.
       -3    1    3    3    0  502  0.33484021192E+03 -0.29471311388E+02 -0.19160729279E+03  0.38691070102E+03  0.10100000352E+00 0.  1.
</event>
<event>
 5   0  0.4070625E-04  0.1477921E+04  0.7818609E-02  0.8899269E-01
       -4   -1    0    0    0  501  0.00000000000E+00  0.00000000000E+00  0.39973435061E+03  0.39973636807E+03  0.12699999809E+01 0.  1.
        4   -1    0    0  501    0  0.00000000000E+00  0.00000000000E+00 -0.13660586736E+04  0.13660592639E+04  0.12699999809E+01 0. -1.
    10030    2    1    2    0    0  0.00000000000E+00  0.00000000000E+00 -0.96632432294E+03  0.17657956320E+04  0.14779213500E+04 0.  0.
        2    1    3    3  502    0  0.59801082850E+03 -0.85272063114E+02 -0.99171698154E+03  0.11612023283E+04  0.25500000920E-02 0. -1.
       -2    1    3    3    0  502 -0.59801082850E+03  0.85272063114E+02  0.25392658594E+02  0.60459330369E+03  0.25500000920E-02 0.  1.
</event>
<event>
 5   0  0.5924403E-04  0.1493585E+04  0.7818609E-02  0.8888730E-01
        1   -1    0    0  501    0  0.00000000000E+00  0.00000000000E+00  0.35300471892E+03  0.35300471895E+03  0.50400001928E-02 0. -1.
       -1   -1    0    0    0  501  0.00000000000E+00  0.00000000000E+00 -0.15798627721E+04  0.15798627721E+04  0.50400001928E-02 0.  1.
    10030    2    1    2    0    0  0.00000000000E+00  0.00000000000E+00 -0.12268580532E+04  0.19328674910E+04  0.14935849676E+04 0.  0.
        1    1    3    3  502    0 -0.63613969015E+03 -0.39080066594E+03 -0.63584924402E+03  0.98066463535E+03  0.50400001928E-02 0. -1.
       -1    1    3    3    0  502  0.63613969015E+03  0.39080066594E+03 -0.59100880914E+03  0.95220285569E+03  0.50400001928E-02 0.  1.
</event>
<event>
 5   0  0.1097156E-03  0.1490189E+04  0.7818609E-02  0.8891003E-01
        2   -1    0    0  501    0  0.00000000000E+00  0.00000000000E+00  0.14618264006E+04  0.14618264006E+04  0.25500000920E-02 0.  1.
       -2   -1    0    0    0  501  0.00000000000E+00  0.00000000000E+00 -0.37977560956E+03  0.37977560957E+03  0.25500000920E-02 0. -1.
    10030    2    1    2    0    0  0.00000000000E+00  0.00000000000E+00  0.10820507910E+04  0.18416020101E+04  0.14901892663E+04 0.  0.
        2    1    3    3  502    0  0.25352245193E+03 -0.58512395590E+03  0.10172921134E+04  0.12006360487E+04  0.25500000920E-02 0.  1.
       -2    1    3    3    0  502 -0.25352245193E+03  0.58512395590E+03  0.64758677604E+02  0.64096596145E+03  0.25500000920E-02 0. -1.
</event>
<event>
 5   0  0.1082667E-03  0.1509616E+04  0.7818609E-02  0.8878084E-01
        2   -1    0    0  501    0  0.00000000000E+00  0.00000000000E+00  0.12411310215E+04  0.12411310215E+04  0.25500000920E-02 0. -1.
       -2   -1    0    0    0  501  0.00000000000E+00  0.00000000000E+00 -0.45904503634E+03  0.45904503635E+03  0.25500000920E-02 0.  1.
    10030    2    1    2    0    0  0.00000000000E+00  0.00000000000E+00  0.78208598513E+03  0.17001760578E+04  0.15096158914E+04 0.  0.
        5    1    3    3  502    0  0.16682574342E+03 -0.48474248268E+03  0.10149655998E+04  0.11370942626E+04  0.46999998093E+01 0. -1.
       -5    1    3    3    0  502 -0.16682574342E+03  0.48474248268E+03 -0.23287961470E+03  0.56308179523E+03  0.46999998093E+01 0.  1.
</event>
<event>
 5   0  0.5606965E-04  0.1514983E+04  0.7818609E-02  0.8874550E-01
        1   -1    0    0  501    0  0.00000000000E+00  0.00000000000E+00  0.88886235562E+03  0.88886235564E+03  0.50400001928E-02 0.  1.
       -1   -1    0    0    0  501  0.00000000000E+00  0.00000000000E+00 -0.64553693782E+03  0.64553693784E+03  0.50400001928E-02 0. -1.
    10030    2    1    2    0    0  0.00000000000E+00  0.00000000000E+00  0.24332541780E+03  0.15343992935E+04  0.15149831461E+04 0.  0.
        4    1    3    3  502    0  0.52515625734E+03  0.13877117850E+03 -0.41306709766E+03  0.68240206233E+03  0.12699999809E+01 0. -1.
       -4    1    3    3    0  502 -0.52515625734E+03 -0.13877117850E+03  0.65639251547E+03  0.85199723114E+03  0.12699999809E+01 0.  1.
</event>
<event>
 5   0  0.1082667E-03  0.1493059E+04  0.7818609E-02  0.8889082E-01
       -2   -1    0    0    0  501  0.00000000000E+00  0.00000000000E+00  0.51751535062E+03  0.51751535063E+03  0.25500000920E-02 0.  1.
        2   -1    0    0  501    0  0.00000000000E+00  0.00000000000E+00 -0.10768882577E+04  0.10768882577E+04  0.25500000920E-02 0. -1.
    10030    2    1    2    0    0  0.00000000000E+00  0.00000000000E+00 -0.55937290708E+03  0.15944036083E+04  0.14930588793E+04 0.  0.
        5    1    3    3  502    0  0.43839080186E+03 -0.24735390559E+03 -0.86838972271E+03  0.10037396327E+04  0.46999998093E+01 0. -1.
       -5    1    3    3    0  502 -0.43839080186E+03  0.24735390559E+03  0.30901681563E+03  0.59066397563E+03  0.46999998093E+01 0.  1.
</event>
<event>
 5   0  0.5606965E-04  0.1509119E+04  0.7818609E-02  0.8878411E-01
       -1   -1    0    0    0  501  0.00000000000E+00  0.00000000000E+00  0.39204994613E+03  0.39204994616E+03  0.50400001928E-02 0. -1.
        1   -1    0    0  501    0  0.00000000000E+00  0.00000000000E+00 -0.14522643894E+04  0.14522643894E+04  0.50400001928E-02 0.  1.
    10030    2    1    2    0    0  0.00000000000E+00  0.00000000000E+00 -0.10602144433E+04  0.18443143356E+04  0.15091191811E+04 0.  0.
        4    1    3    3  502    0  0.36506154561E+03 -0.43342211982E+03 -0.11390015732E+04  0.12721835019E+04  0.12699999809E+01 0.  1.
       -4    1    3    3    0  502 -0.36506154561E+03  0.43342211982E+03  0.78787129918E+02  0.57213083361E+03  0.12699999809E+01 0. -1.
</event>
<event>
 5   0  0.6146552E-04  0.1503499E+04  0.7818609E-02  0.8882129E-01
        1   -1    0    0  501    0  0.00000000000E+00  0.00000000000E+00  0.68117202967E+03  0.68117202969E+03  0.50400001928E-02 0.  1.
       -1   -1    0    0    0  501  0.00000000000E+00  0.00000000000E+00 -0.82964012687E+03  0.82964012688E+03  0.50400001928E-02 0. -1.
    10030    2    1    2    0    0  0.00000000000E+00  0.00000000000E+00 -0.14846809720E+03  0.15108121566E+04  0.15034994501E+04 0.  0.
        5    1    3    3  502    0 -0.42785967896E+03  0.61730194720E+03 -0.10569062293E+03  0.75849732806E+03  0.46999998093E+01 0.  1.
       -5    1    3    3    0  502  0.42785967896E+03 -0.61730194720E+03 -0.42777474273E+02  0.75231482851E+03  0.46999998093E+01 0. -1.
</event>
<event>
 5   0  0.6146552E-04  0.1480398E+04  0.7818609E-02  0.8897594E-01
        1   -1    0    0  501    0  0.00000000000E+00  0.00000000000E+00  0.16656897661E+04  0.16656897661E+04  0.50400001928E-02 0.  1.
       -1   -1    0    0    0  501  0.00000000000E+00  0.00000000000E+00 -0.32892947410E+03  0.32892947414E+03  0.50400001928E-02 0. -1.
    10030    2    1    2    0    0  0.00000000000E+00  0.00000000000E+00  0.13367602920E+04  0.19946192402E+04  0.14803978638E+04 0.  0.
        5    1    3    3  502    0 -0.25110179566E+03 -0.44030442899E+03  0.13951425065E+04  0.14843735397E+04  0.46999998093E+01 0.  1.
       -5    1    3    3    0  502  0.25110179566E+03  0.44030442899E+03 -0.58382214469E+02  0.51024570055E+03  0.46999998093E+01 0. -1.
</event>
<event>
 5   0  0.4070625E-04  0.1508939E+04  0.7818609E-02  0.8878530E-01
       -3   -1    0    0    0  501  0.00000000000E+00  0.00000000000E+00  0.36255416183E+03  0.36255417590E+03  0.10100000352E+00 0. -1.
        3   -1    0    0  501    0  0.00000000000E+00  0.00000000000E+00 -0.15700392314E+04  0.15700392346E+04  0.10100000352E+00 0.  1.
    10030    2    1    2    0    0  0.00000000000E+00  0.00000000000E+00 -0.12074850695E+04  0.19325934105E+04  0.15089390634E+04 0.  0.
        1    1    3    3  502    0 -0.12423086695E+03  0.73891240664E+03 -0.71685226908E+03  0.10369677086E+04  0.50400001928E-02 0.  1.
       -1    1    3    3    0  502  0.12423086695E+03 -0.73891240664E+03 -0.49063280044E+03  0.89562570189E+03  0.50400001928E-02 0. -1.
</event>
<event>
 5   0  0.1082667E-03  0.1499460E+04  0.7818609E-02  0.8884812E-01
       -2   -1    0    0    0  501  0.00000000000E+00  0.00000000000E+00  0.60005632110E+03  0.60005632110E+03  0.25500000920E-02 0. -1.
        2   -1    0    0  501    0  0.00000000000E+00  0.00000000000E+00 -0.93673743221E+03  0.93673743221E+03  0.25500000920E-02 0.  1.
    10030    2    1    2    0    0  0.00000000000E+00  0.00000000000E+00 -0.33668111111E+03  0.15367937533E+04  0.14994601928E+04 0.  0.
        5    1    3    3  502    0  0.60939744521E+03 -0.28397106249E+03 -0.50836630659E+03  0.84288979246E+03  0.46999998093E+01 0.  1.
       -5    1    3    3    0  502 -0.60939744521E+03  0.28397106249E+03  0.17168519548E+03  0.69390396086E+03  0.46999998093E+01 0. -1.
</event>
<event>
 5   0  0.6146552E-04  0.1486184E+04  0.7818609E-02  0.8893693E-01
       -1   -1    0    0    0  501  0.00000000000E+00  0.00000000000E+00  0.59650071802E+03  0.59650071804E+03  0.50400001928E-02 0. -1.
        1   -1    0    0  501    0  0.00000000000E+00  0.00000000000E+00 -0.92570824518E+03  0.92570824520E+03  0.50400001928E-02 0.  1.
    10030    2    1    2    0    0  0.00000000000E+00  0.00000000000E+00 -0.32920752716E+03  0.15222089632E+04  0.14861838822E+04 0.  0.
        5    1    3    3  502    0  0.47904718555E+03  0.51607038896E+03  0.78529087128E+02  0.70852223668E+03  0.46999998093E+01 0. -1.
       -5    1    3    3    0  502 -0.47904718555E+03 -0.51607038896E+03 -0.40773661429E+03  0.81368672656E+03  0.46999998093E+01 0.  1.
</event>
<event>
 5   0  0.6146552E-04  0.1494088E+04  0.7818609E-02  0.8888394E-01
        1   -1    0    0  501    0  0.00000000000E+00  0.00000000000E+00  0.42305042391E+03  0.42305042394E+03  0.50400001928E-02 0.  1.
       -1   -1    0    0    0  501  0.00000000000E+00  0.00000000000E+00 -0.13191689290E+04  0.13191689290E+04  0.50400001928E-02 0. -1.
    10030    2    1    2    0    0  0.00000000000E+00  0.00000000000E+00 -0.89611850507E+03  0.17422193529E+04  0.14940883169E+04 0.  0.
        5    1    3    3  502    0  0.36259424850E+03  0.58618609637E+03 -0.78392971608E+03  0.10438661880E+04  0.46999998093E+01 0. -1.
       -5    1    3    3    0  502 -0.36259424850E+03 -0.58618609637E+03 -0.11218878899E+03  0.69835316495E+03  0.46999998093E+01 0.  1.
</event>
<event>
 5   0  0.1126175E-03  0.1496445E+04  0.7818609E-02  0.8886820E-01
        2   -1    0    0  501    0  0.00000000000E+00  0.00000000000E+00  0.17639424233E+04  0.17639424233E+04  0.25500000920E-02 0. -1.
       -2   -1    0    0    0  501  0.00000000000E+00  0.00000000000E+00 -0.31737826318E+03  0.31737826319E+03  0.25500000920E-02 0.  1.
    10030    2    1    2    0    0  0.00000000000E+00  0.00000000000E+00  0.14465641601E+04  0.20813206865E+04  0.14964450978E+04 0.  0.
        3    1    3    3  502    0 -0.45556166761E+03 -0.55864739620E+03  0.44437160128E+03  0.84681135827E+03  0.10100000352E+00 0. -1.
       -3    1    3    3    0  502  0.45556166761E+03  0.55864739620E+03  0.10021925589E+04  0.12345093282E+04  0.10100000352E+00 0.  1.
</event>
<event>
 5   0  0.1149716E-03  0.1250606E+04  0.7818609E-02  0.9069679E-01
       -2   -1    0    0    0  501  0.00000000000E+00  0.00000000000E+00  0.23774058074E+03  0.23774058075E+03  0.25500000920E-02 0.  1.
        2   -1    0    0  501    0  0.00000000000E+00  0.00000000000E+00 -0.16446662240E+04  0.16446662240E+04  0.25500000920E-02 0. -1.
    10030    2    1    2    0    0  0.00000000000E+00  0.00000000000E+00 -0.14069256433E+04  0.18824068048E+04  0.12506060982E+04 0.  0.
        1    1    3    3  502    0 -0.35483665197E+03  0.43802504090E+03 -0.29614421619E+03  0.63677027479E+03  0.50400001928E-02 0.  1.
       -1    1    3    3    0  502  0.35483665197E+03 -0.43802504090E+03 -0.11107814271E+04  0.12456365300E+04  0.50400001928E-02 0. -1.
</event>
<event>
 5   0  0.1147755E-03  0.1489313E+04  0.7818609E-02  0.8891591E-01
        2   -1    0    0  501    0  0.00000000000E+00  0.00000000000E+00  0.55168837453E+03  0.55168837454E+03  0.25500000920E-02 0. -1.
       -2   -1    0    0    0  501  0.00000000000E+00  0.00000000000E+00 -0.10051204434E+04  0.10051204434E+04  0.25500000920E-02 0.  1.
    10030    2    1    2    0    0  0.00000000000E+00  0.00000000000E+00 -0.45343206887E+03  0.15568088179E+04  0.14893129471E+04 0.  0.
        4    1    3    3  502    0  0.27909453694E+03  0.20928002646E+03  0.46099003632E+03  0.57810493556E+03  0.12699999809E+01 0. -1.
       -4    1    3    3    0  502 -0.27909453694E+03 -0.20928002646E+03 -0.91442210520E+03  0.97870388238E+03  0.12699999809E+01 0.  1.
</event>
<event>
 5   0  0.5914645E-04  0.1495398E+04  0.7818609E-02  0.8887519E-01
       -1   -1    0    0    0  501  0.00000000000E+00  0.00000000000E+00  0.35547021713E+03  0.35547021717E+03  0.50400001928E-02 0. -1.
        1   -1    0    0  501    0  0.00000000000E+00  0.00000000000E+00 -0.15727165697E+04  0.15727165697E+04  0.50400001928E-02 0.  1.
    10030    2    1    2    0    0  0.00000000000E+00  0.00000000000E+00 -0.12172463526E+04  0.19281867869E+04  0.14953981417E+04 0.  0.
        2    1    3    3  502    0 -0.20552252335E+03 -0.54080837901E+03  0.21026582591E+01  0.57854786456E+03  0.25500000920E-02 0. -1.
       -2    1    3    3    0  502  0.20552252335E+03  0.54080837901E+03 -0.12193490108E+04  0.13496389223E+04  0.25500000920E-02 0.  1.
</event>
<event>
 5   0  0.4070625E-04  0.1487188E+04  0.7818609E-02  0.8893018E-01
       -4   -1    0    0    0  501  0.00000000000E+00  0.00000000000E+00  0.92604871445E+03  0.92604958530E+03  0.12699999809E+01 0.  1.
        4   -1    0    0  501    0  0.00000000000E+00  0.00000000000E+00 -0.59708565620E+03  0.59708700684E+03  0.12699999809E+01 0. -1.
    10030    2    1    2    0    0  0.00000000000E+00  0.00000000000E+00  0.32896305825E+03  0.15231365921E+04  0.14871880798E+04 0.  0.
        4    1    3    3  502    0  0.88688597966E+02  0.40617556705E+03  0.79589525857E+03  0.89793938224E+03  0.12699999809E+01 0.  1.
       -4    1    3    3    0  502 -0.88688597966E+02 -0.40617556705E+03 -0.46693220031E+03  0.62519720990E+03  0.12699999809E+01 0. -1.
</event>
<event>
 5   0  0.5606965E-04  0.1555229E+04  0.7818609E-02  0.8848534E-01
       -1   -1    0    0    0  501  0.00000000000E+00  0.00000000000E+00  0.35472552673E+03  0.35472552677E+03  0.50400001928E-02 0. -1.
        1   -1    0    0  501    0  0.00000000000E+00  0.00000000000E+00 -0.17046547362E+04  0.17046547362E+04  0.50400001928E-02 0.  1.
    10030    2    1    2    0    0  0.00000000000E+00  0.00000000000E+00 -0.13499292095E+04  0.20593802630E+04  0.15552293069E+04 0.  0.
        4    1    3    3  502    0  0.66151500701E+03 -0.18548591341E+03 -0.19264159065E+03  0.71352612000E+03  0.12699999809E+01 0. -1.
       -4    1    3    3    0  502 -0.66151500701E+03  0.18548591341E+03 -0.11572876188E+04  0.13458541430E+04  0.12699999809E+01 0.  1.
</event>
<event>
 5   0  0.1149716E-03  0.1498486E+04  0.7818609E-02  0.8885460E-01
       -2   -1    0    0    0  501  0.00000000000E+00  0.00000000000E+00  0.35560517743E+03  0.35560517744E+03  0.25500000920E-02 0.  1.
        2   -1    0    0  501    0  0.00000000000E+00  0.00000000000E+00 -0.15786189283E+04  0.15786189283E+04  0.25500000920E-02 0. -1.
    10030    2    1    2    0    0  0.00000000000E+00  0.00000000000E+00 -0.12230137509E+04  0.19342241058E+04  0.14984859881E+04 0.  0.
        1    1    3    3  502    0  0.65330780308E+03 -0.35365541322E+03 -0.48581704986E+03  0.88763812605E+03  0.50400001928E-02 0.  1.
       -1    1    3    3    0  502 -0.65330780308E+03  0.35365541322E+03 -0.73719670103E+03  0.10465859797E+04  0.50400001928E-02 0. -1.
</event>
<event>
 5   0  0.4070625E-04  0.1490653E+04  0.7818609E-02  0.8890692E-01
        4   -1    0    0  501    0  0.00000000000E+00  0.00000000000E+00  0.27856171354E+03  0.27856460858E+03  0.12699999809E+01 0.  1.
       -4   -1    0    0    0  501  0.00000000000E+00  0.00000000000E+00 -0.19942002442E+04  0.19942006486E+04  0.12699999809E+01 0. -1.
    10030    2    1    2    0    0  0.00000000000E+00  0.00000000000E+00 -0.17156385306E+04  0.22727652572E+04  0.14906529933E+04 0.  0.
        1    1    3    3  502    0  0.42306990104E+03  0.44428315697E+03 -0.21250782154E+03  0.64925745200E+03  0.50400001928E-02 0.  1.
       -1    1    3    3    0  502 -0.42306990104E+03 -0.44428315697E+03 -0.15031307091E+04  0.16235078052E+04  0.50400001928E-02 0. -1.
</event>
<event>
 5   0  0.1097156E-03  0.1481618E+04  0.7818609E-02  0.8896770E-01
       -2   -1    0    0    0  501  0.00000000000E+00  0.00000000000E+00  0.52748446012E+03  0.52748446013E+03  0.25500000920E-02 0.  1.
        2   -1    0    0  501    0  0.00000000000E+00  0.00000000000E+00 -0.10404059938E+04  0.10404059938E+04  0.25500000920E-02 0. -1.
    10030    2    1    2    0    0  0.00000000000E+00  0.00000000000E+00 -0.51292153366E+03  0.15678904539E+04  0.14816180263E+04 0.  0.
        2    1    3    3  502    0 -0.45801189754E+03  0.39632000414E+03 -0.70785886946E+03  0.93161613503E+03  0.25500000920E-02 0. -1.
       -2    1    3    3    0  502  0.45801189754E+03 -0.39632000414E+03  0.19493733580E+03  0.63627431888E+03  0.25500000920E-02 0.  1.
</event>
<event>
 5   0  0.5924403E-04  0.1504723E+04  0.7818609E-02  0.8881318E-01
        1   -1    0    0  501    0  0.00000000000E+00  0.00000000000E+00  0.15603652296E+04  0.15603652296E+04  0.50400001928E-02 0.  1.
       -1   -1    0    0    0  501  0.00000000000E+00  0.00000000000E+00 -0.36276620427E+03  0.36276620430E+03  0.50400001928E-02 0. -1.
    10030    2    1    2    0    0  0.00000000000E+00  0.00000000000E+00  0.11975990253E+04  0.19231314339E+04  0.15047229268E+04 0.  0.
        1    1    3    3  502    0 -0.38108824683E+03  0.32411523548E+03 -0.11938669416E+03  0.51432686154E+03  0.50400001928E-02 0. -1.
       -1    1    3    3    0  502  0.38108824683E+03 -0.32411523548E+03  0.13169857194E+04  0.14088045723E+04  0.50400001928E-02 0.  1.
</event>
<event>
 5   0  0.5606965E-04  0.1488031E+04  0.7818609E-02  0.8892452E-01
        1   -1    0    0  501    0  0.00000000000E+00  0.00000000000E+00  0.65665104334E+03  0.65665104336E+03  0.50400001928E-02 0.  1.
       -1   -1    0    0    0  501  0.00000000000E+00  0.00000000000E+00 -0.84300288587E+03  0.84300288588E+03  0.50400001928E-02 0. -1.
    10030    2    1    2    0    0  0.00000000000E+00  0.00000000000E+00 -0.18635184253E+03  0.14996539292E+04  0.14880305435E+04 0.  0.
        4    1    3    3  502    0 -0.69170675714E+03  0.60931944744E+02  0.17609301260E+03  0.71636673691E+03  0.12699999809E+01 0.  1.
       -4    1    3    3    0  502  0.69170675714E+03 -0.60931944744E+02 -0.36244485512E+03  0.78328719233E+03  0.12699999809E+01 0. -1.
</event>
<event>
 5   0  0.1097156E-03  0.1501524E+04  0.7818609E-02  0.8883440E-01
       -2   -1    0    0    0  501  0.00000000000E+00  0.00000000000E+00  0.53599253692E+03  0.53599253692E+03  0.25500000920E-02 0. -1.
        2   -1    0    0  501    0  0.00000000000E+00  0.00000000000E+00 -0.10515880348E+04  0.10515880348E+04  0.25500000920E-02 0.  1.
    10030    2    1    2    0    0  0.00000000000E+00  0.00000000000E+00 -0.51559549785E+03  0.15875805717E+04  0.15015236775E+04 0.  0.
        2    1    3    3  502    0  0.20439343238E+03  0.62288789079E+03 -0.64466068723E+03  0.91943102045E+03  0.25500000920E-02 0.  1.
       -2    1    3    3    0  502 -0.20439343238E+03 -0.62288789079E+03  0.12906518939E+03  0.66814955124E+03  0.25500000920E-02 0. -1.
</event>
<event>
 5   0  0.1082667E-03  0.1488979E+04  0.7818609E-02  0.8891815E-01
       -2   -1    0    0    0  501  0.00000000000E+00  0.00000000000E+00  0.59437932999E+03  0.59437932999E+03  0.25500000920E-02 0.  1.
        2   -1    0    0  501    0  0.00000000000E+00  0.00000000000E+00 -0.93251053559E+03  0.93251053559E+03  0.25500000920E-02 0. -1.
    10030    2    1    2    0    0  0.00000000000E+00  0.00000000000E+00 -0.33813120560E+03  0.15268898656E+04  0.14889794993E+04 0.  0.
        5    1    3    3  502    0 -0.21651888550E+02  0.23581148432E+02  0.59365794416E+03  0.59453908156E+03  0.46999998093E+01 0.  1.
       -5    1    3    3    0  502  0.21651888550E+02 -0.23581148432E+02 -0.93178914977E+03  0.93235078402E+03  0.46999998093E+01 0. -1.
</event>
<event>
 5   0  0.5924403E-04  0.1461263E+04  0.7818609E-02  0.8910629E-01
       -1   -1    0    0    0  501  0.00000000000E+00  0.00000000000E+00  0.66262942973E+03  0.66262942975E+03  0.50400001928E-02 0.  1.
        1   -1    0    0  501    0  0.00000000000E+00  0.00000000000E+00 -0.80561233923E+03  0.80561233925E+03  0.50400001928E-02 0. -1.
    10030    2    1    2    0    0  0.00000000000E+00  0.00000000000E+00 -0.14298290950E+03  0.14682417690E+04  0.14612630769E+04 0.  0.
        1    1    3    3  502    0  0.14331516154E+03 -0.12164101670E+03 -0.78089922313E+03  0.80320568299E+03  0.50400001928E-02 0. -1.
       -1    1    3    3    0  502 -0.14331516154E+03  0.12164101670E+03  0.63791631363E+03  0.66503608601E+03  0.50400001928E-02 0.  1.
</event>
<event>
 5   0  0.5914645E-04  0.1497621E+04  0.7818609E-02  0.8886036E-01
        1   -1    0    0  501    0  0.00000000000E+00  0.00000000000E+00  0.15848894114E+04  0.15848894114E+04  0.50400001928E-02 0. -1.
       -1   -1    0    0    0  501  0.00000000000E+00  0.00000000000E+00 -0.35378952471E+03  0.35378952475E+03  0.50400001928E-02 0.  1.
    10030    2    1    2    0    0  0.00000000000E+00  0.00000000000E+00  0.12310998867E+04  0.19386789362E+04  0.14976211425E+04 0.  0.
        2    1    3    3  502    0  0.74850849907E+03  0.10135266022E+02  0.63975321076E+03  0.98470902681E+03  0.25500000920E-02 0. -1.
       -2    1    3    3    0  502 -0.74850849907E+03 -0.10135266022E+02  0.59134667593E+03  0.95396990935E+03  0.25500000920E-02 0.  1.
</event>
<event>
 5   0  0.1147755E-03  0.1483802E+04  0.7818609E-02  0.8895296E-01
       -2   -1    0    0    0  501  0.00000000000E+00  0.00000000000E+00  0.33109403350E+03  0.33109403351E+03  0.25500000920E-02 0.  1.
        2   -1    0    0  501    0  0.00000000000E+00  0.00000000000E+00 -0.16624202596E+04  0.16624202596E+04  0.25500000920E-02 0. -1.
    10030    2    1    2    0    0  0.00000000000E+00  0.00000000000E+00 -0.13313262261E+04  0.19935142931E+04  0.14838024520E+04 0.  0.
        4    1    3    3  502    0 -0.55804163786E+03 -0.48275185399E+03 -0.76934917957E+03  0.10660016863E+04  0.12699999809E+01 0. -1.
       -4    1    3    3    0  502  0.55804163786E+03  0.48275185399E+03 -0.56197704648E+03  0.92751260681E+03  0.12699999809E+01 0.  1.
</event>
<event>
 5   0  0.4070625E-04  0.1465922E+04  0.7818609E-02  0.8907436E-01
        3   -1    0    0  501    0  0.00000000000E+00  0.00000000000E+00  0.41821821896E+03  0.41821823115E+03  0.10100000352E+00 0.  1.
       -3   -1    0    0    0  501  0.00000000000E+00  0.00000000000E+00 -0.12845736970E+04  0.12845737010E+04  0.10100000352E+00 0. -1.
    10030    2    1    2    0    0  0.00000000000E+00  0.00000000000E+00 -0.86635547803E+03  0.17027919321E+04  0.14659224228E+04 0.  0.
        4    1    3    3  502    0  0.46216329625E+03 -0.56549600095E+03 -0.50525105054E+03  0.88806580638E+03  0.12699999809E+01 0.  1.
       -4    1    3    3    0  502 -0.46216329625E+03  0.56549600095E+03 -0.36110442749E+03  0.81472612573E+03  0.12699999809E+01 0. -1.
</event>
<event>
 5   0  0.1147755E-03  0.1491979E+04  0.7818609E-02  0.8889804E-01
       -2   -1    0    0    0  501  0.00000000000E+00  0.00000000000E+00  0.94700671696E+03  0.94700671697E+03  0.25500000920E-02 0.  1.
        2   -1    0    0  501    0  0.00000000000E+00  0.00000000000E+00 -0.58764152367E+03  0.58764152367E+03  0.25500000920E-02 0. -1.
    10030    2    1    2    0    0  0.00000000000E+00  0.00000000000E+00  0.35936519330E+03  0.15346482406E+04  0.14919791823E+04 0.  0.
        4    1    3    3  502    0 -0.28417846186E+03 -0.68807597528E+03  0.13042880106E+03  0.75579046765E+03  0.12699999809E+01 0. -1.
       -4    1    3    3    0  502  0.28417846186E+03  0.68807597528E+03  0.22893639224E+03  0.77885777299E+03  0.12699999809E+01 0.  1.
</event>
<event>
 5   0  0.1147755E-03  0.1484459E+04  0.7818609E-02  0.8894854E-01
        2   -1    0    0  501    0  0.00000000000E+00  0.00000000000E+00  0.17562116481E+04  0.17562116481E+04  0.25500000920E-02 0.  1.
       -2   -1    0    0    0  501  0.00000000000E+00  0.00000000000E+00 -0.31368924395E+03  0.31368924396E+03  0.25500000920E-02 0. -1.
    10030    2    1    2    0    0  0.00000000000E+00  0.00000000000E+00  0.14425224042E+04  0.20699008921E+04  0.14844590990E+04 0.  0.
        4    1    3    3  502    0  0.37986255684E+03  0.25158857357E+03 -0.95744329959E+02  0.46557594661E+03  0.12699999809E+01 0. -1.
       -4    1    3    3    0  502 -0.37986255684E+03 -0.25158857357E+03  0.15382667341E+04  0.16043249455E+04  0.12699999809E+01 0.  1.
</event>
<event>
 5   0  0.1082667E-03  0.1548595E+04  0.7818609E-02  0.8852766E-01
        2   -1    0    0  501    0  0.00000000000E+00  0.00000000000E+00  0.11091024372E+04  0.11091024372E+04  0.25500000920E-02 0.  1.
       -2   -1    0    0    0  501  0.00000000000E+00  0.00000000000E+00 -0.54055989297E+03  0.54055989298E+03  0.25500000920E-02 0. -1.
    10030    2    1    2    0    0  0.00000000000E+00  0.00000000000E+00  0.56854254427E+03  0.16496623302E+04  0.15485945819E+04 0.  0.
        5    1    3    3  502    0 -0.43538367881E+03 -0.26418431848E+03  0.90556956193E+03  0.10389565070E+04  0.46999998093E+01 0.  1.
       -5    1    3    3    0  502  0.43538367881E+03  0.26418431848E+03 -0.33702701766E+03  0.61070582324E+03  0.46999998093E+01 0. -1.
</event>
<event>
 5   0  0.5914645E-04  0.1508593E+04  0.7818609E-02  0.8878759E-01
       -1   -1    0    0    0  501  0.00000000000E+00  0.00000000000E+00  0.70421377149E+03  0.70421377151E+03  0.50400001928E-02 0. -1.
        1   -1    0    0  501    0  0.00000000000E+00  0.00000000000E+00 -0.80794092219E+03  0.80794092220E+03  0.50400001928E-02 0.  1.
    10030    2    1    2    0    0  0.00000000000E+00  0.00000000000E+00 -0.10372715070E+03  0.15121546937E+04  0.15085928861E+04 0.  0.
        2    1    3    3  502    0  0.32771801430E+03  0.60163698554E+03  0.26447140436E+03  0.73437816076E+03  0.25500000920E-02 0. -1.
       -2    1    3    3    0  502 -0.32771801430E+03 -0.60163698554E+03 -0.36819855506E+03  0.77777653296E+03  0.25500000920E-02 0.  1.
</event>
<event>
 5   0  0.5924403E-04  0.1461230E+04  0.7818609E-02  0.8910652E-01
        1   -1    0    0  501    0  0.00000000000E+00  0.00000000000E+00  0.19429256913E+04  0.19429256913E+04  0.50400001928E-02 0.  1.
       -1   -1    0    0    0  501  0.00000000000E+00  0.00000000000E+00 -0.27473943879E+03  0.27473943883E+03  0.50400001928E-02 0. -1.
    10030    2    1    2    0    0  0.00000000000E+00  0.00000000000E+00  0.16681862525E+04  0.22176651301E+04  0.14612300491E+04 0.  0.
        1    1    3    3  502    0  0.51320426430E+03 -0.35044329972E+03  0.25100516743E+03  0.67021841016E+03  0.50400001928E-02 0. -1.
       -1    1    3    3    0  502 -0.51320426430E+03  0.35044329972E+03  0.14171810850E+04  0.15474467199E+04  0.50400001928E-02 0.  1.
</event>
<event>
 5   0  0.4070625E-04  0.1505794E+04  0.7818609E-02  0.8880609E-01
        3   -1    0    0  501    0  0.00000000000E+00  0.00000000000E+00  0.81613947084E+03  0.81613947709E+03  0.10100000352E+00 0. -1.
       -3   -1    0    0    0  501  0.00000000000E+00  0.00000000000E+00 -0.69455499217E+03  0.69455499952E+03  0.10100000352E+00 0.  1.
    10030    2    1    2    0    0  0.00000000000E+00  0.00000000000E+00  0.12158447867E+03  0.15106944766E+04  0.15057938160E+04 0.  0.
        2    1    3    3  502    0 -0.47771888163E+03 -0.51471737578E+03 -0.21157695043E+03  0.73342628310E+03  0.25500000920E-02 0.  1.
       -2    1    3    3    0  502  0.47771888163E+03  0.51471737578E+03  0.33316142909E+03  0.77726819350E+03  0.25500000920E-02 0. -1.
</event>
<event>
 5   0  0.1149716E-03  0.1504084E+04  0.7818609E-02  0.8881742E-01
       -2   -1    0    0    0  501  0.00000000000E+00  0.00000000000E+00  0.34488988807E+03  0.34488988808E+03  0.25500000920E-02 0.  1.
        2   -1    0    0  501    0  0.00000000000E+00  0.00000000000E+00 -0.16398489968E+04  0.16398489968E+04  0.25500000920E-02 0. -1.
    10030    2    1    2    0    0  0.00000000000E+00  0.00000000000E+00 -0.12949591087E+04  0.19847388849E+04  0.15040842223E+04 0.  0.
        1    1    3    3  502    0  0.24231999938E+03  0.66885379906E+03 -0.96931025699E+03  0.12023505150E+04  0.50400001928E-02 0. -1.
       -1    1    3    3    0  502 -0.24231999938E+03 -0.66885379906E+03 -0.32564885172E+03  0.78238836985E+03  0.50400001928E-02 0.  1.
</event>
<event>
 5   0  0.4070625E-04  0.1402694E+04  0.7818609E-02  0.8951871E-01
       -4   -1    0    0    0  501  0.00000000000E+00  0.00000000000E+00  0.86176782534E+03  0.86176876115E+03  0.12699999809E+01 0.  1.
        4   -1    0    0  501    0  0.00000000000E+00  0.00000000000E+00 -0.57078694113E+03  0.57078835400E+03  0.12699999809E+01 0. -1.
    10030    2    1    2    0    0  0.00000000000E+00  0.00000000000E+00  0.29098088421E+03  0.14325571152E+04  0.14026938416E+04 0.  0.
        1    1    3    3  502    0 -0.34922493728E+03 -0.37863681138E+03  0.63161116519E+03  0.81501935914E+03  0.50400001928E-02 0.  1.
       -1    1    3    3    0  502  0.34922493728E+03  0.37863681138E+03 -0.34063028098E+03  0.61753775601E+03  0.50400001928E-02 0. -1.
</event>
<event>
 5   0  0.1147755E-03  0.1549405E+04  0.7818609E-02  0.8852248E-01
        2   -1    0    0  501    0  0.00000000000E+00  0.00000000000E+00  0.59230874551E+03  0.59230874552E+03  0.25500000920E-02 0.  1.
       -2   -1    0    0    0  501  0.00000000000E+00  0.00000000000E+00 -0.10132620460E+04  0.10132620461E+04  0.25500000920E-02 0. -1.
    10030    2    1    2    0    0  0.00000000000E+00  0.00000000000E+00 -0.42095330053E+03  0.16055707916E+04  0.15494050102E+04 0.  0.
        4    1    3    3  502    0 -0.41605696168E+03  0.57459953809E+03  0.11208571408E+03  0.71821504074E+03  0.12699999809E+01 0.  1.
       -4    1    3    3    0  502  0.41605696168E+03 -0.57459953809E+03 -0.53303901461E+03  0.88735575083E+03  0.12699999809E+01 0. -1.
</event>
<event>
 5   0  0.6146552E-04  0.1496340E+04  0.7818609E-02  0.8886890E-01
        1   -1    0    0  501    0  0.00000000000E+00  0.00000000000E+00  0.12414831465E+04  0.12414831465E+04  0.50400001928E-02 0.  1.
       -1   -1    0    0    0  501  0.00000000000E+00  0.00000000000E+00 -0.45087883613E+03  0.45087883615E+03  0.50400001928E-02 0. -1.
    10030    2    1    2    0    0  0.00000000000E+00  0.00000000000E+00  0.79060431040E+03  0.16923619827E+04  0.14963401702E+04 0.  0.
        5    1    3    3  502    0 -0.15578593718E+03 -0.20362310436E+03  0.11902314323E+04  0.12175403810E+04  0.46999998093E+01 0.  1.
       -5    1    3    3    0  502  0.15578593718E+03  0.20362310436E+03 -0.39962712193E+03  0.47482160169E+03  0.46999998093E+01 0. -1.
</event>
<event>
 5   0  0.5924403E-04  0.1528807E+04  0.7818609E-02  0.8865520E-01
        1   -1    0    0  501    0  0.00000000000E+00  0.00000000000E+00  0.15689326550E+04  0.15689326550E+04  0.50400001928E-02 0. -1.
       -1   -1    0    0    0  501  0.00000000000E+00  0.00000000000E+00 -0.37242679385E+03  0.37242679388E+03  0.50400001928E-02 0.  1.
    10030    2    1    2    0    0  0.00000000000E+00  0.00000000000E+00  0.11965058611E+04  0.19413594489E+04  0.15288068007E+04 0.  0.
        1    1    3    3  502    0 -0.41585481563E+03 -0.61925580041E+03  0.38614729130E+03  0.83995398959E+03  0.50400001928E-02 0.  1.
       -1    1    3    3    0  502  0.41585481563E+03  0.61925580041E+03  0.81035856983E+03  0.11014054593E+04  0.50400001928E-02 0. -1.
</event>
<event>
 5   0  0.5914645E-04  0.1530017E+04  0.7818609E-02  0.8864734E-01
       -1   -1    0    0    0  501  0.00000000000E+00  0.00000000000E+00  0.13331579180E+04  0.13331579181E+04  0.50400001928E-02 0.  1.
        1   -1    0    0  501    0  0.00000000000E+00  0.00000000000E+00 -0.43898637192E+03  0.43898637195E+03  0.50400001928E-02 0. -1.
    10030    2    1    2    0    0  0.00000000000E+00  0.00000000000E+00  0.89417154612E+03  0.17721442900E+04  0.15300171995E+04 0.  0.
        2    1    3    3  502    0 -0.37098083161E+03  0.32547003163E+03 -0.22995208203E+03  0.54445888637E+03  0.25500000920E-02 0. -1.
       -2    1    3    3    0  502  0.37098083161E+03 -0.32547003163E+03  0.11241236282E+04  0.12276854036E+04  0.25500000920E-02 0.  1.
</event>
<event>
 5   0  0.5914645E-04  0.1478148E+04  0.7818609E-02  0.8899116E-01
       -1   -1    0    0    0  501  0.00000000000E+00  0.00000000000E+00  0.13677887231E+04  0.13677887231E+04  0.50400001928E-02 0. -1.
        1   -1    0    0  501    0  0.00000000000E+00  0.00000000000E+00 -0.39935270153E+03  0.39935270156E+03  0.50400001928E-02 0.  1.
    10030    2    1    2    0    0  0.00000000000E+00  0.00000000000E+00  0.96843602154E+03  0.17671414246E+04  0.14781476539E+04 0.  0.
        2    1    3    3  502    0  0.56580542906E+03  0.35837156502E+03  0.85783025235E+03  0.10883192105E+04  0.25500000920E-02 0. -1.
       -2    1    3    3    0  502 -0.56580542906E+03 -0.35837156502E+03  0.11060576919E+03  0.67882221410E+03  0.25500000920E-02 0.  1.
</event>
<event>
 5   0  0.6146552E-04  0.1480054E+04  0.7818609E-02  0.8897826E-01
       -1   -1    0    0    0  501  0.00000000000E+00  0.00000000000E+00  0.50264345435E+03  0.50264345437E+03  0.50400001928E-02 0.  1.
        1   -1    0    0  501    0  0.00000000000E+00  0.00000000000E+00 -0.10895204346E+04  0.10895204346E+04  0.50400001928E-02 0. -1.
    10030    2    1    2    0    0  0.00000000000E+00  0.00000000000E+00 -0.58687698023E+03  0.15921638890E+04  0.14800544785E+04 0.  0.
        5    1    3    3  502    0  0.27389471176E+03  0.52255896380E+03  0.18708695628E+03  0.61895864401E+03  0.46999998093E+01 0.  1.
       -5    1    3    3    0  502 -0.27389471176E+03 -0.52255896380E+03 -0.77396393652E+03  0.97320524496E+03  0.46999998093E+01 0. -1.
</event>
<event>
 5   0  0.1149716E-03  0.1508555E+04  0.7818609E-02  0.8878784E-01
       -2   -1    0    0    0  501  0.00000000000E+00  0.00000000000E+00  0.92051114163E+03  0.92051114163E+03  0.25500000920E-02 0.  1.
        2   -1    0    0  501    0  0.00000000000E+00  0.00000000000E+00 -0.61806392548E+03  0.61806392548E+03  0.25500000920E-02 0. -1.
    10030    2    1    2    0    0  0.00000000000E+00  0.00000000000E+00  0.30244721615E+03  0.15385750671E+04  0.15085552421E+04 0.  0.
        1    1    3    3  502    0  0.48323794398E+03  0.51658431780E+03 -0.11581968170E+03  0.71679318258E+03  0.50400001928E-02 0. -1.
       -1    1    3    3    0  502 -0.48323794398E+03 -0.51658431780E+03  0.41826689785E+03  0.82178188454E+03  0.50400001928E-02 0.  1.
</event>
<event>
 5   0  0.5606965E-04  0.1455741E+04  0.7818609E-02  0.8914430E-01
        1   -1    0    0  501    0  0.00000000000E+00  0.00000000000E+00  0.57860890422E+03  0.57860890425E+03  0.50400001928E-02 0. -1.
       -1   -1    0    0    0  501  0.00000000000E+00  0.00000000000E+00 -0.91563614933E+03  0.91563614934E+03  0.50400001928E-02 0.  1.
    10030    2    1    2    0    0  0.00000000000E+00  0.00000000000E+00 -0.33702724510E+03  0.14942450536E+04  0.14557406762E+04 0.  0.
        4    1    3    3  502    0 -0.24663569984E+03  0.30079770753E+02  0.53373098632E+03  0.58873112684E+03  0.12699999809E+01 0. -1.
       -4    1    3    3    0  502  0.24663569984E+03 -0.30079770753E+02 -0.87075823143E+03  0.90551392675E+03  0.12699999809E+01 0.  1.
</event>
<event>
 5   0  0.5924403E-04  0.1423636E+04  0.7818609E-02  0.8936885E-01
       -1   -1    0    0    0  501  0.00000000000E+00  0.00000000000E+00  0.59054995996E+03  0.59054995999E+03  0.50400001928E-02 0.  1.
        1   -1    0    0  501    0  0.00000000000E+00  0.00000000000E+00 -0.85798771199E+03  0.85798771200E+03  0.50400001928E-02 0. -1.
    10030    2    1    2    0    0  0.00000000000E+00  0.00000000000E+00 -0.26743775203E+03  0.14485376720E+04  0.14236356402E+04 0.  0.
        1    1    3    3  502    0 -0.18934008162E+03  0.60325303757E+03 -0.46642582358E+03  0.78569519712E+03  0.50400001928E-02 0. -1.
       -1    1    3    3    0  502  0.18934008162E+03 -0.60325303757E+03  0.19898807156E+03  0.66284247487E+03  0.50400001928E-02 0.  1.
</event>
<event>
 5   0  0.1147755E-03  0.1483701E+04  0.7818609E-02  0.8895364E-01
        2   -1    0    0  501    0  0.00000000000E+00  0.00000000000E+00  0.13141168953E+04  0.13141168953E+04  0.25500000920E-02 0. -1.
       -2   -1    0    0    0  501  0.00000000000E+00  0.00000000000E+00 -0.41879245949E+03  0.41879245950E+03  0.25500000920E-02 0.  1.
    10030    2    1    2    0    0  0.00000000000E+00  0.00000000000E+00  0.89532443584E+03  0.17329093548E+04  0.14837011110E+04 0.  0.
        4    1    3    3  502    0  0.31718185267E+03 -0.29067801250E+03 -0.25820032545E+03  0.50176394407E+03  0.12699999809E+01 0.  1.
       -4    1    3    3    0  502 -0.31718185267E+03  0.29067801250E+03  0.11535247613E+04  0.12311454108E+04  0.12699999809E+01 0. -1.
</event>
<event>
 5   0  0.6146552E-04  0.1489603E+04  0.7818609E-02  0.8891397E-01
        1   -1    0    0  501    0  0.00000000000E+00  0.00000000000E+00  0.81629182967E+03  0.81629182968E+03  0.50400001928E-02 0. -1.
       -1   -1    0    0    0  501  0.00000000000E+00  0.00000000000E+00 -0.67957182662E+03  0.67957182664E+03  0.50400001928E-02 0.  1.
    10030    2    1    2    0    0  0.00000000000E+00  0.00000000000E+00  0.13672000305E+03  0.14958636563E+04  0.14896025373E+04 0.  0.
        5    1    3    3  502    0  0.10845421233E+03  0.30407209678E+03  0.74236267943E+03  0.80953480099E+03  0.46999998093E+01 0. -1.
       -5    1    3    3    0  502 -0.10845421233E+03 -0.30407209678E+03 -0.60564267638E+03  0.68632885533E+03  0.46999998093E+01 0.  1.
</event>
<event>
 5   0  0.6146552E-04  0.1413693E+04  0.7818609E-02  0.8943966E-01
        1   -1    0    0  501    0  0.00000000000E+00  0.00000000000E+00  0.10264578649E+04  0.10264578649E+04  0.50400001928E-02 0.  1.
       -1   -1    0    0    0  501  0.00000000000E+00  0.00000000000E+00 -0.48675337337E+03  0.48675337339E+03  0.50400001928E-02 0. -1.
    10030    2    1    2    0    0  0.00000000000E+00  0.00000000000E+00  0.53970449157E+03  0.15132112383E+04  0.14136927932E+04 0.  0.
        5    1    3    3  502    0  0.13731863053E+03  0.68019118010E+03  0.12587187301E+03  0.70525333476E+03  0.46999998093E+01 0.  1.
       -5    1    3    3    0  502 -0.13731863053E+03 -0.68019118010E+03  0.41383261856E+03  0.80795790358E+03  0.46999998093E+01 0. -1.
</event>
<event>
 5   0  0.5606965E-04  0.1498959E+04  0.7818609E-02  0.8885145E-01
        1   -1    0    0  501    0  0.00000000000E+00  0.00000000000E+00  0.64142959553E+03  0.64142959555E+03  0.50400001928E-02 0. -1.
       -1   -1    0    0    0  501  0.00000000000E+00  0.00000000000E+00 -0.87573078770E+03  0.87573078772E+03  0.50400001928E-02 0.  1.
    10030    2    1    2    0    0  0.00000000000E+00  0.00000000000E+00 -0.23430119218E+03  0.15171603833E+04  0.14989591655E+04 0.  0.
        4    1    3    3  502    0  0.53404273863E+03  0.49987240885E+03  0.48061210515E+02  0.73306586653E+03  0.12699999809E+01 0. -1.
       -4    1    3    3    0  502 -0.53404273863E+03 -0.49987240885E+03 -0.28236240269E+03  0.78409451673E+03  0.12699999809E+01 0.  1.
</event>
<event>
 5   0  0.1149716E-03  0.1389027E+04  0.7818609E-02  0.8961800E-01
       -2   -1    0    0    0  501  0.00000000000E+00  0.00000000000E+00  0.40556289126E+03  0.40556289127E+03  0.25500000920E-02 0.  1.
        2   -1    0    0  501    0  0.00000000000E+00  0.00000000000E+00 -0.11893319513E+04  0.11893319513E+04  0.25500000920E-02 0. -1.
    10030    2    1    2    0    0  0.00000000000E+00  0.00000000000E+00 -0.78376906003E+03  0.15948948426E+04  0.13890268606E+04 0.  0.
        1    1    3    3  502    0 -0.40991895889E+03 -0.45801392439E+02  0.24969439459E+03  0.48216035830E+03  0.50400001928E-02 0.  1.
       -1    1    3    3    0  502  0.40991895889E+03  0.45801392439E+02 -0.10334634546E+04  0.11127344843E+04  0.50400001928E-02 0. -1.
</event>
<event>
 5   0  0.5606965E-04  0.1481906E+04  0.7818609E-02  0.8896575E-01
        1   -1    0    0  501    0  0.00000000000E+00  0.00000000000E+00  0.11158677378E+04  0.11158677378E+04  0.50400001928E-02 0.  1.
       -1   -1    0    0    0  501  0.00000000000E+00  0.00000000000E+00 -0.49200363949E+03  0.49200363952E+03  0.50400001928E-02 0. -1.
    10030    2    1    2    0    0  0.00000000000E+00  0.00000000000E+00  0.62386409834E+03  0.16078713774E+04  0.14819055142E+04 0.  0.
        4    1    3    3  502    0 -0.49891650268E+03  0.79610826946E+02 -0.27612918063E+03  0.57576427269E+03  0.12699999809E+01 0. -1.
       -4    1    3    3    0  502  0.49891650268E+03 -0.79610826946E+02  0.89999327897E+03  0.10321071047E+04  0.12699999809E+01 0.  1.
</event>
<event>
 5   0  0.1149716E-03  0.1516581E+04  0.7818609E-02  0.8873501E-01
        2   -1    0    0  501    0  0.00000000000E+00  0.00000000000E+00  0.84706963013E+03  0.84706963013E+03  0.25500000920E-02 0.  1.
       -2   -1    0    0    0  501  0.00000000000E+00  0.00000000000E+00 -0.67881608787E+03  0.67881608787E+03  0.25500000920E-02 0. -1.
    10030    2    1    2    0    0  0.00000000000E+00  0.00000000000E+00  0.16825354226E+03  0.15258857180E+04  0.15165810133E+04 0.  0.
        1    1    3    3  502    0 -0.22615370201E+03  0.62845994098E+03 -0.27709836515E+03  0.72311195423E+03  0.50400001928E-02 0. -1.
       -1    1    3    3    0  502  0.22615370201E+03 -0.62845994098E+03  0.44535190741E+03  0.80277376378E+03  0.50400001928E-02 0.  1.
</event>
<event>
 5   0  0.1126175E-03  0.1488196E+04  0.7818609E-02  0.8892341E-01
       -2   -1    0    0    0  501  0.00000000000E+00  0.00000000000E+00  0.28660287370E+03  0.28660287371E+03  0.25500000920E-02 0. -1.
        2   -1    0    0  501    0  0.00000000000E+00  0.00000000000E+00 -0.19318769123E+04  0.19318769123E+04  0.25500000920E-02 0.  1.
    10030    2    1    2    0    0  0.00000000000E+00  0.00000000000E+00 -0.16452740386E+04  0.22184797860E+04  0.14881955177E+04 0.  0.
        3    1    3    3  502    0  0.30838955162E+03  0.21622568215E+03  0.13400886268E+03  0.39976999218E+03  0.10100000352E+00 0. -1.
       -3    1    3    3    0  502 -0.30838955162E+03 -0.21622568215E+03 -0.17792829012E+04  0.18187097938E+04  0.10100000352E+00 0.  1.
</event>
<event>
 5   0  0.1126175E-03  0.1504693E+04  0.7818609E-02  0.8881338E-01
        2   -1    0    0  501    0  0.00000000000E+00  0.00000000000E+00  0.38244251636E+03  0.38244251637E+03  0.25500000920E-02 0. -1.
       -2   -1    0    0    0  501  0.00000000000E+00  0.00000000000E+00 -0.14800263801E+04  0.14800263801E+04  0.25500000920E-02 0.  1.
    10030    2    1    2    0    0  0.00000000000E+00  0.00000000000E+00 -0.10975838637E+04  0.18624688965E+04  0.15046926770E+04 0.  0.
        3    1    3    3  502    0  0.16050725320E+03  0.12704344930E+03 -0.14448941993E+04  0.14593224023E+04  0.10100000352E+00 0.  1.
       -3    1    3    3    0  502 -0.16050725320E+03 -0.12704344930E+03  0.34731033561E+03  0.40314649417E+03  0.10100000352E+00 0. -1.
</event>
<event>
 5   0  0.5924403E-04  0.1476055E+04  0.7818609E-02  0.8900534E-01
       -1   -1    0    0    0  501  0.00000000000E+00  0.00000000000E+00  0.89729637067E+03  0.89729637068E+03  0.50400001928E-02 0.  1.
        1   -1    0    0  501    0  0.00000000000E+00  0.00000000000E+00 -0.60702864627E+03  0.60702864629E+03  0.50400001928E-02 0. -1.
    10030    2    1    2    0    0  0.00000000000E+00  0.00000000000E+00  0.29026772440E+03  0.15043250170E+04  0.14760550142E+04 0.  0.
        1    1    3    3  502    0 -0.46367000833E+03  0.19223125427E+03 -0.40628491956E+03  0.64576324425E+03  0.50400001928E-02 0. -1.
       -1    1    3    3    0  502  0.46367000833E+03 -0.19223125427E+03  0.69655264396E+03  0.85856177272E+03  0.50400001928E-02 0.  1.
</event>
<event>
 5   0  0.6146552E-04  0.1485313E+04  0.7818609E-02  0.8894279E-01
       -1   -1    0    0    0  501  0.00000000000E+00  0.00000000000E+00  0.72237761639E+03  0.72237761641E+03  0.50400001928E-02 0.  1.
        1   -1    0    0  501    0  0.00000000000E+00  0.00000000000E+00 -0.76350431805E+03  0.76350431807E+03  0.50400001928E-02 0. -1.
    10030    2    1    2    0    0  0.00000000000E+00  0.00000000000E+00 -0.41126701658E+02  0.14858819345E+04  0.14853126666E+04 0.  0.
        5    1    3    3  502    0  0.58637410273E+03  0.45549764695E+03 -0.62874687334E+01  0.74254583494E+03  0.46999998093E+01 0.  1.
       -5    1    3    3    0  502 -0.58637410273E+03 -0.45549764695E+03 -0.34839232925E+02  0.74333609954E+03  0.46999998093E+01 0. -1.
</event>
<event>
 5   0  0.1126175E-03  0.1513791E+04  0.7818609E-02  0.8875334E-01
        2   -1    0    0  501    0  0.00000000000E+00  0.00000000000E+00  0.11467474675E+04  0.11467474675E+04  0.25500000920E-02 0.  1.
       -2   -1    0    0    0  501  0.00000000000E+00  0.00000000000E+00 -0.49957858864E+03  0.49957858865E+03  0.25500000920E-02 0. -1.
    10030    2    1    2    0    0  0.00000000000E+00  0.00000000000E+00  0.64716887882E+03  0.16463260561E+04  0.15137905817E+04 0.  0.
        3    1    3    3  502    0  0.47789575223E+03 -0.54493372280E+03  0.86424870606E+02  0.72993587438E+03  0.10100000352E+00 0. -1.
       -3    1    3    3    0  502 -0.47789575223E+03  0.54493372280E+03  0.56074400821E+03  0.91639018174E+03  0.10100000352E+00 0.  1.
</event>
<event>
 5   0  0.6146552E-04  0.1490381E+04  0.7818609E-02  0.8890875E-01
        1   -1    0    0  501    0  0.00000000000E+00  0.00000000000E+00  0.75917698071E+03  0.75917698072E+03  0.50400001928E-02 0. -1.
       -1   -1    0    0    0  501  0.00000000000E+00  0.00000000000E+00 -0.73146155728E+03  0.73146155730E+03  0.50400001928E-02 0.  1.
    10030    2    1    2    0    0  0.00000000000E+00  0.00000000000E+00  0.27715423425E+02  0.14906385380E+04  0.14903808595E+04 0.  0.
        5    1    3    3  502    0 -0.34200679811E+03 -0.14272990840E+03 -0.63274165691E+03  0.73329705515E+03  0.46999998093E+01 0.  1.
       -5    1    3    3    0  502  0.34200679811E+03  0.14272990840E+03  0.66045708034E+03  0.75734148287E+03  0.46999998093E+01 0. -1.
</event>
<event>
 5   0  0.1097156E-03  0.1491546E+04  0.7818609E-02  0.8890095E-01
        2   -1    0    0  501    0  0.00000000000E+00  0.00000000000E+00  0.37319048225E+03  0.37319048226E+03  0.25500000920E-02 0. -1.
       -2   -1    0    0    0  501  0.00000000000E+00  0.00000000000E+00 -0.14903301059E+04  0.14903301059E+04  0.25500000920E-02 0.  1.
    10030    2    1    2    0    0  0.00000000000E+00  0.00000000000E+00 -0.11171396236E+04  0.18635205881E+04  0.14915455218E+04 0.  0.
        2    1    3    3  502    0 -0.36594232718E+03 -0.16520049499E+03  0.22663119630E+03  0.46104955212E+03  0.25500000920E-02 0. -1.
       -2    1    3    3    0  502  0.36594232718E+03  0.16520049499E+03 -0.13437708199E+04  0.14024710360E+04  0.25500000920E-02 0.  1.
</event>
<event>
 5   0  0.5840834E-04  0.1571631E+04  0.7818609E-02  0.8838168E-01
        1   -1    0    0  501    0  0.00000000000E+00  0.00000000000E+00  0.50258418263E+03  0.50258418265E+03  0.50400001928E-02 0.  1.
       -1   -1    0    0    0  501  0.00000000000E+00  0.00000000000E+00 -0.12286617645E+04  0.12286617646E+04  0.50400001928E-02 0. -1.
    10030    2    1    2    0    0  0.00000000000E+00  0.00000000000E+00 -0.72607758192E+03  0.17312459472E+04  0.15716309601E+04 0.  0.
        3    1    3    3  502    0 -0.37408714096E+02  0.65373556576E+03  0.11552074858E+03  0.66491702894E+03  0.10100000352E+00 0.  1.
       -3    1    3    3    0  502  0.37408714096E+02 -0.65373556576E+03 -0.84159833050E+03  0.10663289183E+04  0.10100000352E+00 0. -1.
</event>
<event>
 5   0  0.5924403E-04  0.1483722E+04  0.7818609E-02  0.8895350E-01
        1   -1    0    0  501    0  0.00000000000E+00  0.00000000000E+00  0.20716578344E+04  0.20716578344E+04  0.50400001928E-02 0. -1.
       -1   -1    0    0    0  501  0.00000000000E+00  0.00000000000E+00 -0.26566066517E+03  0.26566066522E+03  0.50400001928E-02 0.  1.
    10030    2    1    2    0    0  0.00000000000E+00  0.00000000000E+00  0.18059971693E+04  0.23373184997E+04  0.14837223438E+04 0.  0.
        1    1    3    3  502    0  0.21722199059E+03 -0.68840080748E+03  0.11725415811E+04  0.13769294914E+04  0.50400001928E-02 0. -1.
       -1    1    3    3    0  502 -0.21722199059E+03  0.68840080748E+03  0.63345558820E+03  0.96038900826E+03  0.50400001928E-02 0.  1.
</event>
<event>
 5   0  0.5606965E-04  0.1488432E+04  0.7818609E-02  0.8892182E-01
        1   -1    0    0  501    0  0.00000000000E+00  0.00000000000E+00  0.13311964783E+04  0.13311964783E+04  0.50400001928E-02 0. -1.
       -1   -1    0    0    0  501  0.00000000000E+00  0.00000000000E+00 -0.41605988966E+03  0.41605988969E+03  0.50400001928E-02 0.  1.
    10030    2    1    2    0    0  0.00000000000E+00  0.00000000000E+00  0.91513658863E+03  0.17472563680E+04  0.14884320071E+04 0.  0.
        4    1    3    3  502    0  0.37022064530E+03  0.61417900803E+03  0.69110074631E+03  0.99594228476E+03  0.12699999809E+01 0. -1.
       -4    1    3    3    0  502 -0.37022064530E+03 -0.61417900803E+03  0.22403584232E+03  0.75131408323E+03  0.12699999809E+01 0.  1.
</event>
<event>
 5   0  0.1147755E-03  0.1526605E+04  0.7818609E-02  0.8866951E-01
       -2   -1    0    0    0  501  0.00000000000E+00  0.00000000000E+00  0.66363077164E+03  0.66363077165E+03  0.25500000920E-02 0.  1.
        2   -1    0    0  501    0  0.00000000000E+00  0.00000000000E+00 -0.87794384795E+03  0.87794384795E+03  0.25500000920E-02 0. -1.
    10030    2    1    2    0    0  0.00000000000E+00  0.00000000000E+00 -0.21431307630E+03  0.15415746196E+04  0.15266047993E+04 0.  0.
        4    1    3    3  502    0 -0.71090556956E+03  0.27677334863E+03 -0.81635702015E+02  0.76723934732E+03  0.12699999809E+01 0. -1.
       -4    1    3    3    0  502  0.71090556956E+03 -0.27677334863E+03 -0.13267737429E+03  0.77433527227E+03  0.12699999809E+01 0.  1.
</event>
<event>
 5   0  0.5840834E-04  0.1472386E+04  0.7818609E-02  0.8903026E-01
       -1   -1    0    0    0  501  0.00000000000E+00  0.00000000000E+00  0.73580565997E+03  0.73580565999E+03  0.50400001928E-02 0. -1.
        1   -1    0    0  501    0  0.00000000000E+00  0.00000000000E+00 -0.73658103458E+03  0.73658103460E+03  0.50400001928E-02 0.  1.
    10030    2    1    2    0    0  0.00000000000E+00  0.00000000000E+00 -0.77537460509E+00  0.14723866946E+04  0.14723864904E+04 0.  0.
        3    1    3    3  502    0  0.15459711682E+02 -0.97637589716E+02 -0.72991392403E+03  0.73657752363E+03  0.10100000352E+00 0.  1.
       -3    1    3    3    0  502 -0.15459711682E+02  0.97637589716E+02  0.72913854943E+03  0.73580917096E+03  0.10100000352E+00 0. -1.
</event>
<event>
 5   0  0.6146552E-04  0.1532261E+04  0.7818609E-02  0.8863279E-01
       -1   -1    0    0    0  501  0.00000000000E+00  0.00000000000E+00  0.55527296498E+03  0.55527296500E+03  0.50400001928E-02 0.  1.
        1   -1    0    0  501    0  0.00000000000E+00  0.00000000000E+00 -0.10570582285E+04  0.10570582285E+04  0.50400001928E-02 0. -1.
    10030    2    1    2    0    0  0.00000000000E+00  0.00000000000E+00 -0.50178526353E+03  0.16123311935E+04  0.15322608873E+04 0.  0.
        5    1    3    3  502    0 -0.99610023933E+02 -0.29455229368E+03 -0.98766034847E+03  0.10354604119E+04  0.46999998093E+01 0. -1.
       -5    1    3    3    0  502  0.99610023933E+02  0.29455229368E+03  0.48587508494E+03  0.57687078167E+03  0.46999998093E+01 0.  1.
</event>
<event>
 5   0  0.5606965E-04  0.1519241E+04  0.7818609E-02  0.8871758E-01
        1   -1    0    0  501    0  0.00000000000E+00  0.00000000000E+00  0.68839095801E+03  0.68839095803E+03  0.50400001928E-02 0.  1.
       -1   -1    0    0    0  501  0.00000000000E+00  0.00000000000E+00 -0.83821984685E+03  0.83821984687E+03  0.50400001928E-02 0. -1.
    10030    2    1    2    0    0  0.00000000000E+00  0.00000000000E+00 -0.14982888884E+03  0.15266108049E+04  0.15192405516E+04 0.  0.
        4    1    3    3  502    0 -0.12059201752E+03  0.28930278999E+03  0.62038368842E+03  0.69506551687E+03  0.12699999809E+01 0.  1.
       -4    1    3    3    0  502  0.12059201752E+03 -0.28930278999E+03 -0.77021257726E+03  0.83154528803E+03  0.12699999809E+01 0. -1.
</event>
<event>
 5   0  0.1097156E-03  0.1502921E+04  0.7818609E-02  0.8882513E-01
       -2   -1    0    0    0  501  0.00000000000E+00  0.00000000000E+00  0.51366573749E+03  0.51366573750E+03  0.25500000920E-02 0.  1.
        2   -1    0    0  501    0  0.00000000000E+00  0.00000000000E+00 -0.10993385672E+04  0.10993385672E+04  0.25500000920E-02 0. -1.
    10030    2    1    2    0    0  0.00000000000E+00  0.00000000000E+00 -0.58567282969E+03  0.16130043047E+04  0.15029205646E+04 0.  0.
        2    1    3    3  502    0  0.54647198013E+03 -0.46524584193E+03 -0.53187720754E+03  0.89329652546E+03  0.25500000920E-02 0.  1.
       -2    1    3    3    0  502 -0.54647198013E+03  0.46524584193E+03 -0.53795622141E+02  0.71970777922E+03  0.25500000920E-02 0. -1.
</event>
<event>
 5   0  0.1147755E-03  0.1505700E+04  0.7818609E-02  0.8880671E-01
        2   -1    0    0  501    0  0.00000000000E+00  0.00000000000E+00  0.72945160353E+03  0.72945160353E+03  0.25500000920E-02 0.  1.
       -2   -1    0    0    0  501  0.00000000000E+00  0.00000000000E+00 -0.77699885656E+03  0.77699885657E+03  0.25500000920E-02 0. -1.
    10030    2    1    2    0    0  0.00000000000E+00  0.00000000000E+00 -0.47547253036E+02  0.15064504601E+04  0.15056999195E+04 0.  0.
        4    1    3    3  502    0  0.64510973947E+03 -0.34260101547E+02  0.36299521697E+03  0.74101786143E+03  0.12699999809E+01 0.  1.
       -4    1    3    3    0  502 -0.64510973947E+03  0.34260101547E+02 -0.41054247001E+03  0.76543259867E+03  0.12699999809E+01 0. -1.
</event>
<event>
 5   0  0.1147755E-03  0.1503000E+04  0.7818609E-02  0.8882461E-01
       -2   -1    0    0    0  501  0.00000000000E+00  0.00000000000E+00  0.60402427111E+03  0.60402427112E+03  0.25500000920E-02 0. -1.
        2   -1    0    0  501    0  0.00000000000E+00  0.00000000000E+00 -0.93498225105E+03  0.93498225106E+03  0.25500000920E-02 0.  1.
    10030    2    1    2    0    0  0.00000000000E+00  0.00000000000E+00 -0.33095797994E+03  0.15390065222E+04  0.15029996310E+04 0.  0.
        4    1    3    3  502    0  0.61143041551E+03  0.14921794238E+03  0.25501354851E+03  0.67907780862E+03  0.12699999809E+01 0. -1.
       -4    1    3    3    0  502 -0.61143041551E+03 -0.14921794238E+03 -0.58597152844E+03  0.85992871355E+03  0.12699999809E+01 0.  1.
</event>
<event>
 5   0  0.5606965E-04  0.1483889E+04  0.7818609E-02  0.8895238E-01
        1   -1    0    0  501    0  0.00000000000E+00  0.00000000000E+00  0.18234307909E+04  0.18234307910E+04  0.50400001928E-02 0.  1.
       -1   -1    0    0    0  501  0.00000000000E+00  0.00000000000E+00 -0.30189329455E+03  0.30189329460E+03  0.50400001928E-02 0. -1.
    10030    2    1    2    0    0  0.00000000000E+00  0.00000000000E+00  0.15215374964E+04  0.21253240855E+04  0.14838888488E+04 0.  0.
        4    1    3    3  502    0 -0.47948540335E+03 -0.42745016603E+03  0.22897532669E+03  0.68194663252E+03  0.12699999809E+01 0. -1.
       -4    1    3    3    0  502  0.47948540335E+03  0.42745016603E+03  0.12925621697E+04  0.14433774530E+04  0.12699999809E+01 0.  1.
</event>
<event>
 5   0  0.1097156E-03  0.1467296E+04  0.7818609E-02  0.8906497E-01
        2   -1    0    0  501    0  0.00000000000E+00  0.00000000000E+00  0.11016231234E+04  0.11016231234E+04  0.25500000920E-02 0. -1.
       -2   -1    0    0    0  501  0.00000000000E+00  0.00000000000E+00 -0.48858776840E+03  0.48858776841E+03  0.25500000920E-02 0.  1.
    10030    2    1    2    0    0  0.00000000000E+00  0.00000000000E+00  0.61303535498E+03  0.15902108918E+04  0.14672962666E+04 0.  0.
        2    1    3    3  502    0 -0.17160344791E+03  0.57811836032E+03  0.75933492769E+03  0.96966907463E+03  0.25500000920E-02 0. -1.
       -2    1    3    3    0  502  0.17160344791E+03 -0.57811836032E+03 -0.14629957271E+03  0.62054181717E+03  0.25500000920E-02 0.  1.
</event>
<event>
 5   0  0.1147755E-03  0.1497879E+04  0.7818609E-02  0.8885864E-01
        2   -1    0    0  501    0  0.00000000000E+00  0.00000000000E+00  0.16835807762E+04  0.16835807762E+04  0.25500000920E-02 0. -1.
       -2   -1    0    0    0  501  0.00000000000E+00  0.00000000000E+00 -0.33316529945E+03  0.33316529946E+03  0.25500000920E-02 0.  1.
    10030    2    1    2    0    0  0.00000000000E+00  0.00000000000E+00  0.13504154767E+04  0.20167460757E+04  0.14978794257E+04 0.  0.
        4    1    3    3  502    0 -0.50908339788E+03  0.17687616929E+03  0.13754112385E+04  0.14772301016E+04  0.12699999809E+01 0. -1.
       -4    1    3    3    0  502  0.50908339788E+03 -0.17687616929E+03 -0.24995761717E+02  0.53951597406E+03  0.12699999809E+01 0.  1.
</event>
<event>
 5   0  0.1082667E-03  0.1454147E+04  0.7818609E-02  0.8915530E-01
        2   -1    0    0  501    0  0.00000000000E+00  0.00000000000E+00  0.19276569847E+04  0.19276569847E+04  0.25500000920E-02 0.  1.
       -2   -1    0    0    0  501  0.00000000000E+00  0.00000000000E+00 -0.27423756630E+03  0.27423756631E+03  0.25500000920E-02 0. -1.
    10030    2    1    2    0    0  0.00000000000E+00  0.00000000000E+00  0.16534194184E+04  0.22018945510E+04  0.14541471179E+04 0.  0.
        5    1    3    3  502    0 -0.33690370238E+03  0.12313605222E+03 -0.13090220909E+03  0.38186917966E+03  0.46999998093E+01 0. -1.
       -5    1    3    3    0  502  0.33690370238E+03 -0.12313605222E+03  0.17843216275E+04  0.18200253713E+04  0.46999998093E+01 0.  1.
</event>
<event>
 5   0  0.5914645E-04  0.1463424E+04  0.7818609E-02  0.8909146E-01
       -1   -1    0    0    0  501  0.00000000000E+00  0.00000000000E+00  0.35772250922E+03  0.35772250925E+03  0.50400001928E-02 0. -1.
        1   -1    0    0  501    0  0.00000000000E+00  0.00000000000E+00 -0.14966979907E+04  0.14966979907E+04  0.50400001928E-02 0.  1.
    10030    2    1    2    0    0  0.00000000000E+00  0.00000000000E+00 -0.11389754814E+04  0.18544204999E+04  0.14634241501E+04 0.  0.
        2    1    3    3  502    0 -0.55115355945E+03 -0.32041932065E+03 -0.11442438165E+03  0.64771268805E+03  0.25500000920E-02 0. -1.
       -2    1    3    3    0  502  0.55115355945E+03  0.32041932065E+03 -0.10245510998E+04  0.12067078119E+04  0.25500000920E-02 0.  1.
</event>
<event>
 5   0  0.1082667E-03  0.1502776E+04  0.7818609E-02  0.8882609E-01
       -2   -1    0    0    0  501  0.00000000000E+00  0.00000000000E+00  0.15892523256E+04  0.15892523256E+04  0.25500000920E-02 0.  1.
        2   -1    0    0  501    0  0.00000000000E+00  0.00000000000E+00 -0.35525109137E+03  0.35525109138E+03  0.25500000920E-02 0. -1.
    10030    2    1    2    0    0  0.00000000000E+00  0.00000000000E+00  0.12340012342E+04  0.19445034170E+04  0.15027755962E+04 0.  0.
        5    1    3    3  502    0  0.37946594289E+03  0.16065927521E+03 -0.19597739042E+03  0.45632776825E+03  0.46999998093E+01 0. -1.
       -5    1    3    3    0  502 -0.37946594289E+03 -0.16065927521E+03  0.14299786246E+04  0.14881756487E+04  0.46999998093E+01 0.  1.
</event>
<event>
 5   0  0.4070625E-04  0.1455792E+04  0.7818609E-02  0.8914395E-01
       -3   -1    0    0    0  501  0.00000000000E+00  0.00000000000E+00  0.71836045088E+03  0.71836045798E+03  0.10100000352E+00 0. -1.
        3   -1    0    0  501    0  0.00000000000E+00  0.00000000000E+00 -0.73755763981E+03  0.73755764673E+03  0.10100000352E+00 0.  1.
    10030    2    1    2    0    0  0.00000000000E+00  0.00000000000E+00 -0.19197188931E+02  0.14559181047E+04  0.14557915358E+04 0.  0.
        2    1    3    3  502    0 -0.18194474095E+03  0.57515616772E+03 -0.41697139117E+03  0.73333051695E+03  0.25500000920E-02 0.  1.
       -2    1    3    3    0  502  0.18194474095E+03 -0.57515616772E+03  0.39777420224E+03  0.72258758777E+03  0.25500000920E-02 0. -1.
</event>
<event>
 5   0  0.5914645E-04  0.1500774E+04  0.7818609E-02  0.8883938E-01
        1   -1    0    0  501    0  0.00000000000E+00  0.00000000000E+00  0.99696911915E+03  0.99696911916E+03  0.50400001928E-02 0. -1.
       -1   -1    0    0    0  501  0.00000000000E+00  0.00000000000E+00 -0.56479276285E+03  0.56479276288E+03  0.50400001928E-02 0.  1.
    10030    2    1    2    0    0  0.00000000000E+00  0.00000000000E+00  0.43217635629E+03  0.15617618820E+04  0.15007743912E+04 0.  0.
        2    1    3    3  502    0 -0.42495967015E+03 -0.61716585316E+03  0.25766853257E+03  0.79238720601E+03  0.25500000920E-02 0.  1.
       -2    1    3    3    0  502  0.42495967015E+03  0.61716585316E+03  0.17450782372E+03  0.76937467603E+03  0.25500000920E-02 0. -1.
</event>
<event>
 5   0  0.1149716E-03  0.1503284E+04  0.7818609E-02  0.8882272E-01
       -2   -1    0    0    0  501  0.00000000000E+00  0.00000000000E+00  0.32509130963E+03  0.32509130964E+03  0.25500000920E-02 0.  1.
        2   -1    0    0  501    0  0.00000000000E+00  0.00000000000E+00 -0.17378676355E+04  0.17378676355E+04  0.25500000920E-02 0. -1.
    10030    2    1    2    0    0  0.00000000000E+00  0.00000000000E+00 -0.14127763259E+04  0.20629589452E+04  0.15032839593E+04 0.  0.
        1    1    3    3  502    0 -0.11006713399E+03 -0.62099674690E+03 -0.12675469805E+04  0.14157779068E+04  0.50400001928E-02 0. -1.
       -1    1    3    3    0  502  0.11006713399E+03  0.62099674690E+03 -0.14522934545E+03  0.64718103839E+03  0.50400001928E-02 0.  1.
</event>
<event>
 5   0  0.5606965E-04  0.1488902E+04  0.7818609E-02  0.8891866E-01
        1   -1    0    0  501    0  0.00000000000E+00  0.00000000000E+00  0.14100974592E+04  0.14100974592E+04  0.50400001928E-02 0.  1.
       -1   -1    0    0    0  501  0.00000000000E+00  0.00000000000E+00 -0.39302786104E+03  0.39302786107E+03  0.50400001928E-02 0. -1.
    10030    2    1    2    0    0  0.00000000000E+00  0.00000000000E+00  0.10170695982E+04  0.18031253203E+04  0.14889023988E+04 0.  0.
        4    1    3    3  502    0 -0.63642763902E+03  0.96961551019E+02  0.96128411084E+03  0.11569401180E+04  0.12699999809E+01 0.  1.
       -4    1    3    3    0  502  0.63642763902E+03 -0.96961551019E+02  0.55785487312E+02  0.64618520223E+03  0.12699999809E+01 0. -1.
</event>
<event>
 5   0  0.1082667E-03  0.1499591E+04  0.7818609E-02  0.8884725E-01
       -2   -1    0    0    0  501  0.00000000000E+00  0.00000000000E+00  0.12587959947E+04  0.12587959947E+04  0.25500000920E-02 0. -1.
        2   -1    0    0  501    0  0.00000000000E+00  0.00000000000E+00 -0.44661203192E+03  0.44661203192E+03  0.25500000920E-02 0.  1.
    10030    2    1    2    0    0  0.00000000000E+00  0.00000000000E+00  0.81218396276E+03  0.17054080266E+04  0.14995911936E+04 0.  0.
        5    1    3    3  502    0  0.23047106598E+03  0.38530541133E+03  0.10890040293E+04  0.11779342249E+04  0.46999998093E+01 0. -1.
       -5    1    3    3    0  502 -0.23047106598E+03 -0.38530541133E+03 -0.27682006657E+03  0.52747380173E+03  0.46999998093E+01 0.  1.
</event>
<event>
 5   0  0.6146552E-04  0.1248094E+04  0.7818609E-02  0.9071771E-01
        1   -1    0    0  501    0  0.00000000000E+00  0.00000000000E+00  0.23905297052E+03  0.23905297058E+03  0.50400001928E-02 0.  1.
       -1   -1    0    0    0  501  0.00000000000E+00  0.00000000000E+00 -0.16290729086E+04  0.16290729086E+04  0.50400001928E-02 0. -1.
    10030    2    1    2    0    0  0.00000000000E+00  0.00000000000E+00 -0.13900199381E+04  0.18681258792E+04  0.12480940959E+04 0.  0.
        5    1    3    3  502    0  0.47720722037E+03 -0.31035839748E+03 -0.31233798896E+03  0.64932747933E+03  0.46999998093E+01 0.  1.
       -5    1    3    3    0  502 -0.47720722037E+03  0.31035839748E+03 -0.10776819491E+04  0.12187983999E+04  0.46999998093E+01 0. -1.
</event>
<event>
 5   0  0.5840834E-04  0.1500902E+04  0.7818609E-02  0.8883853E-01
       -1   -1    0    0    0  501  0.00000000000E+00  0.00000000000E+00  0.44919559301E+03  0.44919559304E+03  0.50400001928E-02 0.  1.
        1   -1    0    0  501    0  0.00000000000E+00  0.00000000000E+00 -0.12537457476E+04  0.12537457476E+04  0.50400001928E-02 0. -1.
    10030    2    1    2    0    0  0.00000000000E+00  0.00000000000E+00 -0.80455015458E+03  0.17029413406E+04  0.15009024813E+04 0.  0.
        3    1    3    3  502    0 -0.60345495125E+03 -0.72434262409E+02 -0.90172647457E+03  0.10874351685E+04  0.10100000352E+00 0.  1.
       -3    1    3    3    0  502  0.60345495125E+03  0.72434262409E+02  0.97176319996E+02  0.61550617213E+03  0.10100000352E+00 0. -1.
</event>
<event>
 5   0  0.4070625E-04  0.1579018E+04  0.7818609E-02  0.8833543E-01
        3   -1    0    0  501    0  0.00000000000E+00  0.00000000000E+00  0.65309537174E+03  0.65309537955E+03  0.10100000352E+00 0.  1.
       -3   -1    0    0    0  501  0.00000000000E+00  0.00000000000E+00 -0.95441567290E+03  0.95441567824E+03  0.10100000352E+00 0. -1.
    10030    2    1    2    0    0  0.00000000000E+00  0.00000000000E+00 -0.30132030116E+03  0.16075110578E+04  0.15790180104E+04 0.  0.
        3    1    3    3  502    0  0.77290474585E+03 -0.15882448794E+03 -0.17792959583E+03  0.80886705669E+03  0.10100000352E+00 0. -1.
       -3    1    3    3    0  502 -0.77290474585E+03  0.15882448794E+03 -0.12339070533E+03  0.79864400110E+03  0.10100000352E+00 0.  1.
</event>
<event>
 5   0  0.1097156E-03  0.1488813E+04  0.7818609E-02  0.8891927E-01
        2   -1    0    0  501    0  0.00000000000E+00  0.00000000000E+00  0.17030304492E+04  0.17030304492E+04  0.25500000920E-02 0. -1.
       -2   -1    0    0    0  501  0.00000000000E+00  0.00000000000E+00 -0.32538518459E+03  0.32538518460E+03  0.25500000920E-02 0.  1.
    10030    2    1    2    0    0  0.00000000000E+00  0.00000000000E+00  0.13776452646E+04  0.20284156338E+04  0.14888127848E+04 0.  0.
        2    1    3    3  502    0  0.32625184224E+03 -0.66646633810E+03  0.76969264718E+03  0.10691325528E+04  0.25500000920E-02 0.  1.
       -2    1    3    3    0  502 -0.32625184224E+03  0.66646633810E+03  0.60795261741E+03  0.95928308095E+03  0.25500000920E-02 0. -1.
</event>
<event>
 5   0  0.1082667E-03  0.1483683E+04  0.7818609E-02  0.8895376E-01
       -2   -1    0    0    0  501  0.00000000000E+00  0.00000000000E+00  0.91621416964E+03  0.91621416964E+03  0.25500000920E-02 0. -1.
        2   -1    0    0  501    0  0.00000000000E+00  0.00000000000E+00 -0.60065538526E+03  0.60065538527E+03  0.25500000920E-02 0.  1.
    10030    2    1    2    0    0  0.00000000000E+00  0.00000000000E+00  0.31555878438E+03  0.15168695549E+04  0.14836832210E+04 0.  0.
        5    1    3    3  502    0 -0.44598849025E+03 -0.57982478067E+03  0.31715317453E+02  0.73220930141E+03  0.46999998093E+01 0. -1.
       -5    1    3    3    0  502  0.44598849025E+03  0.57982478067E+03  0.28384346692E+03  0.78466025350E+03  0.46999998093E+01 0.  1.
</event>
<event>
 5   0  0.5606965E-04  0.1428573E+04  0.7818609E-02  0.8933392E-01
       -1   -1    0    0    0  501  0.00000000000E+00  0.00000000000E+00  0.61001569598E+03  0.61001569600E+03  0.50400001928E-02 0.  1.
        1   -1    0    0  501    0  0.00000000000E+00  0.00000000000E+00 -0.83638040407E+03  0.83638040408E+03  0.50400001928E-02 0. -1.
    10030    2    1    2    0    0  0.00000000000E+00  0.00000000000E+00 -0.22636470809E+03  0.14463961001E+04  0.14285729583E+04 0.  0.
        4    1    3    3  502    0  0.67915958954E+03 -0.15320051128E+03  0.48419174895E+02  0.69790699532E+03  0.12699999809E+01 0. -1.
       -4    1    3    3    0  502 -0.67915958954E+03  0.15320051128E+03 -0.27478388298E+03  0.74848910477E+03  0.12699999809E+01 0.  1.
</event>
<event>
 5   0  0.1147755E-03  0.1468664E+04  0.7818609E-02  0.8905563E-01
        2   -1    0    0  501    0  0.00000000000E+00  0.00000000000E+00  0.22552079186E+04  0.22552079186E+04  0.25500000920E-02 0.  1.
       -2   -1    0    0    0  501  0.00000000000E+00  0.00000000000E+00 -0.23911031774E+03  0.23911031776E+03  0.25500000920E-02 0. -1.
    10030    2    1    2    0    0  0.00000000000E+00  0.00000000000E+00  0.20160976009E+04  0.24943182364E+04  0.14686639943E+04 0.  0.
        4    1    3    3  502    0 -0.38576232059E+03 -0.17667003322E+03  0.20259552243E+04  0.20699084647E+04  0.12699999809E+01 0.  1.
       -4    1    3    3    0  502  0.38576232059E+03  0.17667003322E+03 -0.98576234262E+01  0.42440977164E+03  0.12699999809E+01 0. -1.
</event>
<event>
 5   0  0.6146552E-04  0.1484840E+04  0.7818609E-02  0.8894597E-01
       -1   -1    0    0    0  501  0.00000000000E+00  0.00000000000E+00  0.84169081695E+03  0.84169081696E+03  0.50400001928E-02 0. -1.
        1   -1    0    0  501    0  0.00000000000E+00  0.00000000000E+00 -0.65485775140E+03  0.65485775141E+03  0.50400001928E-02 0.  1.
    10030    2    1    2    0    0  0.00000000000E+00  0.00000000000E+00  0.18683306555E+03  0.14965485684E+04  0.14848404033E+04 0.  0.
        5    1    3    3  502    0  0.12302444851E+03  0.28884302321E+02 -0.64392315385E+03  0.65622285538E+03  0.46999998093E+01 0.  1.
       -5    1    3    3    0  502 -0.12302444851E+03 -0.28884302321E+02  0.83075621940E+03  0.84032571300E+03  0.46999998093E+01 0. -1.
</event>
<event>
 5   0  0.1097156E-03  0.1482256E+04  0.7818609E-02  0.8896339E-01
       -2   -1    0    0    0  501  0.00000000000E+00  0.00000000000E+00  0.28683796187E+03  0.28683796188E+03  0.25500000920E-02 0.  1.
        2   -1    0    0  501    0  0.00000000000E+00  0.00000000000E+00 -0.19149166430E+04  0.19149166430E+04  0.25500000920E-02 0. -1.
    10030    2    1    2    0    0  0.00000000000E+00  0.00000000000E+00 -0.16280786812E+04  0.22017546049E+04  0.14822561007E+04 0.  0.
        2    1    3    3  502    0  0.14625839153E+03  0.12731822341E+02 -0.18931010441E+04  0.18987851852E+04  0.25500000920E-02 0. -1.
       -2    1    3    3    0  502 -0.14625839153E+03 -0.12731822341E+02  0.26502236295E+03  0.30296941969E+03  0.25500000920E-02 0.  1.
</event>
<event>
 5   0  0.1126175E-03  0.1544743E+04  0.7818609E-02  0.8855232E-01
       -2   -1    0    0    0  501  0.00000000000E+00  0.00000000000E+00  0.51224324817E+03  0.51224324817E+03  0.25500000920E-02 0. -1.
        2   -1    0    0  501    0  0.00000000000E+00  0.00000000000E+00 -0.11645991484E+04  0.11645991484E+04  0.25500000920E-02 0.  1.
    10030    2    1    2    0    0  0.00000000000E+00  0.00000000000E+00 -0.65235590027E+03  0.16768423966E+04  0.15447434099E+04 0.  0.
        3    1    3    3  502    0  0.71765530026E+03 -0.26182401320E+03 -0.44983664613E+03  0.88652916606E+03  0.10100000352E+00 0.  1.
       -3    1    3    3    0  502 -0.71765530026E+03  0.26182401320E+03 -0.20251925414E+03  0.79031323055E+03  0.10100000352E+00 0. -1.
</event>
<event>
 5   0  0.5914645E-04  0.1512220E+04  0.7818609E-02  0.8876367E-01
        1   -1    0    0  501    0  0.00000000000E+00  0.00000000000E+00  0.11814351291E+04  0.11814351292E+04  0.50400001928E-02 0. -1.
       -1   -1    0    0    0  501  0.00000000000E+00  0.00000000000E+00 -0.48390503882E+03  0.48390503885E+03  0.50400001928E-02 0.  1.
    10030    2    1    2    0    0  0.00000000000E+00  0.00000000000E+00  0.69753009032E+03  0.16653401680E+04  0.15122201058E+04 0.  0.
        2    1    3    3  502    0  0.14760013720E+03 -0.56027391907E+03  0.88376398233E+03  0.10567551473E+04  0.25500000920E-02 0. -1.
       -2    1    3    3    0  502 -0.14760013720E+03  0.56027391907E+03 -0.18623389200E+03  0.60858502070E+03  0.25500000920E-02 0.  1.
</event>
<event>
 5   0  0.6146552E-04  0.1502524E+04  0.7818609E-02  0.8882776E-01
       -1   -1    0    0    0  501  0.00000000000E+00  0.00000000000E+00  0.59487569454E+03  0.59487569456E+03  0.50400001928E-02 0. -1.
        1   -1    0    0  501    0  0.00000000000E+00  0.00000000000E+00 -0.94876053403E+03  0.94876053405E+03  0.50400001928E-02 0.  1.
    10030    2    1    2    0    0  0.00000000000E+00  0.00000000000E+00 -0.35388483950E+03  0.15436362286E+04  0.15025239854E+04 0.  0.
        5    1    3    3  502    0  0.26408755857E+03 -0.70238266938E+03 -0.14005970730E+03  0.76336260352E+03  0.46999998093E+01 0. -1.
       -5    1    3    3    0  502 -0.26408755857E+03  0.70238266938E+03 -0.21382513220E+03  0.78027362508E+03  0.46999998093E+01 0.  1.
</event>
<event>
 5   0  0.1126175E-03  0.1478694E+04  0.7818609E-02  0.8898746E-01
       -2   -1    0    0    0  501  0.00000000000E+00  0.00000000000E+00  0.71218458010E+03  0.71218458010E+03  0.25500000920E-02 0. -1.
        2   -1    0    0  501    0  0.00000000000E+00  0.00000000000E+00 -0.76754530058E+03  0.76754530059E+03  0.25500000920E-02 0.  1.
    10030    2    1    2    0    0  0.00000000000E+00  0.00000000000E+00 -0.55360720486E+02  0.14797298807E+04  0.14786939205E+04 0.  0.
        3    1    3    3  502    0 -0.29070920804E+03  0.59289201427E+03 -0.36048084083E+03  0.75231591172E+03  0.10100000352E+00 0.  1.
       -3    1    3    3    0  502  0.29070920804E+03 -0.59289201427E+03  0.30512012034E+03  0.72741396897E+03  0.10100000352E+00 0. -1.
</event>
<event>
 5   0  0.1126175E-03  0.1541264E+04  0.7818609E-02  0.8857467E-01
       -2   -1    0    0    0  501  0.00000000000E+00  0.00000000000E+00  0.68882776692E+03  0.68882776693E+03  0.25500000920E-02 0.  1.
        2   -1    0    0  501    0  0.00000000000E+00  0.00000000000E+00 -0.86215112558E+03  0.86215112559E+03  0.25500000920E-02 0. -1.
    10030    2    1    2    0    0  0.00000000000E+00  0.00000000000E+00 -0.17332335866E+03  0.15509788925E+04  0.15412639418E+04 0.  0.
        3    1    3    3  502    0  0.22705438763E+03 -0.66791807442E+03  0.22546330851E+03  0.74060918356E+03  0.10100000352E+00 0.  1.
       -3    1    3    3    0  502 -0.22705438763E+03  0.66791807442E+03 -0.39878666717E+03  0.81036970896E+03  0.10100000352E+00 0. -1.
</event>
<event>
 5   0  0.1097156E-03  0.1501171E+04  0.7818609E-02  0.8883674E-01
        2   -1    0    0  501    0  0.00000000000E+00  0.00000000000E+00  0.68220489764E+03  0.68220489765E+03  0.25500000920E-02 0.  1.
       -2   -1    0    0    0  501  0.00000000000E+00  0.00000000000E+00 -0.82582070130E+03  0.82582070130E+03  0.25500000920E-02 0. -1.
    10030    2    1    2    0    0  0.00000000000E+00  0.00000000000E+00 -0.14361580365E+03  0.15080255989E+04  0.15011714452E+04 0.  0.
        2    1    3    3  502    0 -0.48840260169E+03 -0.80063702038E+02  0.49506607229E+03  0.70002693782E+03  0.25500000920E-02 0.  1.
       -2    1    3    3    0  502  0.48840260169E+03  0.80063702038E+02 -0.63868187595E+03  0.80799866113E+03  0.25500000920E-02 0. -1.
</event>
<event>
 5   0  0.5924403E-04  0.1521589E+04  0.7818609E-02  0.8870222E-01
        1   -1    0    0  501    0  0.00000000000E+00  0.00000000000E+00  0.96205798713E+03  0.96205798714E+03  0.50400001928E-02 0. -1.
       -1   -1    0    0    0  501  0.00000000000E+00  0.00000000000E+00 -0.60163591954E+03  0.60163591956E+03  0.50400001928E-02 0.  1.
    10030    2    1    2    0    0  0.00000000000E+00  0.00000000000E+00  0.36042206759E+03  0.15636939067E+04  0.15215894870E+04 0.  0.
        1    1    3    3  502    0 -0.80916926450E+02 -0.36897713101E+03 -0.49845441200E+03  0.62541863824E+03  0.50400001928E-02 0.  1.
       -1    1    3    3    0  502  0.80916926450E+02  0.36897713101E+03  0.85887647959E+03  0.93827526846E+03  0.50400001928E-02 0. -1.
</event>
<event>
 5   0  0.1147755E-03  0.1488560E+04  0.7818609E-02  0.8892097E-01
       -2   -1    0    0    0  501  0.00000000000E+00  0.00000000000E+00  0.10378002828E+04  0.10378002828E+04  0.25500000920E-02 0.  1.
        2   -1    0    0  501    0  0.00000000000E+00  0.00000000000E+00 -0.53377549663E+03  0.53377549664E+03  0.25500000920E-02 0. -1.
    10030    2    1    2    0    0  0.00000000000E+00  0.00000000000E+00  0.50402478612E+03  0.15715757794E+04  0.14885595203E+04 0.  0.
        4    1    3    3  502    0  0.18561562838E+03 -0.30783235654E+03  0.94007678243E+03  0.10064590856E+04  0.12699999809E+01 0.  1.
       -4    1    3    3    0  502 -0.18561562838E+03  0.30783235654E+03 -0.43605199630E+03  0.56511669380E+03  0.12699999809E+01 0. -1.
</event>
<event>
 5   0  0.1126175E-03  0.1503690E+04  0.7818609E-02  0.8882003E-01
        2   -1    0    0  501    0  0.00000000000E+00  0.00000000000E+00  0.67893116987E+03  0.67893116988E+03  0.25500000920E-02 0. -1.
       -2   -1    0    0    0  501  0.00000000000E+00  0.00000000000E+00 -0.83258910890E+03  0.83258910891E+03  0.25500000920E-02 0.  1.
    10030    2    1    2    0    0  0.00000000000E+00  0.00000000000E+00 -0.15365793903E+03  0.15115202788E+04  0.15036897256E+04 0.  0.
        3    1    3    3  502    0  0.52783211854E+03 -0.52913191504E+03 -0.15900650823E+03  0.76411413332E+03  0.10100000352E+00 0. -1.
       -3    1    3    3    0  502 -0.52783211854E+03  0.52913191504E+03  0.53485691966E+01  0.74740614546E+03  0.10100000352E+00 0.  1.
</event>
<event>
 5   0  0.5914645E-04  0.1393509E+04  0.7818609E-02  0.8958531E-01
        1   -1    0    0  501    0  0.00000000000E+00  0.00000000000E+00  0.21256139345E+04  0.21256139345E+04  0.50400001928E-02 0. -1.
       -1   -1    0    0    0  501  0.00000000000E+00  0.00000000000E+00 -0.22838897090E+03  0.22838897096E+03  0.50400001928E-02 0.  1.
    10030    2    1    2    0    0  0.00000000000E+00  0.00000000000E+00  0.18972249636E+04  0.23540029055E+04  0.13935089223E+04 0.  0.
        2    1    3    3  502    0  0.55947923573E+03 -0.24557348079E+03  0.15143098487E+04  0.16329291680E+04  0.25500000920E-02 0. -1.
       -2    1    3    3    0  502 -0.55947923573E+03  0.24557348079E+03  0.38291511488E+03  0.72107373749E+03  0.25500000920E-02 0.  1.
</event>
<event>
 5   0  0.5924403E-04  0.1408411E+04  0.7818609E-02  0.8947752E-01
       -1   -1    0    0    0  501  0.00000000000E+00  0.00000000000E+00  0.37876012829E+03  0.37876012832E+03  0.50400001928E-02 0. -1.
        1   -1    0    0  501    0  0.00000000000E+00  0.00000000000E+00 -0.13092868359E+04  0.13092868359E+04  0.50400001928E-02 0.  1.
    10030    2    1    2    0    0  0.00000000000E+00  0.00000000000E+00 -0.93052670760E+03  0.16880469642E+04  0.14084113745E+04 0.  0.
        1    1    3    3  502    0  0.13224067045E+03 -0.66187828288E+03 -0.22455172326E+03  0.71133250503E+03  0.50400001928E-02 0.  1.
       -1    1    3    3    0  502 -0.13224067045E+03  0.66187828288E+03 -0.70597498434E+03  0.97671445919E+03  0.50400001928E-02 0. -1.
</event>
<event>
 5   0  0.1149716E-03  0.1372167E+04  0.7818609E-02  0.8974216E-01
        2   -1    0    0  501    0  0.00000000000E+00  0.00000000000E+00  0.10426070407E+04  0.10426070407E+04  0.25500000920E-02 0. -1.
       -2   -1    0    0    0  501  0.00000000000E+00  0.00000000000E+00 -0.45147435627E+03  0.45147435628E+03  0.25500000920E-02 0.  1.
    10030    2    1    2    0    0  0.00000000000E+00  0.00000000000E+00  0.59113268439E+03  0.14940813969E+04  0.13721666700E+04 0.  0.
        1    1    3    3  502    0 -0.18087034373E+03 -0.62864745352E+03  0.70307224391E+02  0.65791702204E+03  0.50400001928E-02 0. -1.
       -1    1    3    3    0  502  0.18087034373E+03  0.62864745352E+03  0.52082546000E+03  0.83616437491E+03  0.50400001928E-02 0.  1.
</event>
<event>
 5   0  0.6146552E-04  0.1504074E+04  0.7818609E-02  0.8881748E-01
        1   -1    0    0  501    0  0.00000000000E+00  0.00000000000E+00  0.50943529967E+03  0.50943529969E+03  0.50400001928E-02 0.  1.
       -1   -1    0    0    0  501  0.00000000000E+00  0.00000000000E+00 -0.11101699651E+04  0.11101699651E+04  0.50400001928E-02 0. -1.
    10030    2    1    2    0    0  0.00000000000E+00  0.00000000000E+00 -0.60073466541E+03  0.16196052648E+04  0.15040741589E+04 0.  0.
        5    1    3    3  502    0 -0.59950454053E+03  0.42855561014E+03 -0.46178888003E+03  0.86967618388E+03  0.46999998093E+01 0.  1.
       -5    1    3    3    0  502  0.59950454053E+03 -0.42855561014E+03 -0.13894578539E+03  0.74992908090E+03  0.46999998093E+01 0. -1.
</event>
<event>
 5   0  0.5924403E-04  0.1492463E+04  0.7818609E-02  0.8889481E-01
        1   -1    0    0  501    0  0.00000000000E+00  0.00000000000E+00  0.57616494437E+03  0.57616494439E+03  0.50400001928E-02 0.  1.
       -1   -1    0    0    0  501  0.00000000000E+00  0.00000000000E+00 -0.96649595576E+03  0.96649595577E+03  0.50400001928E-02 0. -1.
    10030    2    1    2    0    0  0.00000000000E+00  0.00000000000E+00 -0.39033101139E+03  0.15426609002E+04  0.14924625136E+04 0.  0.
        1    1    3    3  502    0 -0.33979501894E+03 -0.55364352980E+03  0.18444624984E+03  0.67527937336E+03  0.50400001928E-02 0.  1.
       -1    1    3    3    0  502  0.33979501894E+03  0.55364352980E+03 -0.57477726122E+03  0.86738152680E+03  0.50400001928E-02 0. -1.
</event>
<event>
 5   0  0.1126175E-03  0.1461295E+04  0.7818609E-02  0.8910607E-01
        2   -1    0    0  501    0  0.00000000000E+00  0.00000000000E+00  0.75466287259E+03  0.75466287259E+03  0.25500000920E-02 0.  1.
       -2   -1    0    0    0  501  0.00000000000E+00  0.00000000000E+00 -0.70739672440E+03  0.70739672440E+03  0.25500000920E-02 0. -1.
    10030    2    1    2    0    0  0.00000000000E+00  0.00000000000E+00  0.47266148191E+02  0.14620595970E+04  0.14612953762E+04 0.  0.
        3    1    3    3  502    0  0.13221149972E+03 -0.54110386609E+03  0.49671516674E+03  0.74632381821E+03  0.10100000352E+00 0.  1.
       -3    1    3    3    0  502 -0.13221149972E+03  0.54110386609E+03 -0.44944901855E+03  0.71573577878E+03  0.10100000352E+00 0. -1.
</event>
<event>
 5   0  0.5924403E-04  0.1538380E+04  0.7818609E-02  0.8859324E-01
       -1   -1    0    0    0  501  0.00000000000E+00  0.00000000000E+00  0.13396581672E+04  0.13396581672E+04  0.50400001928E-02 0. -1.
        1   -1    0    0  501    0  0.00000000000E+00  0.00000000000E+00 -0.44164482888E+03  0.44164482891E+03  0.50400001928E-02 0.  1.
    10030    2    1    2    0    0  0.00000000000E+00  0.00000000000E+00  0.89801333831E+03  0.17813029961E+04  0.15383797997E+04 0.  0.
        1    1    3    3  502    0 -0.45345736629E+02 -0.65010249193E+03 -0.24128412456E+02  0.65212856566E+03  0.50400001928E-02 0.  1.
       -1    1    3    3    0  502  0.45345736629E+02  0.65010249193E+03  0.92214175077E+03  0.11291744304E+04  0.50400001928E-02 0. -1.
</event>
<event>
 5   0  0.5924403E-04  0.1499583E+04  0.7818609E-02  0.8884730E-01
        1   -1    0    0  501    0  0.00000000000E+00  0.00000000000E+00  0.87785617740E+03  0.87785617742E+03  0.50400001928E-02 0.  1.
       -1   -1    0    0    0  501  0.00000000000E+00  0.00000000000E+00 -0.64040912130E+03  0.64040912132E+03  0.50400001928E-02 0. -1.
    10030    2    1    2    0    0  0.00000000000E+00  0.00000000000E+00  0.23744705611E+03  0.15182652987E+04  0.14995827463E+04 0.  0.
        1    1    3    3  502    0  0.32776063398E+03 -0.65411629686E+03  0.28475418999E+03  0.78509879108E+03  0.50400001928E-02 0.  1.
       -1    1    3    3    0  502 -0.32776063398E+03  0.65411629686E+03 -0.47307133887E+02  0.73316650766E+03  0.50400001928E-02 0. -1.
</event>
<event>
 5   0  0.5914645E-04  0.1483222E+04  0.7818609E-02  0.8895687E-01
        1   -1    0    0  501    0  0.00000000000E+00  0.00000000000E+00  0.85462768978E+03  0.85462768980E+03  0.50400001928E-02 0. -1.
       -1   -1    0    0    0  501  0.00000000000E+00  0.00000000000E+00 -0.64354012242E+03  0.64354012244E+03  0.50400001928E-02 0.  1.
    10030    2    1    2    0    0  0.00000000000E+00  0.00000000000E+00  0.21108756736E+03  0.14981678122E+04  0.14832224488E+04 0.  0.
        2    1    3    3  502    0  0.68944079743E+03  0.90056139189E+02  0.36611309458E+03  0.78579737808E+03  0.25500000920E-02 0.  1.
       -2    1    3    3    0  502 -0.68944079743E+03 -0.90056139189E+02 -0.15502552723E+03  0.71237043416E+03  0.25500000920E-02 0. -1.
</event>
<event>
 5   0  0.1149716E-03  0.1469653E+04  0.7818609E-02  0.8904888E-01
       -2   -1    0    0    0  501  0.00000000000E+00  0.00000000000E+00  0.70213667544E+03  0.70213667544E+03  0.25500000920E-02 0.  1.
        2   -1    0    0  501    0  0.00000000000E+00  0.00000000000E+00 -0.76903809112E+03  0.76903809113E+03  0.25500000920E-02 0. -1.
    10030    2    1    2    0    0  0.00000000000E+00  0.00000000000E+00 -0.66901415687E+02  0.14711747666E+04  0.14696528142E+04 0.  0.
        1    1    3    3  502    0  0.15693571620E+03  0.62512712380E+03  0.31984126984E+03  0.71952149227E+03  0.50400001928E-02 0.  1.
       -1    1    3    3    0  502 -0.15693571620E+03 -0.62512712380E+03 -0.38674268553E+03  0.75165327429E+03  0.50400001928E-02 0. -1.
</event>
<event>
 5   0  0.4070625E-04  0.1524512E+04  0.7818609E-02  0.8868314E-01
        3   -1    0    0  501    0  0.00000000000E+00  0.00000000000E+00  0.64826078561E+03  0.64826079348E+03  0.10100000352E+00 0.  1.
       -3   -1    0    0    0  501  0.00000000000E+00  0.00000000000E+00 -0.89629756253E+03  0.89629756822E+03  0.10100000352E+00 0. -1.
    10030    2    1    2    0    0  0.00000000000E+00  0.00000000000E+00 -0.24803677692E+03  0.15445583617E+04  0.15245124762E+04 0.  0.
        3    1    3    3  502    0 -0.64160086975E+03  0.23861238179E+03  0.21572210284E+03  0.71772110228E+03  0.10100000352E+00 0.  1.
       -3    1    3    3    0  502  0.64160086975E+03 -0.23861238179E+03 -0.46375887976E+03  0.82683725942E+03  0.10100000352E+00 0. -1.
</event>
<event>
 5   0  0.1126175E-03  0.1868629E+04  0.7818609E-02  0.8670631E-01
        2   -1    0    0  501    0  0.00000000000E+00  0.00000000000E+00  0.11198190987E+04  0.11198190987E+04  0.25500000920E-02 0.  1.
       -2   -1    0    0    0  501  0.00000000000E+00  0.00000000000E+00 -0.77953960598E+03  0.77953960598E+03  0.25500000920E-02 0. -1.
    10030    2    1    2    0    0  0.00000000000E+00  0.00000000000E+00  0.34027949274E+03  0.18993587047E+04  0.18686287368E+04 0.  0.
        3    1    3    3  502    0 -0.29222411096E+02 -0.24033319705E+03 -0.74710241227E+03  0.78535088944E+03  0.10100000352E+00 0. -1.
       -3    1    3    3    0  502  0.29222411096E+02  0.24033319705E+03  0.10873819050E+04  0.11140078153E+04  0.10100000352E+00 0.  1.
</event>
<event>
 5   0  0.1097156E-03  0.1518112E+04  0.7818609E-02  0.8872497E-01
        2   -1    0    0  501    0  0.00000000000E+00  0.00000000000E+00  0.10948249931E+04  0.10948249931E+04  0.25500000920E-02 0.  1.
       -2   -1    0    0    0  501  0.00000000000E+00  0.00000000000E+00 -0.52626304900E+03  0.52626304901E+03  0.25500000920E-02 0. -1.
    10030    2    1    2    0    0  0.00000000000E+00  0.00000000000E+00  0.56856194408E+03  0.16210880421E+04  0.15181119050E+04 0.  0.
        2    1    3    3  502    0 -0.48256817031E+03 -0.28539316417E+03  0.83069854996E+03  0.10021882947E+04  0.25500000920E-02 0.  1.
       -2    1    3    3    0  502  0.48256817031E+03  0.28539316417E+03 -0.26213660588E+03  0.61889974737E+03  0.25500000920E-02 0. -1.
</event>
<event>
 5   0  0.1149716E-03  0.1479169E+04  0.7818609E-02  0.8898425E-01
       -2   -1    0    0    0  501  0.00000000000E+00  0.00000000000E+00  0.27853817014E+03  0.27853817015E+03  0.25500000920E-02 0.  1.
        2   -1    0    0  501    0  0.00000000000E+00  0.00000000000E+00 -0.19637707615E+04  0.19637707615E+04  0.25500000920E-02 0. -1.
    10030    2    1    2    0    0  0.00000000000E+00  0.00000000000E+00 -0.16852325914E+04  0.22423089317E+04  0.14791688403E+04 0.  0.
        1    1    3    3  502    0  0.24540349958E+03 -0.66321373163E+03 -0.11709454208E+04  0.13679139264E+04  0.50400001928E-02 0. -1.
       -1    1    3    3    0  502 -0.24540349958E+03  0.66321373163E+03 -0.51428717057E+03  0.87439500529E+03  0.50400001928E-02 0.  1.
</event>
<event>
 5   0  0.1126175E-03  0.1483138E+04  0.7818609E-02  0.8895744E-01
       -2   -1    0    0    0  501  0.00000000000E+00  0.00000000000E+00  0.97091083283E+03  0.97091083283E+03  0.25500000920E-02 0. -1.
        2   -1    0    0  501    0  0.00000000000E+00  0.00000000000E+00 -0.56640054961E+03  0.56640054961E+03  0.25500000920E-02 0.  1.
    10030    2    1    2    0    0  0.00000000000E+00  0.00000000000E+00  0.40451028322E+03  0.15373113824E+04  0.14831377945E+04 0.  0.
        3    1    3    3  502    0 -0.29160361642E+02 -0.22591822507E+03 -0.52923805936E+03  0.57617905618E+03  0.10100000352E+00 0.  1.
       -3    1    3    3    0  502  0.29160361642E+02  0.22591822507E+03  0.93374834258E+03  0.96113232626E+03  0.10100000352E+00 0. -1.
</event>
<event>
 5   0  0.5924403E-04  0.1492331E+04  0.7818609E-02  0.8889569E-01
       -1   -1    0    0    0  501  0.00000000000E+00  0.00000000000E+00  0.73890551610E+03  0.73890551612E+03  0.50400001928E-02 0. -1.
        1   -1    0    0  501    0  0.00000000000E+00  0.00000000000E+00 -0.75349712090E+03  0.75349712091E+03  0.50400001928E-02 0.  1.
    10030    2    1    2    0    0  0.00000000000E+00  0.00000000000E+00 -0.14591604797E+02  0.14924026370E+04  0.14923313024E+04 0.  0.
        1    1    3    3  502    0  0.93184105904E+02 -0.63535027517E+03  0.37273542710E+03  0.74248565535E+03  0.50400001928E-02 0. -1.
       -1    1    3    3    0  502 -0.93184105904E+02  0.63535027517E+03 -0.38732703190E+03  0.74991698168E+03  0.50400001928E-02 0.  1.
</event>
<event>
 5   0  0.4070625E-04  0.1515396E+04  0.7818609E-02  0.8874279E-01
       -3   -1    0    0    0  501  0.00000000000E+00  0.00000000000E+00  0.76220125284E+03  0.76220125953E+03  0.10100000352E+00 0. -1.
        3   -1    0    0  501    0  0.00000000000E+00  0.00000000000E+00 -0.75322160244E+03  0.75322160921E+03  0.10100000352E+00 0.  1.
    10030    2    1    2    0    0  0.00000000000E+00  0.00000000000E+00  0.89796504042E+01  0.15154228687E+04  0.15153962640E+04 0.  0.
        1    1    3    3  502    0 -0.63006541062E+03 -0.31133827365E+03  0.28767762987E+03  0.75938946599E+03  0.50400001928E-02 0. -1.
       -1    1    3    3    0  502  0.63006541062E+03  0.31133827365E+03 -0.27869797947E+03  0.75603340276E+03  0.50400001928E-02 0.  1.
</event>
<event>
 5   0  0.1147755E-03  0.1506790E+04  0.7818609E-02  0.8879950E-01
       -2   -1    0    0    0  501  0.00000000000E+00  0.00000000000E+00  0.42601341118E+03  0.42601341118E+03  0.25500000920E-02 0.  1.
        2   -1    0    0  501    0  0.00000000000E+00  0.00000000000E+00 -0.13323610289E+04  0.13323610289E+04  0.25500000920E-02 0. -1.
    10030    2    1    2    0    0  0.00000000000E+00  0.00000000000E+00 -0.90634761769E+03  0.17583744401E+04  0.15067895232E+04 0.  0.
        4    1    3    3  502    0  0.27547391019E+03 -0.54092444476E+03 -0.97390411896E+03  0.11475957372E+04  0.12699999809E+01 0. -1.
       -4    1    3    3    0  502 -0.27547391019E+03  0.54092444476E+03  0.67556501266E+02  0.61077870289E+03  0.12699999809E+01 0.  1.
</event>
<event>
 5   0  0.1097156E-03  0.1506210E+04  0.7818609E-02  0.8880334E-01
       -2   -1    0    0    0  501  0.00000000000E+00  0.00000000000E+00  0.97466142755E+03  0.97466142755E+03  0.25500000920E-02 0.  1.
        2   -1    0    0  501    0  0.00000000000E+00  0.00000000000E+00 -0.58191205694E+03  0.58191205694E+03  0.25500000920E-02 0. -1.
    10030    2    1    2    0    0  0.00000000000E+00  0.00000000000E+00  0.39274937061E+03  0.15565734845E+04  0.15062101263E+04 0.  0.
        2    1    3    3  502    0 -0.75261762968E+01  0.75260802790E+03  0.16919412683E+03  0.77142863542E+03  0.25500000920E-02 0. -1.
       -2    1    3    3    0  502  0.75261762968E+01 -0.75260802790E+03  0.22355524379E+03  0.78514484907E+03  0.25500000920E-02 0.  1.
</event>
<event>
 5   0  0.5914645E-04  0.1490457E+04  0.7818609E-02  0.8890823E-01
        1   -1    0    0  501    0  0.00000000000E+00  0.00000000000E+00  0.71742430360E+03  0.71742430362E+03  0.50400001928E-02 0.  1.
       -1   -1    0    0    0  501  0.00000000000E+00  0.00000000000E+00 -0.77411075124E+03  0.77411075125E+03  0.50400001928E-02 0. -1.
    10030    2    1    2    0    0  0.00000000000E+00  0.00000000000E+00 -0.56686447635E+02  0.14915350549E+04  0.14904574689E+04 0.  0.
        2    1    3    3  502    0 -0.55675646139E+03  0.49515014106E+03 -0.42997825162E+02  0.74632448202E+03  0.25500000920E-02 0.  1.
       -2    1    3    3    0  502  0.55675646139E+03 -0.49515014106E+03 -0.13688622472E+02  0.74521057285E+03  0.25500000920E-02 0. -1.
</event>
<event>
 5   0  0.5914645E-04  0.1457983E+04  0.7818609E-02  0.8912885E-01
        1   -1    0    0  501    0  0.00000000000E+00  0.00000000000E+00  0.12522910387E+04  0.12522910387E+04  0.50400001928E-02 0. -1.
       -1   -1    0    0    0  501  0.00000000000E+00  0.00000000000E+00 -0.42436492497E+03  0.42436492500E+03  0.50400001928E-02 0.  1.
    10030    2    1    2    0    0  0.00000000000E+00  0.00000000000E+00  0.82792611375E+03  0.16766559637E+04  0.14579827059E+04 0.  0.
        2    1    3    3  502    0 -0.54545789915E+03 -0.39667841107E+03  0.95788780100E+02  0.68121477667E+03  0.25500000920E-02 0.  1.
       -2    1    3    3    0  502  0.54545789915E+03  0.39667841107E+03  0.73213733364E+03  0.99544118705E+03  0.25500000920E-02 0. -1.
</event>
<event>
 5   0  0.1149716E-03  0.1451199E+04  0.7818609E-02  0.8917570E-01
        2   -1    0    0  501    0  0.00000000000E+00  0.00000000000E+00  0.65872418107E+03  0.65872418107E+03  0.25500000920E-02 0. -1.
       -2   -1    0    0    0  501  0.00000000000E+00  0.00000000000E+00 -0.79926422907E+03  0.79926422907E+03  0.25500000920E-02 0.  1.
    10030    2    1    2    0    0  0.00000000000E+00  0.00000000000E+00 -0.14054004800E+03  0.14579884101E+04  0.14511990556E+04 0.  0.
        1    1    3    3  502    0 -0.39204334716E+03 -0.55188023231E+03  0.19215094312E+03  0.70369862998E+03  0.50400001928E-02 0. -1.
       -1    1    3    3    0  502  0.39204334716E+03  0.55188023231E+03 -0.33269099112E+03  0.75428978017E+03  0.50400001928E-02 0.  1.
</event>
<event>
 5   0  0.5924403E-04  0.1500001E+04  0.7818609E-02  0.8884452E-01
       -1   -1    0    0    0  501  0.00000000000E+00  0.00000000000E+00  0.10641743503E+04  0.10641743503E+04  0.50400001928E-02 0.  1.
        1   -1    0    0  501    0  0.00000000000E+00  0.00000000000E+00 -0.52857979940E+03  0.52857979942E+03  0.50400001928E-02 0. -1.
    10030    2    1    2    0    0  0.00000000000E+00  0.00000000000E+00  0.53559455090E+03  0.15927541497E+04  0.15000014195E+04 0.  0.
        1    1    3    3  502    0  0.42367787560E+03 -0.11144644710E+03 -0.37859592815E+03  0.57901479228E+03  0.50400001928E-02 0. -1.
       -1    1    3    3    0  502 -0.42367787560E+03  0.11144644710E+03  0.91419047905E+03  0.10137393575E+04  0.50400001928E-02 0.  1.
</event>
<event>
 5   0  0.6146552E-04  0.1359181E+04  0.7818609E-02  0.8983907E-01
       -1   -1    0    0    0  501  0.00000000000E+00  0.00000000000E+00  0.30541151807E+03  0.30541151812E+03  0.50400001928E-02 0. -1.
        1   -1    0    0  501    0  0.00000000000E+00  0.00000000000E+00 -0.15122006000E+04  0.15122006000E+04  0.50400001928E-02 0.  1.
    10030    2    1    2    0    0  0.00000000000E+00  0.00000000000E+00 -0.12067890820E+04  0.18176121182E+04  0.13591813432E+04 0.  0.
        5    1    3    3  502    0  0.59660375384E+03  0.38888332340E+02 -0.17136047624E+03  0.62196048452E+03  0.46999998093E+01 0. -1.
       -5    1    3    3    0  502 -0.59660375384E+03 -0.38888332340E+02 -0.10354286057E+04  0.11956516336E+04  0.46999998093E+01 0.  1.
</event>
<event>
 5   0  0.5924403E-04  0.1505456E+04  0.7818609E-02  0.8880833E-01
       -1   -1    0    0    0  501  0.00000000000E+00  0.00000000000E+00  0.10759222648E+04  0.10759222648E+04  0.50400001928E-02 0.  1.
        1   -1    0    0  501    0  0.00000000000E+00  0.00000000000E+00 -0.52661713062E+03  0.52661713064E+03  0.50400001928E-02 0. -1.
    10030    2    1    2    0    0  0.00000000000E+00  0.00000000000E+00  0.54930513422E+03  0.16025393955E+04  0.15054555402E+04 0.  0.
        1    1    3    3  502    0  0.23847070512E+03  0.42160672094E+03 -0.33867970862E+03  0.59103675808E+03  0.50400001928E-02 0. -1.
       -1    1    3    3    0  502 -0.23847070512E+03 -0.42160672094E+03  0.88798484284E+03  0.10115026374E+04  0.50400001928E-02 0.  1.
</event>
<event>
 5   0  0.5840834E-04  0.1473514E+04  0.7818609E-02  0.8902259E-01
        1   -1    0    0  501    0  0.00000000000E+00  0.00000000000E+00  0.83553426316E+03  0.83553426317E+03  0.50400001928E-02 0.  1.
       -1   -1    0    0    0  501  0.00000000000E+00  0.00000000000E+00 -0.64965717774E+03  0.64965717776E+03  0.50400001928E-02 0. -1.
    10030    2    1    2    0    0  0.00000000000E+00  0.00000000000E+00  0.18587708541E+03  0.14851914409E+04  0.14735139380E+04 0.  0.
        3    1    3    3  502    0 -0.12935837815E+03 -0.14946134409E+03 -0.62243154735E+03  0.65306456397E+03  0.10100000352E+00 0. -1.
       -3    1    3    3    0  502  0.12935837815E+03  0.14946134409E+03  0.80830863276E+03  0.83212687697E+03  0.10100000352E+00 0.  1.
</event>
<event>
 5   0  0.1126175E-03  0.1489987E+04  0.7818609E-02  0.8891139E-01
        2   -1    0    0  501    0  0.00000000000E+00  0.00000000000E+00  0.12551995116E+04  0.12551995116E+04  0.25500000920E-02 0.  1.
       -2   -1    0    0    0  501  0.00000000000E+00  0.00000000000E+00 -0.44217305717E+03  0.44217305718E+03  0.25500000920E-02 0. -1.
    10030    2    1    2    0    0  0.00000000000E+00  0.00000000000E+00  0.81302645444E+03  0.16973725688E+04  0.14899871213E+04 0.  0.
        3    1    3    3  502    0  0.66421076137E+03 -0.10267843695E+03  0.77264521592E+03  0.10240602701E+04  0.10100000352E+00 0.  1.
       -3    1    3    3    0  502 -0.66421076137E+03  0.10267843695E+03  0.40381238523E+02  0.67331229869E+03  0.10100000352E+00 0. -1.
</event>
<event>
 5   0  0.1149716E-03  0.1492153E+04  0.7818609E-02  0.8889688E-01
       -2   -1    0    0    0  501  0.00000000000E+00  0.00000000000E+00  0.49417492344E+03  0.49417492344E+03  0.25500000920E-02 0.  1.
        2   -1    0    0  501    0  0.00000000000E+00  0.00000000000E+00 -0.11263824839E+04  0.11263824839E+04  0.25500000920E-02 0. -1.
    10030    2    1    2    0    0  0.00000000000E+00  0.00000000000E+00 -0.63220756045E+03  0.16205574073E+04  0.14921527774E+04 0.  0.
        1    1    3    3  502    0 -0.28035190923E+03  0.19692378483E+03  0.40369133673E+03  0.52947414046E+03  0.50400001928E-02 0.  1.
       -1    1    3    3    0  502  0.28035190923E+03 -0.19692378483E+03 -0.10358988972E+04  0.10910832669E+04  0.50400001928E-02 0. -1.
</event>
<event>
 5   0  0.4070625E-04  0.1402937E+04  0.7818609E-02  0.8951696E-01
        3   -1    0    0  501    0  0.00000000000E+00  0.00000000000E+00  0.83564752965E+03  0.83564753576E+03  0.10100000352E+00 0. -1.
       -3   -1    0    0    0  501  0.00000000000E+00  0.00000000000E+00 -0.58883410951E+03  0.58883411818E+03  0.10100000352E+00 0.  1.
    10030    2    1    2    0    0  0.00000000000E+00  0.00000000000E+00  0.24681342014E+03  0.14244816539E+04  0.14029366051E+04 0.  0.
        3    1    3    3  502    0 -0.19536482921E+03 -0.51875053274E+03  0.55987829448E+03  0.78786626184E+03  0.10100000352E+00 0. -1.
       -3    1    3    3    0  502  0.19536482921E+03  0.51875053274E+03 -0.31306487434E+03  0.63661539210E+03  0.10100000352E+00 0.  1.
</event>
<event>
 5   0  0.1147755E-03  0.1489386E+04  0.7818609E-02  0.8891542E-01
        2   -1    0    0  501    0  0.00000000000E+00  0.00000000000E+00  0.11955842733E+04  0.11955842733E+04  0.25500000920E-02 0. -1.
       -2   -1    0    0    0  501  0.00000000000E+00  0.00000000000E+00 -0.46384629483E+03  0.46384629483E+03  0.25500000920E-02 0.  1.
    10030    2    1    2    0    0  0.00000000000E+00  0.00000000000E+00  0.73173797850E+03  0.16594305682E+04  0.14893855583E+04 0.  0.
        4    1    3    3  502    0  0.30838639416E+03 -0.62752456583E+03  0.80335626232E+02  0.70380727090E+03  0.12699999809E+01 0.  1.
       -4    1    3    3    0  502 -0.30838639416E+03  0.62752456583E+03  0.65140235227E+03  0.95562329726E+03  0.12699999809E+01 0. -1.
</event>
<event>
 5   0  0.5914645E-04  0.1470362E+04  0.7818609E-02  0.8904404E-01
       -1   -1    0    0    0  501  0.00000000000E+00  0.00000000000E+00  0.15440531612E+04  0.15440531612E+04  0.50400001928E-02 0. -1.
        1   -1    0    0  501    0  0.00000000000E+00  0.00000000000E+00 -0.35004718810E+03  0.35004718814E+03  0.50400001928E-02 0.  1.
    10030    2    1    2    0    0  0.00000000000E+00  0.00000000000E+00  0.11940059731E+04  0.18941003493E+04  0.14703624960E+04 0.  0.
        2    1    3    3  502    0 -0.32148517871E+03  0.40437006134E+03  0.12708407470E+04  0.13718250875E+04  0.25500000920E-02 0. -1.
       -2    1    3    3    0  502  0.32148517871E+03 -0.40437006134E+03 -0.76834773857E+02  0.52227526182E+03  0.25500000920E-02 0.  1.
</event>
<event>
 5   0  0.1082667E-03  0.1504228E+04  0.7818609E-02  0.8881646E-01
        2   -1    0    0  501    0  0.00000000000E+00  0.00000000000E+00  0.13201384380E+04  0.13201384380E+04  0.25500000920E-02 0.  1.
       -2   -1    0    0    0  501  0.00000000000E+00  0.00000000000E+00 -0.42849688285E+03  0.42849688286E+03  0.25500000920E-02 0. -1.
    10030    2    1    2    0    0  0.00000000000E+00  0.00000000000E+00  0.89164155514E+03  0.17486353208E+04  0.15042276498E+04 0.  0.
        5    1    3    3  502    0 -0.43256164686E+03 -0.27909251693E+03 -0.19158638060E+03  0.54929922862E+03  0.46999998093E+01 0. -1.
       -5    1    3    3    0  502  0.43256164686E+03  0.27909251693E+03  0.10832279357E+04  0.11993360922E+04  0.46999998093E+01 0.  1.
</event>
<event>
 5   0  0.1082667E-03  0.1514162E+04  0.7818609E-02  0.8875089E-01
       -2   -1    0    0    0  501  0.00000000000E+00  0.00000000000E+00  0.38983844104E+03  0.38983844104E+03  0.25500000920E-02 0. -1.
        2   -1    0    0  501    0  0.00000000000E+00  0.00000000000E+00 -0.14702808382E+04  0.14702808382E+04  0.25500000920E-02 0.  1.
    10030    2    1    2    0    0  0.00000000000E+00  0.00000000000E+00 -0.10804423972E+04  0.18601192792E+04  0.15141624614E+04 0.  0.
        5    1    3    3  502    0  0.36577973121E+03  0.50748875627E+03 -0.10640356807E+04  0.12343150608E+04  0.46999998093E+01 0.  1.
       -5    1    3    3    0  502 -0.36577973121E+03 -0.50748875627E+03 -0.16406716488E+02  0.62580421847E+03  0.46999998093E+01 0. -1.
</event>
<event>
 5   0  0.1126175E-03  0.1496000E+04  0.7818609E-02  0.8887118E-01
       -2   -1    0    0    0  501  0.00000000000E+00  0.00000000000E+00  0.32480967696E+03  0.32480967697E+03  0.25500000920E-02 0.  1.
        2   -1    0    0  501    0  0.00000000000E+00  0.00000000000E+00 -0.17225584288E+04  0.17225584288E+04  0.25500000920E-02 0. -1.
    10030    2    1    2    0    0  0.00000000000E+00  0.00000000000E+00 -0.13977487518E+04  0.20473681057E+04  0.14959995278E+04 0.  0.
        3    1    3    3  502    0  0.22133299743E+03  0.38962515965E+03  0.12078752994E+03  0.46409664767E+03  0.10100000352E+00 0.  1.
       -3    1    3    3    0  502 -0.22133299743E+03 -0.38962515965E+03 -0.15185362817E+04  0.15832714581E+04  0.10100000352E+00 0. -1.
</event>
<event>
 5   0  0.1082667E-03  0.1437187E+04  0.7818609E-02  0.8927332E-01
       -2   -1    0    0    0  501  0.00000000000E+00  0.00000000000E+00  0.50457630463E+03  0.50457630464E+03  0.25500000920E-02 0.  1.
        2   -1    0    0  501    0  0.00000000000E+00  0.00000000000E+00 -0.10233865457E+04  0.10233865457E+04  0.25500000920E-02 0. -1.
    10030    2    1    2    0    0  0.00000000000E+00  0.00000000000E+00 -0.51881024109E+03  0.15279628504E+04  0.14371869766E+04 0.  0.
        5    1    3    3  502    0 -0.26631796246E+03 -0.65414040489E+03 -0.40016709165E+03  0.81177627317E+03  0.46999998093E+01 0. -1.
       -5    1    3    3    0  502  0.26631796246E+03  0.65414040489E+03 -0.11864314944E+03  0.71618657719E+03  0.46999998093E+01 0.  1.
</event>
<event>
 5   0  0.1097156E-03  0.1500539E+04  0.7818609E-02  0.8884095E-01
       -2   -1    0    0    0  501  0.00000000000E+00  0.00000000000E+00  0.53592573184E+03  0.53592573185E+03  0.25500000920E-02 0. -1.
        2   -1    0    0  501    0  0.00000000000E+00  0.00000000000E+00 -0.10503399290E+04  0.10503399290E+04  0.25500000920E-02 0.  1.
    10030    2    1    2    0    0  0.00000000000E+00  0.00000000000E+00 -0.51441419716E+03  0.15862656609E+04  0.15005388301E+04 0.  0.
        2    1    3    3  502    0 -0.45638155297E+03  0.32805284466E+03 -0.78259297738E+03  0.96351157701E+03  0.25500000920E-02 0.  1.
       -2    1    3    3    0  502  0.45638155297E+03 -0.32805284466E+03  0.26817878022E+03  0.62275408385E+03  0.25500000920E-02 0. -1.
</event>
<event>
 5   0  0.1082667E-03  0.1497850E+04  0.7818609E-02  0.8885884E-01
        2   -1    0    0  501    0  0.00000000000E+00  0.00000000000E+00  0.46872184076E+03  0.46872184077E+03  0.25500000920E-02 0. -1.
       -2   -1    0    0    0  501  0.00000000000E+00  0.00000000000E+00 -0.11966344908E+04  0.11966344908E+04  0.25500000920E-02 0.  1.
    10030    2    1    2    0    0  0.00000000000E+00  0.00000000000E+00 -0.72791265002E+03  0.16653563315E+04  0.14978500876E+04 0.  0.
        5    1    3    3  502    0 -0.24766244375E+03 -0.26644777222E+03 -0.10917901601E+04  0.11508079532E+04  0.46999998093E+01 0.  1.
       -5    1    3    3    0  502  0.24766244375E+03  0.26644777222E+03  0.36387751008E+03  0.51454837839E+03  0.46999998093E+01 0. -1.
</event>
<event>
 5   0  0.1097156E-03  0.1493612E+04  0.7818609E-02  0.8888712E-01
        2   -1    0    0  501    0  0.00000000000E+00  0.00000000000E+00  0.14106924546E+04  0.14106924546E+04  0.25500000920E-02 0. -1.
       -2   -1    0    0    0  501  0.00000000000E+00  0.00000000000E+00 -0.39535131545E+03  0.39535131546E+03  0.25500000920E-02 0.  1.
    10030    2    1    2    0    0  0.00000000000E+00  0.00000000000E+00  0.10153411392E+04  0.18060437701E+04  0.14936118875E+04 0.  0.
        2    1    3    3  502    0 -0.71429753384E+03  0.21639361085E+03  0.53901503864E+03  0.92064345626E+03  0.25500000920E-02 0. -1.
       -2    1    3    3    0  502  0.71429753384E+03 -0.21639361085E+03  0.47632610051E+03  0.88540031381E+03  0.25500000920E-02 0.  1.
</event>
<event>
 5   0  0.1147755E-03  0.1558121E+04  0.7818609E-02  0.8846697E-01
        2   -1    0    0  501    0  0.00000000000E+00  0.00000000000E+00  0.65933299921E+03  0.65933299922E+03  0.25500000920E-02 0.  1.
       -2   -1    0    0    0  501  0.00000000000E+00  0.00000000000E+00 -0.92052910790E+03  0.92052910790E+03  0.25500000920E-02 0. -1.
    10030    2    1    2    0    0  0.00000000000E+00  0.00000000000E+00 -0.26119610868E+03  0.15798621071E+04  0.15581209421E+04 0.  0.
        4    1    3    3  502    0 -0.43802356813E+03  0.34769008784E+03 -0.68055033068E+03  0.88085379542E+03  0.12699999809E+01 0. -1.
       -4    1    3    3    0  502  0.43802356813E+03 -0.34769008784E+03  0.41935422199E+03  0.69900831170E+03  0.12699999809E+01 0.  1.
</event>
<event>
 5   0  0.1149716E-03  0.1327710E+04  0.7818609E-02  0.9007875E-01
        2   -1    0    0  501    0  0.00000000000E+00  0.00000000000E+00  0.59330870709E+03  0.59330870710E+03  0.25500000920E-02 0.  1.
       -2   -1    0    0    0  501  0.00000000000E+00  0.00000000000E+00 -0.74278924489E+03  0.74278924490E+03  0.25500000920E-02 0. -1.
    10030    2    1    2    0    0  0.00000000000E+00  0.00000000000E+00 -0.14948053780E+03  0.13360979520E+04  0.13277097974E+04 0.  0.
        1    1    3    3  502    0  0.40020240404E+03 -0.28852841405E+03 -0.52172291760E+03  0.71805669183E+03  0.50400001928E-02 0. -1.
       -1    1    3    3    0  502 -0.40020240404E+03  0.28852841405E+03  0.37224237980E+03  0.61804126016E+03  0.50400001928E-02 0.  1.
</event>
<event>
 5   0  0.5924403E-04  0.1501727E+04  0.7818609E-02  0.8883305E-01
        1   -1    0    0  501    0  0.00000000000E+00  0.00000000000E+00  0.14940698490E+04  0.14940698490E+04  0.50400001928E-02 0.  1.
       -1   -1    0    0    0  501  0.00000000000E+00  0.00000000000E+00 -0.37735581141E+03  0.37735581145E+03  0.50400001928E-02 0. -1.
    10030    2    1    2    0    0  0.00000000000E+00  0.00000000000E+00  0.11167140376E+04  0.18714256605E+04  0.15017269262E+04 0.  0.
        1    1    3    3  502    0  0.25108836206E+03 -0.27340874091E+03 -0.25500804092E+03  0.45036297153E+03  0.50400001928E-02 0. -1.
       -1    1    3    3    0  502 -0.25108836206E+03  0.27340874091E+03  0.13717220785E+04  0.14210626890E+04  0.50400001928E-02 0.  1.
</event>
<event>
 5   0  0.6146552E-04  0.1498946E+04  0.7818609E-02  0.8885154E-01
        1   -1    0    0  501    0  0.00000000000E+00  0.00000000000E+00  0.71821857260E+03  0.71821857261E+03  0.50400001928E-02 0. -1.
       -1   -1    0    0    0  501  0.00000000000E+00  0.00000000000E+00 -0.78208766300E+03  0.78208766302E+03  0.50400001928E-02 0.  1.
    10030    2    1    2    0    0  0.00000000000E+00  0.00000000000E+00 -0.63869090407E+02  0.15003062356E+04  0.14989461431E+04 0.  0.
        5    1    3    3  502    0 -0.40130342326E+03  0.14180360371E+03  0.58550045367E+03  0.72386847617E+03  0.46999998093E+01 0. -1.
       -5    1    3    3    0  502  0.40130342326E+03 -0.14180360371E+03 -0.64936954408E+03  0.77643775946E+03  0.46999998093E+01 0.  1.
</event>
<event>
 5   0  0.5914645E-04  0.1454401E+04  0.7818609E-02  0.8915355E-01
       -1   -1    0    0    0  501  0.00000000000E+00  0.00000000000E+00  0.85462033899E+03  0.85462033900E+03  0.50400001928E-02 0. -1.
        1   -1    0    0  501    0  0.00000000000E+00  0.00000000000E+00 -0.61877848653E+03  0.61877848655E+03  0.50400001928E-02 0.  1.
    10030    2    1    2    0    0  0.00000000000E+00  0.00000000000E+00  0.23584185246E+03  0.14733988255E+04  0.14544011550E+04 0.  0.
        2    1    3    3  502    0  0.38167336172E+03  0.25815231767E+03  0.68785598261E+03  0.82792694543E+03  0.25500000920E-02 0. -1.
       -2    1    3    3    0  502 -0.38167336172E+03 -0.25815231767E+03 -0.45201413014E+03  0.64547188011E+03  0.25500000920E-02 0.  1.
</event>
<event>
 5   0  0.6146552E-04  0.1498030E+04  0.7818609E-02  0.8885764E-01
        1   -1    0    0  501    0  0.00000000000E+00  0.00000000000E+00  0.92679186724E+03  0.92679186725E+03  0.50400001928E-02 0. -1.
       -1   -1    0    0    0  501  0.00000000000E+00  0.00000000000E+00 -0.60533940016E+03  0.60533940018E+03  0.50400001928E-02 0.  1.
    10030    2    1    2    0    0  0.00000000000E+00  0.00000000000E+00  0.32145246708E+03  0.15321312674E+04  0.14980302173E+04 0.  0.
        5    1    3    3  502    0  0.56493264525E+03  0.49135230262E+03  0.18182503930E+03  0.77049231915E+03  0.46999998093E+01 0.  1.
       -5    1    3    3    0  502 -0.56493264525E+03 -0.49135230262E+03  0.13962742777E+03  0.76163894828E+03  0.46999998093E+01 0. -1.
</event>
<event>
 5   0  0.1126175E-03  0.1503970E+04  0.7818609E-02  0.8881817E-01
       -2   -1    0    0    0  501  0.00000000000E+00  0.00000000000E+00  0.75336043388E+03  0.75336043389E+03  0.25500000920E-02 0. -1.
        2   -1    0    0  501    0  0.00000000000E+00  0.00000000000E+00 -0.75061218883E+03  0.75061218884E+03  0.25500000920E-02 0.  1.
    10030    2    1    2    0    0  0.00000000000E+00  0.00000000000E+00  0.27482450533E+01  0.15039726227E+04  0.15039701118E+04 0.  0.
        3    1    3    3  502    0 -0.36879315016E+03 -0.33866176812E+03 -0.55968058457E+03  0.75096108271E+03  0.10100000352E+00 0.  1.
       -3    1    3    3    0  502  0.36879315016E+03  0.33866176812E+03  0.56242882963E+03  0.75301154001E+03  0.10100000352E+00 0. -1.
</event>
<event>
 5   0  0.1147755E-03  0.1471129E+04  0.7818609E-02  0.8903882E-01
       -2   -1    0    0    0  501  0.00000000000E+00  0.00000000000E+00  0.33919447456E+03  0.33919447457E+03  0.25500000920E-02 0.  1.
        2   -1    0    0  501    0  0.00000000000E+00  0.00000000000E+00 -0.15951172417E+04  0.15951172417E+04  0.25500000920E-02 0. -1.
    10030    2    1    2    0    0  0.00000000000E+00  0.00000000000E+00 -0.12559227672E+04  0.19343117163E+04  0.14711287567E+04 0.  0.
        4    1    3    3  502    0 -0.27821739394E+03 -0.18587390744E+03  0.23333909323E+03  0.40792496011E+03  0.12699999809E+01 0.  1.
       -4    1    3    3    0  502  0.27821739394E+03  0.18587390744E+03 -0.14892618604E+04  0.15263867562E+04  0.12699999809E+01 0. -1.
</event>
<event>
 5   0  0.5606965E-04  0.1577148E+04  0.7818609E-02  0.8834711E-01
        1   -1    0    0  501    0  0.00000000000E+00  0.00000000000E+00  0.17108209732E+04  0.17108209732E+04  0.50400001928E-02 0.  1.
       -1   -1    0    0    0  501  0.00000000000E+00  0.00000000000E+00 -0.36347988988E+03  0.36347988991E+03  0.50400001928E-02 0. -1.
    10030    2    1    2    0    0  0.00000000000E+00  0.00000000000E+00  0.13473410833E+04  0.20743008631E+04  0.15771480831E+04 0.  0.
        4    1    3    3  502    0  0.10458609260E+03 -0.72782420446E+03  0.29893343847E+03  0.79374374762E+03  0.12699999809E+01 0.  1.
       -4    1    3    3    0  502 -0.10458609260E+03  0.72782420446E+03  0.10484076448E+04  0.12805571155E+04  0.12699999809E+01 0. -1.
</event>
<event>
 5   0  0.5914645E-04  0.1505644E+04  0.7818609E-02  0.8880708E-01
       -1   -1    0    0    0  501  0.00000000000E+00  0.00000000000E+00  0.37894412470E+03  0.37894412473E+03  0.50400001928E-02 0. -1.
        1   -1    0    0  501    0  0.00000000000E+00  0.00000000000E+00 -0.14955792367E+04  0.14955792367E+04  0.50400001928E-02 0.  1.
    10030    2    1    2    0    0  0.00000000000E+00  0.00000000000E+00 -0.11166351120E+04  0.18745233614E+04  0.15056440015E+04 0.  0.
        2    1    3    3  502    0  0.22721042622E+03  0.70970683221E+03 -0.42519824833E+03  0.85796381967E+03  0.25500000920E-02 0. -1.
       -2    1    3    3    0  502 -0.22721042622E+03 -0.70970683221E+03 -0.69143686364E+03  0.10165595417E+04  0.25500000920E-02 0.  1.
</event>
<event>
 5   0  0.5914645E-04  0.1512142E+04  0.7818609E-02  0.8876419E-01
        1   -1    0    0  501    0  0.00000000000E+00  0.00000000000E+00  0.75166898654E+03  0.75166898656E+03  0.50400001928E-02 0.  1.
       -1   -1    0    0    0  501  0.00000000000E+00  0.00000000000E+00 -0.76049855579E+03  0.76049855581E+03  0.50400001928E-02 0. -1.
    10030    2    1    2    0    0  0.00000000000E+00  0.00000000000E+00 -0.88295692493E+01  0.15121675424E+04  0.15121417642E+04 0.  0.
        2    1    3    3  502    0  0.25408504790E+03  0.53911405922E+03  0.46082426993E+03  0.75336723328E+03  0.25500000920E-02 0.  1.
       -2    1    3    3    0  502 -0.25408504790E+03 -0.53911405922E+03 -0.46965383918E+03  0.75880030909E+03  0.25500000920E-02 0. -1.
</event>
<event>
 5   0  0.1097156E-03  0.1476547E+04  0.7818609E-02  0.8900200E-01
        2   -1    0    0  501    0  0.00000000000E+00  0.00000000000E+00  0.12584562075E+04  0.12584562075E+04  0.25500000920E-02 0.  1.
       -2   -1    0    0    0  501  0.00000000000E+00  0.00000000000E+00 -0.43310847325E+03  0.43310847326E+03  0.25500000920E-02 0. -1.
    10030    2    1    2    0    0  0.00000000000E+00  0.00000000000E+00  0.82534773423E+03  0.16915646807E+04  0.14765473872E+04 0.  0.
        2    1    3    3  502    0  0.66031005672E+03 -0.62810078582E+02  0.78406308495E+03  0.10269904567E+04  0.25500000920E-02 0. -1.
       -2    1    3    3    0  502 -0.66031005672E+03  0.62810078582E+02  0.41284649278E+02  0.66457422404E+03  0.25500000920E-02 0.  1.
</event>
<event>
 5   0  0.5924403E-04  0.1498352E+04  0.7818609E-02  0.8885550E-01
        1   -1    0    0  501    0  0.00000000000E+00  0.00000000000E+00  0.58059739989E+03  0.58059739992E+03  0.50400001928E-02 0. -1.
       -1   -1    0    0    0  501  0.00000000000E+00  0.00000000000E+00 -0.96670163206E+03  0.96670163207E+03  0.50400001928E-02 0.  1.
    10030    2    1    2    0    0  0.00000000000E+00  0.00000000000E+00 -0.38610423216E+03  0.15472990320E+04  0.14983516998E+04 0.  0.
        1    1    3    3  502    0 -0.14852049554E+03 -0.62228521765E+03 -0.59561659795E+03  0.87410317553E+03  0.50400001928E-02 0.  1.
       -1    1    3    3    0  502  0.14852049554E+03  0.62228521765E+03  0.20951236578E+03  0.67319585645E+03  0.50400001928E-02 0. -1.
</event>
<event>
 5   0  0.5606965E-04  0.1502833E+04  0.7818609E-02  0.8882572E-01
        1   -1    0    0  501    0  0.00000000000E+00  0.00000000000E+00  0.46037724669E+03  0.46037724672E+03  0.50400001928E-02 0. -1.
       -1   -1    0    0    0  501  0.00000000000E+00  0.00000000000E+00 -0.12264428884E+04  0.12264428884E+04  0.50400001928E-02 0.  1.
    10030    2    1    2    0    0  0.00000000000E+00  0.00000000000E+00 -0.76606564172E+03  0.16868201351E+04  0.15028325259E+04 0.  0.
        4    1    3    3  502    0  0.87998671051E+02  0.50010889530E+03 -0.10047117245E+04  0.11257441697E+04  0.12699999809E+01 0.  1.
       -4    1    3    3    0  502 -0.87998671051E+02 -0.50010889530E+03  0.23864608282E+03  0.56107596545E+03  0.12699999809E+01 0. -1.
</event>
<event>
 5   0  0.5840834E-04  0.1484840E+04  0.7818609E-02  0.8894597E-01
        1   -1    0    0  501    0  0.00000000000E+00  0.00000000000E+00  0.77003897334E+03  0.77003897336E+03  0.50400001928E-02 0.  1.
       -1   -1    0    0    0  501  0.00000000000E+00  0.00000000000E+00 -0.71579119589E+03  0.71579119591E+03  0.50400001928E-02 0. -1.
    10030    2    1    2    0    0  0.00000000000E+00  0.00000000000E+00  0.54247777449E+02  0.14858301693E+04  0.14848395437E+04 0.  0.
        3    1    3    3  502    0 -0.13344847174E+03  0.59731863932E+03 -0.39338147492E+03  0.72756240042E+03  0.10100000352E+00 0. -1.
       -3    1    3    3    0  502  0.13344847174E+03 -0.59731863932E+03  0.44762925237E+03  0.75826776885E+03  0.10100000352E+00 0.  1.
</event>
<event>
 5   0  0.5606965E-04  0.1460132E+04  0.7818609E-02  0.8911407E-01
        1   -1    0    0  501    0  0.00000000000E+00  0.00000000000E+00  0.55049321579E+03  0.55049321582E+03  0.50400001928E-02 0.  1.
       -1   -1    0    0    0  501  0.00000000000E+00  0.00000000000E+00 -0.96821542315E+03  0.96821542316E+03  0.50400001928E-02 0. -1.
    10030    2    1    2    0    0  0.00000000000E+00  0.00000000000E+00 -0.41772220735E+03  0.15187086390E+04  0.14601315309E+04 0.  0.
        4    1    3    3  502    0  0.13833041496E+03 -0.70828243214E+03 -0.32372279199E+03  0.79094713246E+03  0.12699999809E+01 0.  1.
       -4    1    3    3    0  502 -0.13833041496E+03  0.70828243214E+03 -0.93999415360E+02  0.72776150652E+03  0.12699999809E+01 0. -1.
</event>
<event>
 5   0  0.1147755E-03  0.1466554E+04  0.7818609E-02  0.8907004E-01
       -2   -1    0    0    0  501  0.00000000000E+00  0.00000000000E+00  0.38097472121E+03  0.38097472122E+03  0.25500000920E-02 0. -1.
        2   -1    0    0  501    0  0.00000000000E+00  0.00000000000E+00 -0.14113671285E+04  0.14113671285E+04  0.25500000920E-02 0.  1.
    10030    2    1    2    0    0  0.00000000000E+00  0.00000000000E+00 -0.10303924073E+04  0.17923418497E+04  0.14665540540E+04 0.  0.
        4    1    3    3  502    0  0.30157097068E+03 -0.32171858481E+03  0.20082406327E+03  0.48454082951E+03  0.12699999809E+01 0. -1.
       -4    1    3    3    0  502 -0.30157097068E+03  0.32171858481E+03 -0.12312164706E+04  0.13078010202E+04  0.12699999809E+01 0.  1.
</event>
<event>
 5   0  0.1097156E-03  0.1493851E+04  0.7818609E-02  0.8888552E-01
       -2   -1    0    0    0  501  0.00000000000E+00  0.00000000000E+00  0.65421763837E+03  0.65421763838E+03  0.25500000920E-02 0. -1.
        2   -1    0    0  501    0  0.00000000000E+00  0.00000000000E+00 -0.85277126402E+03  0.85277126402E+03  0.25500000920E-02 0.  1.
    10030    2    1    2    0    0  0.00000000000E+00  0.00000000000E+00 -0.19855362564E+03  0.15069889024E+04  0.14938514015E+04 0.  0.
        2    1    3    3  502    0  0.11170732023E+03 -0.23493205277E+03 -0.80559600382E+03  0.84655567814E+03  0.25500000920E-02 0.  1.
       -2    1    3    3    0  502 -0.11170732023E+03  0.23493205277E+03  0.60704237817E+03  0.66043322427E+03  0.25500000920E-02 0. -1.
</event>
<event>
 5   0  0.1082667E-03  0.1643972E+04  0.7818609E-02  0.8793980E-01
       -2   -1    0    0    0  501  0.00000000000E+00  0.00000000000E+00  0.43332719861E+03  0.43332719862E+03  0.25500000920E-02 0.  1.
        2   -1    0    0  501    0  0.00000000000E+00  0.00000000000E+00 -0.15592403852E+04  0.15592403852E+04  0.25500000920E-02 0. -1.
    10030    2    1    2    0    0  0.00000000000E+00  0.00000000000E+00 -0.11259131866E+04  0.19925675838E+04  0.16439723454E+04 0.  0.
        5    1    3    3  502    0  0.16008904647E+03  0.34639870352E+03  0.31944059157E+03  0.49767956171E+03  0.46999998093E+01 0.  1.
       -5    1    3    3    0  502 -0.16008904647E+03 -0.34639870352E+03 -0.14453537781E+04  0.14948880221E+04  0.46999998093E+01 0. -1.
</event>
<event>
 5   0  0.1126175E-03  0.1443577E+04  0.7818609E-02  0.8922865E-01
        2   -1    0    0  501    0  0.00000000000E+00  0.00000000000E+00  0.14936672589E+04  0.14936672589E+04  0.25500000920E-02 0. -1.
       -2   -1    0    0    0  501  0.00000000000E+00  0.00000000000E+00 -0.34879169362E+03  0.34879169363E+03  0.25500000920E-02 0.  1.
    10030    2    1    2    0    0  0.00000000000E+00  0.00000000000E+00  0.11448755652E+04  0.18424589525E+04  0.14435771305E+04 0.  0.
        3    1    3    3  502    0  0.20650054907E+03 -0.19274610755E+03  0.14201887375E+04  0.14480088394E+04  0.10100000352E+00 0. -1.
       -3    1    3    3    0  502 -0.20650054907E+03  0.19274610755E+03 -0.27531317221E+03  0.39445011312E+03  0.10100000352E+00 0.  1.
</event>
<event>
 5   0  0.1149716E-03  0.1443764E+04  0.7818609E-02  0.8922735E-01
        2   -1    0    0  501    0  0.00000000000E+00  0.00000000000E+00  0.94595451061E+03  0.94595451061E+03  0.25500000920E-02 0. -1.
       -2   -1    0    0    0  501  0.00000000000E+00  0.00000000000E+00 -0.55088690214E+03  0.55088690215E+03  0.25500000920E-02 0.  1.
    10030    2    1    2    0    0  0.00000000000E+00  0.00000000000E+00  0.39506760847E+03  0.14968414128E+04  0.14437644544E+04 0.  0.
        1    1    3    3  502    0  0.40367454573E+03  0.36406394791E+02  0.81685137580E+03  0.91187978080E+03  0.50400001928E-02 0. -1.
       -1    1    3    3    0  502 -0.40367454573E+03 -0.36406394791E+02 -0.42178376733E+03  0.58496163196E+03  0.50400001928E-02 0.  1.
</event>
<event>
 5   0  0.5840834E-04  0.1510131E+04  0.7818609E-02  0.8877744E-01
        1   -1    0    0  501    0  0.00000000000E+00  0.00000000000E+00  0.26432995746E+04  0.26432995746E+04  0.50400001928E-02 0.  1.
       -1   -1    0    0    0  501  0.00000000000E+00  0.00000000000E+00 -0.21568653892E+03  0.21568653898E+03  0.50400001928E-02 0. -1.
    10030    2    1    2    0    0  0.00000000000E+00  0.00000000000E+00  0.24276130357E+04  0.28589861136E+04  0.15101313011E+04 0.  0.
        3    1    3    3  502    0 -0.15441674333E+03 -0.67398269301E+03  0.63948539067E+03  0.94182736007E+03  0.10100000352E+00 0.  1.
       -3    1    3    3    0  502  0.15441674333E+03  0.67398269301E+03  0.17881276451E+04  0.19171587535E+04  0.10100000352E+00 0. -1.
</event>
<event>
 5   0  0.5840834E-04  0.1492901E+04  0.7818609E-02  0.8889188E-01
       -1   -1    0    0    0  501  0.00000000000E+00  0.00000000000E+00  0.63746180549E+03  0.63746180551E+03  0.50400001928E-02 0.  1.
        1   -1    0    0  501    0  0.00000000000E+00  0.00000000000E+00 -0.87407299119E+03  0.87407299120E+03  0.50400001928E-02 0. -1.
    10030    2    1    2    0    0  0.00000000000E+00  0.00000000000E+00 -0.23661118570E+03  0.15115347967E+04  0.14929007296E+04 0.  0.
        3    1    3    3  502    0 -0.29076580099E+03  0.63315423555E+03  0.15291690444E+03  0.71331103096E+03  0.10100000352E+00 0.  1.
       -3    1    3    3    0  502  0.29076580099E+03 -0.63315423555E+03 -0.38952809013E+03  0.79822376576E+03  0.10100000352E+00 0. -1.
</event>
<event>
 5   0  0.1082667E-03  0.1477750E+04  0.7818609E-02  0.8899385E-01
       -2   -1    0    0    0  501  0.00000000000E+00  0.00000000000E+00  0.33833176526E+03  0.33833176527E+03  0.25500000920E-02 0. -1.
        2   -1    0    0  501    0  0.00000000000E+00  0.00000000000E+00 -0.16136121214E+04  0.16136121214E+04  0.25500000920E-02 0.  1.
    10030    2    1    2    0    0  0.00000000000E+00  0.00000000000E+00 -0.12752803561E+04  0.19519438866E+04  0.14777499619E+04 0.  0.
        5    1    3    3  502    0 -0.26365087139E+03  0.42612786801E+03 -0.13548445559E+04  0.14445492732E+04  0.46999998093E+01 0.  1.
       -5    1    3    3    0  502  0.26365087139E+03 -0.42612786801E+03  0.79564199830E+02  0.50739461346E+03  0.46999998093E+01 0. -1.
</event>
<event>
 5   0  0.5606965E-04  0.1507646E+04  0.7818609E-02  0.8879384E-01
       -1   -1    0    0    0  501  0.00000000000E+00  0.00000000000E+00  0.89409916946E+03  0.89409916947E+03  0.50400001928E-02 0.  1.
        1   -1    0    0  501    0  0.00000000000E+00  0.00000000000E+00 -0.63555482651E+03  0.63555482653E+03  0.50400001928E-02 0. -1.
    10030    2    1    2    0    0  0.00000000000E+00  0.00000000000E+00  0.25854434295E+03  0.15296539960E+04  0.15076459035E+04 0.  0.
        4    1    3    3  502    0 -0.22450548094E+03 -0.13579268348E+03  0.84627410244E+03  0.88601570709E+03  0.12699999809E+01 0.  1.
       -4    1    3    3    0  502  0.22450548094E+03  0.13579268348E+03 -0.58772975949E+03  0.64363828891E+03  0.12699999809E+01 0. -1.
</event>
<event>
 5   0  0.1149716E-03  0.1482783E+04  0.7818609E-02  0.8895984E-01
       -2   -1    0    0    0  501  0.00000000000E+00  0.00000000000E+00  0.83620414712E+03  0.83620414713E+03  0.25500000920E-02 0. -1.
        2   -1    0    0  501    0  0.00000000000E+00  0.00000000000E+00 -0.65732892279E+03  0.65732892279E+03  0.25500000920E-02 0.  1.
    10030    2    1    2    0    0  0.00000000000E+00  0.00000000000E+00  0.17887522433E+03  0.14935330699E+04  0.14827827505E+04 0.  0.
        1    1    3    3  502    0 -0.23468607408E+02 -0.14410691929E+03 -0.64270475677E+03  0.65908040793E+03  0.50400001928E-02 0.  1.
       -1    1    3    3    0  502  0.23468607408E+02  0.14410691929E+03  0.82157998110E+03  0.83445266199E+03  0.50400001928E-02 0. -1.
</event>
<event>
 5   0  0.1126175E-03  0.1507900E+04  0.7818609E-02  0.8879217E-01
       -2   -1    0    0    0  501  0.00000000000E+00  0.00000000000E+00  0.34749601054E+03  0.34749601055E+03  0.25500000920E-02 0. -1.
        2   -1    0    0  501    0  0.00000000000E+00  0.00000000000E+00 -0.16358187804E+04  0.16358187804E+04  0.25500000920E-02 0.  1.
    10030    2    1    2    0    0  0.00000000000E+00  0.00000000000E+00 -0.12883227698E+04  0.19833147909E+04  0.15078998643E+04 0.  0.
        3    1    3    3  502    0 -0.70297466350E+03  0.19842612975E+03 -0.88985601734E+03  0.11512558570E+04  0.10100000352E+00 0.  1.
       -3    1    3    3    0  502  0.70297466350E+03 -0.19842612975E+03 -0.39846675251E+03  0.83205893394E+03  0.10100000352E+00 0. -1.
</event>
<event>
 5   0  0.5840834E-04  0.1490696E+04  0.7818609E-02  0.8890664E-01
       -1   -1    0    0    0  501  0.00000000000E+00  0.00000000000E+00  0.36226473119E+03  0.36226473123E+03  0.50400001928E-02 0. -1.
        1   -1    0    0  501    0  0.00000000000E+00  0.00000000000E+00 -0.15335287866E+04  0.15335287866E+04  0.50400001928E-02 0.  1.
    10030    2    1    2    0    0  0.00000000000E+00  0.00000000000E+00 -0.11712640554E+04  0.18957935178E+04  0.14906956680E+04 0.  0.
        3    1    3    3  502    0  0.38019587671E+03 -0.62985872444E+03 -0.43369922332E+03  0.85402924067E+03  0.10100000352E+00 0. -1.
       -3    1    3    3    0  502 -0.38019587671E+03  0.62985872444E+03 -0.73756483206E+03  0.10417642771E+04  0.10100000352E+00 0.  1.
</event>
<event>
 5   0  0.1126175E-03  0.1486295E+04  0.7818609E-02  0.8893618E-01
        2   -1    0    0  501    0  0.00000000000E+00  0.00000000000E+00  0.12619889061E+04  0.12619889061E+04  0.25500000920E-02 0. -1.
       -2   -1    0    0    0  501  0.00000000000E+00  0.00000000000E+00 -0.43761719254E+03  0.43761719254E+03  0.25500000920E-02 0.  1.
    10030    2    1    2    0    0  0.00000000000E+00  0.00000000000E+00  0.82437171356E+03  0.16996060986E+04  0.14862947784E+04 0.  0.
        3    1    3    3  502    0 -0.43085103969E+03 -0.89073532777E+02  0.10970584949E+04  0.11819915668E+04  0.10100000352E+00 0. -1.
       -3    1    3    3    0  502  0.43085103969E+03  0.89073532777E+02 -0.27268678132E+03  0.51761453182E+03  0.10100000352E+00 0.  1.
</event>
<event>
 5   0  0.1149716E-03  0.1493277E+04  0.7818609E-02  0.8888936E-01
        2   -1    0    0  501    0  0.00000000000E+00  0.00000000000E+00  0.55051703168E+03  0.55051703169E+03  0.25500000920E-02 0.  1.
       -2   -1    0    0    0  501  0.00000000000E+00  0.00000000000E+00 -0.10126288114E+04  0.10126288114E+04  0.25500000920E-02 0. -1.
    10030    2    1    2    0    0  0.00000000000E+00  0.00000000000E+00 -0.46211177967E+03  0.15631458430E+04  0.14932774791E+04 0.  0.
        1    1    3    3  502    0 -0.30365626677E+03 -0.21434682664E+03 -0.90890119270E+03  0.98196388353E+03  0.50400001928E-02 0. -1.
       -1    1    3    3    0  502  0.30365626677E+03  0.21434682664E+03  0.44678941303E+03  0.58118195951E+03  0.50400001928E-02 0.  1.
</event>
<event>
 5   0  0.5606965E-04  0.1463719E+04  0.7818609E-02  0.8908945E-01
       -1   -1    0    0    0  501  0.00000000000E+00  0.00000000000E+00  0.87028460842E+03  0.87028460843E+03  0.50400001928E-02 0.  1.
        1   -1    0    0  501    0  0.00000000000E+00  0.00000000000E+00 -0.61545152224E+03  0.61545152226E+03  0.50400001928E-02 0. -1.
    10030    2    1    2    0    0  0.00000000000E+00  0.00000000000E+00  0.25483308618E+03  0.14857361307E+04  0.14637185345E+04 0.  0.
        4    1    3    3  502    0  0.33875339805E+03  0.28521620632E+03  0.71885982118E+03  0.84431226714E+03  0.12699999809E+01 0.  1.
       -4    1    3    3    0  502 -0.33875339805E+03 -0.28521620632E+03 -0.46402673500E+03  0.64142386355E+03  0.12699999809E+01 0. -1.
</event>
<event>
 5   0  0.1147755E-03  0.1537540E+04  0.7818609E-02  0.8859866E-01
       -2   -1    0    0    0  501  0.00000000000E+00  0.00000000000E+00  0.44034930858E+03  0.44034930859E+03  0.25500000920E-02 0.  1.
        2   -1    0    0  501    0  0.00000000000E+00  0.00000000000E+00 -0.13421322017E+04  0.13421322017E+04  0.25500000920E-02 0. -1.
    10030    2    1    2    0    0  0.00000000000E+00  0.00000000000E+00 -0.90178289311E+03  0.17824815103E+04  0.15375395761E+04 0.  0.
        4    1    3    3  502    0 -0.38604522836E+03  0.52203997404E+03 -0.92811061350E+03  0.11326727580E+04  0.12699999809E+01 0. -1.
       -4    1    3    3    0  502  0.38604522836E+03 -0.52203997404E+03  0.26327720391E+02  0.64980875232E+03  0.12699999809E+01 0.  1.
</event>
<event>
 5   0  0.1097156E-03  0.1530830E+04  0.7818609E-02  0.8864206E-01
        2   -1    0    0  501    0  0.00000000000E+00  0.00000000000E+00  0.17928848427E+04  0.17928848427E+04  0.25500000920E-02 0.  1.
       -2   -1    0    0    0  501  0.00000000000E+00  0.00000000000E+00 -0.32676972439E+03  0.32676972440E+03  0.25500000920E-02 0. -1.
    10030    2    1    2    0    0  0.00000000000E+00  0.00000000000E+00  0.14661151183E+04  0.21196545671E+04  0.15308304752E+04 0.  0.
        2    1    3    3  502    0 -0.25847617439E+03 -0.45301722959E+03 -0.42622117840E+02  0.52330792844E+03  0.25500000920E-02 0. -1.
       -2    1    3    3    0  502  0.25847617439E+03  0.45301722959E+03  0.15087372362E+04  0.15963466387E+04  0.25500000920E-02 0.  1.
</event>
<event>
 5   0  0.5840834E-04  0.1377798E+04  0.7818609E-02  0.8970048E-01
       -1   -1    0    0    0  501  0.00000000000E+00  0.00000000000E+00  0.60406108604E+03  0.60406108606E+03  0.50400001928E-02 0.  1.
        1   -1    0    0  501    0  0.00000000000E+00  0.00000000000E+00 -0.78565200759E+03  0.78565200761E+03  0.50400001928E-02 0. -1.
    10030    2    1    2    0    0  0.00000000000E+00  0.00000000000E+00 -0.18159092155E+03  0.13897130937E+04  0.13777979605E+04 0.  0.
        3    1    3    3  502    0  0.21889846214E+03 -0.33028661804E+03  0.47761682262E+03  0.62058329516E+03  0.10100000352E+00 0.  1.
       -3    1    3    3    0  502 -0.21889846214E+03  0.33028661804E+03 -0.65920774417E+03  0.76912979851E+03  0.10100000352E+00 0. -1.
</event>
<event>
 5   0  0.5606965E-04  0.1457061E+04  0.7818609E-02  0.8913520E-01
        1   -1    0    0  501    0  0.00000000000E+00  0.00000000000E+00  0.20783052515E+04  0.20783052515E+04  0.50400001928E-02 0.  1.
       -1   -1    0    0    0  501  0.00000000000E+00  0.00000000000E+00 -0.25537959172E+03  0.25537959177E+03  0.50400001928E-02 0. -1.
    10030    2    1    2    0    0  0.00000000000E+00  0.00000000000E+00  0.18229256598E+04  0.23336848433E+04  0.14570610786E+04 0.  0.
        4    1    3    3  502    0 -0.33072920874E+02 -0.21853072381E+03  0.20233109141E+04  0.20353471850E+04  0.12699999809E+01 0.  1.
       -4    1    3    3    0  502  0.33072920874E+02  0.21853072381E+03 -0.20038525429E+03  0.29833765834E+03  0.12699999809E+01 0. -1.
</event>
<event>
 5   0  0.6146552E-04  0.1502499E+04  0.7818609E-02  0.8882793E-01
        1   -1    0    0  501    0  0.00000000000E+00  0.00000000000E+00  0.24009476028E+04  0.24009476028E+04  0.50400001928E-02 0.  1.
       -1   -1    0    0    0  501  0.00000000000E+00  0.00000000000E+00 -0.23506383185E+03  0.23506383191E+03  0.50400001928E-02 0. -1.
    10030    2    1    2    0    0  0.00000000000E+00  0.00000000000E+00  0.21658837709E+04  0.26360114347E+04  0.15024991763E+04 0.  0.
        5    1    3    3  502    0 -0.45451274895E+03 -0.11425597029E+03  0.21130072119E+04  0.21643608371E+04  0.46999998093E+01 0.  1.
       -5    1    3    3    0  502  0.45451274895E+03  0.11425597029E+03  0.52876559031E+02  0.47165059758E+03  0.46999998093E+01 0. -1.
</event>
<event>
 5   0  0.5606965E-04  0.1485094E+04  0.7818609E-02  0.8894426E-01
        1   -1    0    0  501    0  0.00000000000E+00  0.00000000000E+00  0.65693923610E+03  0.65693923612E+03  0.50400001928E-02 0.  1.
       -1   -1    0    0    0  501  0.00000000000E+00  0.00000000000E+00 -0.83931036012E+03  0.83931036014E+03  0.50400001928E-02 0. -1.
    10030    2    1    2    0    0  0.00000000000E+00  0.00000000000E+00 -0.18237112402E+03  0.14962495963E+04  0.14850938110E+04 0.  0.
        4    1    3    3  502    0  0.47738260266E+03 -0.38338361040E+03  0.33208592006E+03  0.69653414364E+03  0.12699999809E+01 0.  1.
       -4    1    3    3    0  502 -0.47738260266E+03  0.38338361040E+03 -0.51445704409E+03  0.79971545262E+03  0.12699999809E+01 0. -1.
</event>
<event>
 5   0  0.5924403E-04  0.1481132E+04  0.7818609E-02  0.8897097E-01
        1   -1    0    0  501    0  0.00000000000E+00  0.00000000000E+00  0.10573133325E+04  0.10573133325E+04  0.50400001928E-02 0. -1.
       -1   -1    0    0    0  501  0.00000000000E+00  0.00000000000E+00 -0.51870939455E+03  0.51870939457E+03  0.50400001928E-02 0.  1.
    10030    2    1    2    0    0  0.00000000000E+00  0.00000000000E+00  0.53860393797E+03  0.15760227271E+04  0.14811324837E+04 0.  0.
        1    1    3    3  502    0 -0.34022239231E+03  0.31620920783E+03 -0.34445183784E+03  0.57826171234E+03  0.50400001928E-02 0.  1.
       -1    1    3    3    0  502  0.34022239231E+03 -0.31620920783E+03  0.88305577581E+03  0.99776101475E+03  0.50400001928E-02 0. -1.
</event>
<event>
 5   0  0.1082667E-03  0.1468343E+04  0.7818609E-02  0.8905782E-01
       -2   -1    0    0    0  501  0.00000000000E+00  0.00000000000E+00  0.46066503324E+03  0.46066503325E+03  0.25500000920E-02 0. -1.
        2   -1    0    0  501    0  0.00000000000E+00  0.00000000000E+00 -0.11700643240E+04  0.11700643240E+04  0.25500000920E-02 0.  1.
    10030    2    1    2    0    0  0.00000000000E+00  0.00000000000E+00 -0.70939929073E+03  0.16307293572E+04  0.14683429037E+04 0.  0.
        5    1    3    3  502    0  0.15099848136E+03 -0.56190118649E+03 -0.85193243024E+03  0.10316707035E+04  0.46999998093E+01 0.  1.
       -5    1    3    3    0  502 -0.15099848136E+03  0.56190118649E+03  0.14253313951E+03  0.59905865373E+03  0.46999998093E+01 0. -1.
</event>
<event>
 5   0  0.5606965E-04  0.1520958E+04  0.7818609E-02  0.8870634E-01
        1   -1    0    0  501    0  0.00000000000E+00  0.00000000000E+00  0.12792534585E+04  0.12792534585E+04  0.50400001928E-02 0. -1.
       -1   -1    0    0    0  501  0.00000000000E+00  0.00000000000E+00 -0.45208290735E+03  0.45208290738E+03  0.50400001928E-02 0.  1.
    10030    2    1    2    0    0  0.00000000000E+00  0.00000000000E+00  0.82717055114E+03  0.17313363659E+04  0.15209584120E+04 0.  0.
        4    1    3    3  502    0  0.59659013762E+03 -0.17075658827E+03 -0.86821515553E+02  0.62659172768E+03  0.12699999809E+01 0.  1.
       -4    1    3    3    0  502 -0.59659013762E+03  0.17075658827E+03  0.91399206669E+03  0.11047446382E+04  0.12699999809E+01 0. -1.
</event>
<event>
 5   0  0.5914645E-04  0.1534095E+04  0.7818609E-02  0.8862091E-01
       -1   -1    0    0    0  501  0.00000000000E+00  0.00000000000E+00  0.32731342548E+03  0.32731342551E+03  0.50400001928E-02 0.  1.
        1   -1    0    0  501    0  0.00000000000E+00  0.00000000000E+00 -0.17975489740E+04  0.17975489740E+04  0.50400001928E-02 0. -1.
    10030    2    1    2    0    0  0.00000000000E+00  0.00000000000E+00 -0.14702355485E+04  0.21248623995E+04  0.15340950586E+04 0.  0.
        2    1    3    3  502    0 -0.24836829894E+03 -0.23875044567E+03  0.21412322553E+03  0.40563202899E+03  0.25500000920E-02 0.  1.
       -2    1    3    3    0  502  0.24836829894E+03  0.23875044567E+03 -0.16843587741E+04  0.17192303705E+04  0.25500000920E-02 0. -1.
</event>
<event>
 5   0  0.1126175E-03  0.1428831E+04  0.7818609E-02  0.8933210E-01
       -2   -1    0    0    0  501  0.00000000000E+00  0.00000000000E+00  0.62824595870E+03  0.62824595870E+03  0.25500000920E-02 0. -1.
        2   -1    0    0  501    0  0.00000000000E+00  0.00000000000E+00 -0.81240354535E+03  0.81240354535E+03  0.25500000920E-02 0.  1.
    10030    2    1    2    0    0  0.00000000000E+00  0.00000000000E+00 -0.18415758665E+03  0.14406495041E+04  0.14288306327E+04 0.  0.
        3    1    3    3  502    0  0.44583109927E+03  0.84305897352E+02  0.46431581289E+03  0.64920107648E+03  0.10100000352E+00 0. -1.
       -3    1    3    3    0  502 -0.44583109927E+03 -0.84305897352E+02 -0.64847339954E+03  0.79144842758E+03  0.10100000352E+00 0.  1.
</event>
<event>
 5   0  0.1126175E-03  0.1391586E+04  0.7818609E-02  0.8959932E-01
        2   -1    0    0  501    0  0.00000000000E+00  0.00000000000E+00  0.69962259158E+03  0.69962259159E+03  0.25500000920E-02 0.  1.
       -2   -1    0    0    0  501  0.00000000000E+00  0.00000000000E+00 -0.69198411178E+03  0.69198411178E+03  0.25500000920E-02 0. -1.
    10030    2    1    2    0    0  0.00000000000E+00  0.00000000000E+00  0.76384798043E+01  0.13916067034E+04  0.13915857395E+04 0.  0.
        3    1    3    3  502    0  0.46966956044E+02  0.47930482115E+03 -0.49837225668E+03  0.69304684038E+03  0.10100000352E+00 0. -1.
       -3    1    3    3    0  502 -0.46966956044E+02 -0.47930482115E+03  0.50601073648E+03  0.69855986298E+03  0.10100000352E+00 0.  1.
</event>
<event>
 5   0  0.6146552E-04  0.1512787E+04  0.7818609E-02  0.8875994E-01
        1   -1    0    0  501    0  0.00000000000E+00  0.00000000000E+00  0.94998658774E+03  0.94998658775E+03  0.50400001928E-02 0. -1.
       -1   -1    0    0    0  501  0.00000000000E+00  0.00000000000E+00 -0.60225164723E+03  0.60225164726E+03  0.50400001928E-02 0.  1.
    10030    2    1    2    0    0  0.00000000000E+00  0.00000000000E+00  0.34773494050E+03  0.15522382350E+04  0.15127868156E+04 0.  0.
        5    1    3    3  502    0  0.67788606980E+03 -0.32524187926E+03  0.89272941727E+02  0.75716811328E+03  0.46999998093E+01 0.  1.
       -5    1    3    3    0  502 -0.67788606980E+03  0.32524187926E+03  0.25846199878E+03  0.79507012173E+03  0.46999998093E+01 0. -1.
</event>
<event>
 5   0  0.1082667E-03  0.1512409E+04  0.7818609E-02  0.8876243E-01
        2   -1    0    0  501    0  0.00000000000E+00  0.00000000000E+00  0.11813743001E+04  0.11813743001E+04  0.25500000920E-02 0. -1.
       -2   -1    0    0    0  501  0.00000000000E+00  0.00000000000E+00 -0.48405108599E+03  0.48405108600E+03  0.25500000920E-02 0.  1.
    10030    2    1    2    0    0  0.00000000000E+00  0.00000000000E+00  0.69732321409E+03  0.16654253861E+04  0.15124093532E+04 0.  0.
        5    1    3    3  502    0  0.55733980418E+03  0.37441436192E+03  0.73172074798E+03  0.99310176455E+03  0.46999998093E+01 0. -1.
       -5    1    3    3    0  502 -0.55733980418E+03 -0.37441436192E+03 -0.34397533883E+02  0.67232362153E+03  0.46999998093E+01 0.  1.
</event>
<event>
 5   0  0.1126175E-03  0.1500337E+04  0.7818609E-02  0.8884229E-01
       -2   -1    0    0    0  501  0.00000000000E+00  0.00000000000E+00  0.50176656698E+03  0.50176656699E+03  0.25500000920E-02 0.  1.
        2   -1    0    0  501    0  0.00000000000E+00  0.00000000000E+00 -0.11215432782E+04  0.11215432782E+04  0.25500000920E-02 0. -1.
    10030    2    1    2    0    0  0.00000000000E+00  0.00000000000E+00 -0.61977671125E+03  0.16233098452E+04  0.15003371894E+04 0.  0.
        3    1    3    3  502    0  0.29839008251E+03 -0.87546165305E+02 -0.10485230572E+04  0.10936642922E+04  0.10100000352E+00 0. -1.
       -3    1    3    3    0  502 -0.29839008251E+03  0.87546165305E+02  0.42874634597E+03  0.52964555298E+03  0.10100000352E+00 0.  1.
</event>
<event>
 5   0  0.5840834E-04  0.1511376E+04  0.7818609E-02  0.8876923E-01
       -1   -1    0    0    0  501  0.00000000000E+00  0.00000000000E+00  0.47068364621E+03  0.47068364624E+03  0.50400001928E-02 0.  1.
        1   -1    0    0  501    0  0.00000000000E+00  0.00000000000E+00 -0.12132660539E+04  0.12132660539E+04  0.50400001928E-02 0. -1.
    10030    2    1    2    0    0  0.00000000000E+00  0.00000000000E+00 -0.74258240768E+03  0.16839497001E+04  0.15113761810E+04 0.  0.
        3    1    3    3  502    0 -0.60240607031E+03  0.38874024135E+03 -0.63742107212E+03  0.95933189365E+03  0.10100000352E+00 0. -1.
       -3    1    3    3    0  502  0.60240607031E+03 -0.38874024135E+03 -0.10516133556E+03  0.72461780650E+03  0.10100000352E+00 0.  1.
</event>
<event>
 5   0  0.5840834E-04  0.1480234E+04  0.7818609E-02  0.8897704E-01
        1   -1    0    0  501    0  0.00000000000E+00  0.00000000000E+00  0.63714301537E+03  0.63714301539E+03  0.50400001928E-02 0.  1.
       -1   -1    0    0    0  501  0.00000000000E+00  0.00000000000E+00 -0.85973404192E+03  0.85973404193E+03  0.50400001928E-02 0. -1.
    10030    2    1    2    0    0  0.00000000000E+00  0.00000000000E+00 -0.22259102654E+03  0.14968770573E+04  0.14802344948E+04 0.  0.
        3    1    3    3  502    0 -0.70498380114E+03 -0.11690035460E+03  0.83498583239E+02  0.71947194273E+03  0.10100000352E+00 0.  1.
       -3    1    3    3    0  502  0.70498380114E+03  0.11690035460E+03 -0.30608960978E+03  0.77740511459E+03  0.10100000352E+00 0. -1.
</event>
<event>
 5   0  0.5606965E-04  0.1505392E+04  0.7818609E-02  0.8880875E-01
       -1   -1    0    0    0  501  0.00000000000E+00  0.00000000000E+00  0.31659524767E+03  0.31659524771E+03  0.50400001928E-02 0.  1.
        1   -1    0    0  501    0  0.00000000000E+00  0.00000000000E+00 -0.17895134115E+04  0.17895134115E+04  0.50400001928E-02 0. -1.
    10030    2    1    2    0    0  0.00000000000E+00  0.00000000000E+00 -0.14729181638E+04  0.21061086592E+04  0.15053922303E+04 0.  0.
        4    1    3    3  502    0 -0.21184429248E+03 -0.48757144900E+03 -0.14819612481E+04  0.15744251891E+04  0.12699999809E+01 0. -1.
       -4    1    3    3    0  502  0.21184429248E+03  0.48757144900E+03  0.90430842967E+01  0.53168347013E+03  0.12699999809E+01 0.  1.
</event>
<event>
 5   0  0.1126175E-03  0.1452299E+04  0.7818609E-02  0.8916808E-01
       -2   -1    0    0    0  501  0.00000000000E+00  0.00000000000E+00  0.37420511244E+03  0.37420511245E+03  0.25500000920E-02 0.  1.
        2   -1    0    0  501    0  0.00000000000E+00  0.00000000000E+00 -0.14091014383E+04  0.14091014383E+04  0.25500000920E-02 0. -1.
    10030    2    1    2    0    0  0.00000000000E+00  0.00000000000E+00 -0.10348963259E+04  0.17833065508E+04  0.14522988152E+04 0.  0.
        3    1    3    3  502    0 -0.15390566830E+03 -0.69149445421E+03 -0.71330587201E+03  0.10053142853E+04  0.10100000352E+00 0. -1.
       -3    1    3    3    0  502  0.15390566830E+03  0.69149445421E+03 -0.32159045388E+03  0.77799226549E+03  0.10100000352E+00 0.  1.
</event>
<event>
 5   0  0.4070625E-04  0.1532412E+04  0.7818609E-02  0.8863181E-01
       -4   -1    0    0    0  501  0.00000000000E+00  0.00000000000E+00  0.10475613950E+04  0.10475621648E+04  0.12699999809E+01 0.  1.
        4   -1    0    0  501    0  0.00000000000E+00  0.00000000000E+00 -0.56041583901E+03  0.56041727803E+03  0.12699999809E+01 0. -1.
    10030    2    1    2    0    0  0.00000000000E+00  0.00000000000E+00  0.48714555597E+03  0.16079794429E+04  0.15324121821E+04 0.  0.
        5    1    3    3  502    0  0.49809471451E+03  0.39492938972E+03  0.69243103607E+03  0.93997361516E+03  0.46999998093E+01 0.  1.
       -5    1    3    3    0  502 -0.49809471451E+03 -0.39492938972E+03 -0.20528548010E+03  0.66800582769E+03  0.46999998093E+01 0. -1.
</event>
<event>
 5   0  0.1097156E-03  0.1494918E+04  0.7818609E-02  0.8887839E-01
       -2   -1    0    0    0  501  0.00000000000E+00  0.00000000000E+00  0.27088921986E+03  0.27088921987E+03  0.25500000920E-02 0.  1.
        2   -1    0    0  501    0  0.00000000000E+00  0.00000000000E+00 -0.20624490104E+04  0.20624490104E+04  0.25500000920E-02 0. -1.
    10030    2    1    2    0    0  0.00000000000E+00  0.00000000000E+00 -0.17915597906E+04  0.23333382303E+04  0.14949183301E+04 0.  0.
        2    1    3    3  502    0 -0.21690298903E+03 -0.26542975378E+03 -0.19325338228E+04  0.19626988656E+04  0.25500000920E-02 0. -1.
       -2    1    3    3    0  502  0.21690298903E+03  0.26542975378E+03  0.14097403227E+03  0.37063936464E+03  0.25500000920E-02 0.  1.
</event>
<event>
 5   0  0.1126175E-03  0.1407418E+04  0.7818609E-02  0.8948466E-01
       -2   -1    0    0    0  501  0.00000000000E+00  0.00000000000E+00  0.10637392597E+04  0.10637392597E+04  0.25500000920E-02 0.  1.
        2   -1    0    0  501    0  0.00000000000E+00  0.00000000000E+00 -0.46553390827E+03  0.46553390828E+03  0.25500000920E-02 0. -1.
    10030    2    1    2    0    0  0.00000000000E+00  0.00000000000E+00  0.59820535140E+03  0.15292731680E+04  0.14074184807E+04 0.  0.
        3    1    3    3  502    0 -0.17288694049E+03  0.67940716423E+03  0.36539917406E+03  0.79056976644E+03  0.10100000352E+00 0.  1.
       -3    1    3    3    0  502  0.17288694049E+03 -0.67940716423E+03  0.23280617734E+03  0.73870340152E+03  0.10100000352E+00 0. -1.
</event>
<event>
 5   0  0.5606965E-04  0.1461095E+04  0.7818609E-02  0.8910744E-01
        1   -1    0    0  501    0  0.00000000000E+00  0.00000000000E+00  0.11953706425E+04  0.11953706425E+04  0.50400001928E-02 0. -1.
       -1   -1    0    0    0  501  0.00000000000E+00  0.00000000000E+00 -0.44647220394E+03  0.44647220397E+03  0.50400001928E-02 0.  1.
    10030    2    1    2    0    0  0.00000000000E+00  0.00000000000E+00  0.74889843857E+03  0.16418428465E+04  0.14610951582E+04 0.  0.
        4    1    3    3  502    0  0.53759313215E+03  0.79366949490E+02 -0.17420601514E+03  0.57066175359E+03  0.12699999809E+01 0.  1.
       -4    1    3    3    0  502 -0.53759313215E+03 -0.79366949490E+02  0.92310445371E+03  0.10711810929E+04  0.12699999809E+01 0. -1.
</event>
<event>
 5   0  0.5924403E-04  0.1511465E+04  0.7818609E-02  0.8876864E-01
       -1   -1    0    0    0  501  0.00000000000E+00  0.00000000000E+00  0.83304112339E+03  0.83304112341E+03  0.50400001928E-02 0. -1.
        1   -1    0    0  501    0  0.00000000000E+00  0.00000000000E+00 -0.68559837068E+03  0.68559837070E+03  0.50400001928E-02 0.  1.
    10030    2    1    2    0    0  0.00000000000E+00  0.00000000000E+00  0.14744275271E+03  0.15186394941E+04  0.15114650336E+04 0.  0.
        1    1    3    3  502    0  0.10821226501E+03  0.22763226104E+03  0.78956746755E+03  0.82882032215E+03  0.50400001928E-02 0. -1.
       -1    1    3    3    0  502 -0.10821226501E+03 -0.22763226104E+03 -0.64212471484E+03  0.68981917196E+03  0.50400001928E-02 0.  1.
</event>
<event>
 5   0  0.1126175E-03  0.1518813E+04  0.7818609E-02  0.8872038E-01
        2   -1    0    0  501    0  0.00000000000E+00  0.00000000000E+00  0.15216650071E+04  0.15216650071E+04  0.25500000920E-02 0.  1.
       -2   -1    0    0    0  501  0.00000000000E+00  0.00000000000E+00 -0.37899180257E+03  0.37899180258E+03  0.25500000920E-02 0. -1.
    10030    2    1    2    0    0  0.00000000000E+00  0.00000000000E+00  0.11426732045E+04  0.19006568097E+04  0.15188134368E+04 0.  0.
        3    1    3    3  502    0 -0.63176349811E+03  0.16636044719E+03  0.86833379909E+02  0.65904549312E+03  0.10100000352E+00 0. -1.
       -3    1    3    3    0  502  0.63176349811E+03 -0.16636044719E+03  0.10558398246E+04  0.12416113165E+04  0.10100000352E+00 0.  1.
</event>
<event>
 5   0  0.1082667E-03  0.1585049E+04  0.7818609E-02  0.8829786E-01
       -2   -1    0    0    0  501  0.00000000000E+00  0.00000000000E+00  0.43477041600E+03  0.43477041600E+03  0.25500000920E-02 0.  1.
        2   -1    0    0  501    0  0.00000000000E+00  0.00000000000E+00 -0.14446583929E+04  0.14446583929E+04  0.25500000920E-02 0. -1.
    10030    2    1    2    0    0  0.00000000000E+00  0.00000000000E+00 -0.10098879769E+04  0.18794288089E+04  0.15850485550E+04 0.  0.
        5    1    3    3  502    0 -0.51534360427E+03  0.60162670192E+03 -0.53247017682E+03  0.95450526354E+03  0.46999998093E+01 0. -1.
       -5    1    3    3    0  502  0.51534360427E+03 -0.60162670192E+03 -0.47741780007E+03  0.92492354535E+03  0.46999998093E+01 0.  1.
</event>
<event>
 5   0  0.5840834E-04  0.1498247E+04  0.7818609E-02  0.8885620E-01
        1   -1    0    0  501    0  0.00000000000E+00  0.00000000000E+00  0.84262566744E+03  0.84262566745E+03  0.50400001928E-02 0.  1.
       -1   -1    0    0    0  501  0.00000000000E+00  0.00000000000E+00 -0.66599675330E+03  0.66599675331E+03  0.50400001928E-02 0. -1.
    10030    2    1    2    0    0  0.00000000000E+00  0.00000000000E+00  0.17662891414E+03  0.15086224208E+04  0.14982469206E+04 0.  0.
        3    1    3    3  502    0 -0.74295092318E+02 -0.60784324548E+03 -0.34617433543E+03  0.70344143504E+03  0.10100000352E+00 0. -1.
       -3    1    3    3    0  502  0.74295092318E+02  0.60784324548E+03  0.52280324958E+03  0.80518098573E+03  0.10100000352E+00 0.  1.
</event>
<event>
 5   0  0.5606965E-04  0.1497218E+04  0.7818609E-02  0.8886305E-01
        1   -1    0    0  501    0  0.00000000000E+00  0.00000000000E+00  0.96732741571E+03  0.96732741572E+03  0.50400001928E-02 0. -1.
       -1   -1    0    0    0  501  0.00000000000E+00  0.00000000000E+00 -0.57934407544E+03  0.57934407546E+03  0.50400001928E-02 0.  1.
    10030    2    1    2    0    0  0.00000000000E+00  0.00000000000E+00  0.38798334027E+03  0.15466714912E+04  0.14972179632E+04 0.  0.
        4    1    3    3  502    0 -0.42604100090E+03 -0.43738157224E+03  0.64142643347E+03  0.88557498645E+03  0.12699999809E+01 0. -1.
       -4    1    3    3    0  502  0.42604100090E+03  0.43738157224E+03 -0.25344309320E+03  0.66109650473E+03  0.12699999809E+01 0.  1.
</event>
<event>
 5   0  0.5914645E-04  0.1510753E+04  0.7818609E-02  0.8877333E-01
       -1   -1    0    0    0  501  0.00000000000E+00  0.00000000000E+00  0.53675694169E+03  0.53675694171E+03  0.50400001928E-02 0.  1.
        1   -1    0    0  501    0  0.00000000000E+00  0.00000000000E+00 -0.10630395229E+04  0.10630395229E+04  0.50400001928E-02 0. -1.
    10030    2    1    2    0    0  0.00000000000E+00  0.00000000000E+00 -0.52628258119E+03  0.15997964646E+04  0.15107532469E+04 0.  0.
        2    1    3    3  502    0  0.33148327736E+03 -0.22065727572E+03 -0.94286426787E+03  0.10235056542E+04  0.25500000920E-02 0. -1.
       -2    1    3    3    0  502 -0.33148327736E+03  0.22065727572E+03  0.41658168668E+03  0.57629081043E+03  0.25500000920E-02 0.  1.
</event>
<event>
 5   0  0.1147755E-03  0.1494251E+04  0.7818609E-02  0.8888285E-01
        2   -1    0    0  501    0  0.00000000000E+00  0.00000000000E+00  0.27553966646E+04  0.27553966646E+04  0.25500000920E-02 0. -1.
       -2   -1    0    0    0  501  0.00000000000E+00  0.00000000000E+00 -0.20258309901E+03  0.20258309902E+03  0.25500000920E-02 0.  1.
    10030    2    1    2    0    0  0.00000000000E+00  0.00000000000E+00  0.25528135655E+04  0.29579797636E+04  0.14942513782E+04 0.  0.
        4    1    3    3  502    0  0.50912235389E+03 -0.26932816119E+03  0.33438798633E+03  0.66600312908E+03  0.12699999809E+01 0.  1.
       -4    1    3    3    0  502 -0.50912235389E+03  0.26932816119E+03  0.22184255792E+04  0.22919766345E+04  0.12699999809E+01 0. -1.
</event>
<event>
 5   0  0.6146552E-04  0.1521622E+04  0.7818609E-02  0.8870200E-01
        1   -1    0    0  501    0  0.00000000000E+00  0.00000000000E+00  0.13070581786E+04  0.13070581786E+04  0.50400001928E-02 0.  1.
       -1   -1    0    0    0  501  0.00000000000E+00  0.00000000000E+00 -0.44285218193E+03  0.44285218196E+03  0.50400001928E-02 0. -1.
    10030    2    1    2    0    0  0.00000000000E+00  0.00000000000E+00  0.86420599670E+03  0.17499103606E+04  0.15216222479E+04 0.  0.
        5    1    3    3  502    0  0.36353333364E+03  0.21179341265E+02  0.12003075282E+04  0.12543385912E+04  0.46999998093E+01 0.  1.
       -5    1    3    3    0  502 -0.36353333364E+03 -0.21179341265E+02 -0.33610153148E+03  0.49557176940E+03  0.46999998093E+01 0. -1.
</event>
<event>
 5   0  0.1082667E-03  0.1497395E+04  0.7818609E-02  0.8886187E-01
       -2   -1    0    0    0  501  0.00000000000E+00  0.00000000000E+00  0.12439695112E+04  0.12439695112E+04  0.25500000920E-02 0.  1.
        2   -1    0    0  501    0  0.00000000000E+00  0.00000000000E+00 -0.45061258353E+03  0.45061258354E+03  0.25500000920E-02 0. -1.
    10030    2    1    2    0    0  0.00000000000E+00  0.00000000000E+00  0.79335692764E+03  0.16945820947E+04  0.14973954925E+04 0.  0.
        5    1    3    3  502    0  0.30972520939E+03  0.30377885300E+02  0.11672843556E+04  0.12080676215E+04  0.46999998093E+01 0.  1.
       -5    1    3    3    0  502 -0.30972520939E+03 -0.30377885300E+02 -0.37392742798E+03  0.48651447321E+03  0.46999998093E+01 0. -1.
</event>
<event>
 5   0  0.5914645E-04  0.1495144E+04  0.7818609E-02  0.8887688E-01
        1   -1    0    0  501    0  0.00000000000E+00  0.00000000000E+00  0.19435315303E+04  0.19435315303E+04  0.50400001928E-02 0. -1.
       -1   -1    0    0    0  501  0.00000000000E+00  0.00000000000E+00 -0.28755083449E+03  0.28755083453E+03  0.50400001928E-02 0.  1.
    10030    2    1    2    0    0  0.00000000000E+00  0.00000000000E+00  0.16559806958E+04  0.22310823649E+04  0.14951442920E+04 0.  0.
        2    1    3    3  502    0  0.55263126510E+03 -0.48110803768E+03  0.10493113650E+04  0.12798127206E+04  0.25500000920E-02 0. -1.
       -2    1    3    3    0  502 -0.55263126510E+03  0.48110803768E+03  0.60666933080E+03  0.95126964423E+03  0.25500000920E-02 0.  1.
</event>
<event>
 5   0  0.1149716E-03  0.1495608E+04  0.7818609E-02  0.8887379E-01
        2   -1    0    0  501    0  0.00000000000E+00  0.00000000000E+00  0.12071186545E+04  0.12071186545E+04  0.25500000920E-02 0. -1.
       -2   -1    0    0    0  501  0.00000000000E+00  0.00000000000E+00 -0.46326064470E+03  0.46326064470E+03  0.25500000920E-02 0.  1.
    10030    2    1    2    0    0  0.00000000000E+00  0.00000000000E+00  0.74385800979E+03  0.16703792992E+04  0.14956076573E+04 0.  0.
        1    1    3    3  502    0 -0.45767167454E+02  0.45306397940E+03 -0.29055524382E+03  0.54017029980E+03  0.50400001928E-02 0.  1.
       -1    1    3    3    0  502  0.45767167454E+02 -0.45306397940E+03  0.10344132536E+04  0.11302089994E+04  0.50400001928E-02 0. -1.
</event>
<event>
 5   0  0.6146552E-04  0.1469255E+04  0.7818609E-02  0.8905160E-01
       -1   -1    0    0    0  501  0.00000000000E+00  0.00000000000E+00  0.10328220359E+04  0.10328220359E+04  0.50400001928E-02 0.  1.
        1   -1    0    0  501    0  0.00000000000E+00  0.00000000000E+00 -0.52252697494E+03  0.52252697497E+03  0.50400001928E-02 0. -1.
    10030    2    1    2    0    0  0.00000000000E+00  0.00000000000E+00  0.51029506096E+03  0.15553490109E+04  0.14692547418E+04 0.  0.
        5    1    3    3  502    0  0.68044301557E+03 -0.15186816876E+03  0.10090510307E+02  0.69727365253E+03  0.46999998093E+01 0. -1.
       -5    1    3    3    0  502 -0.68044301557E+03  0.15186816876E+03  0.50020455066E+03  0.85807535835E+03  0.46999998093E+01 0.  1.
</event>
<event>
 5   0  0.5914645E-04  0.1504495E+04  0.7818609E-02  0.8881469E-01
        1   -1    0    0  501    0  0.00000000000E+00  0.00000000000E+00  0.98833452405E+03  0.98833452406E+03  0.50400001928E-02 0.  1.
       -1   -1    0    0    0  501  0.00000000000E+00  0.00000000000E+00 -0.57255570277E+03  0.57255570279E+03  0.50400001928E-02 0. -1.
    10030    2    1    2    0    0  0.00000000000E+00  0.00000000000E+00  0.41577882128E+03  0.15608902269E+04  0.15044953546E+04 0.  0.
        2    1    3    3  502    0 -0.50128095666E+02 -0.38312058607E+03  0.87751485491E+03  0.95881516990E+03  0.25500000920E-02 0.  1.
       -2    1    3    3    0  502  0.50128095666E+02  0.38312058607E+03 -0.46173603362E+03  0.60207505695E+03  0.25500000920E-02 0. -1.
</event>
<event>
 5   0  0.1097156E-03  0.1506672E+04  0.7818609E-02  0.8880028E-01
        2   -1    0    0  501    0  0.00000000000E+00  0.00000000000E+00  0.10484911095E+04  0.10484911095E+04  0.25500000920E-02 0.  1.
       -2   -1    0    0    0  501  0.00000000000E+00  0.00000000000E+00 -0.54126828559E+03  0.54126828560E+03  0.25500000920E-02 0. -1.
    10030    2    1    2    0    0  0.00000000000E+00  0.00000000000E+00  0.50722282392E+03  0.15897593951E+04  0.15066718094E+04 0.  0.
        2    1    3    3  502    0 -0.14335301110E+02 -0.13468362967E+03  0.10355381475E+04  0.10443583848E+04  0.25500000920E-02 0.  1.
       -2    1    3    3    0  502  0.14335301110E+02  0.13468362967E+03 -0.52831532356E+03  0.54540101034E+03  0.25500000920E-02 0. -1.
</event>
<event>
 5   0  0.1097156E-03  0.1495992E+04  0.7818609E-02  0.8887122E-01
       -2   -1    0    0    0  501  0.00000000000E+00  0.00000000000E+00  0.31434199663E+03  0.31434199664E+03  0.25500000920E-02 0.  1.
        2   -1    0    0  501    0  0.00000000000E+00  0.00000000000E+00 -0.17799027603E+04  0.17799027603E+04  0.25500000920E-02 0. -1.
    10030    2    1    2    0    0  0.00000000000E+00  0.00000000000E+00 -0.14655607637E+04  0.20942447569E+04  0.14959922293E+04 0.  0.
        2    1    3    3  502    0 -0.46757059121E+03  0.15784548315E+03 -0.15196715223E+04  0.15977919107E+04  0.25500000920E-02 0. -1.
       -2    1    3    3    0  502  0.46757059121E+03 -0.15784548315E+03  0.54110758623E+02  0.49645284622E+03  0.25500000920E-02 0.  1.
</event>
<event>
 5   0  0.1147755E-03  0.1495333E+04  0.7818609E-02  0.8887562E-01
       -2   -1    0    0    0  501  0.00000000000E+00  0.00000000000E+00  0.28344564094E+03  0.28344564095E+03  0.25500000920E-02 0. -1.
        2   -1    0    0  501    0  0.00000000000E+00  0.00000000000E+00 -0.19721787319E+04  0.19721787319E+04  0.25500000920E-02 0.  1.
    10030    2    1    2    0    0  0.00000000000E+00  0.00000000000E+00 -0.16887330909E+04  0.22556243728E+04  0.14953333604E+04 0.  0.
        4    1    3    3  502    0 -0.59801837471E+02  0.36907532616E+03 -0.18210303411E+04  0.18590174749E+04  0.12699999809E+01 0.  1.
       -4    1    3    3    0  502  0.59801837471E+02 -0.36907532616E+03  0.13229725014E+03  0.39660689788E+03  0.12699999809E+01 0. -1.
</event>
<event>
 5   0  0.1097156E-03  0.1491137E+04  0.7818609E-02  0.8890368E-01
        2   -1    0    0  501    0  0.00000000000E+00  0.00000000000E+00  0.58850875831E+03  0.58850875831E+03  0.25500000920E-02 0.  1.
       -2   -1    0    0    0  501  0.00000000000E+00  0.00000000000E+00 -0.94454386084E+03  0.94454386085E+03  0.25500000920E-02 0. -1.
    10030    2    1    2    0    0  0.00000000000E+00  0.00000000000E+00 -0.35603510254E+03  0.15330526192E+04  0.14911369283E+04 0.  0.
        2    1    3    3  502    0  0.22913038024E+03 -0.18309847585E+03 -0.88273911013E+03  0.93019036738E+03  0.25500000920E-02 0. -1.
       -2    1    3    3    0  502 -0.22913038024E+03  0.18309847585E+03  0.52670400759E+03  0.60286225178E+03  0.25500000920E-02 0.  1.
</event>
<event>
 5   0  0.1097156E-03  0.1494074E+04  0.7818609E-02  0.8888404E-01
        2   -1    0    0  501    0  0.00000000000E+00  0.00000000000E+00  0.14420176888E+04  0.14420176888E+04  0.25500000920E-02 0.  1.
       -2   -1    0    0    0  501  0.00000000000E+00  0.00000000000E+00 -0.38700215907E+03  0.38700215908E+03  0.25500000920E-02 0. -1.
    10030    2    1    2    0    0  0.00000000000E+00  0.00000000000E+00  0.10550155298E+04  0.18290198479E+04  0.14940735712E+04 0.  0.
        2    1    3    3  502    0  0.12295378693E+03  0.73264007512E+03  0.43123335471E+03  0.85897690284E+03  0.25500000920E-02 0. -1.
       -2    1    3    3    0  502 -0.12295378693E+03 -0.73264007512E+03  0.62378217506E+03  0.97004294509E+03  0.25500000920E-02 0.  1.
</event>
<event>
 5   0  0.1126175E-03  0.1506102E+04  0.7818609E-02  0.8880405E-01
       -2   -1    0    0    0  501  0.00000000000E+00  0.00000000000E+00  0.43746796358E+03  0.43746796358E+03  0.25500000920E-02 0. -1.
        2   -1    0    0  501    0  0.00000000000E+00  0.00000000000E+00 -0.12962911527E+04  0.12962911527E+04  0.25500000920E-02 0.  1.
    10030    2    1    2    0    0  0.00000000000E+00  0.00000000000E+00 -0.85882318910E+03  0.17337591163E+04  0.15061020560E+04 0.  0.
        3    1    3    3  502    0 -0.32235752730E+03  0.19494432473E+03  0.32119907076E+03  0.49506213591E+03  0.10100000352E+00 0. -1.
       -3    1    3    3    0  502  0.32235752730E+03 -0.19494432473E+03 -0.11800222599E+04  0.12386969804E+04  0.10100000352E+00 0.  1.
</event>
<event>
 5   0  0.5606965E-04  0.1456574E+04  0.7818609E-02  0.8913856E-01
       -1   -1    0    0    0  501  0.00000000000E+00  0.00000000000E+00  0.47647506674E+03  0.47647506677E+03  0.50400001928E-02 0.  1.
        1   -1    0    0  501    0  0.00000000000E+00  0.00000000000E+00 -0.11131781920E+04  0.11131781920E+04  0.50400001928E-02 0. -1.
    10030    2    1    2    0    0  0.00000000000E+00  0.00000000000E+00 -0.63670312521E+03  0.15896532587E+04  0.14565735867E+04 0.  0.
        4    1    3    3  502    0  0.60350115786E+03  0.28459300666E+03  0.19467095365E+00  0.66723944561E+03  0.12699999809E+01 0.  1.
       -4    1    3    3    0  502 -0.60350115786E+03 -0.28459300666E+03 -0.63689779617E+03  0.92241381312E+03  0.12699999809E+01 0. -1.
</event>
<event>
 5   0  0.5924403E-04  0.1504128E+04  0.7818609E-02  0.8881712E-01
        1   -1    0    0  501    0  0.00000000000E+00  0.00000000000E+00  0.21841181152E+04  0.21841181152E+04  0.50400001928E-02 0. -1.
       -1   -1    0    0    0  501  0.00000000000E+00  0.00000000000E+00 -0.25896053336E+03  0.25896053341E+03  0.50400001928E-02 0.  1.
    10030    2    1    2    0    0  0.00000000000E+00  0.00000000000E+00  0.19251575818E+04  0.24430786486E+04  0.15041281755E+04 0.  0.
        1    1    3    3  502    0  0.29209462670E+03 -0.28879091194E+03 -0.60673481083E+02  0.41521167264E+03  0.50400001928E-02 0.  1.
       -1    1    3    3    0  502 -0.29209462670E+03  0.28879091194E+03  0.19858310629E+04  0.20278669760E+04  0.50400001928E-02 0. -1.
</event>
<event>
 5   0  0.5840834E-04  0.1492768E+04  0.7818609E-02  0.8889277E-01
        1   -1    0    0  501    0  0.00000000000E+00  0.00000000000E+00  0.80678179341E+03  0.80678179343E+03  0.50400001928E-02 0.  1.
       -1   -1    0    0    0  501  0.00000000000E+00  0.00000000000E+00 -0.69050737948E+03  0.69050737949E+03  0.50400001928E-02 0. -1.
    10030    2    1    2    0    0  0.00000000000E+00  0.00000000000E+00  0.11627441393E+03  0.14972891729E+04  0.14927676068E+04 0.  0.
        3    1    3    3  502    0 -0.11685789672E+03 -0.39807944719E+03  0.68047264553E+03  0.79697305213E+03  0.10100000352E+00 0.  1.
       -3    1    3    3    0  502  0.11685789672E+03  0.39807944719E+03 -0.56419823160E+03  0.70031612079E+03  0.10100000352E+00 0. -1.
</event>
<event>
 5   0  0.5914645E-04  0.1506788E+04  0.7818609E-02  0.8879951E-01
        1   -1    0    0  501    0  0.00000000000E+00  0.00000000000E+00  0.11819790279E+04  0.11819790279E+04  0.50400001928E-02 0.  1.
       -1   -1    0    0    0  501  0.00000000000E+00  0.00000000000E+00 -0.48021387756E+03  0.48021387758E+03  0.50400001928E-02 0. -1.
    10030    2    1    2    0    0  0.00000000000E+00  0.00000000000E+00  0.70176515036E+03  0.16621929055E+04  0.15067882827E+04 0.  0.
        2    1    3    3  502    0 -0.52171512409E+03 -0.38099952745E+03 -0.76723892787E+02  0.65056426766E+03  0.25500000920E-02 0. -1.
       -2    1    3    3    0  502  0.52171512409E+03  0.38099952745E+03  0.77848904315E+03  0.10116286379E+04  0.25500000920E-02 0.  1.
</event>
<event>
 5   0  0.5840834E-04  0.1456620E+04  0.7818609E-02  0.8913824E-01
        1   -1    0    0  501    0  0.00000000000E+00  0.00000000000E+00  0.88169085945E+03  0.88169085947E+03  0.50400001928E-02 0.  1.
       -1   -1    0    0    0  501  0.00000000000E+00  0.00000000000E+00 -0.60161123237E+03  0.60161123239E+03  0.50400001928E-02 0. -1.
    10030    2    1    2    0    0  0.00000000000E+00  0.00000000000E+00  0.28007962708E+03  0.14833020919E+04  0.14566195448E+04 0.  0.
        3    1    3    3  502    0 -0.24290604755E+03  0.45371302108E+03 -0.38474118587E+03  0.64256100390E+03  0.10100000352E+00 0. -1.
       -3    1    3    3    0  502  0.24290604755E+03 -0.45371302108E+03  0.66482081295E+03  0.84074108795E+03  0.10100000352E+00 0.  1.
</event>
<event>
 5   0  0.1147755E-03  0.1525671E+04  0.7818609E-02  0.8867559E-01
       -2   -1    0    0    0  501  0.00000000000E+00  0.00000000000E+00  0.28601093920E+03  0.28601093921E+03  0.25500000920E-02 0. -1.
        2   -1    0    0  501    0  0.00000000000E+00  0.00000000000E+00 -0.20345997513E+04  0.20345997513E+04  0.25500000920E-02 0.  1.
    10030    2    1    2    0    0  0.00000000000E+00  0.00000000000E+00 -0.17485888121E+04  0.23206106906E+04  0.15256707191E+04 0.  0.
        4    1    3    3  502    0 -0.32729089984E+02  0.41803155118E+03 -0.18435874266E+04  0.18906712521E+04  0.12699999809E+01 0.  1.
       -4    1    3    3    0  502  0.32729089984E+02 -0.41803155118E+03  0.94998614433E+02  0.42993943848E+03  0.12699999809E+01 0. -1.
</event>
<event>
 5   0  0.1147755E-03  0.1481958E+04  0.7818609E-02  0.8896540E-01
       -2   -1    0    0    0  501  0.00000000000E+00  0.00000000000E+00  0.20272264448E+03  0.20272264450E+03  0.25500000920E-02 0.  1.
        2   -1    0    0  501    0  0.00000000000E+00  0.00000000000E+00 -0.27083813249E+04  0.27083813249E+04  0.25500000920E-02 0. -1.
    10030    2    1    2    0    0  0.00000000000E+00  0.00000000000E+00 -0.25056586804E+04  0.29111039694E+04  0.14819584670E+04 0.  0.
        4    1    3    3  502    0 -0.71699739643E+03 -0.42215304669E+02 -0.89500670142E+03  0.11475652517E+04  0.12699999809E+01 0.  1.
       -4    1    3    3    0  502  0.71699739643E+03  0.42215304669E+02 -0.16106519790E+04  0.17635387177E+04  0.12699999809E+01 0. -1.
</event>
<event>
 5   0  0.1097156E-03  0.1476573E+04  0.7818609E-02  0.8900183E-01
        2   -1    0    0  501    0  0.00000000000E+00  0.00000000000E+00  0.78369284551E+03  0.78369284551E+03  0.25500000920E-02 0. -1.
       -2   -1    0    0    0  501  0.00000000000E+00  0.00000000000E+00 -0.69551094334E+03  0.69551094335E+03  0.25500000920E-02 0.  1.
    10030    2    1    2    0    0  0.00000000000E+00  0.00000000000E+00  0.88181902167E+02  0.14792037889E+04  0.14765729921E+04 0.  0.
        2    1    3    3  502    0 -0.69509646368E+03 -0.23683724933E+03  0.12048935929E+03  0.74415634258E+03  0.25500000920E-02 0.  1.
       -2    1    3    3    0  502  0.69509646368E+03  0.23683724933E+03 -0.32307457119E+02  0.73504744628E+03  0.25500000920E-02 0. -1.
</event>
<event>
 5   0  0.4070625E-04  0.1507956E+04  0.7818609E-02  0.8879179E-01
       -3   -1    0    0    0  501  0.00000000000E+00  0.00000000000E+00  0.12821636953E+04  0.12821636993E+04  0.10100000352E+00 0.  1.
        3   -1    0    0  501    0  0.00000000000E+00  0.00000000000E+00 -0.44337778807E+03  0.44337779957E+03  0.10100000352E+00 0. -1.
    10030    2    1    2    0    0  0.00000000000E+00  0.00000000000E+00  0.83878590723E+03  0.17255414988E+04  0.15079561221E+04 0.  0.
        1    1    3    3  502    0  0.44465894663E+03 -0.55418554600E+03  0.13072350154E+03  0.72244849788E+03  0.50400001928E-02 0. -1.
       -1    1    3    3    0  502 -0.44465894663E+03  0.55418554600E+03  0.70806240569E+03  0.10030930010E+04  0.50400001928E-02 0.  1.
</event>
<event>
 5   0  0.5606965E-04  0.1527713E+04  0.7818609E-02  0.8866230E-01
       -1   -1    0    0    0  501  0.00000000000E+00  0.00000000000E+00  0.65354316825E+03  0.65354316827E+03  0.50400001928E-02 0.  1.
        1   -1    0    0  501    0  0.00000000000E+00  0.00000000000E+00 -0.89279023410E+03  0.89279023412E+03  0.50400001928E-02 0. -1.
    10030    2    1    2    0    0  0.00000000000E+00  0.00000000000E+00 -0.23924706585E+03  0.15463334024E+04  0.15277132692E+04 0.  0.
        4    1    3    3  502    0 -0.76133439406E+03  0.57788034707E+02 -0.96858774287E+02  0.76964456185E+03  0.12699999809E+01 0.  1.
       -4    1    3    3    0  502  0.76133439406E+03 -0.57788034707E+02 -0.14238829156E+03  0.77668884053E+03  0.12699999809E+01 0. -1.
</event>
<event>
 5   0  0.5840834E-04  0.1488222E+04  0.7818609E-02  0.8892323E-01
        1   -1    0    0  501    0  0.00000000000E+00  0.00000000000E+00  0.85391623348E+03  0.85391623349E+03  0.50400001928E-02 0.  1.
       -1   -1    0    0    0  501  0.00000000000E+00  0.00000000000E+00 -0.64842547429E+03  0.64842547431E+03  0.50400001928E-02 0. -1.
    10030    2    1    2    0    0  0.00000000000E+00  0.00000000000E+00  0.20549075918E+03  0.15023417078E+04  0.14882218097E+04 0.  0.
        3    1    3    3  502    0 -0.61239907772E+03  0.37992219813E+03 -0.84289361735E+02  0.72558818467E+03  0.10100000352E+00 0. -1.
       -3    1    3    3    0  502  0.61239907772E+03 -0.37992219813E+03  0.28978012092E+03  0.77675352314E+03  0.10100000352E+00 0.  1.
</event>
<event>
 5   0  0.5606965E-04  0.1431352E+04  0.7818609E-02  0.8931432E-01
        1   -1    0    0  501    0  0.00000000000E+00  0.00000000000E+00  0.75209618534E+03  0.75209618536E+03  0.50400001928E-02 0.  1.
       -1   -1    0    0    0  501  0.00000000000E+00  0.00000000000E+00 -0.68101904613E+03  0.68101904614E+03  0.50400001928E-02 0. -1.
    10030    2    1    2    0    0  0.00000000000E+00  0.00000000000E+00  0.71077139215E+02  0.14331152315E+04  0.14313515665E+04 0.  0.
        4    1    3    3  502    0 -0.35374657504E+03 -0.39799337897E+03  0.51430644042E+03  0.74030270607E+03  0.12699999809E+01 0.  1.
       -4    1    3    3    0  502  0.35374657504E+03  0.39799337897E+03 -0.44322930120E+03  0.69281252543E+03  0.12699999809E+01 0. -1.
</event>
<event>
 5   0  0.5606965E-04  0.1348811E+04  0.7818609E-02  0.8991729E-01
       -1   -1    0    0    0  501  0.00000000000E+00  0.00000000000E+00  0.85541474798E+03  0.85541474800E+03  0.50400001928E-02 0. -1.
        1   -1    0    0  501    0  0.00000000000E+00  0.00000000000E+00 -0.53169822061E+03  0.53169822063E+03  0.50400001928E-02 0.  1.
    10030    2    1    2    0    0  0.00000000000E+00  0.00000000000E+00  0.32371652737E+03  0.13871129686E+04  0.13488105863E+04 0.  0.
        4    1    3    3  502    0 -0.53791023081E+02  0.42230960336E+02  0.85183838556E+03  0.85458011690E+03  0.12699999809E+01 0. -1.
       -4    1    3    3    0  502  0.53791023081E+02 -0.42230960336E+02 -0.52812185819E+03  0.53253285173E+03  0.12699999809E+01 0.  1.
</event>
<event>
 5   0  0.1126175E-03  0.1494921E+04  0.7818609E-02  0.8887837E-01
        2   -1    0    0  501    0  0.00000000000E+00  0.00000000000E+00  0.14687667199E+04  0.14687667199E+04  0.25500000920E-02 0.  1.
       -2   -1    0    0    0  501  0.00000000000E+00  0.00000000000E+00 -0.38038543208E+03  0.38038543209E+03  0.25500000920E-02 0. -1.
    10030    2    1    2    0    0  0.00000000000E+00  0.00000000000E+00  0.10883812878E+04  0.18491521520E+04  0.14949213536E+04 0.  0.
        3    1    3    3  502    0  0.32812724890E+00 -0.96621454992E+02 -0.37262806534E+03  0.38495129369E+03  0.10100000352E+00 0. -1.
       -3    1    3    3    0  502 -0.32812724890E+00  0.96621454992E+02  0.14610093531E+04  0.14642008583E+04  0.10100000352E+00 0.  1.
</event>
<event>
 5   0  0.1097156E-03  0.1471123E+04  0.7818609E-02  0.8903886E-01
       -2   -1    0    0    0  501  0.00000000000E+00  0.00000000000E+00  0.32877878342E+03  0.32877878343E+03  0.25500000920E-02 0. -1.
        2   -1    0    0  501    0  0.00000000000E+00  0.00000000000E+00 -0.16456377162E+04  0.16456377162E+04  0.25500000920E-02 0.  1.
    10030    2    1    2    0    0  0.00000000000E+00  0.00000000000E+00 -0.13168589328E+04  0.19744164996E+04  0.14711230625E+04 0.  0.
        2    1    3    3  502    0 -0.44478587709E+03  0.12123362641E+03 -0.14276835563E+04  0.15002707775E+04  0.25500000920E-02 0.  1.
       -2    1    3    3    0  502  0.44478587709E+03 -0.12123362641E+03  0.11082462358E+03  0.47414572215E+03  0.25500000920E-02 0. -1.
</event>
<event>
 5   0  0.1126175E-03  0.1508294E+04  0.7818609E-02  0.8878956E-01
       -2   -1    0    0    0  501  0.00000000000E+00  0.00000000000E+00  0.49240121396E+03  0.49240121396E+03  0.25500000920E-02 0.  1.
        2   -1    0    0  501    0  0.00000000000E+00  0.00000000000E+00 -0.11550287565E+04  0.11550287565E+04  0.25500000920E-02 0. -1.
    10030    2    1    2    0    0  0.00000000000E+00  0.00000000000E+00 -0.66262754258E+03  0.16474299705E+04  0.15082938200E+04 0.  0.
        3    1    3    3  502    0  0.10606511643E+03 -0.54234182160E+03 -0.89183261987E+03  0.10491662845E+04  0.10100000352E+00 0. -1.
       -3    1    3    3    0  502 -0.10606511643E+03  0.54234182160E+03  0.22920507729E+03  0.59826368604E+03  0.10100000352E+00 0.  1.
</event>
<event>
 5   0  0.1082667E-03  0.1509057E+04  0.7818609E-02  0.8878452E-01
        2   -1    0    0  501    0  0.00000000000E+00  0.00000000000E+00  0.93037444513E+03  0.93037444514E+03  0.25500000920E-02 0.  1.
       -2   -1    0    0    0  501  0.00000000000E+00  0.00000000000E+00 -0.61191871995E+03  0.61191871996E+03  0.25500000920E-02 0. -1.
    10030    2    1    2    0    0  0.00000000000E+00  0.00000000000E+00  0.31845572518E+03  0.15422931651E+04  0.15090573741E+04 0.  0.
        5    1    3    3  502    0 -0.15702020513E+02  0.61002186047E+03  0.61275589857E+03  0.86479194314E+03  0.46999998093E+01 0.  1.
       -5    1    3    3    0  502  0.15702020513E+02 -0.61002186047E+03 -0.29430017339E+03  0.67750122195E+03  0.46999998093E+01 0. -1.
</event>
<event>
 5   0  0.6146552E-04  0.1492156E+04  0.7818609E-02  0.8889686E-01
        1   -1    0    0  501    0  0.00000000000E+00  0.00000000000E+00  0.77593780543E+03  0.77593780544E+03  0.50400001928E-02 0. -1.
       -1   -1    0    0    0  501  0.00000000000E+00  0.00000000000E+00 -0.71736698209E+03  0.71736698211E+03  0.50400001928E-02 0.  1.
    10030    2    1    2    0    0  0.00000000000E+00  0.00000000000E+00  0.58570823340E+02  0.14933047876E+04  0.14921557047E+04 0.  0.
        5    1    3    3  502    0  0.67318912746E+03  0.22892837804E+03  0.25533159056E+03  0.75551844103E+03  0.46999998093E+01 0.  1.
       -5    1    3    3    0  502 -0.67318912746E+03 -0.22892837804E+03 -0.19676076722E+03  0.73778634652E+03  0.46999998093E+01 0. -1.
</event>
<event>
 5   0  0.5914645E-04  0.1503828E+04  0.7818609E-02  0.8881911E-01
        1   -1    0    0  501    0  0.00000000000E+00  0.00000000000E+00  0.69019069037E+03  0.69019069039E+03  0.50400001928E-02 0.  1.
       -1   -1    0    0    0  501  0.00000000000E+00  0.00000000000E+00 -0.81915754266E+03  0.81915754267E+03  0.50400001928E-02 0. -1.
    10030    2    1    2    0    0  0.00000000000E+00  0.00000000000E+00 -0.12896685228E+03  0.15093482331E+04  0.15038283279E+04 0.  0.
        2    1    3    3  502    0  0.56539553283E+03 -0.47044172805E+03  0.92254385401E+02  0.74128159270E+03  0.25500000920E-02 0.  1.
       -2    1    3    3    0  502 -0.56539553283E+03  0.47044172805E+03 -0.22122123768E+03  0.76806664037E+03  0.25500000920E-02 0. -1.
</event>
<event>
 5   0  0.6146552E-04  0.1504746E+04  0.7818609E-02  0.8881303E-01
        1   -1    0    0  501    0  0.00000000000E+00  0.00000000000E+00  0.48628295905E+03  0.48628295907E+03  0.50400001928E-02 0.  1.
       -1   -1    0    0    0  501  0.00000000000E+00  0.00000000000E+00 -0.11640654272E+04  0.11640654272E+04  0.50400001928E-02 0. -1.
    10030    2    1    2    0    0  0.00000000000E+00  0.00000000000E+00 -0.67778246817E+03  0.16503483863E+04  0.15047460656E+04 0.  0.
        5    1    3    3  502    0 -0.51899125560E+03  0.22658865231E+02 -0.93577343173E+03  0.10703080646E+04  0.46999998093E+01 0. -1.
       -5    1    3    3    0  502  0.51899125560E+03 -0.22658865231E+02  0.25799096356E+03  0.58004032173E+03  0.46999998093E+01 0.  1.
</event>
<event>
 5   0  0.1097156E-03  0.1499620E+04  0.7818609E-02  0.8884706E-01
        2   -1    0    0  501    0  0.00000000000E+00  0.00000000000E+00  0.66664749999E+03  0.66664749999E+03  0.25500000920E-02 0. -1.
       -2   -1    0    0    0  501  0.00000000000E+00  0.00000000000E+00 -0.84334697048E+03  0.84334697048E+03  0.25500000920E-02 0.  1.
    10030    2    1    2    0    0  0.00000000000E+00  0.00000000000E+00 -0.17669947049E+03  0.15099944705E+04  0.14996201512E+04 0.  0.
        2    1    3    3  502    0 -0.36177595258E+03 -0.55302951767E+03  0.26834896366E+03  0.71325637297E+03  0.25500000920E-02 0. -1.
       -2    1    3    3    0  502  0.36177595258E+03  0.55302951767E+03 -0.44504843415E+03  0.79673809751E+03  0.25500000920E-02 0.  1.
</event>
<event>
 5   0  0.1149716E-03  0.1487127E+04  0.7818609E-02  0.8893059E-01
       -2   -1    0    0    0  501  0.00000000000E+00  0.00000000000E+00  0.47673818912E+03  0.47673818913E+03  0.25500000920E-02 0. -1.
        2   -1    0    0  501    0  0.00000000000E+00  0.00000000000E+00 -0.11597279667E+04  0.11597279667E+04  0.25500000920E-02 0.  1.
    10030    2    1    2    0    0  0.00000000000E+00  0.00000000000E+00 -0.68298977758E+03  0.16364661558E+04  0.14871269088E+04 0.  0.
        1    1    3    3  502    0  0.63932410084E+03 -0.81208295172E+02  0.66636110210E+02  0.64789695503E+03  0.50400001928E-02 0. -1.
       -1    1    3    3    0  502 -0.63932410084E+03  0.81208295172E+02 -0.74962588779E+03  0.98856920081E+03  0.50400001928E-02 0.  1.
</event>
<event>
 5   0  0.1149716E-03  0.1509620E+04  0.7818609E-02  0.8878081E-01
       -2   -1    0    0    0  501  0.00000000000E+00  0.00000000000E+00  0.85496754466E+03  0.85496754467E+03  0.25500000920E-02 0.  1.
        2   -1    0    0  501    0  0.00000000000E+00  0.00000000000E+00 -0.66638582967E+03  0.66638582967E+03  0.25500000920E-02 0. -1.
    10030    2    1    2    0    0  0.00000000000E+00  0.00000000000E+00  0.18858171500E+03  0.15213533743E+04  0.15096201596E+04 0.  0.
        1    1    3    3  502    0  0.43961581405E+03 -0.60810799514E+03  0.17666265890E+03  0.77088721145E+03  0.50400001928E-02 0.  1.
       -1    1    3    3    0  502 -0.43961581405E+03  0.60810799514E+03  0.11919056102E+02  0.75046616288E+03  0.50400001928E-02 0. -1.
</event>
<event>
 5   0  0.1126175E-03  0.1499161E+04  0.7818609E-02  0.8885011E-01
        2   -1    0    0  501    0  0.00000000000E+00  0.00000000000E+00  0.91076625549E+03  0.91076625550E+03  0.25500000920E-02 0.  1.
       -2   -1    0    0    0  501  0.00000000000E+00  0.00000000000E+00 -0.61692083753E+03  0.61692083753E+03  0.25500000920E-02 0. -1.
    10030    2    1    2    0    0  0.00000000000E+00  0.00000000000E+00  0.29384541797E+03  0.15276870930E+04  0.14991606734E+04 0.  0.
        3    1    3    3  502    0 -0.37501135848E+03  0.11331139201E+03 -0.50429748854E+03  0.63858355577E+03  0.10100000352E+00 0. -1.
       -3    1    3    3    0  502  0.37501135848E+03 -0.11331139201E+03  0.79814290651E+03  0.88910353726E+03  0.10100000352E+00 0.  1.
</event>
<event>
 5   0  0.5606965E-04  0.1506401E+04  0.7818609E-02  0.8880207E-01
       -1   -1    0    0    0  501  0.00000000000E+00  0.00000000000E+00  0.15921319492E+04  0.15921319492E+04  0.50400001928E-02 0.  1.
        1   -1    0    0  501    0  0.00000000000E+00  0.00000000000E+00 -0.35632164833E+03  0.35632164837E+03  0.50400001928E-02 0. -1.
    10030    2    1    2    0    0  0.00000000000E+00  0.00000000000E+00  0.12358103008E+04  0.19484535975E+04  0.15064011159E+04 0.  0.
        4    1    3    3  502    0 -0.67043581587E+03  0.14105341518E+03  0.10226726026E+04  0.12309513046E+04  0.12699999809E+01 0.  1.
       -4    1    3    3    0  502  0.67043581587E+03 -0.14105341518E+03  0.21313769822E+03  0.71750229299E+03  0.12699999809E+01 0. -1.
</event>
<event>
 5   0  0.1126175E-03  0.1574533E+04  0.7818609E-02  0.8836348E-01
        2   -1    0    0  501    0  0.00000000000E+00  0.00000000000E+00  0.59684234145E+03  0.59684234146E+03  0.25500000920E-02 0. -1.
       -2   -1    0    0    0  501  0.00000000000E+00  0.00000000000E+00 -0.10384455145E+04  0.10384455145E+04  0.25500000920E-02 0.  1.
    10030    2    1    2    0    0  0.00000000000E+00  0.00000000000E+00 -0.44160317306E+03  0.16352878560E+04  0.15745326321E+04 0.  0.
        3    1    3    3  502    0 -0.31893116157E+03 -0.23111661306E+03  0.48715796513E+03  0.62646218389E+03  0.10100000352E+00 0. -1.
       -3    1    3    3    0  502  0.31893116157E+03  0.23111661306E+03 -0.92876113819E+03  0.10088256721E+04  0.10100000352E+00 0.  1.
</event>
<event>
 5   0  0.5914645E-04  0.1458731E+04  0.7818609E-02  0.8912369E-01
        1   -1    0    0  501    0  0.00000000000E+00  0.00000000000E+00  0.11258140059E+04  0.11258140059E+04  0.50400001928E-02 0. -1.
       -1   -1    0    0    0  501  0.00000000000E+00  0.00000000000E+00 -0.47252419112E+03  0.47252419114E+03  0.50400001928E-02 0.  1.
    10030    2    1    2    0    0  0.00000000000E+00  0.00000000000E+00  0.65328981478E+03  0.15983381970E+04  0.14587314386E+04 0.  0.
        2    1    3    3  502    0  0.54582921645E+03  0.43216393110E+03  0.56489231913E+03  0.89654811867E+03  0.25500000920E-02 0. -1.
       -2    1    3    3    0  502 -0.54582921645E+03 -0.43216393110E+03  0.88397495650E+02  0.70179007838E+03  0.25500000920E-02 0.  1.
</event>
<event>
 5   0  0.4070625E-04  0.1480942E+04  0.7818609E-02  0.8897226E-01
        4   -1    0    0  501    0  0.00000000000E+00  0.00000000000E+00  0.86739077741E+03  0.86739170715E+03  0.12699999809E+01 0. -1.
       -4   -1    0    0    0  501  0.00000000000E+00  0.00000000000E+00 -0.63212065899E+03  0.63212193477E+03  0.12699999809E+01 0.  1.
    10030    2    1    2    0    0  0.00000000000E+00  0.00000000000E+00  0.23527011842E+03  0.14995136419E+04  0.14809419751E+04 0.  0.
        3    1    3    3  502    0  0.15700579364E+03 -0.30094164396E+03 -0.54870624377E+03  0.64520945782E+03  0.10100000352E+00 0.  1.
       -3    1    3    3    0  502 -0.15700579364E+03  0.30094164396E+03  0.78397636219E+03  0.85430418411E+03  0.10100000352E+00 0. -1.
</event>
<event>
 5   0  0.1126175E-03  0.1487044E+04  0.7818609E-02  0.8893115E-01
       -2   -1    0    0    0  501  0.00000000000E+00  0.00000000000E+00  0.19917922365E+03  0.19917922366E+03  0.25500000920E-02 0.  1.
        2   -1    0    0  501    0  0.00000000000E+00  0.00000000000E+00 -0.27755134936E+04  0.27755134936E+04  0.25500000920E-02 0. -1.
    10030    2    1    2    0    0  0.00000000000E+00  0.00000000000E+00 -0.25763342699E+04  0.29746927172E+04  0.14870435406E+04 0.  0.
        3    1    3    3  502    0  0.49798637674E+02  0.35052439800E+03 -0.25960684668E+04  0.26200989967E+04  0.10100000352E+00 0. -1.
       -3    1    3    3    0  502 -0.49798637674E+02 -0.35052439800E+03  0.19734196899E+02  0.35459372053E+03  0.10100000352E+00 0.  1.
</event>
<event>
 5   0  0.5914645E-04  0.1506437E+04  0.7818609E-02  0.8880184E-01
       -1   -1    0    0    0  501  0.00000000000E+00  0.00000000000E+00  0.54762968173E+03  0.54762968175E+03  0.50400001928E-02 0.  1.
        1   -1    0    0  501    0  0.00000000000E+00  0.00000000000E+00 -0.10359880375E+04  0.10359880375E+04  0.50400001928E-02 0. -1.
    10030    2    1    2    0    0  0.00000000000E+00  0.00000000000E+00 -0.48835835581E+03  0.15836177193E+04  0.15064365892E+04 0.  0.
        2    1    3    3  502    0 -0.58622326428E+02 -0.72391453192E+03 -0.34329618654E+02  0.72709514467E+03  0.25500000920E-02 0.  1.
       -2    1    3    3    0  502  0.58622326428E+02  0.72391453192E+03 -0.45402873716E+03  0.85652257463E+03  0.25500000920E-02 0. -1.
</event>
<event>
 5   0  0.5914645E-04  0.1440724E+04  0.7818609E-02  0.8924857E-01
       -1   -1    0    0    0  501  0.00000000000E+00  0.00000000000E+00  0.85519887480E+03  0.85519887481E+03  0.50400001928E-02 0. -1.
        1   -1    0    0  501    0  0.00000000000E+00  0.00000000000E+00 -0.60678465873E+03  0.60678465875E+03  0.50400001928E-02 0.  1.
    10030    2    1    2    0    0  0.00000000000E+00  0.00000000000E+00  0.24841421606E+03  0.14619835336E+04  0.14407242032E+04 0.  0.
        2    1    3    3  502    0 -0.52889863806E+03 -0.17905167182E+03 -0.33762203579E+03  0.65251966222E+03  0.25500000920E-02 0.  1.
       -2    1    3    3    0  502  0.52889863806E+03  0.17905167182E+03  0.58603625185E+03  0.80946387135E+03  0.25500000920E-02 0. -1.
</event>
<event>
 5   0  0.4070625E-04  0.1501983E+04  0.7818609E-02  0.8883136E-01
       -3   -1    0    0    0  501  0.00000000000E+00  0.00000000000E+00  0.90880312755E+03  0.90880313317E+03  0.10100000352E+00 0.  1.
        3   -1    0    0  501    0  0.00000000000E+00  0.00000000000E+00 -0.62058326396E+03  0.62058327218E+03  0.10100000352E+00 0. -1.
    10030    2    1    2    0    0  0.00000000000E+00  0.00000000000E+00  0.28821986359E+03  0.15293864053E+04  0.15019827186E+04 0.  0.
        2    1    3    3  502    0 -0.71020007090E+03 -0.62524092177E+02 -0.96192910759E+02  0.71940703284E+03  0.25500000920E-02 0.  1.
       -2    1    3    3    0  502  0.71020007090E+03  0.62524092177E+02  0.38441277435E+03  0.80997937251E+03  0.25500000920E-02 0. -1.
</event>
<event>
 5   0  0.1097156E-03  0.1498337E+04  0.7818609E-02  0.8885560E-01
       -2   -1    0    0    0  501  0.00000000000E+00  0.00000000000E+00  0.28740848153E+03  0.28740848154E+03  0.25500000920E-02 0. -1.
        2   -1    0    0  501    0  0.00000000000E+00  0.00000000000E+00 -0.19528066379E+04  0.19528066379E+04  0.25500000920E-02 0.  1.
    10030    2    1    2    0    0  0.00000000000E+00  0.00000000000E+00 -0.16653981564E+04  0.22402151194E+04  0.14983366651E+04 0.  0.
        2    1    3    3  502    0  0.60746254861E+03 -0.10676104064E+02 -0.17734475066E+03  0.63291064753E+03  0.25500000920E-02 0. -1.
       -2    1    3    3    0  502 -0.60746254861E+03  0.10676104064E+02 -0.14880534057E+04  0.16073044719E+04  0.25500000920E-02 0.  1.
</event>
<event>
 5   0  0.1097156E-03  0.1525930E+04  0.7818609E-02  0.8867391E-01
        2   -1    0    0  501    0  0.00000000000E+00  0.00000000000E+00  0.10638297215E+04  0.10638297215E+04  0.25500000920E-02 0.  1.
       -2   -1    0    0    0  501  0.00000000000E+00  0.00000000000E+00 -0.54718859254E+03  0.54718859254E+03  0.25500000920E-02 0. -1.
    10030    2    1    2    0    0  0.00000000000E+00  0.00000000000E+00  0.51664112899E+03  0.16110183141E+04  0.15259298647E+04 0.  0.
        2    1    3    3  502    0  0.70701925861E+03  0.18483609792E+03  0.48980669580E+03  0.87974497123E+03  0.25500000920E-02 0.  1.
       -2    1    3    3    0  502 -0.70701925861E+03 -0.18483609792E+03  0.26834433194E+02  0.73127334285E+03  0.25500000920E-02 0. -1.
</event>
<event>
 5   0  0.5840834E-04  0.1298262E+04  0.7818609E-02  0.9030944E-01
        1   -1    0    0  501    0  0.00000000000E+00  0.00000000000E+00  0.21699907052E+04  0.21699907052E+04  0.50400001928E-02 0. -1.
       -1   -1    0    0    0  501  0.00000000000E+00  0.00000000000E+00 -0.19418110968E+03  0.19418110975E+03  0.50400001928E-02 0.  1.
    10030    2    1    2    0    0  0.00000000000E+00  0.00000000000E+00  0.19758095955E+04  0.23641718149E+04  0.12982622281E+04 0.  0.
        3    1    3    3  502    0  0.23660004861E+03 -0.93176943590E+02  0.20755169546E+04  0.20910361463E+04  0.10100000352E+00 0. -1.
       -3    1    3    3    0  502 -0.23660004861E+03  0.93176943590E+02 -0.99707359151E+02  0.27313566865E+03  0.10100000352E+00 0.  1.
</event>
<event>
 5   0  0.1147755E-03  0.1575077E+04  0.7818609E-02  0.8836007E-01
        2   -1    0    0  501    0  0.00000000000E+00  0.00000000000E+00  0.13718779238E+04  0.13718779238E+04  0.25500000920E-02 0. -1.
       -2   -1    0    0    0  501  0.00000000000E+00  0.00000000000E+00 -0.45209336725E+03  0.45209336726E+03  0.25500000920E-02 0.  1.
    10030    2    1    2    0    0  0.00000000000E+00  0.00000000000E+00  0.91978455657E+03  0.18239712911E+04  0.15750770268E+04 0.  0.
        4    1    3    3  502    0 -0.11881623856E+03 -0.39536094427E+03 -0.31674815948E+03  0.52034467830E+03  0.12699999809E+01 0.  1.
       -4    1    3    3    0  502  0.11881623856E+03  0.39536094427E+03  0.12365327161E+04  0.13036266128E+04  0.12699999809E+01 0. -1.
</event>
<event>
 5   0  0.5924403E-04  0.1488601E+04  0.7818609E-02  0.8892069E-01
       -1   -1    0    0    0  501  0.00000000000E+00  0.00000000000E+00  0.35540239962E+03  0.35540239965E+03  0.50400001928E-02 0. -1.
        1   -1    0    0  501    0  0.00000000000E+00  0.00000000000E+00 -0.15587498362E+04  0.15587498362E+04  0.50400001928E-02 0.  1.
    10030    2    1    2    0    0  0.00000000000E+00  0.00000000000E+00 -0.12033474366E+04  0.19141522359E+04  0.14886012659E+04 0.  0.
        1    1    3    3  502    0 -0.14695185870E+03  0.68835795179E+03 -0.91282288184E+03  0.11526825809E+04  0.50400001928E-02 0. -1.
       -1    1    3    3    0  502  0.14695185870E+03 -0.68835795179E+03 -0.29052455475E+03  0.76146965501E+03  0.50400001928E-02 0.  1.
</event>
<event>
 5   0  0.1097156E-03  0.1476314E+04  0.7818609E-02  0.8900358E-01
        2   -1    0    0  501    0  0.00000000000E+00  0.00000000000E+00  0.97889194375E+03  0.97889194375E+03  0.25500000920E-02 0.  1.
       -2   -1    0    0    0  501  0.00000000000E+00  0.00000000000E+00 -0.55662521063E+03  0.55662521064E+03  0.25500000920E-02 0. -1.
    10030    2    1    2    0    0  0.00000000000E+00  0.00000000000E+00  0.42226673312E+03  0.15355171544E+04  0.14763142408E+04 0.  0.
        2    1    3    3  502    0 -0.36429756642E+03 -0.59705549882E+03  0.45657965790E+03  0.83525622989E+03  0.25500000920E-02 0.  1.
       -2    1    3    3    0  502  0.36429756642E+03  0.59705549882E+03 -0.34312924780E+02  0.70026092450E+03  0.25500000920E-02 0. -1.
</event>
<event>
 5   0  0.6146552E-04  0.1500060E+04  0.7818609E-02  0.8884413E-01
       -1   -1    0    0    0  501  0.00000000000E+00  0.00000000000E+00  0.79528639989E+03  0.79528639991E+03  0.50400001928E-02 0. -1.
        1   -1    0    0  501    0  0.00000000000E+00  0.00000000000E+00 -0.70734894028E+03  0.70734894030E+03  0.50400001928E-02 0.  1.
    10030    2    1    2    0    0  0.00000000000E+00  0.00000000000E+00  0.87937459611E+02  0.15026353402E+04  0.15000599884E+04 0.  0.
        5    1    3    3  502    0  0.24400409432E+03  0.31347762823E+03  0.68123440063E+03  0.78861183103E+03  0.46999998093E+01 0. -1.
       -5    1    3    3    0  502 -0.24400409432E+03 -0.31347762823E+03 -0.59329694101E+03  0.71402350918E+03  0.46999998093E+01 0.  1.
</event>
<event>
 5   0  0.1149716E-03  0.1505047E+04  0.7818609E-02  0.8881104E-01
        2   -1    0    0  501    0  0.00000000000E+00  0.00000000000E+00  0.12459069189E+04  0.12459069189E+04  0.25500000920E-02 0. -1.
       -2   -1    0    0    0  501  0.00000000000E+00  0.00000000000E+00 -0.45452172497E+03  0.45452172497E+03  0.25500000920E-02 0.  1.
    10030    2    1    2    0    0  0.00000000000E+00  0.00000000000E+00  0.79138519392E+03  0.17004286439E+04  0.15050471912E+04 0.  0.
        1    1    3    3  502    0  0.11745288366E+03  0.27840573541E+03 -0.38296957686E+03  0.48782233468E+03  0.50400001928E-02 0.  1.
       -1    1    3    3    0  502 -0.11745288366E+03 -0.27840573541E+03  0.11743547708E+04  0.12126063092E+04  0.50400001928E-02 0. -1.
</event>
<event>
 5   0  0.4070625E-04  0.1615036E+04  0.7818609E-02  0.8811364E-01
       -4   -1    0    0    0  501  0.00000000000E+00  0.00000000000E+00  0.64178069154E+03  0.64178194812E+03  0.12699999809E+01 0. -1.
        4   -1    0    0  501    0  0.00000000000E+00  0.00000000000E+00 -0.10160533537E+04  0.10160541474E+04  0.12699999809E+01 0.  1.
    10030    2    1    2    0    0  0.00000000000E+00  0.00000000000E+00 -0.37427266218E+03  0.16578360955E+04  0.16150357563E+04 0.  0.
        5    1    3    3  502    0 -0.57747141089E+03  0.54116502597E+03 -0.35179370337E+03  0.86609105495E+03  0.46999998093E+01 0.  1.
       -5    1    3    3    0  502  0.57747141089E+03 -0.54116502597E+03 -0.22478958817E+02  0.79174504060E+03  0.46999998093E+01 0. -1.
</event>
<event>
 5   0  0.5924403E-04  0.1525032E+04  0.7818609E-02  0.8867975E-01
        1   -1    0    0  501    0  0.00000000000E+00  0.00000000000E+00  0.15325399585E+04  0.15325399585E+04  0.50400001928E-02 0. -1.
       -1   -1    0    0    0  501  0.00000000000E+00  0.00000000000E+00 -0.37939035778E+03  0.37939035781E+03  0.50400001928E-02 0.  1.
    10030    2    1    2    0    0  0.00000000000E+00  0.00000000000E+00  0.11531496007E+04  0.19119303163E+04  0.15250323055E+04 0.  0.
        1    1    3    3  502    0  0.35905236818E+02  0.62387252843E+03  0.11243774755E+04  0.12863634110E+04  0.50400001928E-02 0. -1.
       -1    1    3    3    0  502 -0.35905236818E+02 -0.62387252843E+03  0.28772125197E+02  0.62556690528E+03  0.50400001928E-02 0.  1.
</event>
<event>
 5   0  0.5606965E-04  0.1180215E+04  0.7818609E-02  0.9130353E-01
       -1   -1    0    0    0  501  0.00000000000E+00  0.00000000000E+00  0.22620447369E+03  0.22620447374E+03  0.50400001928E-02 0. -1.
        1   -1    0    0  501    0  0.00000000000E+00  0.00000000000E+00 -0.15394333230E+04  0.15394333230E+04  0.50400001928E-02 0.  1.
    10030    2    1    2    0    0  0.00000000000E+00  0.00000000000E+00 -0.13132288493E+04  0.17656377967E+04  0.11802147341E+04 0.  0.
        4    1    3    3  502    0  0.54580747261E+03  0.12799625083E+03 -0.93221018873E+03  0.10877988262E+04  0.12699999809E+01 0.  1.
       -4    1    3    3    0  502 -0.54580747261E+03 -0.12799625083E+03 -0.38101866055E+03  0.67783897053E+03  0.12699999809E+01 0. -1.
</event>
<event>
 5   0  0.5606965E-04  0.1494064E+04  0.7818609E-02  0.8888410E-01
        1   -1    0    0  501    0  0.00000000000E+00  0.00000000000E+00  0.18366234139E+04  0.18366234139E+04  0.50400001928E-02 0.  1.
       -1   -1    0    0    0  501  0.00000000000E+00  0.00000000000E+00 -0.30384921394E+03  0.30384921398E+03  0.50400001928E-02 0. -1.
    10030    2    1    2    0    0  0.00000000000E+00  0.00000000000E+00  0.15327742000E+04  0.21404726279E+04  0.14940636943E+04 0.  0.
        4    1    3    3  502    0  0.24819658783E+03  0.21691471355E+03  0.17267995700E+04  0.17579794956E+04  0.12699999809E+01 0.  1.
       -4    1    3    3    0  502 -0.24819658783E+03 -0.21691471355E+03 -0.19402536999E+03  0.38249313231E+03  0.12699999809E+01 0. -1.
</event>
<event>
 5   0  0.1097156E-03  0.1512192E+04  0.7818609E-02  0.8876385E-01
        2   -1    0    0  501    0  0.00000000000E+00  0.00000000000E+00  0.64430705996E+03  0.64430705997E+03  0.25500000920E-02 0. -1.
       -2   -1    0    0    0  501  0.00000000000E+00  0.00000000000E+00 -0.88728091186E+03  0.88728091186E+03  0.25500000920E-02 0.  1.
    10030    2    1    2    0    0  0.00000000000E+00  0.00000000000E+00 -0.24297385189E+03  0.15315879718E+04  0.15121922572E+04 0.  0.
        2    1    3    3  502    0 -0.61868919790E+03  0.32701656943E+03  0.16848080908E+03  0.71979298643E+03  0.25500000920E-02 0. -1.
       -2    1    3    3    0  502  0.61868919790E+03 -0.32701656943E+03 -0.41145466098E+03  0.81179498540E+03  0.25500000920E-02 0.  1.
</event>
<event>
 5   0  0.1097156E-03  0.1481308E+04  0.7818609E-02  0.8896979E-01
       -2   -1    0    0    0  501  0.00000000000E+00  0.00000000000E+00  0.11386468029E+04  0.11386468029E+04  0.25500000920E-02 0. -1.
        2   -1    0    0  501    0  0.00000000000E+00  0.00000000000E+00 -0.48177245825E+03  0.48177245826E+03  0.25500000920E-02 0.  1.
    10030    2    1    2    0    0  0.00000000000E+00  0.00000000000E+00  0.65687434464E+03  0.16204192612E+04  0.14813084342E+04 0.  0.
        2    1    3    3  502    0  0.10476684773E+03  0.39078788954E+03  0.10070828815E+04  0.10853143310E+04  0.25500000920E-02 0. -1.
       -2    1    3    3    0  502 -0.10476684773E+03 -0.39078788954E+03 -0.35020853681E+03  0.53510493014E+03  0.25500000920E-02 0.  1.
</event>
<event>
 5   0  0.1147755E-03  0.1501205E+04  0.7818609E-02  0.8883652E-01
       -2   -1    0    0    0  501  0.00000000000E+00  0.00000000000E+00  0.36510322143E+03  0.36510322144E+03  0.25500000920E-02 0.  1.
        2   -1    0    0  501    0  0.00000000000E+00  0.00000000000E+00 -0.15431372987E+04  0.15431372987E+04  0.25500000920E-02 0. -1.
    10030    2    1    2    0    0  0.00000000000E+00  0.00000000000E+00 -0.11780340773E+04  0.19082405202E+04  0.15012053809E+04 0.  0.
        4    1    3    3  502    0  0.44334914185E+03 -0.54442025455E+02 -0.13557997761E+04  0.14274862667E+04  0.12699999809E+01 0. -1.
       -4    1    3    3    0  502 -0.44334914185E+03  0.54442025455E+02  0.17776569880E+03  0.48075425353E+03  0.12699999809E+01 0.  1.
</event>
<event>
 5   0  0.1082667E-03  0.1551773E+04  0.7818609E-02  0.8850736E-01
       -2   -1    0    0    0  501  0.00000000000E+00  0.00000000000E+00  0.80302138987E+03  0.80302138987E+03  0.25500000920E-02 0. -1.
        2   -1    0    0  501    0  0.00000000000E+00  0.00000000000E+00 -0.74966820040E+03  0.74966820040E+03  0.25500000920E-02 0.  1.
    10030    2    1    2    0    0  0.00000000000E+00  0.00000000000E+00  0.53353189470E+02  0.15526895903E+04  0.15517726641E+04 0.  0.
        5    1    3    3  502    0  0.16920243158E+03  0.53814065315E+02  0.78240567401E+03  0.80231299703E+03  0.46999998093E+01 0. -1.
       -5    1    3    3    0  502 -0.16920243158E+03 -0.53814065315E+02 -0.72905248454E+03  0.75037659325E+03  0.46999998093E+01 0.  1.
</event>
<event>
 5   0  0.1097156E-03  0.1499089E+04  0.7818609E-02  0.8885059E-01
        2   -1    0    0  501    0  0.00000000000E+00  0.00000000000E+00  0.18439217425E+04  0.18439217425E+04  0.25500000920E-02 0.  1.
       -2   -1    0    0    0  501  0.00000000000E+00  0.00000000000E+00 -0.30468603207E+03  0.30468603209E+03  0.25500000920E-02 0. -1.
    10030    2    1    2    0    0  0.00000000000E+00  0.00000000000E+00  0.15392357104E+04  0.21486077746E+04  0.14990893225E+04 0.  0.
        2    1    3    3  502    0  0.16460524305E+03  0.72728039957E+03  0.87863664083E+03  0.11524035805E+04  0.25500000920E-02 0. -1.
       -2    1    3    3    0  502 -0.16460524305E+03 -0.72728039957E+03  0.66059906959E+03  0.99620419412E+03  0.25500000920E-02 0.  1.
</event>
<event>
 5   0  0.1149716E-03  0.1483236E+04  0.7818609E-02  0.8895678E-01
        2   -1    0    0  501    0  0.00000000000E+00  0.00000000000E+00  0.62170049928E+03  0.62170049929E+03  0.25500000920E-02 0. -1.
       -2   -1    0    0    0  501  0.00000000000E+00  0.00000000000E+00 -0.88466630457E+03  0.88466630457E+03  0.25500000920E-02 0.  1.
    10030    2    1    2    0    0  0.00000000000E+00  0.00000000000E+00 -0.26296580529E+03  0.15063668039E+04  0.14832363038E+04 0.  0.
        1    1    3    3  502    0  0.37705001519E+02  0.34473319188E+03  0.53428165782E+03  0.63696116885E+03  0.50400001928E-02 0. -1.
       -1    1    3    3    0  502 -0.37705001519E+02 -0.34473319188E+03 -0.79724746311E+03  0.86940563500E+03  0.50400001928E-02 0.  1.
</event>
<event>
 5   0  0.1147755E-03  0.1484076E+04  0.7818609E-02  0.8895112E-01
        2   -1    0    0  501    0  0.00000000000E+00  0.00000000000E+00  0.64407382472E+03  0.64407382472E+03  0.25500000920E-02 0. -1.
       -2   -1    0    0    0  501  0.00000000000E+00  0.00000000000E+00 -0.85490295453E+03  0.85490295454E+03  0.25500000920E-02 0.  1.
    10030    2    1    2    0    0  0.00000000000E+00  0.00000000000E+00 -0.21082912982E+03  0.14989767793E+04  0.14840762995E+04 0.  0.
        4    1    3    3  502    0  0.58847846383E+03 -0.43385695752E+03  0.22666505922E+02  0.73147395399E+03  0.12699999809E+01 0. -1.
       -4    1    3    3    0  502 -0.58847846383E+03  0.43385695752E+03 -0.23349563574E+03  0.76750282527E+03  0.12699999809E+01 0.  1.
</event>
<event>
 5   0  0.1147755E-03  0.1467180E+04  0.7818609E-02  0.8906576E-01
        2   -1    0    0  501    0  0.00000000000E+00  0.00000000000E+00  0.15636916297E+04  0.15636916297E+04  0.25500000920E-02 0. -1.
       -2   -1    0    0    0  501  0.00000000000E+00  0.00000000000E+00 -0.34415616103E+03  0.34415616104E+03  0.25500000920E-02 0.  1.
    10030    2    1    2    0    0  0.00000000000E+00  0.00000000000E+00  0.12195354687E+04  0.19078477908E+04  0.14671797549E+04 0.  0.
        4    1    3    3  502    0 -0.17524416655E+02  0.53013156457E+03  0.12687335846E+04  0.13751483929E+04  0.12699999809E+01 0. -1.
       -4    1    3    3    0  502  0.17524416655E+02 -0.53013156457E+03 -0.49198115936E+02  0.53269939783E+03  0.12699999809E+01 0.  1.
</event>
<event>
 5   0  0.1082667E-03  0.1517217E+04  0.7818609E-02  0.8873084E-01
       -2   -1    0    0    0  501  0.00000000000E+00  0.00000000000E+00  0.59503183535E+03  0.59503183535E+03  0.25500000920E-02 0.  1.
        2   -1    0    0  501    0  0.00000000000E+00  0.00000000000E+00 -0.96715257373E+03  0.96715257373E+03  0.25500000920E-02 0. -1.
    10030    2    1    2    0    0  0.00000000000E+00  0.00000000000E+00 -0.37212073838E+03  0.15621844091E+04  0.15172166240E+04 0.  0.
        5    1    3    3  502    0  0.33611596967E+03 -0.25258042352E+03  0.46407586961E+03  0.62622625157E+03  0.46999998093E+01 0.  1.
       -5    1    3    3    0  502 -0.33611596967E+03  0.25258042352E+03 -0.83619660799E+03  0.93595815752E+03  0.46999998093E+01 0. -1.
</event>
<event>
 5   0  0.5606965E-04  0.1507335E+04  0.7818609E-02  0.8879590E-01
        1   -1    0    0  501    0  0.00000000000E+00  0.00000000000E+00  0.11939110057E+04  0.11939110057E+04  0.50400001928E-02 0.  1.
       -1   -1    0    0    0  501  0.00000000000E+00  0.00000000000E+00 -0.47575993335E+03  0.47575993338E+03  0.50400001928E-02 0. -1.
    10030    2    1    2    0    0  0.00000000000E+00  0.00000000000E+00  0.71815107230E+03  0.16696709390E+04  0.15073354245E+04 0.  0.
        4    1    3    3  502    0  0.44088563462E+03 -0.52150153255E+03  0.58792342978E+01  0.68292032446E+03  0.12699999809E+01 0. -1.
       -4    1    3    3    0  502 -0.44088563462E+03  0.52150153255E+03  0.71227183800E+03  0.98675061458E+03  0.12699999809E+01 0.  1.
</event>
<event>
 5   0  0.1082667E-03  0.1475638E+04  0.7818609E-02  0.8900817E-01
        2   -1    0    0  501    0  0.00000000000E+00  0.00000000000E+00  0.26738455428E+04  0.26738455428E+04  0.25500000920E-02 0.  1.
       -2   -1    0    0    0  501  0.00000000000E+00  0.00000000000E+00 -0.20359316886E+03  0.20359316887E+03  0.25500000920E-02 0. -1.
    10030    2    1    2    0    0  0.00000000000E+00  0.00000000000E+00  0.24702523739E+04  0.28774387116E+04  0.14756377430E+04 0.  0.
        5    1    3    3  502    0  0.32961313611E+03 -0.39842802484E+03  0.22613419560E+04  0.23197153365E+04  0.46999998093E+01 0.  1.
       -5    1    3    3    0  502 -0.32961313611E+03  0.39842802484E+03  0.20891041793E+03  0.55772337515E+03  0.46999998093E+01 0. -1.
</event>
<event>
 5   0  0.1126175E-03  0.1490628E+04  0.7818609E-02  0.8890709E-01
       -2   -1    0    0    0  501  0.00000000000E+00  0.00000000000E+00  0.28209658066E+03  0.28209658067E+03  0.25500000920E-02 0.  1.
        2   -1    0    0  501    0  0.00000000000E+00  0.00000000000E+00 -0.19691593791E+04  0.19691593791E+04  0.25500000920E-02 0. -1.
    10030    2    1    2    0    0  0.00000000000E+00  0.00000000000E+00 -0.16870627984E+04  0.22512559598E+04  0.14906282268E+04 0.  0.
        3    1    3    3  502    0  0.11513669641E+03 -0.19438005492E+03  0.22913805093E+03  0.32178303435E+03  0.10100000352E+00 0.  1.
       -3    1    3    3    0  502 -0.11513669641E+03  0.19438005492E+03 -0.19162008494E+04  0.19294729254E+04  0.10100000352E+00 0. -1.
</event>
<event>
 5   0  0.5914645E-04  0.1450839E+04  0.7818609E-02  0.8917819E-01
       -1   -1    0    0    0  501  0.00000000000E+00  0.00000000000E+00  0.84914577902E+03  0.84914577903E+03  0.50400001928E-02 0. -1.
        1   -1    0    0  501    0  0.00000000000E+00  0.00000000000E+00 -0.61972097074E+03  0.61972097076E+03  0.50400001928E-02 0.  1.
    10030    2    1    2    0    0  0.00000000000E+00  0.00000000000E+00  0.22942480828E+03  0.14688667498E+04  0.14508389938E+04 0.  0.
        2    1    3    3  502    0 -0.49150047597E+03  0.17965372390E+02  0.65457173591E+03  0.81875492667E+03  0.25500000920E-02 0. -1.
       -2    1    3    3    0  502  0.49150047597E+03 -0.17965372390E+02 -0.42514692763E+03  0.65011182312E+03  0.25500000920E-02 0.  1.
</event>
<event>
 5   0  0.5924403E-04  0.1485701E+04  0.7818609E-02  0.8894017E-01
        1   -1    0    0  501    0  0.00000000000E+00  0.00000000000E+00  0.12597630089E+04  0.12597630090E+04  0.50400001928E-02 0.  1.
       -1   -1    0    0    0  501  0.00000000000E+00  0.00000000000E+00 -0.43804036382E+03  0.43804036385E+03  0.50400001928E-02 0. -1.
    10030    2    1    2    0    0  0.00000000000E+00  0.00000000000E+00  0.82172264512E+03  0.16978033728E+04  0.14857012443E+04 0.  0.
        1    1    3    3  502    0  0.60957448630E+02  0.18663061763E+03 -0.40785449555E+03  0.45265007186E+03  0.50400001928E-02 0. -1.
       -1    1    3    3    0  502 -0.60957448630E+02 -0.18663061763E+03  0.12295771407E+04  0.12451533010E+04  0.50400001928E-02 0.  1.
</event>
<event>
 5   0  0.6146552E-04  0.1488871E+04  0.7818609E-02  0.8891887E-01
        1   -1    0    0  501    0  0.00000000000E+00  0.00000000000E+00  0.17494174740E+04  0.17494174740E+04  0.50400001928E-02 0. -1.
       -1   -1    0    0    0  501  0.00000000000E+00  0.00000000000E+00 -0.31678225745E+03  0.31678225749E+03  0.50400001928E-02 0.  1.
    10030    2    1    2    0    0  0.00000000000E+00  0.00000000000E+00  0.14326352165E+04  0.20661997314E+04  0.14888712727E+04 0.  0.
        5    1    3    3  502    0 -0.28417928412E+02 -0.54981681126E+03  0.20972113809E+02  0.55097007555E+03  0.46999998093E+01 0.  1.
       -5    1    3    3    0  502  0.28417928412E+02  0.54981681126E+03  0.14116631027E+04  0.15152296559E+04  0.46999998093E+01 0. -1.
</event>
<event>
 5   0  0.6146552E-04  0.1542639E+04  0.7818609E-02  0.8856583E-01
       -1   -1    0    0    0  501  0.00000000000E+00  0.00000000000E+00  0.54189692344E+03  0.54189692347E+03  0.50400001928E-02 0.  1.
        1   -1    0    0  501    0  0.00000000000E+00  0.00000000000E+00 -0.10978727875E+04  0.10978727875E+04  0.50400001928E-02 0. -1.
    10030    2    1    2    0    0  0.00000000000E+00  0.00000000000E+00 -0.55597586401E+03  0.16397697109E+04  0.15426391488E+04 0.  0.
        5    1    3    3  502    0 -0.75210704759E+03  0.55731455368E+02 -0.10612672271E+03  0.76161406068E+03  0.46999998093E+01 0.  1.
       -5    1    3    3    0  502  0.75210704759E+03 -0.55731455368E+02 -0.44984914130E+03  0.87815565026E+03  0.46999998093E+01 0. -1.
</event>
<event>
 5   0  0.1149716E-03  0.1521303E+04  0.7818609E-02  0.8870409E-01
       -2   -1    0    0    0  501  0.00000000000E+00  0.00000000000E+00  0.10171166218E+04  0.10171166218E+04  0.25500000920E-02 0.  1.
        2   -1    0    0  501    0  0.00000000000E+00  0.00000000000E+00 -0.56885403823E+03  0.56885403824E+03  0.25500000920E-02 0. -1.
    10030    2    1    2    0    0  0.00000000000E+00  0.00000000000E+00  0.44826258354E+03  0.15859706600E+04  0.15213032540E+04 0.  0.
        1    1    3    3  502    0  0.33412641655E+03  0.56364172362E+03  0.62689358752E+03  0.90682303949E+03  0.50400001928E-02 0. -1.
       -1    1    3    3    0  502 -0.33412641655E+03 -0.56364172362E+03 -0.17863100399E+03  0.67914762052E+03  0.50400001928E-02 0.  1.
</event>
<event>
 5   0  0.1149716E-03  0.1418686E+04  0.7818609E-02  0.8940403E-01
       -2   -1    0    0    0  501  0.00000000000E+00  0.00000000000E+00  0.47363449517E+03  0.47363449518E+03  0.25500000920E-02 0. -1.
        2   -1    0    0  501    0  0.00000000000E+00  0.00000000000E+00 -0.10623534267E+04  0.10623534267E+04  0.25500000920E-02 0.  1.
    10030    2    1    2    0    0  0.00000000000E+00  0.00000000000E+00 -0.58871893156E+03  0.15359879219E+04  0.14186856297E+04 0.  0.
        1    1    3    3  502    0 -0.39170806787E+03 -0.55698734335E+03 -0.50953076094E+03  0.85046558276E+03  0.50400001928E-02 0. -1.
       -1    1    3    3    0  502  0.39170806787E+03  0.55698734335E+03 -0.79188170621E+02  0.68552233915E+03  0.50400001928E-02 0.  1.
</event>
<event>
 5   0  0.5606965E-04  0.1527930E+04  0.7818609E-02  0.8866089E-01
       -1   -1    0    0    0  501  0.00000000000E+00  0.00000000000E+00  0.18198916079E+03  0.18198916086E+03  0.50400001928E-02 0.  1.
        1   -1    0    0  501    0  0.00000000000E+00  0.00000000000E+00 -0.32070175293E+04  0.32070175293E+04  0.50400001928E-02 0. -1.
    10030    2    1    2    0    0  0.00000000000E+00  0.00000000000E+00 -0.30250283685E+04  0.33890066902E+04  0.15279298792E+04 0.  0.
        4    1    3    3  502    0  0.50434572747E+03 -0.56631826183E+03 -0.17177256204E+04  0.18776751333E+04  0.12699999809E+01 0.  1.
       -4    1    3    3    0  502 -0.50434572747E+03  0.56631826183E+03 -0.13073027482E+04  0.15113315568E+04  0.12699999809E+01 0. -1.
</event>
<event>
 5   0  0.1097156E-03  0.1509927E+04  0.7818609E-02  0.8877878E-01
       -2   -1    0    0    0  501  0.00000000000E+00  0.00000000000E+00  0.35674049894E+03  0.35674049895E+03  0.25500000920E-02 0.  1.
        2   -1    0    0  501    0  0.00000000000E+00  0.00000000000E+00 -0.15977161503E+04  0.15977161503E+04  0.25500000920E-02 0. -1.
    10030    2    1    2    0    0  0.00000000000E+00  0.00000000000E+00 -0.12409756513E+04  0.19544566492E+04  0.15099272256E+04 0.  0.
        2    1    3    3  502    0 -0.49566613732E+03  0.15726641028E+03  0.87957660093E+02  0.52740325508E+03  0.25500000920E-02 0.  1.
       -2    1    3    3    0  502  0.49566613732E+03 -0.15726641028E+03 -0.13289333114E+04  0.14270533941E+04  0.25500000920E-02 0. -1.
</event>
<event>
 5   0  0.4070625E-04  0.1502076E+04  0.7818609E-02  0.8883073E-01
        3   -1    0    0  501    0  0.00000000000E+00  0.00000000000E+00  0.41854864984E+03  0.41854866202E+03  0.10100000352E+00 0. -1.
       -3   -1    0    0    0  501  0.00000000000E+00  0.00000000000E+00 -0.13476526348E+04  0.13476526385E+04  0.10100000352E+00 0.  1.
    10030    2    1    2    0    0  0.00000000000E+00  0.00000000000E+00 -0.92910398492E+03  0.17662013006E+04  0.15020761696E+04 0.  0.
        5    1    3    3  502    0 -0.58230139911E+02  0.19055877868E+03 -0.13159874321E+04  0.13309952700E+04  0.46999998093E+01 0.  1.
       -5    1    3    3    0  502  0.58230139911E+02 -0.19055877868E+03  0.38688344719E+03  0.43520603056E+03  0.46999998093E+01 0. -1.
</event>
<event>
 5   0  0.1082667E-03  0.1515639E+04  0.7818609E-02  0.8874119E-01
       -2   -1    0    0    0  501  0.00000000000E+00  0.00000000000E+00  0.13711520815E+04  0.13711520815E+04  0.25500000920E-02 0. -1.
        2   -1    0    0  501    0  0.00000000000E+00  0.00000000000E+00 -0.41883790626E+03  0.41883790627E+03  0.25500000920E-02 0.  1.
    10030    2    1    2    0    0  0.00000000000E+00  0.00000000000E+00  0.95231417523E+03  0.17899899878E+04  0.15156390955E+04 0.  0.
        5    1    3    3  502    0  0.49278017838E+03 -0.55784335636E+03  0.64420521205E+03  0.98440030459E+03  0.46999998093E+01 0.  1.
       -5    1    3    3    0  502 -0.49278017838E+03  0.55784335636E+03  0.30810896317E+03  0.80558968317E+03  0.46999998093E+01 0. -1.
</event>
<event>
 5   0  0.1082667E-03  0.1496495E+04  0.7818609E-02  0.8886787E-01
        2   -1    0    0  501    0  0.00000000000E+00  0.00000000000E+00  0.53188652747E+03  0.53188652748E+03  0.25500000920E-02 0. -1.
       -2   -1    0    0    0  501  0.00000000000E+00  0.00000000000E+00 -0.10526198596E+04  0.10526198596E+04  0.25500000920E-02 0.  1.
    10030    2    1    2    0    0  0.00000000000E+00  0.00000000000E+00 -0.52073333214E+03  0.15845063871E+04  0.14964950008E+04 0.  0.
        5    1    3    3  502    0 -0.18046123363E+03 -0.63947006099E+03 -0.62464099771E+03  0.91196857499E+03  0.46999998093E+01 0.  1.
       -5    1    3    3    0  502  0.18046123363E+03  0.63947006099E+03  0.10390766557E+03  0.67253781210E+03  0.46999998093E+01 0. -1.
</event>
<event>
 5   0  0.5924403E-04  0.1501389E+04  0.7818609E-02  0.8883530E-01
        1   -1    0    0  501    0  0.00000000000E+00  0.00000000000E+00  0.15681332490E+04  0.15681332490E+04  0.50400001928E-02 0. -1.
       -1   -1    0    0    0  501  0.00000000000E+00  0.00000000000E+00 -0.35937126892E+03  0.35937126896E+03  0.50400001928E-02 0.  1.
    10030    2    1    2    0    0  0.00000000000E+00  0.00000000000E+00  0.12087619801E+04  0.19275045180E+04  0.15013887379E+04 0.  0.
        1    1    3    3  502    0 -0.39361744476E+03  0.56783980166E+03  0.22753104258E+03  0.72742498482E+03  0.50400001928E-02 0.  1.
       -1    1    3    3    0  502  0.39361744476E+03 -0.56783980166E+03  0.98123093754E+03  0.12000795332E+04  0.50400001928E-02 0. -1.
</event>
<event>
 5   0  0.5606965E-04  0.1528394E+04  0.7818609E-02  0.8865788E-01
       -1   -1    0    0    0  501  0.00000000000E+00  0.00000000000E+00  0.48583694470E+03  0.48583694472E+03  0.50400001928E-02 0. -1.
        1   -1    0    0  501    0  0.00000000000E+00  0.00000000000E+00 -0.12020435894E+04  0.12020435894E+04  0.50400001928E-02 0.  1.
    10030    2    1    2    0    0  0.00000000000E+00  0.00000000000E+00 -0.71620664472E+03  0.16878805342E+04  0.15283941702E+04 0.  0.
        4    1    3    3  502    0  0.15112194560E+03  0.52326925549E+03 -0.95008692552E+03  0.10951325651E+04  0.12699999809E+01 0.  1.
       -4    1    3    3    0  502 -0.15112194560E+03 -0.52326925549E+03  0.23388028079E+03  0.59274796906E+03  0.12699999809E+01 0. -1.
</event>
<event>
 5   0  0.1126175E-03  0.1520142E+04  0.7818609E-02  0.8871168E-01
        2   -1    0    0  501    0  0.00000000000E+00  0.00000000000E+00  0.69978907901E+03  0.69978907901E+03  0.25500000920E-02 0.  1.
       -2   -1    0    0    0  501  0.00000000000E+00  0.00000000000E+00 -0.82554562914E+03  0.82554562914E+03  0.25500000920E-02 0. -1.
    10030    2    1    2    0    0  0.00000000000E+00  0.00000000000E+00 -0.12575655013E+03  0.15253347082E+04  0.15201418559E+04 0.  0.
        3    1    3    3  502    0  0.51122666528E+03  0.54829614336E+03  0.62955220994E+02  0.75229298426E+03  0.10100000352E+00 0.  1.
       -3    1    3    3    0  502 -0.51122666528E+03 -0.54829614336E+03 -0.18871177113E+03  0.77304172389E+03  0.10100000352E+00 0. -1.
</event>
<event>
 5   0  0.1149716E-03  0.1557733E+04  0.7818609E-02  0.8846944E-01
        2   -1    0    0  501    0  0.00000000000E+00  0.00000000000E+00  0.10492015320E+04  0.10492015320E+04  0.25500000920E-02 0.  1.
       -2   -1    0    0    0  501  0.00000000000E+00  0.00000000000E+00 -0.57818510535E+03  0.57818510536E+03  0.25500000920E-02 0. -1.
    10030    2    1    2    0    0  0.00000000000E+00  0.00000000000E+00  0.47101642666E+03  0.16273866374E+04  0.15577325808E+04 0.  0.
        1    1    3    3  502    0 -0.55132104366E+03 -0.35626924555E+03 -0.20246297920E+03  0.68693080181E+03  0.50400001928E-02 0. -1.
       -1    1    3    3    0  502  0.55132104366E+03  0.35626924555E+03  0.67347940585E+03  0.94045583556E+03  0.50400001928E-02 0.  1.
</event>
<event>
 5   0  0.1082667E-03  0.1509744E+04  0.7818609E-02  0.8877999E-01
        2   -1    0    0  501    0  0.00000000000E+00  0.00000000000E+00  0.10621676016E+04  0.10621676016E+04  0.25500000920E-02 0. -1.
       -2   -1    0    0    0  501  0.00000000000E+00  0.00000000000E+00 -0.53648022111E+03  0.53648022112E+03  0.25500000920E-02 0.  1.
    10030    2    1    2    0    0  0.00000000000E+00  0.00000000000E+00  0.52568738045E+03  0.15986478227E+04  0.15097442297E+04 0.  0.
        5    1    3    3  502    0 -0.23641947348E+03 -0.52997654779E+03  0.77401342723E+03  0.96741314037E+03  0.46999998093E+01 0. -1.
       -5    1    3    3    0  502  0.23641947348E+03  0.52997654779E+03 -0.24832604678E+03  0.63123468231E+03  0.46999998093E+01 0.  1.
</event>
<event>
 5   0  0.5914645E-04  0.1467090E+04  0.7818609E-02  0.8906637E-01
        1   -1    0    0  501    0  0.00000000000E+00  0.00000000000E+00  0.50485041322E+03  0.50485041325E+03  0.50400001928E-02 0.  1.
       -1   -1    0    0    0  501  0.00000000000E+00  0.00000000000E+00 -0.10658372974E+04  0.10658372974E+04  0.50400001928E-02 0. -1.
    10030    2    1    2    0    0  0.00000000000E+00  0.00000000000E+00 -0.56098688418E+03  0.15706877107E+04  0.14670901813E+04 0.  0.
        2    1    3    3  502    0  0.55789661819E+03 -0.45417862354E+03 -0.43401199539E+03  0.84017454783E+03  0.25500000920E-02 0.  1.
       -2    1    3    3    0  502 -0.55789661819E+03  0.45417862354E+03 -0.12697488879E+03  0.73051316283E+03  0.25500000920E-02 0. -1.
</event>
<event>
 5   0  0.1126175E-03  0.1491271E+04  0.7818609E-02  0.8890278E-01
        2   -1    0    0  501    0  0.00000000000E+00  0.00000000000E+00  0.88604416910E+03  0.88604416910E+03  0.25500000920E-02 0.  1.
       -2   -1    0    0    0  501  0.00000000000E+00  0.00000000000E+00 -0.62747687750E+03  0.62747687750E+03  0.25500000920E-02 0. -1.
    10030    2    1    2    0    0  0.00000000000E+00  0.00000000000E+00  0.25856729160E+03  0.15135210466E+04  0.14912709057E+04 0.  0.
        3    1    3    3  502    0 -0.49278991459E+03 -0.34109895750E+03 -0.32093596232E+03  0.67984579195E+03  0.10100000352E+00 0. -1.
       -3    1    3    3    0  502  0.49278991459E+03  0.34109895750E+03  0.57950325392E+03  0.83367525466E+03  0.10100000352E+00 0.  1.
</event>
<event>
 5   0  0.1147755E-03  0.1460310E+04  0.7818609E-02  0.8911284E-01
        2   -1    0    0  501    0  0.00000000000E+00  0.00000000000E+00  0.42253208073E+03  0.42253208074E+03  0.25500000920E-02 0. -1.
       -2   -1    0    0    0  501  0.00000000000E+00  0.00000000000E+00 -0.12617423617E+04  0.12617423617E+04  0.25500000920E-02 0.  1.
    10030    2    1    2    0    0  0.00000000000E+00  0.00000000000E+00 -0.83921028097E+03  0.16842744424E+04  0.14603104128E+04 0.  0.
        4    1    3    3  502    0 -0.37370112305E+01  0.43167392255E+03 -0.10987893873E+04  0.11805490550E+04  0.12699999809E+01 0.  1.
       -4    1    3    3    0  502  0.37370112305E+01 -0.43167392255E+03  0.25957910632E+03  0.50372538749E+03  0.12699999809E+01 0. -1.
</event>
<event>
 5   0  0.4070625E-04  0.1516155E+04  0.7818609E-02  0.8873781E-01
        3   -1    0    0  501    0  0.00000000000E+00  0.00000000000E+00  0.38330108011E+03  0.38330109342E+03  0.10100000352E+00 0. -1.
       -3   -1    0    0    0  501  0.00000000000E+00  0.00000000000E+00 -0.14992951677E+04  0.14992951711E+04  0.10100000352E+00 0.  1.
    10030    2    1    2    0    0  0.00000000000E+00  0.00000000000E+00 -0.11159940876E+04  0.18825962645E+04  0.15161549695E+04 0.  0.
        1    1    3    3  502    0  0.58887723536E+03 -0.24381456304E+01 -0.11507652920E+04  0.12926883229E+04  0.50400001928E-02 0.  1.
       -1    1    3    3    0  502 -0.58887723536E+03  0.24381456304E+01  0.34771204429E+02  0.58990794160E+03  0.50400001928E-02 0. -1.
</event>
<event>
 5   0  0.1126175E-03  0.1512811E+04  0.7818609E-02  0.8875978E-01
       -2   -1    0    0    0  501  0.00000000000E+00  0.00000000000E+00  0.68080115261E+03  0.68080115262E+03  0.25500000920E-02 0. -1.
        2   -1    0    0  501    0  0.00000000000E+00  0.00000000000E+00 -0.84040535146E+03  0.84040535147E+03  0.25500000920E-02 0.  1.
    10030    2    1    2    0    0  0.00000000000E+00  0.00000000000E+00 -0.15960419885E+03  0.15212065041E+04  0.15128105393E+04 0.  0.
        3    1    3    3  502    0 -0.50549910336E+03 -0.35181410857E+03  0.36177791858E+03  0.71427290517E+03  0.10100000352E+00 0. -1.
       -3    1    3    3    0  502  0.50549910336E+03  0.35181410857E+03 -0.52138211743E+03  0.80693359892E+03  0.10100000352E+00 0.  1.
</event>
<event>
 5   0  0.1147755E-03  0.1549405E+04  0.7818609E-02  0.8852248E-01
       -2   -1    0    0    0  501  0.00000000000E+00  0.00000000000E+00  0.52362317965E+03  0.52362317965E+03  0.25500000920E-02 0. -1.
        2   -1    0    0  501    0  0.00000000000E+00  0.00000000000E+00 -0.11461752168E+04  0.11461752168E+04  0.25500000920E-02 0.  1.
    10030    2    1    2    0    0  0.00000000000E+00  0.00000000000E+00 -0.62255203720E+03  0.16697983965E+04  0.15494049329E+04 0.  0.
        4    1    3    3  502    0 -0.70522233035E+03  0.22750006771E+03 -0.55481659522E+03  0.92569859202E+03  0.12699999809E+01 0. -1.
       -4    1    3    3    0  502  0.70522233035E+03 -0.22750006771E+03 -0.67735441976E+02  0.74409980448E+03  0.12699999809E+01 0.  1.
</event>
<event>
 5   0  0.1149716E-03  0.1485995E+04  0.7818609E-02  0.8893820E-01
       -2   -1    0    0    0  501  0.00000000000E+00  0.00000000000E+00  0.28293014271E+03  0.28293014272E+03  0.25500000920E-02 0. -1.
        2   -1    0    0  501    0  0.00000000000E+00  0.00000000000E+00 -0.19511711447E+04  0.19511711447E+04  0.25500000920E-02 0.  1.
    10030    2    1    2    0    0  0.00000000000E+00  0.00000000000E+00 -0.16682410020E+04  0.22341012874E+04  0.14859947920E+04 0.  0.
        1    1    3    3  502    0  0.24273613261E+03 -0.11872115745E+03  0.20643857274E+03  0.34004768436E+03  0.50400001928E-02 0. -1.
       -1    1    3    3    0  502 -0.24273613261E+03  0.11872115745E+03 -0.18746795747E+04  0.18940536030E+04  0.50400001928E-02 0.  1.
</event>
<event>
 5   0  0.5606965E-04  0.1479726E+04  0.7818609E-02  0.8898048E-01
       -1   -1    0    0    0  501  0.00000000000E+00  0.00000000000E+00  0.33755671403E+03  0.33755671407E+03  0.50400001928E-02 0. -1.
        1   -1    0    0  501    0  0.00000000000E+00  0.00000000000E+00 -0.16216453171E+04  0.16216453171E+04  0.50400001928E-02 0.  1.
    10030    2    1    2    0    0  0.00000000000E+00  0.00000000000E+00 -0.12840886030E+04  0.19592020311E+04  0.14797260079E+04 0.  0.
        4    1    3    3  502    0 -0.60131322675E+03  0.13960387996E+03 -0.11820292540E+04  0.13335147581E+04  0.12699999809E+01 0.  1.
       -4    1    3    3    0  502  0.60131322675E+03 -0.13960387996E+03 -0.10205934903E+03  0.62568727300E+03  0.12699999809E+01 0. -1.
</event>
<event>
 5   0  0.1126175E-03  0.1497392E+04  0.7818609E-02  0.8886189E-01
        2   -1    0    0  501    0  0.00000000000E+00  0.00000000000E+00  0.93977582792E+03  0.93977582793E+03  0.25500000920E-02 0. -1.
       -2   -1    0    0    0  501  0.00000000000E+00  0.00000000000E+00 -0.59646723922E+03  0.59646723922E+03  0.25500000920E-02 0.  1.
    10030    2    1    2    0    0  0.00000000000E+00  0.00000000000E+00  0.34330858871E+03  0.15362430671E+04  0.14973917237E+04 0.  0.
        3    1    3    3  502    0 -0.10809636441E+03  0.51799133117E+03 -0.37175400820E+03  0.64668454132E+03  0.10100000352E+00 0.  1.
       -3    1    3    3    0  502  0.10809636441E+03 -0.51799133117E+03  0.71506259691E+03  0.88955852583E+03  0.10100000352E+00 0. -1.
</event>
<event>
 5   0  0.1082667E-03  0.1501230E+04  0.7818609E-02  0.8883635E-01
       -2   -1    0    0    0  501  0.00000000000E+00  0.00000000000E+00  0.43627456916E+03  0.43627456917E+03  0.25500000920E-02 0.  1.
        2   -1    0    0  501    0  0.00000000000E+00  0.00000000000E+00 -0.12914409961E+04  0.12914409961E+04  0.25500000920E-02 0. -1.
    10030    2    1    2    0    0  0.00000000000E+00  0.00000000000E+00 -0.85516642696E+03  0.17277155653E+04  0.15012299813E+04 0.  0.
        5    1    3    3  502    0  0.18435387298E+03  0.71577137562E+02 -0.12609021958E+04  0.12763252229E+04  0.46999998093E+01 0. -1.
       -5    1    3    3    0  502 -0.18435387298E+03 -0.71577137562E+02  0.40573576886E+03  0.45139034243E+03  0.46999998093E+01 0.  1.
</event>
<event>
 5   0  0.5840834E-04  0.1464032E+04  0.7818609E-02  0.8908730E-01
       -1   -1    0    0    0  501  0.00000000000E+00  0.00000000000E+00  0.59531707642E+03  0.59531707644E+03  0.50400001928E-02 0.  1.
        1   -1    0    0  501    0  0.00000000000E+00  0.00000000000E+00 -0.90010388294E+03  0.90010388296E+03  0.50400001928E-02 0. -1.
    10030    2    1    2    0    0  0.00000000000E+00  0.00000000000E+00 -0.30478680652E+03  0.14954209594E+04  0.14640317102E+04 0.  0.
        3    1    3    3  502    0  0.29073027127E+03 -0.10073122529E+03 -0.83084533356E+03  0.88598806362E+03  0.10100000352E+00 0. -1.
       -3    1    3    3    0  502 -0.29073027127E+03  0.10073122529E+03  0.52605852704E+03  0.60943289578E+03  0.10100000352E+00 0.  1.
</event>
<event>
 5   0  0.5606965E-04  0.1496325E+04  0.7818609E-02  0.8886900E-01
        1   -1    0    0  501    0  0.00000000000E+00  0.00000000000E+00  0.60522597087E+03  0.60522597090E+03  0.50400001928E-02 0. -1.
       -1   -1    0    0    0  501  0.00000000000E+00  0.00000000000E+00 -0.92485636561E+03  0.92485636563E+03  0.50400001928E-02 0.  1.
    10030    2    1    2    0    0  0.00000000000E+00  0.00000000000E+00 -0.31963039474E+03  0.15300823365E+04  0.14963249538E+04 0.  0.
        4    1    3    3  502    0  0.52373382255E+03  0.46883761014E+03 -0.42179754871E+03  0.81976862990E+03  0.12699999809E+01 0.  1.
       -4    1    3    3    0  502 -0.52373382255E+03 -0.46883761014E+03  0.10216715397E+03  0.71031370662E+03  0.12699999809E+01 0. -1.
</event>
<event>
 5   0  0.1147755E-03  0.1470950E+04  0.7818609E-02  0.8904004E-01
       -2   -1    0    0    0  501  0.00000000000E+00  0.00000000000E+00  0.10568330699E+04  0.10568330699E+04  0.25500000920E-02 0.  1.
        2   -1    0    0  501    0  0.00000000000E+00  0.00000000000E+00 -0.51183439771E+03  0.51183439772E+03  0.25500000920E-02 0. -1.
    10030    2    1    2    0    0  0.00000000000E+00  0.00000000000E+00  0.54499867220E+03  0.15686674676E+04  0.14709500574E+04 0.  0.
        4    1    3    3  502    0 -0.16527185730E+02 -0.73268437057E+03  0.33843180436E+03  0.80724050558E+03  0.12699999809E+01 0. -1.
       -4    1    3    3    0  502  0.16527185730E+02  0.73268437057E+03  0.20656686785E+03  0.76142696205E+03  0.12699999809E+01 0.  1.
</event>
<event>
 5   0  0.5840834E-04  0.1489356E+04  0.7818609E-02  0.8891562E-01
       -1   -1    0    0    0  501  0.00000000000E+00  0.00000000000E+00  0.14418190267E+04  0.14418190267E+04  0.50400001928E-02 0. -1.
        1   -1    0    0  501    0  0.00000000000E+00  0.00000000000E+00 -0.38461487952E+03  0.38461487955E+03  0.50400001928E-02 0.  1.
    10030    2    1    2    0    0  0.00000000000E+00  0.00000000000E+00  0.10572041472E+04  0.18264339062E+04  0.14893556342E+04 0.  0.
        3    1    3    3  502    0  0.32063184793E+03 -0.66498354162E+03  0.40884123688E+03  0.84389517104E+03  0.10100000352E+00 0.  1.
       -3    1    3    3    0  502 -0.32063184793E+03  0.66498354162E+03  0.64836291027E+03  0.98253873519E+03  0.10100000352E+00 0. -1.
</event>
<event>
 5   0  0.1082667E-03  0.1460992E+04  0.7818609E-02  0.8910815E-01
       -2   -1    0    0    0  501  0.00000000000E+00  0.00000000000E+00  0.72603113756E+03  0.72603113757E+03  0.25500000920E-02 0. -1.
        2   -1    0    0  501    0  0.00000000000E+00  0.00000000000E+00 -0.73498808787E+03  0.73498808788E+03  0.25500000920E-02 0.  1.
    10030    2    1    2    0    0  0.00000000000E+00  0.00000000000E+00 -0.89569503125E+01  0.14610192254E+04  0.14609917694E+04 0.  0.
        5    1    3    3  502    0  0.14166084883E+03  0.33294119243E+03 -0.63906467820E+03  0.73440001813E+03  0.46999998093E+01 0.  1.
       -5    1    3    3    0  502 -0.14166084883E+03 -0.33294119243E+03  0.63010772789E+03  0.72661920732E+03  0.46999998093E+01 0. -1.
</event>
<event>
 5   0  0.1097156E-03  0.1506889E+04  0.7818609E-02  0.8879884E-01
        2   -1    0    0  501    0  0.00000000000E+00  0.00000000000E+00  0.48204147980E+03  0.48204147981E+03  0.25500000920E-02 0. -1.
       -2   -1    0    0    0  501  0.00000000000E+00  0.00000000000E+00 -0.11776558105E+04  0.11776558105E+04  0.25500000920E-02 0.  1.
    10030    2    1    2    0    0  0.00000000000E+00  0.00000000000E+00 -0.69561433066E+03  0.16596972903E+04  0.15068894446E+04 0.  0.
        2    1    3    3  502    0  0.68561592259E+03  0.21738107884E+03 -0.10065196359E+03  0.72626065880E+03  0.25500000920E-02 0.  1.
       -2    1    3    3    0  502 -0.68561592259E+03 -0.21738107884E+03 -0.59496236706E+03  0.93343663147E+03  0.25500000920E-02 0. -1.
</event>
<event>
 5   0  0.1082667E-03  0.1452422E+04  0.7818609E-02  0.8916723E-01
        2   -1    0    0  501    0  0.00000000000E+00  0.00000000000E+00  0.12113779623E+04  0.12113779623E+04  0.25500000920E-02 0. -1.
       -2   -1    0    0    0  501  0.00000000000E+00  0.00000000000E+00 -0.43535716416E+03  0.43535716417E+03  0.25500000920E-02 0.  1.
    10030    2    1    2    0    0  0.00000000000E+00  0.00000000000E+00  0.77602079816E+03  0.16467351265E+04  0.14524215289E+04 0.  0.
        5    1    3    3  502    0  0.13076219499E+03  0.18385971825E+03 -0.39459502458E+03  0.45456624496E+03  0.46999998093E+01 0.  1.
       -5    1    3    3    0  502 -0.13076219499E+03 -0.18385971825E+03  0.11706158227E+04  0.11921688815E+04  0.46999998093E+01 0. -1.
</event>
<event>
 5   0  0.6146552E-04  0.1491385E+04  0.7818609E-02  0.8890202E-01
        1   -1    0    0  501    0  0.00000000000E+00  0.00000000000E+00  0.82874476911E+03  0.82874476913E+03  0.50400001928E-02 0. -1.
       -1   -1    0    0    0  501  0.00000000000E+00  0.00000000000E+00 -0.67096341615E+03  0.67096341617E+03  0.50400001928E-02 0.  1.
    10030    2    1    2    0    0  0.00000000000E+00  0.00000000000E+00  0.15778135296E+03  0.14997081853E+04  0.14913851567E+04 0.  0.
        5    1    3    3  502    0 -0.60426846864E+03  0.39578225422E+03  0.26499473035E+03  0.76943373468E+03  0.46999998093E+01 0. -1.
       -5    1    3    3    0  502  0.60426846864E+03 -0.39578225422E+03 -0.10721337739E+03  0.73027445062E+03  0.46999998093E+01 0.  1.
</event>
<event>
 5   0  0.5606965E-04  0.1464438E+04  0.7818609E-02  0.8908452E-01
        1   -1    0    0  501    0  0.00000000000E+00  0.00000000000E+00  0.76973200913E+03  0.76973200915E+03  0.50400001928E-02 0.  1.
       -1   -1    0    0    0  501  0.00000000000E+00  0.00000000000E+00 -0.69653374568E+03  0.69653374570E+03  0.50400001928E-02 0. -1.
    10030    2    1    2    0    0  0.00000000000E+00  0.00000000000E+00  0.73198263451E+02  0.14662657548E+04  0.14644375296E+04 0.  0.
        4    1    3    3  502    0 -0.12524310283E+03 -0.90591927624E+02 -0.68001078557E+03  0.69735859752E+03  0.12699999809E+01 0. -1.
       -4    1    3    3    0  502  0.12524310283E+03  0.90591927624E+02  0.75320904902E+03  0.76890715732E+03  0.12699999809E+01 0.  1.
</event>
<event>
 5   0  0.1126175E-03  0.1463276E+04  0.7818609E-02  0.8909248E-01
        2   -1    0    0  501    0  0.00000000000E+00  0.00000000000E+00  0.71847211228E+03  0.71847211228E+03  0.25500000920E-02 0. -1.
       -2   -1    0    0    0  501  0.00000000000E+00  0.00000000000E+00 -0.74504482393E+03  0.74504482394E+03  0.25500000920E-02 0.  1.
    10030    2    1    2    0    0  0.00000000000E+00  0.00000000000E+00 -0.26572711653E+02  0.14635169362E+04  0.14632756793E+04 0.  0.
        3    1    3    3  502    0  0.42624716180E+03 -0.59223164391E+03  0.40285104079E+02  0.73078578449E+03  0.10100000352E+00 0.  1.
       -3    1    3    3    0  502 -0.42624716180E+03  0.59223164391E+03 -0.66857815732E+02  0.73273115173E+03  0.10100000352E+00 0. -1.
</event>
<event>
 5   0  0.5914645E-04  0.1456029E+04  0.7818609E-02  0.8914231E-01
       -1   -1    0    0    0  501  0.00000000000E+00  0.00000000000E+00  0.40408200445E+03  0.40408200448E+03  0.50400001928E-02 0.  1.
        1   -1    0    0  501    0  0.00000000000E+00  0.00000000000E+00 -0.13116275366E+04  0.13116275366E+04  0.50400001928E-02 0. -1.
    10030    2    1    2    0    0  0.00000000000E+00  0.00000000000E+00 -0.90754553217E+03  0.17157095411E+04  0.14560289614E+04 0.  0.
        2    1    3    3  502    0  0.19723947999E+03  0.56186235130E+01 -0.12795169055E+04  0.12946422258E+04  0.25500000920E-02 0. -1.
       -2    1    3    3    0  502 -0.19723947999E+03 -0.56186235130E+01  0.37197137335E+03  0.42106731527E+03  0.25500000920E-02 0.  1.
</event>
<event>
 5   0  0.1147755E-03  0.1486345E+04  0.7818609E-02  0.8893584E-01
       -2   -1    0    0    0  501  0.00000000000E+00  0.00000000000E+00  0.33252468285E+03  0.33252468286E+03  0.25500000920E-02 0. -1.
        2   -1    0    0  501    0  0.00000000000E+00  0.00000000000E+00 -0.16609455897E+04  0.16609455897E+04  0.25500000920E-02 0.  1.
    10030    2    1    2    0    0  0.00000000000E+00  0.00000000000E+00 -0.13284209069E+04  0.19934702726E+04  0.14863450548E+04 0.  0.
        4    1    3    3  502    0 -0.10364243454E+03 -0.27541122812E+03 -0.15794783432E+04  0.16066569480E+04  0.12699999809E+01 0.  1.
       -4    1    3    3    0  502  0.10364243454E+03  0.27541122812E+03  0.25105743639E+03  0.38681332458E+03  0.12699999809E+01 0. -1.
</event>
<event>
 5   0  0.5606965E-04  0.1578654E+04  0.7818609E-02  0.8833770E-01
       -1   -1    0    0    0  501  0.00000000000E+00  0.00000000000E+00  0.14378766052E+04  0.14378766052E+04  0.50400001928E-02 0. -1.
        1   -1    0    0  501    0  0.00000000000E+00  0.00000000000E+00 -0.43330340536E+03  0.43330340539E+03  0.50400001928E-02 0.  1.
    10030    2    1    2    0    0  0.00000000000E+00  0.00000000000E+00  0.10045731998E+04  0.18711800106E+04  0.15786536410E+04 0.  0.
        4    1    3    3  502    0  0.52333060159E+02  0.60810183144E+03 -0.90966559477E+02  0.61709246830E+03  0.12699999809E+01 0.  1.
       -4    1    3    3    0  502 -0.52333060159E+02 -0.60810183144E+03  0.10955397593E+04  0.12540875423E+04  0.12699999809E+01 0. -1.
</event>
<event>
 5   0  0.5924403E-04  0.1100312E+04  0.7818609E-02  0.9204888E-01
       -1   -1    0    0    0  501  0.00000000000E+00  0.00000000000E+00  0.10007094117E+04  0.10007094117E+04  0.50400001928E-02 0.  1.
        1   -1    0    0  501    0  0.00000000000E+00  0.00000000000E+00 -0.30245698759E+03  0.30245698763E+03  0.50400001928E-02 0. -1.
    10030    2    1    2    0    0  0.00000000000E+00  0.00000000000E+00  0.69825242406E+03  0.13031663993E+04  0.11003118724E+04 0.  0.
        1    1    3    3  502    0 -0.39638829062E+03 -0.10089141402E+03 -0.86629775953E+02  0.41809983553E+03  0.50400001928E-02 0. -1.
       -1    1    3    3    0  502  0.39638829062E+03  0.10089141402E+03  0.78488220002E+03  0.88506656377E+03  0.50400001928E-02 0.  1.
</event>
<event>
 5   0  0.6146552E-04  0.1471935E+04  0.7818609E-02  0.8903333E-01
       -1   -1    0    0    0  501  0.00000000000E+00  0.00000000000E+00  0.53516616581E+03  0.53516616583E+03  0.50400001928E-02 0. -1.
        1   -1    0    0  501    0  0.00000000000E+00  0.00000000000E+00 -0.10121119096E+04  0.10121119096E+04  0.50400001928E-02 0.  1.
    10030    2    1    2    0    0  0.00000000000E+00  0.00000000000E+00 -0.47694574378E+03  0.15472780754E+04  0.14719348492E+04 0.  0.
        5    1    3    3  502    0  0.22559929727E+03  0.56113263829E+03  0.20235053964E+03  0.63775599689E+03  0.46999998093E+01 0. -1.
       -5    1    3    3    0  502 -0.22559929727E+03 -0.56113263829E+03 -0.67929628342E+03  0.90952207854E+03  0.46999998093E+01 0.  1.
</event>
<event>
 5   0  0.5840834E-04  0.1520695E+04  0.7818609E-02  0.8870807E-01
        1   -1    0    0  501    0  0.00000000000E+00  0.00000000000E+00  0.12862223881E+04  0.12862223881E+04  0.50400001928E-02 0.  1.
       -1   -1    0    0    0  501  0.00000000000E+00  0.00000000000E+00 -0.44947748241E+03  0.44947748244E+03  0.50400001928E-02 0. -1.
    10030    2    1    2    0    0  0.00000000000E+00  0.00000000000E+00  0.83674490571E+03  0.17356998706E+04  0.15206945793E+04 0.  0.
        3    1    3    3  502    0  0.48681024834E+03  0.43097433305E+03  0.86832320611E+03  0.10847618606E+04  0.10100000352E+00 0.  1.
       -3    1    3    3    0  502 -0.48681024834E+03 -0.43097433305E+03 -0.31578300405E+02  0.65093801002E+03  0.10100000352E+00 0. -1.
</event>
<event>
 5   0  0.1097156E-03  0.1481083E+04  0.7818609E-02  0.8897131E-01
        2   -1    0    0  501    0  0.00000000000E+00  0.00000000000E+00  0.10808618324E+04  0.10808618324E+04  0.25500000920E-02 0. -1.
       -2   -1    0    0    0  501  0.00000000000E+00  0.00000000000E+00 -0.50737429623E+03  0.50737429624E+03  0.25500000920E-02 0.  1.
    10030    2    1    2    0    0  0.00000000000E+00  0.00000000000E+00  0.57348753615E+03  0.15882361286E+04  0.14810827277E+04 0.  0.
        2    1    3    3  502    0 -0.42953803947E+03  0.54532658218E+03  0.10174626004E+02  0.69425321865E+03  0.25500000920E-02 0.  1.
       -2    1    3    3    0  502  0.42953803947E+03 -0.54532658218E+03  0.56331291014E+03  0.89398290997E+03  0.25500000920E-02 0. -1.
</event>
<event>
 5   0  0.5606965E-04  0.1481990E+04  0.7818609E-02  0.8896518E-01
       -1   -1    0    0    0  501  0.00000000000E+00  0.00000000000E+00  0.29160630599E+03  0.29160630603E+03  0.50400001928E-02 0.  1.
        1   -1    0    0  501    0  0.00000000000E+00  0.00000000000E+00 -0.18829278721E+04  0.18829278722E+04  0.50400001928E-02 0. -1.
    10030    2    1    2    0    0  0.00000000000E+00  0.00000000000E+00 -0.15913215662E+04  0.21745341782E+04  0.14819900692E+04 0.  0.
        4    1    3    3  502    0  0.18129674494E+03  0.21774567734E+03  0.20897876642E+03  0.35207304276E+03  0.12699999809E+01 0.  1.
       -4    1    3    3    0  502 -0.18129674494E+03 -0.21774567734E+03 -0.18003003326E+04  0.18224611354E+04  0.12699999809E+01 0. -1.
</event>
<event>
 5   0  0.1082667E-03  0.1491518E+04  0.7818609E-02  0.8890113E-01
        2   -1    0    0  501    0  0.00000000000E+00  0.00000000000E+00  0.10559906087E+04  0.10559906087E+04  0.25500000920E-02 0.  1.
       -2   -1    0    0    0  501  0.00000000000E+00  0.00000000000E+00 -0.52666787835E+03  0.52666787836E+03  0.25500000920E-02 0. -1.
    10030    2    1    2    0    0  0.00000000000E+00  0.00000000000E+00  0.52932273037E+03  0.15826584871E+04  0.14915177953E+04 0.  0.
        5    1    3    3  502    0  0.44675941171E+02  0.50171301882E+03  0.84819475838E+03  0.98649294529E+03  0.46999998093E+01 0.  1.
       -5    1    3    3    0  502 -0.44675941171E+02 -0.50171301882E+03 -0.31887202801E+03  0.59616554179E+03  0.46999998093E+01 0. -1.
</event>
<event>
 5   0  0.1147755E-03  0.1513548E+04  0.7818609E-02  0.8875493E-01
        2   -1    0    0  501    0  0.00000000000E+00  0.00000000000E+00  0.16249721109E+04  0.16249721109E+04  0.25500000920E-02 0. -1.
       -2   -1    0    0    0  501  0.00000000000E+00  0.00000000000E+00 -0.35244095441E+03  0.35244095442E+03  0.25500000920E-02 0.  1.
    10030    2    1    2    0    0  0.00000000000E+00  0.00000000000E+00  0.12725311565E+04  0.19774130653E+04  0.15135477814E+04 0.  0.
        4    1    3    3  502    0  0.64139624061E+03 -0.31639388560E+01  0.11609841934E+04  0.13263804349E+04  0.12699999809E+01 0.  1.
       -4    1    3    3    0  502 -0.64139624061E+03  0.31639388560E+01  0.11154696312E+03  0.65103263041E+03  0.12699999809E+01 0. -1.
</event>
<event>
 5   0  0.5924403E-04  0.1469600E+04  0.7818609E-02  0.8904924E-01
        1   -1    0    0  501    0  0.00000000000E+00  0.00000000000E+00  0.68674496841E+03  0.68674496842E+03  0.50400001928E-02 0.  1.
       -1   -1    0    0    0  501  0.00000000000E+00  0.00000000000E+00 -0.78621811049E+03  0.78621811050E+03  0.50400001928E-02 0. -1.
    10030    2    1    2    0    0  0.00000000000E+00  0.00000000000E+00 -0.99473142082E+02  0.14729630789E+04  0.14696003967E+04 0.  0.
        1    1    3    3  502    0  0.49902805715E+02  0.15163151967E+02  0.68488740348E+03  0.68687041476E+03  0.50400001928E-02 0.  1.
       -1    1    3    3    0  502 -0.49902805715E+02 -0.15163151967E+02 -0.78436054557E+03  0.78609266417E+03  0.50400001928E-02 0. -1.
</event>
<event>
 5   0  0.1082667E-03  0.1498212E+04  0.7818609E-02  0.8885643E-01
        2   -1    0    0  501    0  0.00000000000E+00  0.00000000000E+00  0.13444027294E+04  0.13444027294E+04  0.25500000920E-02 0. -1.
       -2   -1    0    0    0  501  0.00000000000E+00  0.00000000000E+00 -0.41740430363E+03  0.41740430364E+03  0.25500000920E-02 0.  1.
    10030    2    1    2    0    0  0.00000000000E+00  0.00000000000E+00  0.92699842574E+03  0.17618070330E+04  0.14982115806E+04 0.  0.
        5    1    3    3  502    0  0.57247833569E+03  0.12136325909E+03  0.10134029276E+04  0.11702427394E+04  0.46999998093E+01 0. -1.
       -5    1    3    3    0  502 -0.57247833569E+03 -0.12136325909E+03 -0.86404501884E+02  0.59156429357E+03  0.46999998093E+01 0.  1.
</event>
<event>
 5   0  0.1149716E-03  0.1466252E+04  0.7818609E-02  0.8907210E-01
       -2   -1    0    0    0  501  0.00000000000E+00  0.00000000000E+00  0.56920104820E+03  0.56920104820E+03  0.25500000920E-02 0.  1.
        2   -1    0    0  501    0  0.00000000000E+00  0.00000000000E+00 -0.94425979622E+03  0.94425979622E+03  0.25500000920E-02 0. -1.
    10030    2    1    2    0    0  0.00000000000E+00  0.00000000000E+00 -0.37505874802E+03  0.15134608444E+04  0.14662519098E+04 0.  0.
        1    1    3    3  502    0  0.52894691409E+03  0.38214623861E+03 -0.53243315311E+03  0.84220285452E+03  0.50400001928E-02 0. -1.
       -1    1    3    3    0  502 -0.52894691409E+03 -0.38214623861E+03  0.15737440509E+03  0.67125798990E+03  0.50400001928E-02 0.  1.
</event>
<event>
 5   0  0.1126175E-03  0.1488747E+04  0.7818609E-02  0.8891971E-01
        2   -1    0    0  501    0  0.00000000000E+00  0.00000000000E+00  0.74243311979E+03  0.74243311979E+03  0.25500000920E-02 0.  1.
       -2   -1    0    0    0  501  0.00000000000E+00  0.00000000000E+00 -0.74631895170E+03  0.74631895170E+03  0.25500000920E-02 0. -1.
    10030    2    1    2    0    0  0.00000000000E+00  0.00000000000E+00 -0.38858319122E+01  0.14887520715E+04  0.14887470002E+04 0.  0.
        3    1    3    3  502    0 -0.26637505736E+03 -0.29449652962E+03 -0.63155447953E+03  0.74601940186E+03  0.10100000352E+00 0. -1.
       -3    1    3    3    0  502  0.26637505736E+03  0.29449652962E+03  0.62766864761E+03  0.74273266963E+03  0.10100000352E+00 0.  1.
</event>
<event>
 5   0  0.5924403E-04  0.1437195E+04  0.7818609E-02  0.8927327E-01
        1   -1    0    0  501    0  0.00000000000E+00  0.00000000000E+00  0.19438350488E+04  0.19438350488E+04  0.50400001928E-02 0. -1.
       -1   -1    0    0    0  501  0.00000000000E+00  0.00000000000E+00 -0.26565124204E+03  0.26565124209E+03  0.50400001928E-02 0.  1.
    10030    2    1    2    0    0  0.00000000000E+00  0.00000000000E+00  0.16781838067E+04  0.22094862909E+04  0.14371947608E+04 0.  0.
        1    1    3    3  502    0 -0.66002749541E+03 -0.27108032435E+03  0.70808788588E+03  0.10052409120E+04  0.50400001928E-02 0. -1.
       -1    1    3    3    0  502  0.66002749541E+03  0.27108032435E+03  0.97009592086E+03  0.12042453789E+04  0.50400001928E-02 0.  1.
</event>
<event>
 5   0  0.5914645E-04  0.1473264E+04  0.7818609E-02  0.8902429E-01
        1   -1    0    0  501    0  0.00000000000E+00  0.00000000000E+00  0.67122766866E+03  0.67122766868E+03  0.50400001928E-02 0. -1.
       -1   -1    0    0    0  501  0.00000000000E+00  0.00000000000E+00 -0.80840941692E+03  0.80840941693E+03  0.50400001928E-02 0.  1.
    10030    2    1    2    0    0  0.00000000000E+00  0.00000000000E+00 -0.13718174825E+03  0.14796370856E+04  0.14732640880E+04 0.  0.
        2    1    3    3  502    0 -0.69632798684E+03  0.12786806190E+03  0.13576871935E+03  0.72087173039E+03  0.25500000920E-02 0.  1.
       -2    1    3    3    0  502  0.69632798684E+03 -0.12786806190E+03 -0.27295046760E+03  0.75876535522E+03  0.25500000920E-02 0. -1.
</event>
<event>
 5   0  0.1149716E-03  0.1497865E+04  0.7818609E-02  0.8885874E-01
        2   -1    0    0  501    0  0.00000000000E+00  0.00000000000E+00  0.13092815352E+04  0.13092815352E+04  0.25500000920E-02 0. -1.
       -2   -1    0    0    0  501  0.00000000000E+00  0.00000000000E+00 -0.42840286298E+03  0.42840286298E+03  0.25500000920E-02 0.  1.
    10030    2    1    2    0    0  0.00000000000E+00  0.00000000000E+00  0.88087867224E+03  0.17376843982E+04  0.14978650916E+04 0.  0.
        1    1    3    3  502    0  0.52691862888E+03 -0.18416943893E+03  0.10197249315E+04  0.11624975525E+04  0.50400001928E-02 0. -1.
       -1    1    3    3    0  502 -0.52691862888E+03  0.18416943893E+03 -0.13884625925E+03  0.57518684567E+03  0.50400001928E-02 0.  1.
</event>
<event>
 5   0  0.1126175E-03  0.1490248E+04  0.7818609E-02  0.8890964E-01
       -2   -1    0    0    0  501  0.00000000000E+00  0.00000000000E+00  0.10325531426E+04  0.10325531426E+04  0.25500000920E-02 0. -1.
        2   -1    0    0  501    0  0.00000000000E+00  0.00000000000E+00 -0.53770559401E+03  0.53770559402E+03  0.25500000920E-02 0.  1.
    10030    2    1    2    0    0  0.00000000000E+00  0.00000000000E+00  0.49484754857E+03  0.15702587366E+04  0.14902477658E+04 0.  0.
        3    1    3    3  502    0  0.42418141777E+03 -0.49318576223E+01 -0.39804644534E+03  0.58171744107E+03  0.10100000352E+00 0.  1.
       -3    1    3    3    0  502 -0.42418141777E+03  0.49318576223E+01  0.89289399391E+03  0.98854129553E+03  0.10100000352E+00 0. -1.
</event>
<event>
 5   0  0.6146552E-04  0.1439520E+04  0.7818609E-02  0.8925699E-01
        1   -1    0    0  501    0  0.00000000000E+00  0.00000000000E+00  0.11301218742E+04  0.11301218742E+04  0.50400001928E-02 0.  1.
       -1   -1    0    0    0  501  0.00000000000E+00  0.00000000000E+00 -0.45840578144E+03  0.45840578147E+03  0.50400001928E-02 0. -1.
    10030    2    1    2    0    0  0.00000000000E+00  0.00000000000E+00  0.67171609280E+03  0.15885276557E+04  0.14395199212E+04 0.  0.
        5    1    3    3  502    0 -0.38586485831E+03 -0.64905501104E+01  0.10062800164E+04  0.10777547854E+04  0.46999998093E+01 0.  1.
       -5    1    3    3    0  502  0.38586485831E+03  0.64905501104E+01 -0.33456392355E+03  0.51077287033E+03  0.46999998093E+01 0. -1.
</event>
<event>
 5   0  0.1126175E-03  0.1464990E+04  0.7818609E-02  0.8908074E-01
       -2   -1    0    0    0  501  0.00000000000E+00  0.00000000000E+00  0.60890771875E+03  0.60890771876E+03  0.25500000920E-02 0. -1.
        2   -1    0    0  501    0  0.00000000000E+00  0.00000000000E+00 -0.88116610362E+03  0.88116610362E+03  0.25500000920E-02 0.  1.
    10030    2    1    2    0    0  0.00000000000E+00  0.00000000000E+00 -0.27225838487E+03  0.14900738224E+04  0.14649898867E+04 0.  0.
        3    1    3    3  502    0 -0.20234809470E+03 -0.64746305533E+03  0.14500103064E+03  0.69367028806E+03  0.10100000352E+00 0. -1.
       -3    1    3    3    0  502  0.20234809470E+03  0.64746305533E+03 -0.41725941550E+03  0.79640353432E+03  0.10100000352E+00 0.  1.
</event>
<event>
 5   0  0.5606965E-04  0.1510825E+04  0.7818609E-02  0.8877286E-01
        1   -1    0    0  501    0  0.00000000000E+00  0.00000000000E+00  0.11737384887E+04  0.11737384887E+04  0.50400001928E-02 0. -1.
       -1   -1    0    0    0  501  0.00000000000E+00  0.00000000000E+00 -0.48618006765E+03  0.48618006768E+03  0.50400001928E-02 0.  1.
    10030    2    1    2    0    0  0.00000000000E+00  0.00000000000E+00  0.68755842102E+03  0.16599185564E+04  0.15108252816E+04 0.  0.
        4    1    3    3  502    0  0.51492316493E+03  0.33610892296E+03 -0.13830567307E+03  0.63027386586E+03  0.12699999809E+01 0.  1.
       -4    1    3    3    0  502 -0.51492316493E+03 -0.33610892296E+03  0.82586409409E+03  0.10296446905E+04  0.12699999809E+01 0. -1.
</event>
<event>
 5   0  0.5606965E-04  0.1486619E+04  0.7818609E-02  0.8893400E-01
        1   -1    0    0  501    0  0.00000000000E+00  0.00000000000E+00  0.10165773399E+04  0.10165773399E+04  0.50400001928E-02 0.  1.
       -1   -1    0    0    0  501  0.00000000000E+00  0.00000000000E+00 -0.54349943714E+03  0.54349943716E+03  0.50400001928E-02 0. -1.
    10030    2    1    2    0    0  0.00000000000E+00  0.00000000000E+00  0.47307790277E+03  0.15600767771E+04  0.14866192681E+04 0.  0.
        4    1    3    3  502    0 -0.66903665998E+03 -0.29848186350E+03  0.36847361263E+03  0.82004627390E+03  0.12699999809E+01 0.  1.
       -4    1    3    3    0  502  0.66903665998E+03  0.29848186350E+03  0.10460429014E+03  0.74003050319E+03  0.12699999809E+01 0. -1.
</event>
<event>
 5   0  0.1126175E-03  0.1116294E+04  0.7818609E-02  0.9189455E-01
        2   -1    0    0  501    0  0.00000000000E+00  0.00000000000E+00  0.57024506102E+03  0.57024506103E+03  0.25500000920E-02 0.  1.
       -2   -1    0    0    0  501  0.00000000000E+00  0.00000000000E+00 -0.54630520959E+03  0.54630520960E+03  0.25500000920E-02 0. -1.
    10030    2    1    2    0    0  0.00000000000E+00  0.00000000000E+00  0.23939851433E+02  0.11165502706E+04  0.11162935950E+04 0.  0.
        3    1    3    3  502    0  0.47217035736E+03  0.10209319446E+03 -0.26766540521E+03  0.55227949996E+03  0.10100000352E+00 0. -1.
       -3    1    3    3    0  502 -0.47217035736E+03 -0.10209319446E+03  0.29160525664E+03  0.56427077067E+03  0.10100000352E+00 0.  1.
</event>
<event>
 5   0  0.6146552E-04  0.1502749E+04  0.7818609E-02  0.8882627E-01
       -1   -1    0    0    0  501  0.00000000000E+00  0.00000000000E+00  0.41457676522E+03  0.41457676525E+03  0.50400001928E-02 0. -1.
        1   -1    0    0  501    0  0.00000000000E+00  0.00000000000E+00 -0.13617830247E+04  0.13617830247E+04  0.50400001928E-02 0.  1.
    10030    2    1    2    0    0  0.00000000000E+00  0.00000000000E+00 -0.94720625949E+03  0.17763597900E+04  0.15027489496E+04 0.  0.
        5    1    3    3  502    0  0.53566987452E+03  0.40266028645E+02 -0.10945889565E+04  0.12193074433E+04  0.46999998093E+01 0.  1.
       -5    1    3    3    0  502 -0.53566987452E+03 -0.40266028645E+02  0.14738269705E+03  0.55705234666E+03  0.46999998093E+01 0. -1.
</event>
<event>
 5   0  0.5924403E-04  0.1483866E+04  0.7818609E-02  0.8895253E-01
        1   -1    0    0  501    0  0.00000000000E+00  0.00000000000E+00  0.98241346607E+03  0.98241346608E+03  0.50400001928E-02 0. -1.
       -1   -1    0    0    0  501  0.00000000000E+00  0.00000000000E+00 -0.56031879484E+03  0.56031879486E+03  0.50400001928E-02 0.  1.
    10030    2    1    2    0    0  0.00000000000E+00  0.00000000000E+00  0.42209467123E+03  0.15427322609E+04  0.14838662061E+04 0.  0.
        1    1    3    3  502    0 -0.53342195518E+03 -0.41960388337E+03 -0.10060829975E+03  0.68609651741E+03  0.50400001928E-02 0.  1.
       -1    1    3    3    0  502  0.53342195518E+03  0.41960388337E+03  0.52270297098E+03  0.85663574353E+03  0.50400001928E-02 0. -1.
</event>
<event>
 5   0  0.5606965E-04  0.1504740E+04  0.7818609E-02  0.8881307E-01
       -1   -1    0    0    0  501  0.00000000000E+00  0.00000000000E+00  0.45619022628E+03  0.45619022630E+03  0.50400001928E-02 0. -1.
        1   -1    0    0  501    0  0.00000000000E+00  0.00000000000E+00 -0.12408430949E+04  0.12408430949E+04  0.50400001928E-02 0.  1.
    10030    2    1    2    0    0  0.00000000000E+00  0.00000000000E+00 -0.78465286865E+03  0.16970333212E+04  0.15047398344E+04 0.  0.
        4    1    3    3  502    0  0.56271261104E+03 -0.10945157152E+03  0.15721466458E+03  0.59442677665E+03  0.12699999809E+01 0. -1.
       -4    1    3    3    0  502 -0.56271261104E+03  0.10945157152E+03 -0.94186753323E+03  0.11026065446E+04  0.12699999809E+01 0.  1.
</event>
<event>
 5   0  0.1097156E-03  0.1491767E+04  0.7818609E-02  0.8889946E-01
        2   -1    0    0  501    0  0.00000000000E+00  0.00000000000E+00  0.11524909948E+04  0.11524909948E+04  0.25500000920E-02 0. -1.
       -2   -1    0    0    0  501  0.00000000000E+00  0.00000000000E+00 -0.48273021282E+03  0.48273021282E+03  0.25500000920E-02 0.  1.
    10030    2    1    2    0    0  0.00000000000E+00  0.00000000000E+00  0.66976078203E+03  0.16352212077E+04  0.14917670371E+04 0.  0.
        2    1    3    3  502    0  0.13204695892E+03 -0.54108473807E+03  0.87870711066E+03  0.10403534397E+04  0.25500000920E-02 0. -1.
       -2    1    3    3    0  502 -0.13204695892E+03  0.54108473807E+03 -0.20894632864E+03  0.59486776798E+03  0.25500000920E-02 0.  1.
</event>
<event>
 5   0  0.1097156E-03  0.1478321E+04  0.7818609E-02  0.8898999E-01
       -2   -1    0    0    0  501  0.00000000000E+00  0.00000000000E+00  0.63266757776E+03  0.63266757777E+03  0.25500000920E-02 0.  1.
        2   -1    0    0  501    0  0.00000000000E+00  0.00000000000E+00 -0.86357876480E+03  0.86357876480E+03  0.25500000920E-02 0. -1.
    10030    2    1    2    0    0  0.00000000000E+00  0.00000000000E+00 -0.23091118704E+03  0.14962463426E+04  0.14783210549E+04 0.  0.
        2    1    3    3  502    0  0.59168023983E+03  0.36677138197E+03 -0.36696730323E+03  0.78693821517E+03  0.25500000920E-02 0. -1.
       -2    1    3    3    0  502 -0.59168023983E+03 -0.36677138197E+03  0.13605611619E+03  0.70930812740E+03  0.25500000920E-02 0.  1.
</event>
<event>
 5   0  0.1097156E-03  0.1499436E+04  0.7818609E-02  0.8884828E-01
        2   -1    0    0  501    0  0.00000000000E+00  0.00000000000E+00  0.57779575292E+03  0.57779575293E+03  0.25500000920E-02 0. -1.
       -2   -1    0    0    0  501  0.00000000000E+00  0.00000000000E+00 -0.97279548381E+03  0.97279548381E+03  0.25500000920E-02 0.  1.
    10030    2    1    2    0    0  0.00000000000E+00  0.00000000000E+00 -0.39499973088E+03  0.15505912367E+04  0.14994360260E+04 0.  0.
        2    1    3    3  502    0  0.42661416530E+03  0.17167720111E+03  0.41481959174E+03  0.61931252297E+03  0.25500000920E-02 0. -1.
       -2    1    3    3    0  502 -0.42661416530E+03 -0.17167720111E+03 -0.80981932262E+03  0.93127871376E+03  0.25500000920E-02 0.  1.
</event>
<event>
 5   0  0.5914645E-04  0.1496827E+04  0.7818609E-02  0.8886566E-01
       -1   -1    0    0    0  501  0.00000000000E+00  0.00000000000E+00  0.38981903025E+03  0.38981903029E+03  0.50400001928E-02 0.  1.
        1   -1    0    0  501    0  0.00000000000E+00  0.00000000000E+00 -0.14368792803E+04  0.14368792803E+04  0.50400001928E-02 0. -1.
    10030    2    1    2    0    0  0.00000000000E+00  0.00000000000E+00 -0.10470602500E+04  0.18266983106E+04  0.14968271613E+04 0.  0.
        2    1    3    3  502    0 -0.15777203106E+03 -0.51945531081E+03  0.10516952809E+03  0.55297962292E+03  0.25500000920E-02 0.  1.
       -2    1    3    3    0  502  0.15777203106E+03  0.51945531081E+03 -0.11522297781E+04  0.12737186877E+04  0.25500000920E-02 0. -1.
</event>
<event>
 5   0  0.5606965E-04  0.1501771E+04  0.7818609E-02  0.8883276E-01
       -1   -1    0    0    0  501  0.00000000000E+00  0.00000000000E+00  0.11323996448E+04  0.11323996448E+04  0.50400001928E-02 0. -1.
        1   -1    0    0  501    0  0.00000000000E+00  0.00000000000E+00 -0.49790642016E+03  0.49790642019E+03  0.50400001928E-02 0.  1.
    10030    2    1    2    0    0  0.00000000000E+00  0.00000000000E+00  0.63449322464E+03  0.16303060650E+04  0.15017710256E+04 0.  0.
        4    1    3    3  502    0  0.60614943549E+03 -0.18101532795E+03  0.75639888960E+03  0.98606520077E+03  0.12699999809E+01 0. -1.
       -4    1    3    3    0  502 -0.60614943549E+03  0.18101532795E+03 -0.12190566496E+03  0.64424086423E+03  0.12699999809E+01 0.  1.
</event>
<event>
 5   0  0.5840834E-04  0.1494337E+04  0.7818609E-02  0.8888228E-01
        1   -1    0    0  501    0  0.00000000000E+00  0.00000000000E+00  0.70777330177E+03  0.70777330179E+03  0.50400001928E-02 0.  1.
       -1   -1    0    0    0  501  0.00000000000E+00  0.00000000000E+00 -0.78875615930E+03  0.78875615932E+03  0.50400001928E-02 0. -1.
    10030    2    1    2    0    0  0.00000000000E+00  0.00000000000E+00 -0.80982857535E+02  0.14965294611E+04  0.14943367106E+04 0.  0.
        3    1    3    3  502    0 -0.37059863578E+03 -0.32771113111E+01  0.60923360010E+03  0.71310565697E+03  0.10100000352E+00 0.  1.
       -3    1    3    3    0  502  0.37059863578E+03  0.32771113111E+01 -0.69021645764E+03  0.78342380414E+03  0.10100000352E+00 0. -1.
</event>
<event>
 5   0  0.1082667E-03  0.1534735E+04  0.7818609E-02  0.8861677E-01
       -2   -1    0    0    0  501  0.00000000000E+00  0.00000000000E+00  0.13243212811E+04  0.13243212811E+04  0.25500000920E-02 0. -1.
        2   -1    0    0  501    0  0.00000000000E+00  0.00000000000E+00 -0.44464524554E+03  0.44464524555E+03  0.25500000920E-02 0.  1.
    10030    2    1    2    0    0  0.00000000000E+00  0.00000000000E+00  0.87967603556E+03  0.17689665267E+04  0.15347353664E+04 0.  0.
        5    1    3    3  502    0 -0.78888262788E+02 -0.60857460511E+03 -0.91174187485E+02  0.62042020474E+03  0.46999998093E+01 0.  1.
       -5    1    3    3    0  502  0.78888262788E+02  0.60857460511E+03  0.97085022304E+03  0.11485463219E+04  0.46999998093E+01 0. -1.
</event>
<event>
 5   0  0.5606965E-04  0.1501555E+04  0.7818609E-02  0.8883419E-01
        1   -1    0    0  501    0  0.00000000000E+00  0.00000000000E+00  0.14854489981E+04  0.14854489981E+04  0.50400001928E-02 0.  1.
       -1   -1    0    0    0  501  0.00000000000E+00  0.00000000000E+00 -0.37945914970E+03  0.37945914973E+03  0.50400001928E-02 0. -1.
    10030    2    1    2    0    0  0.00000000000E+00  0.00000000000E+00  0.11059898484E+04  0.18649081478E+04  0.15015554785E+04 0.  0.
        4    1    3    3  502    0  0.41287578255E+01  0.70149927939E+03  0.22078489875E+03  0.73543583680E+03  0.12699999809E+01 0. -1.
       -4    1    3    3    0  502 -0.41287578255E+01 -0.70149927939E+03  0.88520494962E+03  0.11294723110E+04  0.12699999809E+01 0.  1.
</event>
<event>
 5   0  0.1082667E-03  0.1457513E+04  0.7818609E-02  0.8913209E-01
       -2   -1    0    0    0  501  0.00000000000E+00  0.00000000000E+00  0.28676026712E+03  0.28676026713E+03  0.25500000920E-02 0.  1.
        2   -1    0    0  501    0  0.00000000000E+00  0.00000000000E+00 -0.18520206523E+04  0.18520206523E+04  0.25500000920E-02 0. -1.
    10030    2    1    2    0    0  0.00000000000E+00  0.00000000000E+00 -0.15652603852E+04  0.21387809194E+04  0.14575128637E+04 0.  0.
        5    1    3    3  502    0 -0.50601973028E+03  0.42993427115E+03 -0.34200283509E+03  0.74691865297E+03  0.46999998093E+01 0.  1.
       -5    1    3    3    0  502  0.50601973028E+03 -0.42993427115E+03 -0.12232575501E+04  0.13918622665E+04  0.46999998093E+01 0. -1.
</event>
<event>
 5   0  0.5606965E-04  0.1503865E+04  0.7818609E-02  0.8881887E-01
        1   -1    0    0  501    0  0.00000000000E+00  0.00000000000E+00  0.13619643855E+04  0.13619643855E+04  0.50400001928E-02 0. -1.
       -1   -1    0    0    0  501  0.00000000000E+00  0.00000000000E+00 -0.41513748273E+03  0.41513748276E+03  0.50400001928E-02 0.  1.
    10030    2    1    2    0    0  0.00000000000E+00  0.00000000000E+00  0.94682690280E+03  0.17771018683E+04  0.15038649761E+04 0.  0.
        4    1    3    3  502    0 -0.37313466171E+03 -0.11115476826E+03  0.12335771309E+04  0.12935605935E+04  0.12699999809E+01 0. -1.
       -4    1    3    3    0  502  0.37313466171E+03  0.11115476826E+03 -0.28675022807E+03  0.48354127484E+03  0.12699999809E+01 0.  1.
</event>
<event>
 5   0  0.4070625E-04  0.1492540E+04  0.7818609E-02  0.8889429E-01
       -3   -1    0    0    0  501  0.00000000000E+00  0.00000000000E+00  0.10058931762E+04  0.10058931813E+04  0.10100000352E+00 0. -1.
        3   -1    0    0  501    0  0.00000000000E+00  0.00000000000E+00 -0.55365618156E+03  0.55365619077E+03  0.10100000352E+00 0.  1.
    10030    2    1    2    0    0  0.00000000000E+00  0.00000000000E+00  0.45223699467E+03  0.15595493721E+04  0.14925400982E+04 0.  0.
        2    1    3    3  502    0  0.50114698517E+03  0.28150858551E+02 -0.35092364211E+03  0.61244442538E+03  0.25500000920E-02 0.  1.
       -2    1    3    3    0  502 -0.50114698517E+03 -0.28150858551E+02  0.80316063678E+03  0.94710494670E+03  0.25500000920E-02 0. -1.
</event>
<event>
 5   0  0.5840834E-04  0.1496523E+04  0.7818609E-02  0.8886768E-01
       -1   -1    0    0    0  501  0.00000000000E+00  0.00000000000E+00  0.64430062205E+03  0.64430062207E+03  0.50400001928E-02 0.  1.
        1   -1    0    0  501    0  0.00000000000E+00  0.00000000000E+00 -0.86899721454E+03  0.86899721455E+03  0.50400001928E-02 0. -1.
    10030    2    1    2    0    0  0.00000000000E+00  0.00000000000E+00 -0.22469659249E+03  0.15132978366E+04  0.14965232319E+04 0.  0.
        3    1    3    3  502    0 -0.18297239123E+03  0.23341020305E+03  0.58232819406E+03  0.65350237539E+03  0.10100000352E+00 0.  1.
       -3    1    3    3    0  502  0.18297239123E+03 -0.23341020305E+03 -0.80702478655E+03  0.85979546123E+03  0.10100000352E+00 0. -1.
</event>
<event>
 5   0  0.5840834E-04  0.1476817E+04  0.7818609E-02  0.8900017E-01
        1   -1    0    0  501    0  0.00000000000E+00  0.00000000000E+00  0.47761642667E+03  0.47761642670E+03  0.50400001928E-02 0. -1.
       -1   -1    0    0    0  501  0.00000000000E+00  0.00000000000E+00 -0.11416008229E+04  0.11416008229E+04  0.50400001928E-02 0.  1.
    10030    2    1    2    0    0  0.00000000000E+00  0.00000000000E+00 -0.66398439624E+03  0.16192172496E+04  0.14768172612E+04 0.  0.
        3    1    3    3  502    0 -0.28295946452E+03 -0.67667109728E+03 -0.42565438975E+03  0.84801621575E+03  0.10100000352E+00 0. -1.
       -3    1    3    3    0  502  0.28295946452E+03  0.67667109728E+03 -0.23833000648E+03  0.77120103387E+03  0.10100000352E+00 0.  1.
</event>
<event>
 5   0  0.1147755E-03  0.1768004E+04  0.7818609E-02  0.8723502E-01
       -2   -1    0    0    0  501  0.00000000000E+00  0.00000000000E+00  0.32126379853E+03  0.32126379854E+03  0.25500000920E-02 0.  1.
        2   -1    0    0  501    0  0.00000000000E+00  0.00000000000E+00 -0.24324556650E+04  0.24324556650E+04  0.25500000920E-02 0. -1.
    10030    2    1    2    0    0  0.00000000000E+00  0.00000000000E+00 -0.21111918665E+04  0.27537194636E+04  0.17680044646E+04 0.  0.
        4    1    3    3  502    0  0.62680212748E+03  0.33720349318E+03 -0.18721801483E+04  0.20029096893E+04  0.12699999809E+01 0. -1.
       -4    1    3    3    0  502 -0.62680212748E+03 -0.33720349318E+03 -0.23901171818E+03  0.75080977428E+03  0.12699999809E+01 0.  1.
</event>
<event>
 5   0  0.1097156E-03  0.1464290E+04  0.7818609E-02  0.8908553E-01
       -2   -1    0    0    0  501  0.00000000000E+00  0.00000000000E+00  0.97554832162E+03  0.97554832162E+03  0.25500000920E-02 0.  1.
        2   -1    0    0  501    0  0.00000000000E+00  0.00000000000E+00 -0.54947202949E+03  0.54947202950E+03  0.25500000920E-02 0. -1.
    10030    2    1    2    0    0  0.00000000000E+00  0.00000000000E+00  0.42607629213E+03  0.15250203511E+04  0.14642902938E+04 0.  0.
        2    1    3    3  502    0 -0.62517855192E+02 -0.37199031446E+03 -0.44048266621E+03  0.57992262890E+03  0.25500000920E-02 0. -1.
       -2    1    3    3    0  502  0.62517855192E+02  0.37199031446E+03  0.86655895833E+03  0.94509772222E+03  0.25500000920E-02 0.  1.
</event>
<event>
 5   0  0.5840834E-04  0.1480106E+04  0.7818609E-02  0.8897791E-01
        1   -1    0    0  501    0  0.00000000000E+00  0.00000000000E+00  0.88778788927E+03  0.88778788929E+03  0.50400001928E-02 0. -1.
       -1   -1    0    0    0  501  0.00000000000E+00  0.00000000000E+00 -0.61690197467E+03  0.61690197470E+03  0.50400001928E-02 0.  1.
    10030    2    1    2    0    0  0.00000000000E+00  0.00000000000E+00  0.27088591460E+03  0.15046898640E+04  0.14801055395E+04 0.  0.
        3    1    3    3  502    0  0.72790841693E+03  0.11137192131E+03  0.60573776212E+02  0.73886640257E+03  0.10100000352E+00 0.  1.
       -3    1    3    3    0  502 -0.72790841693E+03 -0.11137192131E+03  0.21031213839E+03  0.76582346141E+03  0.10100000352E+00 0. -1.
</event>
<event>
 5   0  0.1126175E-03  0.1444030E+04  0.7818609E-02  0.8922550E-01
       -2   -1    0    0    0  501  0.00000000000E+00  0.00000000000E+00  0.33312395783E+03  0.33312395784E+03  0.25500000920E-02 0.  1.
        2   -1    0    0  501    0  0.00000000000E+00  0.00000000000E+00 -0.15649008910E+04  0.15649008910E+04  0.25500000920E-02 0. -1.
    10030    2    1    2    0    0  0.00000000000E+00  0.00000000000E+00 -0.12317769332E+04  0.18980248488E+04  0.14440304407E+04 0.  0.
        3    1    3    3  502    0  0.55390439528E+03  0.39930687385E+03 -0.30749593607E+03  0.74887236530E+03  0.10100000352E+00 0.  1.
       -3    1    3    3    0  502 -0.55390439528E+03 -0.39930687385E+03 -0.92428099708E+03  0.11491524835E+04  0.10100000352E+00 0. -1.
</event>
<event>
 5   0  0.5924403E-04  0.1458396E+04  0.7818609E-02  0.8912600E-01
       -1   -1    0    0    0  501  0.00000000000E+00  0.00000000000E+00  0.39090916617E+03  0.39090916620E+03  0.50400001928E-02 0.  1.
        1   -1    0    0  501    0  0.00000000000E+00  0.00000000000E+00 -0.13602391751E+04  0.13602391751E+04  0.50400001928E-02 0. -1.
    10030    2    1    2    0    0  0.00000000000E+00  0.00000000000E+00 -0.96933000891E+03  0.17511483413E+04  0.14583963271E+04 0.  0.
        1    1    3    3  502    0 -0.43444744706E+03 -0.41861197816E+03 -0.97645291563E+03  0.11477982702E+04  0.50400001928E-02 0. -1.
       -1    1    3    3    0  502  0.43444744706E+03  0.41861197816E+03  0.71229067163E+01  0.60335007113E+03  0.50400001928E-02 0.  1.
</event>
<event>
 5   0  0.5606965E-04  0.1542298E+04  0.7818609E-02  0.8856802E-01
        1   -1    0    0  501    0  0.00000000000E+00  0.00000000000E+00  0.48559308788E+03  0.48559308790E+03  0.50400001928E-02 0. -1.
       -1   -1    0    0    0  501  0.00000000000E+00  0.00000000000E+00 -0.12246285605E+04  0.12246285605E+04  0.50400001928E-02 0.  1.
    10030    2    1    2    0    0  0.00000000000E+00  0.00000000000E+00 -0.73903547263E+03  0.17102216484E+04  0.15422984980E+04 0.  0.
        4    1    3    3  502    0  0.51432162944E+03 -0.21740053459E+02 -0.10062015345E+04  0.11302400229E+04  0.12699999809E+01 0.  1.
       -4    1    3    3    0  502 -0.51432162944E+03  0.21740053459E+02  0.26716606186E+03  0.57998162553E+03  0.12699999809E+01 0. -1.
</event>
<event>
 5   0  0.6146552E-04  0.1506916E+04  0.7818609E-02  0.8879867E-01
       -1   -1    0    0    0  501  0.00000000000E+00  0.00000000000E+00  0.21258299953E+03  0.21258299959E+03  0.50400001928E-02 0.  1.
        1   -1    0    0  501    0  0.00000000000E+00  0.00000000000E+00 -0.26704805528E+04  0.26704805528E+04  0.50400001928E-02 0. -1.
    10030    2    1    2    0    0  0.00000000000E+00  0.00000000000E+00 -0.24578975532E+04  0.28830635524E+04  0.15069157457E+04 0.  0.
        5    1    3    3  502    0  0.15665553261E+03 -0.42184556351E+03 -0.23851141296E+04  0.24271971771E+04  0.46999998093E+01 0. -1.
       -5    1    3    3    0  502 -0.15665553261E+03  0.42184556351E+03 -0.72783423656E+02  0.45586637528E+03  0.46999998093E+01 0.  1.
</event>
<event>
 5   0  0.1126175E-03  0.1490265E+04  0.7818609E-02  0.8890953E-01
       -2   -1    0    0    0  501  0.00000000000E+00  0.00000000000E+00  0.33156838051E+03  0.33156838052E+03  0.25500000920E-02 0. -1.
        2   -1    0    0  501    0  0.00000000000E+00  0.00000000000E+00 -0.16745336181E+04  0.16745336181E+04  0.25500000920E-02 0.  1.
    10030    2    1    2    0    0  0.00000000000E+00  0.00000000000E+00 -0.13429652376E+04  0.20061019986E+04  0.14902649427E+04 0.  0.
        3    1    3    3  502    0 -0.21137406116E+03 -0.30301526761E+03  0.19958936443E+03  0.41992043381E+03  0.10100000352E+00 0. -1.
       -3    1    3    3    0  502  0.21137406116E+03  0.30301526761E+03 -0.15425546020E+04  0.15861815648E+04  0.10100000352E+00 0.  1.
</event>
<event>
 5   0  0.5924403E-04  0.1516264E+04  0.7818609E-02  0.8873709E-01
        1   -1    0    0  501    0  0.00000000000E+00  0.00000000000E+00  0.56158202832E+03  0.56158202834E+03  0.50400001928E-02 0. -1.
       -1   -1    0    0    0  501  0.00000000000E+00  0.00000000000E+00 -0.10234734003E+04  0.10234734003E+04  0.50400001928E-02 0.  1.
    10030    2    1    2    0    0  0.00000000000E+00  0.00000000000E+00 -0.46189137194E+03  0.15850554286E+04  0.15162641829E+04 0.  0.
        1    1    3    3  502    0  0.29363026259E+03  0.65308564631E+03  0.29400864756E+02  0.71666170778E+03  0.50400001928E-02 0.  1.
       -1    1    3    3    0  502 -0.29363026259E+03 -0.65308564631E+03 -0.49129223670E+03  0.86839372084E+03  0.50400001928E-02 0. -1.
</event>
<event>
 5   0  0.1149716E-03  0.1521702E+04  0.7818609E-02  0.8870149E-01
        2   -1    0    0  501    0  0.00000000000E+00  0.00000000000E+00  0.18590341984E+04  0.18590341984E+04  0.25500000920E-02 0.  1.
       -2   -1    0    0    0  501  0.00000000000E+00  0.00000000000E+00 -0.31139495939E+03  0.31139495940E+03  0.25500000920E-02 0. -1.
    10030    2    1    2    0    0  0.00000000000E+00  0.00000000000E+00  0.15476392391E+04  0.21704291578E+04  0.15217015197E+04 0.  0.
        1    1    3    3  502    0  0.26759464132E+03  0.38123875665E+03 -0.84278262237E+02  0.47334206146E+03  0.50400001928E-02 0.  1.
       -1    1    3    3    0  502 -0.26759464132E+03 -0.38123875665E+03  0.16319175013E+04  0.16970870964E+04  0.50400001928E-02 0. -1.
</event>
<event>
 5   0  0.5606965E-04  0.1509748E+04  0.7818609E-02  0.8877996E-01
        1   -1    0    0  501    0  0.00000000000E+00  0.00000000000E+00  0.57138515285E+03  0.57138515287E+03  0.50400001928E-02 0.  1.
       -1   -1    0    0    0  501  0.00000000000E+00  0.00000000000E+00 -0.99728662576E+03  0.99728662577E+03  0.50400001928E-02 0. -1.
    10030    2    1    2    0    0  0.00000000000E+00  0.00000000000E+00 -0.42590147291E+03  0.15686717786E+04  0.15097480202E+04 0.  0.
        4    1    3    3  502    0 -0.44485095832E+03 -0.45861928447E+03  0.20474550514E+03  0.67092947318E+03  0.12699999809E+01 0.  1.
       -4    1    3    3    0  502  0.44485095832E+03  0.45861928447E+03 -0.63064697805E+03  0.89774230547E+03  0.12699999809E+01 0. -1.
</event>
<event>
 5   0  0.6146552E-04  0.1561651E+04  0.7818609E-02  0.8844460E-01
       -1   -1    0    0    0  501  0.00000000000E+00  0.00000000000E+00  0.37799932839E+03  0.37799932843E+03  0.50400001928E-02 0. -1.
        1   -1    0    0  501    0  0.00000000000E+00  0.00000000000E+00 -0.16129362665E+04  0.16129362665E+04  0.50400001928E-02 0.  1.
    10030    2    1    2    0    0  0.00000000000E+00  0.00000000000E+00 -0.12349369381E+04  0.19909355949E+04  0.15616514663E+04 0.  0.
        5    1    3    3  502    0 -0.28786581713E+03  0.82930016265E+02  0.30180019001E+03  0.42526410730E+03  0.46999998093E+01 0. -1.
       -5    1    3    3    0  502  0.28786581713E+03 -0.82930016265E+02 -0.15367371281E+04  0.15656714876E+04  0.46999998093E+01 0.  1.
</event>
<event>
 5   0  0.5914645E-04  0.1514933E+04  0.7818609E-02  0.8874583E-01
        1   -1    0    0  501    0  0.00000000000E+00  0.00000000000E+00  0.72005590588E+03  0.72005590590E+03  0.50400001928E-02 0. -1.
       -1   -1    0    0    0  501  0.00000000000E+00  0.00000000000E+00 -0.79682071581E+03  0.79682071582E+03  0.50400001928E-02 0.  1.
    10030    2    1    2    0    0  0.00000000000E+00  0.00000000000E+00 -0.76764809927E+02  0.15168766217E+04  0.15149329521E+04 0.  0.
        2    1    3    3  502    0  0.37339600937E+03 -0.56804271510E+03  0.29619950891E+03  0.74150607217E+03  0.25500000920E-02 0. -1.
       -2    1    3    3    0  502 -0.37339600937E+03  0.56804271510E+03 -0.37296431883E+03  0.77537054955E+03  0.25500000920E-02 0.  1.
</event>
<event>
 5   0  0.5606965E-04  0.1512133E+04  0.7818609E-02  0.8876424E-01
       -1   -1    0    0    0  501  0.00000000000E+00  0.00000000000E+00  0.11419654662E+04  0.11419654663E+04  0.50400001928E-02 0. -1.
        1   -1    0    0  501    0  0.00000000000E+00  0.00000000000E+00 -0.50057277657E+03  0.50057277660E+03  0.50400001928E-02 0.  1.
    10030    2    1    2    0    0  0.00000000000E+00  0.00000000000E+00  0.64139268967E+03  0.16425382428E+04  0.15121333595E+04 0.  0.
        4    1    3    3  502    0 -0.15141805734E+03  0.73690510828E+03  0.23884086847E+03  0.78930547956E+03  0.12699999809E+01 0.  1.
       -4    1    3    3    0  502  0.15141805734E+03 -0.73690510828E+03  0.40255182119E+03  0.85323276329E+03  0.12699999809E+01 0. -1.
</event>
<event>
 5   0  0.6146552E-04  0.1606211E+04  0.7818609E-02  0.8816741E-01
        1   -1    0    0  501    0  0.00000000000E+00  0.00000000000E+00  0.62941408297E+03  0.62941408299E+03  0.50400001928E-02 0. -1.
       -1   -1    0    0    0  501  0.00000000000E+00  0.00000000000E+00 -0.10247286947E+04  0.10247286947E+04  0.50400001928E-02 0.  1.
    10030    2    1    2    0    0  0.00000000000E+00  0.00000000000E+00 -0.39531461168E+03  0.16541427777E+04  0.16062112833E+04 0.  0.
        5    1    3    3  502    0  0.35508616864E+03  0.29344273065E+03 -0.87513462291E+03  0.98897801874E+03  0.46999998093E+01 0.  1.
       -5    1    3    3    0  502 -0.35508616864E+03 -0.29344273065E+03  0.47982001123E+03  0.66516475892E+03  0.46999998093E+01 0. -1.
</event>
<event>
 5   0  0.1097156E-03  0.1503683E+04  0.7818609E-02  0.8882008E-01
       -2   -1    0    0    0  501  0.00000000000E+00  0.00000000000E+00  0.33727039144E+03  0.33727039144E+03  0.25500000920E-02 0. -1.
        2   -1    0    0  501    0  0.00000000000E+00  0.00000000000E+00 -0.16760012063E+04  0.16760012063E+04  0.25500000920E-02 0.  1.
    10030    2    1    2    0    0  0.00000000000E+00  0.00000000000E+00 -0.13387308149E+04  0.20132715978E+04  0.15036829226E+04 0.  0.
        2    1    3    3  502    0  0.71523958164E+03 -0.22984466872E+03 -0.70884238834E+03  0.10328861323E+04  0.25500000920E-02 0. -1.
       -2    1    3    3    0  502 -0.71523958164E+03  0.22984466872E+03 -0.62988842653E+03  0.98038546540E+03  0.25500000920E-02 0.  1.
</event>
<event>
 5   0  0.5924403E-04  0.1486217E+04  0.7818609E-02  0.8893670E-01
       -1   -1    0    0    0  501  0.00000000000E+00  0.00000000000E+00  0.50511734554E+03  0.50511734556E+03  0.50400001928E-02 0. -1.
        1   -1    0    0  501    0  0.00000000000E+00  0.00000000000E+00 -0.10932318113E+04  0.10932318113E+04  0.50400001928E-02 0.  1.
    10030    2    1    2    0    0  0.00000000000E+00  0.00000000000E+00 -0.58811446580E+03  0.15983491569E+04  0.14862171451E+04 0.  0.
        1    1    3    3  502    0  0.13494663542E+03 -0.62211966984E+03  0.11822926819E+03  0.64747327195E+03  0.50400001928E-02 0. -1.
       -1    1    3    3    0  502 -0.13494663542E+03  0.62211966984E+03 -0.70634373399E+03  0.95087588495E+03  0.50400001928E-02 0.  1.
</event>
<event>
 5   0  0.5924403E-04  0.1518928E+04  0.7818609E-02  0.8871963E-01
       -1   -1    0    0    0  501  0.00000000000E+00  0.00000000000E+00  0.75916091228E+03  0.75916091230E+03  0.50400001928E-02 0.  1.
        1   -1    0    0  501    0  0.00000000000E+00  0.00000000000E+00 -0.75976675583E+03  0.75976675585E+03  0.50400001928E-02 0. -1.
    10030    2    1    2    0    0  0.00000000000E+00  0.00000000000E+00 -0.60584355019E+00  0.15189276681E+04  0.15189275473E+04 0.  0.
        1    1    3    3  502    0  0.15102249215E+03  0.74429114845E+03 -0.31519004236E+01  0.75946497042E+03  0.50400001928E-02 0.  1.
       -1    1    3    3    0  502 -0.15102249215E+03 -0.74429114845E+03  0.25460568734E+01  0.75946269772E+03  0.50400001928E-02 0. -1.
</event>
<event>
 5   0  0.5924403E-04  0.1485425E+04  0.7818609E-02  0.8894203E-01
        1   -1    0    0  501    0  0.00000000000E+00  0.00000000000E+00  0.50704796104E+03  0.50704796106E+03  0.50400001928E-02 0.  1.
       -1   -1    0    0    0  501  0.00000000000E+00  0.00000000000E+00 -0.10879084868E+04  0.10879084868E+04  0.50400001928E-02 0. -1.
    10030    2    1    2    0    0  0.00000000000E+00  0.00000000000E+00 -0.58086052577E+03  0.15949564479E+04  0.14854248955E+04 0.  0.
        1    1    3    3  502    0 -0.42749193799E+03  0.30444545822E+03  0.27385470039E+03  0.59197364048E+03  0.50400001928E-02 0.  1.
       -1    1    3    3    0  502  0.42749193799E+03 -0.30444545822E+03 -0.85471522615E+03  0.10029828074E+04  0.50400001928E-02 0. -1.
</event>
<event>
 5   0  0.1147755E-03  0.1478508E+04  0.7818609E-02  0.8898872E-01
        2   -1    0    0  501    0  0.00000000000E+00  0.00000000000E+00  0.54196374087E+03  0.54196374087E+03  0.25500000920E-02 0. -1.
       -2   -1    0    0    0  501  0.00000000000E+00  0.00000000000E+00 -0.10083636063E+04  0.10083636063E+04  0.25500000920E-02 0.  1.
    10030    2    1    2    0    0  0.00000000000E+00  0.00000000000E+00 -0.46639986544E+03  0.15503273472E+04  0.14785080483E+04 0.  0.
        4    1    3    3  502    0 -0.42829334043E+03  0.57796136861E+03 -0.54571252445E+02  0.72142509213E+03  0.12699999809E+01 0.  1.
       -4    1    3    3    0  502  0.42829334043E+03 -0.57796136861E+03 -0.41182861299E+03  0.82890225506E+03  0.12699999809E+01 0. -1.
</event>
<event>
 5   0  0.5840834E-04  0.1499207E+04  0.7818609E-02  0.8884980E-01
       -1   -1    0    0    0  501  0.00000000000E+00  0.00000000000E+00  0.34457517732E+03  0.34457517736E+03  0.50400001928E-02 0. -1.
        1   -1    0    0  501    0  0.00000000000E+00  0.00000000000E+00 -0.16307203203E+04  0.16307203203E+04  0.50400001928E-02 0.  1.
    10030    2    1    2    0    0  0.00000000000E+00  0.00000000000E+00 -0.12861451430E+04  0.19752954977E+04  0.14992074487E+04 0.  0.
        3    1    3    3  502    0  0.37792319279E+03  0.64684997238E+03 -0.60909825068E+03  0.96552654836E+03  0.10100000352E+00 0.  1.
       -3    1    3    3    0  502 -0.37792319279E+03 -0.64684997238E+03 -0.67704689233E+03  0.10097689493E+04  0.10100000352E+00 0. -1.
</event>
<event>
 5   0  0.1147755E-03  0.1495450E+04  0.7818609E-02  0.8887484E-01
       -2   -1    0    0    0  501  0.00000000000E+00  0.00000000000E+00  0.46312690983E+03  0.46312690984E+03  0.25500000920E-02 0. -1.
        2   -1    0    0  501    0  0.00000000000E+00  0.00000000000E+00 -0.12072134484E+04  0.12072134484E+04  0.25500000920E-02 0.  1.
    10030    2    1    2    0    0  0.00000000000E+00  0.00000000000E+00 -0.74408653861E+03  0.16703403583E+04  0.14954504791E+04 0.  0.
        4    1    3    3  502    0  0.42812730627E+02 -0.42613435638E+03  0.31255380765E+03  0.53020271140E+03  0.12699999809E+01 0. -1.
       -4    1    3    3    0  502 -0.42812730627E+02  0.42613435638E+03 -0.10566403463E+04  0.11401376469E+04  0.12699999809E+01 0.  1.
</event>
<event>
 5   0  0.1126175E-03  0.1501424E+04  0.7818609E-02  0.8883507E-01
       -2   -1    0    0    0  501  0.00000000000E+00  0.00000000000E+00  0.57714533953E+03  0.57714533953E+03  0.25500000920E-02 0. -1.
        2   -1    0    0  501    0  0.00000000000E+00  0.00000000000E+00 -0.97647552294E+03  0.97647552294E+03  0.25500000920E-02 0.  1.
    10030    2    1    2    0    0  0.00000000000E+00  0.00000000000E+00 -0.39933018341E+03  0.15536208625E+04  0.15014237207E+04 0.  0.
        3    1    3    3  502    0 -0.21716609792E+03 -0.71810963333E+03 -0.17178921383E+03  0.76964544028E+03  0.10100000352E+00 0.  1.
       -3    1    3    3    0  502  0.21716609792E+03  0.71810963333E+03 -0.22754096959E+03  0.78397542219E+03  0.10100000352E+00 0. -1.
</event>
<event>
 5   0  0.1149716E-03  0.1458154E+04  0.7818609E-02  0.8912767E-01
        2   -1    0    0  501    0  0.00000000000E+00  0.00000000000E+00  0.12508998864E+04  0.12508998864E+04  0.25500000920E-02 0.  1.
       -2   -1    0    0    0  501  0.00000000000E+00  0.00000000000E+00 -0.42493695416E+03  0.42493695417E+03  0.25500000920E-02 0. -1.
    10030    2    1    2    0    0  0.00000000000E+00  0.00000000000E+00  0.82596293228E+03  0.16758368406E+04  0.14581544331E+04 0.  0.
        1    1    3    3  502    0  0.38397174787E+03  0.44718516589E+03  0.90616416946E+03  0.10809913865E+04  0.50400001928E-02 0.  1.
       -1    1    3    3    0  502 -0.38397174787E+03 -0.44718516589E+03 -0.80201237178E+02  0.59484545407E+03  0.50400001928E-02 0. -1.
</event>
<event>
 5   0  0.1147755E-03  0.1499136E+04  0.7818609E-02  0.8885028E-01
        2   -1    0    0  501    0  0.00000000000E+00  0.00000000000E+00  0.16389974574E+04  0.16389974574E+04  0.25500000920E-02 0. -1.
       -2   -1    0    0    0  501  0.00000000000E+00  0.00000000000E+00 -0.34280214616E+03  0.34280214617E+03  0.25500000920E-02 0.  1.
    10030    2    1    2    0    0  0.00000000000E+00  0.00000000000E+00  0.12961953112E+04  0.19817996035E+04  0.14991355455E+04 0.  0.
        4    1    3    3  502    0 -0.33061147487E+03  0.47990201560E+03  0.24893582617E+02  0.58329340409E+03  0.12699999809E+01 0.  1.
       -4    1    3    3    0  502  0.33061147487E+03 -0.47990201560E+03  0.12713017286E+04  0.13985061994E+04  0.12699999809E+01 0. -1.
</event>
<event>
 5   0  0.5840834E-04  0.1450891E+04  0.7818609E-02  0.8917783E-01
        1   -1    0    0  501    0  0.00000000000E+00  0.00000000000E+00  0.65176157510E+03  0.65176157512E+03  0.50400001928E-02 0. -1.
       -1   -1    0    0    0  501  0.00000000000E+00  0.00000000000E+00 -0.80745993060E+03  0.80745993061E+03  0.50400001928E-02 0.  1.
    10030    2    1    2    0    0  0.00000000000E+00  0.00000000000E+00 -0.15569835550E+03  0.14592215057E+04  0.14508912519E+04 0.  0.
        3    1    3    3  502    0  0.32382084557E+03  0.71819276606E+02  0.57103211716E+03  0.66037537624E+03  0.10100000352E+00 0. -1.
       -3    1    3    3    0  502 -0.32382084557E+03 -0.71819276606E+02 -0.72673047266E+03  0.79884612949E+03  0.10100000352E+00 0.  1.
</event>
<event>
 5   0  0.1126175E-03  0.1269864E+04  0.7818609E-02  0.9053811E-01
       -2   -1    0    0    0  501  0.00000000000E+00  0.00000000000E+00  0.88774750877E+03  0.88774750878E+03  0.25500000920E-02 0. -1.
        2   -1    0    0  501    0  0.00000000000E+00  0.00000000000E+00 -0.45411399636E+03  0.45411399637E+03  0.25500000920E-02 0.  1.
    10030    2    1    2    0    0  0.00000000000E+00  0.00000000000E+00  0.43363351241E+03  0.13418615051E+04  0.12698638809E+04 0.  0.
        3    1    3    3  502    0 -0.32597886056E+03  0.15604839518E+03  0.76845439220E+03  0.84919696318E+03  0.10100000352E+00 0. -1.
       -3    1    3    3    0  502  0.32597886056E+03 -0.15604839518E+03 -0.33482087979E+03  0.49266454197E+03  0.10100000352E+00 0.  1.
</event>
<event>
 5   0  0.5840834E-04  0.1160463E+04  0.7818609E-02  0.9148185E-01
        1   -1    0    0  501    0  0.00000000000E+00  0.00000000000E+00  0.11987270624E+04  0.11987270624E+04  0.50400001928E-02 0.  1.
       -1   -1    0    0    0  501  0.00000000000E+00  0.00000000000E+00 -0.28085515681E+03  0.28085515686E+03  0.50400001928E-02 0. -1.
    10030    2    1    2    0    0  0.00000000000E+00  0.00000000000E+00  0.91787190555E+03  0.14795822192E+04  0.11604631439E+04 0.  0.
        3    1    3    3  502    0  0.34352394359E+02 -0.15579381278E+03 -0.25234194789E+03  0.29854357800E+03  0.10100000352E+00 0. -1.
       -3    1    3    3    0  502 -0.34352394359E+02  0.15579381278E+03  0.11702138534E+04  0.11810386412E+04  0.10100000352E+00 0.  1.
</event>
<event>
 5   0  0.1147755E-03  0.1490616E+04  0.7818609E-02  0.8890717E-01
        2   -1    0    0  501    0  0.00000000000E+00  0.00000000000E+00  0.98496375584E+03  0.98496375585E+03  0.25500000920E-02 0.  1.
       -2   -1    0    0    0  501  0.00000000000E+00  0.00000000000E+00 -0.56396374665E+03  0.56396374665E+03  0.25500000920E-02 0. -1.
    10030    2    1    2    0    0  0.00000000000E+00  0.00000000000E+00  0.42100000919E+03  0.15489275025E+04  0.14906157789E+04 0.  0.
        4    1    3    3  502    0  0.64491693059E+03  0.58890916605E+02 -0.17284380630E+03  0.67027052874E+03  0.12699999809E+01 0. -1.
       -4    1    3    3    0  502 -0.64491693059E+03 -0.58890916605E+02  0.59384381550E+03  0.87865697376E+03  0.12699999809E+01 0.  1.
</event>
<event>
 5   0  0.1097156E-03  0.1462242E+04  0.7818609E-02  0.8909957E-01
        2   -1    0    0  501    0  0.00000000000E+00  0.00000000000E+00  0.11030258363E+04  0.11030258363E+04  0.25500000920E-02 0.  1.
       -2   -1    0    0    0  501  0.00000000000E+00  0.00000000000E+00 -0.48461031034E+03  0.48461031035E+03  0.25500000920E-02 0. -1.
    10030    2    1    2    0    0  0.00000000000E+00  0.00000000000E+00  0.61841552599E+03  0.15876361467E+04  0.14622416939E+04 0.  0.
        2    1    3    3  502    0 -0.52918257705E+03 -0.25631084609E+03 -0.16257524033E+03  0.61004930821E+03  0.25500000920E-02 0. -1.
       -2    1    3    3    0  502  0.52918257705E+03  0.25631084609E+03  0.78099076632E+03  0.97758683847E+03  0.25500000920E-02 0.  1.
</event>
<event>
 5   0  0.1149716E-03  0.1497699E+04  0.7818609E-02  0.8885985E-01
       -2   -1    0    0    0  501  0.00000000000E+00  0.00000000000E+00  0.28874645084E+03  0.28874645085E+03  0.25500000920E-02 0.  1.
        2   -1    0    0  501    0  0.00000000000E+00  0.00000000000E+00 -0.19421037651E+04  0.19421037651E+04  0.25500000920E-02 0. -1.
    10030    2    1    2    0    0  0.00000000000E+00  0.00000000000E+00 -0.16533573142E+04  0.22308502159E+04  0.14976989942E+04 0.  0.
        1    1    3    3  502    0  0.35280661363E+02  0.15544370141E+03  0.26318486940E+03  0.30769098927E+03  0.50400001928E-02 0.  1.
       -1    1    3    3    0  502 -0.35280661363E+02 -0.15544370141E+03 -0.19165421836E+04  0.19231592266E+04  0.50400001928E-02 0. -1.
</event>
<event>
 5   0  0.1126175E-03  0.1535441E+04  0.7818609E-02  0.8861221E-01
        2   -1    0    0  501    0  0.00000000000E+00  0.00000000000E+00  0.35634771638E+03  0.35634771639E+03  0.25500000920E-02 0. -1.
       -2   -1    0    0    0  501  0.00000000000E+00  0.00000000000E+00 -0.16539874018E+04  0.16539874018E+04  0.25500000920E-02 0.  1.
    10030    2    1    2    0    0  0.00000000000E+00  0.00000000000E+00 -0.12976396854E+04  0.20103351182E+04  0.15354408273E+04 0.  0.
        3    1    3    3  502    0 -0.49168636895E+03 -0.17067098308E+03 -0.13877396161E+04  0.14821286457E+04  0.10100000352E+00 0.  1.
       -3    1    3    3    0  502  0.49168636895E+03  0.17067098308E+03  0.90099930755E+02  0.52820647250E+03  0.10100000352E+00 0. -1.
</event>
<event>
 5   0  0.1097156E-03  0.1506664E+04  0.7818609E-02  0.8880033E-01
        2   -1    0    0  501    0  0.00000000000E+00  0.00000000000E+00  0.80625813883E+03  0.80625813884E+03  0.25500000920E-02 0. -1.
       -2   -1    0    0    0  501  0.00000000000E+00  0.00000000000E+00 -0.70388051950E+03  0.70388051951E+03  0.25500000920E-02 0.  1.
    10030    2    1    2    0    0  0.00000000000E+00  0.00000000000E+00  0.10237761933E+03  0.15101386583E+04  0.15066643921E+04 0.  0.
        2    1    3    3  502    0 -0.48641989985E+03 -0.29850477344E+03  0.54405432216E+03  0.78848241846E+03  0.25500000920E-02 0. -1.
       -2    1    3    3    0  502  0.48641989985E+03  0.29850477344E+03 -0.44167670284E+03  0.72165623989E+03  0.25500000920E-02 0.  1.
</event>
<event>
 5   0  0.5914645E-04  0.1421814E+04  0.7818609E-02  0.8938178E-01
       -1   -1    0    0    0  501  0.00000000000E+00  0.00000000000E+00  0.36870798764E+03  0.36870798767E+03  0.50400001928E-02 0. -1.
        1   -1    0    0  501    0  0.00000000000E+00  0.00000000000E+00 -0.13707021756E+04  0.13707021756E+04  0.50400001928E-02 0.  1.
    10030    2    1    2    0    0  0.00000000000E+00  0.00000000000E+00 -0.10019941880E+04  0.17394101633E+04  0.14218141100E+04 0.  0.
        2    1    3    3  502    0 -0.19517724520E+03 -0.37956857615E+03  0.19452334226E+03  0.46904774995E+03  0.25500000920E-02 0. -1.
       -2    1    3    3    0  502  0.19517724520E+03  0.37956857615E+03 -0.11965175302E+04  0.12703624133E+04  0.25500000920E-02 0.  1.
</event>
<event>
 5   0  0.5914645E-04  0.1458487E+04  0.7818609E-02  0.8912538E-01
       -1   -1    0    0    0  501  0.00000000000E+00  0.00000000000E+00  0.34282304537E+03  0.34282304541E+03  0.50400001928E-02 0. -1.
        1   -1    0    0  501    0  0.00000000000E+00  0.00000000000E+00 -0.15512262546E+04  0.15512262546E+04  0.50400001928E-02 0.  1.
    10030    2    1    2    0    0  0.00000000000E+00  0.00000000000E+00 -0.12084032092E+04  0.18940493000E+04  0.14584870362E+04 0.  0.
        2    1    3    3  502    0 -0.17585921149E+03  0.33967727583E+03 -0.14104979619E+04  0.14614416220E+04  0.25500000920E-02 0.  1.
       -2    1    3    3    0  502  0.17585921149E+03 -0.33967727583E+03  0.20209475270E+03  0.43260767799E+03  0.25500000920E-02 0. -1.
</event>
<event>
 5   0  0.5606965E-04  0.1510006E+04  0.7818609E-02  0.8877826E-01
       -1   -1    0    0    0  501  0.00000000000E+00  0.00000000000E+00  0.40929427179E+03  0.40929427183E+03  0.50400001928E-02 0. -1.
        1   -1    0    0  501    0  0.00000000000E+00  0.00000000000E+00 -0.13927124997E+04  0.13927124997E+04  0.50400001928E-02 0.  1.
    10030    2    1    2    0    0  0.00000000000E+00  0.00000000000E+00 -0.98341822792E+03  0.18020067715E+04  0.15100056270E+04 0.  0.
        4    1    3    3  502    0  0.70461512595E+03 -0.24132747977E+03 -0.63935170175E+03  0.98157711854E+03  0.12699999809E+01 0.  1.
       -4    1    3    3    0  502 -0.70461512595E+03  0.24132747977E+03 -0.34406652617E+03  0.82042965301E+03  0.12699999809E+01 0. -1.
</event>
<event>
 5   0  0.6146552E-04  0.1515434E+04  0.7818609E-02  0.8874254E-01
        1   -1    0    0  501    0  0.00000000000E+00  0.00000000000E+00  0.67949047492E+03  0.67949047494E+03  0.50400001928E-02 0.  1.
       -1   -1    0    0    0  501  0.00000000000E+00  0.00000000000E+00 -0.84494986781E+03  0.84494986782E+03  0.50400001928E-02 0. -1.
    10030    2    1    2    0    0  0.00000000000E+00  0.00000000000E+00 -0.16545939288E+03  0.15244403428E+04  0.15154344420E+04 0.  0.
        5    1    3    3  502    0  0.36180376915E+03 -0.23515006122E+03 -0.70925988583E+03  0.83022237642E+03  0.46999998093E+01 0. -1.
       -5    1    3    3    0  502 -0.36180376915E+03  0.23515006122E+03  0.54380049295E+03  0.69421796634E+03  0.46999998093E+01 0.  1.
</event>
<event>
 5   0  0.6146552E-04  0.1486240E+04  0.7818609E-02  0.8893655E-01
       -1   -1    0    0    0  501  0.00000000000E+00  0.00000000000E+00  0.28515049245E+03  0.28515049250E+03  0.50400001928E-02 0. -1.
        1   -1    0    0  501    0  0.00000000000E+00  0.00000000000E+00 -0.19366168780E+04  0.19366168780E+04  0.50400001928E-02 0.  1.
    10030    2    1    2    0    0  0.00000000000E+00  0.00000000000E+00 -0.16514663856E+04  0.22217673705E+04  0.14862398952E+04 0.  0.
        5    1    3    3  502    0 -0.16833147383E+03  0.67419953275E+03 -0.43213456153E+03  0.81831709276E+03  0.46999998093E+01 0. -1.
       -5    1    3    3    0  502  0.16833147383E+03 -0.67419953275E+03 -0.12193318240E+04  0.14034502778E+04  0.46999998093E+01 0.  1.
</event>
<event>
 5   0  0.1126175E-03  0.1505113E+04  0.7818609E-02  0.8881060E-01
       -2   -1    0    0    0  501  0.00000000000E+00  0.00000000000E+00  0.51790705746E+03  0.51790705747E+03  0.25500000920E-02 0. -1.
        2   -1    0    0  501    0  0.00000000000E+00  0.00000000000E+00 -0.10935194457E+04  0.10935194457E+04  0.25500000920E-02 0.  1.
    10030    2    1    2    0    0  0.00000000000E+00  0.00000000000E+00 -0.57561238822E+03  0.16114265032E+04  0.15051132029E+04 0.  0.
        3    1    3    3  502    0  0.42098533941E+03  0.43380702984E+03 -0.76771364913E+03  0.97713942321E+03  0.10100000352E+00 0.  1.
       -3    1    3    3    0  502 -0.42098533941E+03 -0.43380702984E+03  0.19210126091E+03  0.63428707994E+03  0.10100000352E+00 0. -1.
</event>
<event>
 5   0  0.1126175E-03  0.1707426E+04  0.7818609E-02  0.8757140E-01
        2   -1    0    0  501    0  0.00000000000E+00  0.00000000000E+00  0.13533048394E+04  0.13533048394E+04  0.25500000920E-02 0.  1.
       -2   -1    0    0    0  501  0.00000000000E+00  0.00000000000E+00 -0.53855279326E+03  0.53855279327E+03  0.25500000920E-02 0. -1.
    10030    2    1    2    0    0  0.00000000000E+00  0.00000000000E+00  0.81475204610E+03  0.18918576326E+04  0.17074262519E+04 0.  0.
        3    1    3    3  502    0 -0.56855373587E+03 -0.32959657604E+03  0.10111577971E+04  0.12059549553E+04  0.10100000352E+00 0.  1.
       -3    1    3    3    0  502  0.56855373587E+03  0.32959657604E+03 -0.19640575097E+03  0.68590267730E+03  0.10100000352E+00 0. -1.
</event>
<event>
 5   0  0.4070625E-04  0.1492928E+04  0.7818609E-02  0.8889170E-01
       -3   -1    0    0    0  501  0.00000000000E+00  0.00000000000E+00  0.12922127507E+04  0.12922127546E+04  0.10100000352E+00 0.  1.
        3   -1    0    0  501    0  0.00000000000E+00  0.00000000000E+00 -0.43120479092E+03  0.43120480274E+03  0.10100000352E+00 0. -1.
    10030    2    1    2    0    0  0.00000000000E+00  0.00000000000E+00  0.86100795977E+03  0.17234175574E+04  0.14929277847E+04 0.  0.
        2    1    3    3  502    0 -0.23586089494E+02 -0.47772003703E+03 -0.23106758184E+03  0.53119202251E+03  0.25500000920E-02 0. -1.
       -2    1    3    3    0  502  0.23586089494E+02  0.47772003703E+03  0.10920755416E+04  0.11922255349E+04  0.25500000920E-02 0.  1.
</event>
<event>
 5   0  0.1149716E-03  0.1497552E+04  0.7818609E-02  0.8886082E-01
        2   -1    0    0  501    0  0.00000000000E+00  0.00000000000E+00  0.19858081331E+04  0.19858081331E+04  0.25500000920E-02 0. -1.
       -2   -1    0    0    0  501  0.00000000000E+00  0.00000000000E+00 -0.28233615893E+03  0.28233615894E+03  0.25500000920E-02 0.  1.
    10030    2    1    2    0    0  0.00000000000E+00  0.00000000000E+00  0.17034719742E+04  0.22681442921E+04  0.14975519232E+04 0.  0.
        1    1    3    3  502    0 -0.75646630745E+02  0.14724848022E+03  0.19577450005E+04  0.19647315376E+04  0.50400001928E-02 0. -1.
       -1    1    3    3    0  502  0.75646630745E+02 -0.14724848022E+03 -0.25427302630E+03  0.30341275451E+03  0.50400001928E-02 0.  1.
</event>
<event>
 5   0  0.5914645E-04  0.1512916E+04  0.7818609E-02  0.8875909E-01
        1   -1    0    0  501    0  0.00000000000E+00  0.00000000000E+00  0.34530868432E+03  0.34530868436E+03  0.50400001928E-02 0.  1.
       -1   -1    0    0    0  501  0.00000000000E+00  0.00000000000E+00 -0.16571514616E+04  0.16571514616E+04  0.50400001928E-02 0. -1.
    10030    2    1    2    0    0  0.00000000000E+00  0.00000000000E+00 -0.13118427773E+04  0.20024601459E+04  0.15129161126E+04 0.  0.
        2    1    3    3  502    0 -0.27629454872E+03  0.41145364355E+03 -0.14123265300E+04  0.14967628422E+04  0.25500000920E-02 0. -1.
       -2    1    3    3    0  502  0.27629454872E+03 -0.41145364355E+03  0.10048375274E+03  0.50569730375E+03  0.25500000920E-02 0.  1.
</event>
<event>
 5   0  0.1126175E-03  0.1500741E+04  0.7818609E-02  0.8883960E-01
       -2   -1    0    0    0  501  0.00000000000E+00  0.00000000000E+00  0.66496081393E+03  0.66496081394E+03  0.25500000920E-02 0.  1.
        2   -1    0    0  501    0  0.00000000000E+00  0.00000000000E+00 -0.84675027039E+03  0.84675027040E+03  0.25500000920E-02 0. -1.
    10030    2    1    2    0    0  0.00000000000E+00  0.00000000000E+00 -0.18178945646E+03  0.15117110843E+04  0.15007408157E+04 0.  0.
        3    1    3    3  502    0 -0.30576476497E+03  0.31382768020E+03  0.52271811297E+03  0.68206608198E+03  0.10100000352E+00 0.  1.
       -3    1    3    3    0  502  0.30576476497E+03 -0.31382768020E+03 -0.70450756943E+03  0.82964500236E+03  0.10100000352E+00 0. -1.
</event>
<event>
 5   0  0.1147755E-03  0.1401819E+04  0.7818609E-02  0.8952503E-01
        2   -1    0    0  501    0  0.00000000000E+00  0.00000000000E+00  0.89491192387E+03  0.89491192387E+03  0.25500000920E-02 0.  1.
       -2   -1    0    0    0  501  0.00000000000E+00  0.00000000000E+00 -0.54896387479E+03  0.54896387479E+03  0.25500000920E-02 0. -1.
    10030    2    1    2    0    0  0.00000000000E+00  0.00000000000E+00  0.34594804908E+03  0.14438757987E+04  0.14018192713E+04 0.  0.
        4    1    3    3  502    0 -0.10515941055E+03  0.30492815542E+03  0.81392380661E+03  0.87550742856E+03  0.12699999809E+01 0.  1.
       -4    1    3    3    0  502  0.10515941055E+03 -0.30492815542E+03 -0.46797575753E+03  0.56836837010E+03  0.12699999809E+01 0. -1.
</event>
<event>
 5   0  0.1082667E-03  0.1487167E+04  0.7818609E-02  0.8893032E-01
        2   -1    0    0  501    0  0.00000000000E+00  0.00000000000E+00  0.17245258804E+04  0.17245258804E+04  0.25500000920E-02 0.  1.
       -2   -1    0    0    0  501  0.00000000000E+00  0.00000000000E+00 -0.32061945532E+03  0.32061945534E+03  0.25500000920E-02 0. -1.
    10030    2    1    2    0    0  0.00000000000E+00  0.00000000000E+00  0.14039064250E+04  0.20451453357E+04  0.14871671708E+04 0.  0.
        5    1    3    3  502    0 -0.46016262108E+03  0.53250819087E+03  0.37196407773E+03  0.79604897858E+03  0.46999998093E+01 0. -1.
       -5    1    3    3    0  502  0.46016262108E+03 -0.53250819087E+03  0.10319423473E+04  0.12490963571E+04  0.46999998093E+01 0.  1.
</event>
<event>
 5   0  0.5924403E-04  0.1496284E+04  0.7818609E-02  0.8886928E-01
       -1   -1    0    0    0  501  0.00000000000E+00  0.00000000000E+00  0.12943169089E+04  0.12943169089E+04  0.50400001928E-02 0. -1.
        1   -1    0    0  501    0  0.00000000000E+00  0.00000000000E+00 -0.43244134426E+03  0.43244134429E+03  0.50400001928E-02 0.  1.
    10030    2    1    2    0    0  0.00000000000E+00  0.00000000000E+00  0.86187556467E+03  0.17267582532E+04  0.14962835881E+04 0.  0.
        1    1    3    3  502    0 -0.25810812545E+03 -0.39457296223E+02 -0.37815219737E+03  0.45953864587E+03  0.50400001928E-02 0.  1.
       -1    1    3    3    0  502  0.25810812545E+03  0.39457296223E+02  0.12400277620E+04  0.12672196074E+04  0.50400001928E-02 0. -1.
</event>
<event>
 5   0  0.5840834E-04  0.1492129E+04  0.7818609E-02  0.8889704E-01
       -1   -1    0    0    0  501  0.00000000000E+00  0.00000000000E+00  0.32717610797E+03  0.32717610801E+03  0.50400001928E-02 0. -1.
        1   -1    0    0  501    0  0.00000000000E+00  0.00000000000E+00 -0.17012611708E+04  0.17012611708E+04  0.50400001928E-02 0.  1.
    10030    2    1    2    0    0  0.00000000000E+00  0.00000000000E+00 -0.13740850628E+04  0.20284372788E+04  0.14921286922E+04 0.  0.
        3    1    3    3  502    0 -0.35241695237E+03 -0.49411394945E+03 -0.12768915998E+04  0.14137886940E+04  0.10100000352E+00 0.  1.
       -3    1    3    3    0  502  0.35241695237E+03  0.49411394945E+03 -0.97193462982E+02  0.61464858481E+03  0.10100000352E+00 0. -1.
</event>
<event>
 5   0  0.5606965E-04  0.1513027E+04  0.7818609E-02  0.8875836E-01
       -1   -1    0    0    0  501  0.00000000000E+00  0.00000000000E+00  0.93269497953E+03  0.93269497955E+03  0.50400001928E-02 0.  1.
        1   -1    0    0  501    0  0.00000000000E+00  0.00000000000E+00 -0.61361177055E+03  0.61361177057E+03  0.50400001928E-02 0. -1.
    10030    2    1    2    0    0  0.00000000000E+00  0.00000000000E+00  0.31908320898E+03  0.15463067501E+04  0.15130269235E+04 0.  0.
        4    1    3    3  502    0  0.58934526474E+03  0.43951165150E+03 -0.22742613595E+02  0.73553869528E+03  0.12699999809E+01 0.  1.
       -4    1    3    3    0  502 -0.58934526474E+03 -0.43951165150E+03  0.34182582257E+03  0.81076805484E+03  0.12699999809E+01 0. -1.
</event>
<event>
 5   0  0.6146552E-04  0.1516713E+04  0.7818609E-02  0.8873415E-01
        1   -1    0    0  501    0  0.00000000000E+00  0.00000000000E+00  0.28549732512E+04  0.28549732512E+04  0.50400001928E-02 0. -1.
       -1   -1    0    0    0  501  0.00000000000E+00  0.00000000000E+00 -0.20143951550E+03  0.20143951556E+03  0.50400001928E-02 0.  1.
    10030    2    1    2    0    0  0.00000000000E+00  0.00000000000E+00  0.26535337357E+04  0.30564127668E+04  0.15167127989E+04 0.  0.
        5    1    3    3  502    0  0.47253608375E+03 -0.52934916497E+03  0.78761775085E+03  0.10601248513E+04  0.46999998093E+01 0.  1.
       -5    1    3    3    0  502 -0.47253608375E+03  0.52934916497E+03  0.18659159849E+04  0.19962879155E+04  0.46999998093E+01 0. -1.
</event>
<event>
 5   0  0.1126175E-03  0.1600308E+04  0.7818609E-02  0.8820359E-01
        2   -1    0    0  501    0  0.00000000000E+00  0.00000000000E+00  0.14523648956E+04  0.14523648956E+04  0.25500000920E-02 0.  1.
       -2   -1    0    0    0  501  0.00000000000E+00  0.00000000000E+00 -0.44083022136E+03  0.44083022137E+03  0.25500000920E-02 0. -1.
    10030    2    1    2    0    0  0.00000000000E+00  0.00000000000E+00  0.10115346742E+04  0.18931951170E+04  0.16003078934E+04 0.  0.
        3    1    3    3  502    0  0.99665491545E+02 -0.18207422960E+03  0.14199604475E+04  0.14350511900E+04  0.10100000352E+00 0.  1.
       -3    1    3    3    0  502 -0.99665491545E+02  0.18207422960E+03 -0.40842577329E+03  0.45814392693E+03  0.10100000352E+00 0. -1.
</event>
<event>
 5   0  0.5914645E-04  0.1506208E+04  0.7818609E-02  0.8880335E-01
        1   -1    0    0  501    0  0.00000000000E+00  0.00000000000E+00  0.12471854243E+04  0.12471854243E+04  0.50400001928E-02 0.  1.
       -1   -1    0    0    0  501  0.00000000000E+00  0.00000000000E+00 -0.45475621696E+03  0.45475621699E+03  0.50400001928E-02 0. -1.
    10030    2    1    2    0    0  0.00000000000E+00  0.00000000000E+00  0.79242920736E+03  0.17019416413E+04  0.15062075892E+04 0.  0.
        2    1    3    3  502    0  0.28791853019E+03  0.25227567547E+03  0.11290517784E+04  0.11921820393E+04  0.25500000920E-02 0.  1.
       -2    1    3    3    0  502 -0.28791853019E+03 -0.25227567547E+03 -0.33662257109E+03  0.50975960200E+03  0.25500000920E-02 0. -1.
</event>
<event>
 5   0  0.5606965E-04  0.1494451E+04  0.7818609E-02  0.8888151E-01
       -1   -1    0    0    0  501  0.00000000000E+00  0.00000000000E+00  0.74357564892E+03  0.74357564894E+03  0.50400001928E-02 0.  1.
        1   -1    0    0  501    0  0.00000000000E+00  0.00000000000E+00 -0.75089346068E+03  0.75089346070E+03  0.50400001928E-02 0. -1.
    10030    2    1    2    0    0  0.00000000000E+00  0.00000000000E+00 -0.73178117601E+01  0.14944691096E+04  0.14944511934E+04 0.  0.
        4    1    3    3  502    0  0.45857927675E+03 -0.10628614172E+03 -0.58396990598E+03  0.75007610346E+03  0.12699999809E+01 0. -1.
       -4    1    3    3    0  502 -0.45857927675E+03  0.10628614172E+03  0.57665209422E+03  0.74439300618E+03  0.12699999809E+01 0.  1.
</event>
<event>
 5   0  0.5840834E-04  0.1499252E+04  0.7818609E-02  0.8884950E-01
       -1   -1    0    0    0  501  0.00000000000E+00  0.00000000000E+00  0.64965878806E+03  0.64965878808E+03  0.50400001928E-02 0. -1.
        1   -1    0    0  501    0  0.00000000000E+00  0.00000000000E+00 -0.86497631918E+03  0.86497631919E+03  0.50400001928E-02 0.  1.
    10030    2    1    2    0    0  0.00000000000E+00  0.00000000000E+00 -0.21531753112E+03  0.15146351073E+04  0.14992524367E+04 0.  0.
        3    1    3    3  502    0  0.56571804548E+03  0.24142955704E+03  0.32524018083E+03  0.69577749563E+03  0.10100000352E+00 0. -1.
       -3    1    3    3    0  502 -0.56571804548E+03 -0.24142955704E+03 -0.54055771195E+03  0.81885761164E+03  0.10100000352E+00 0.  1.
</event>
<event>
 5   0  0.5606965E-04  0.1505714E+04  0.7818609E-02  0.8880662E-01
        1   -1    0    0  501    0  0.00000000000E+00  0.00000000000E+00  0.10593083817E+04  0.10593083817E+04  0.50400001928E-02 0. -1.
       -1   -1    0    0    0  501  0.00000000000E+00  0.00000000000E+00 -0.53505995787E+03  0.53505995790E+03  0.50400001928E-02 0.  1.
    10030    2    1    2    0    0  0.00000000000E+00  0.00000000000E+00  0.52424842383E+03  0.15943683396E+04  0.15057137817E+04 0.  0.
        4    1    3    3  502    0  0.27625042403E+03  0.44392484572E+03 -0.31144053240E+03  0.60858884606E+03  0.12699999809E+01 0.  1.
       -4    1    3    3    0  502 -0.27625042403E+03 -0.44392484572E+03  0.83568895624E+03  0.98577949355E+03  0.12699999809E+01 0. -1.
</event>
<event>
 5   0  0.1097156E-03  0.1584003E+04  0.7818609E-02  0.8830436E-01
        2   -1    0    0  501    0  0.00000000000E+00  0.00000000000E+00  0.62549737060E+03  0.62549737061E+03  0.25500000920E-02 0. -1.
       -2   -1    0    0    0  501  0.00000000000E+00  0.00000000000E+00 -0.10028282429E+04  0.10028282429E+04  0.25500000920E-02 0.  1.
    10030    2    1    2    0    0  0.00000000000E+00  0.00000000000E+00 -0.37733087225E+03  0.16283256135E+04  0.15840030670E+04 0.  0.
        2    1    3    3  502    0 -0.76577074001E+03  0.17658553688E+03 -0.87529879690E+02  0.79072672773E+03  0.25500000920E-02 0. -1.
       -2    1    3    3    0  502  0.76577074001E+03 -0.17658553688E+03 -0.28980099256E+03  0.83759888574E+03  0.25500000920E-02 0.  1.
</event>
<event>
 5   0  0.1082667E-03  0.1511878E+04  0.7818609E-02  0.8876592E-01
       -2   -1    0    0    0  501  0.00000000000E+00  0.00000000000E+00  0.10750619207E+04  0.10750619207E+04  0.25500000920E-02 0.  1.
        2   -1    0    0  501    0  0.00000000000E+00  0.00000000000E+00 -0.53154492842E+03  0.53154492843E+03  0.25500000920E-02 0. -1.
    10030    2    1    2    0    0  0.00000000000E+00  0.00000000000E+00  0.54351699227E+03  0.16066068491E+04  0.15118779206E+04 0.  0.
        5    1    3    3  502    0  0.15817625185E+03 -0.69095665526E+03  0.55085666615E+03  0.89772266471E+03  0.46999998093E+01 0. -1.
       -5    1    3    3    0  502 -0.15817625185E+03  0.69095665526E+03 -0.73396738844E+01  0.70888418441E+03  0.46999998093E+01 0.  1.
</event>
<event>
 5   0  0.1126175E-03  0.1496424E+04  0.7818609E-02  0.8886834E-01
        2   -1    0    0  501    0  0.00000000000E+00  0.00000000000E+00  0.12287855479E+04  0.12287855479E+04  0.25500000920E-02 0. -1.
       -2   -1    0    0    0  501  0.00000000000E+00  0.00000000000E+00 -0.45558921270E+03  0.45558921271E+03  0.25500000920E-02 0.  1.
    10030    2    1    2    0    0  0.00000000000E+00  0.00000000000E+00  0.77319633516E+03  0.16843747606E+04  0.14964243253E+04 0.  0.
        3    1    3    3  502    0  0.12615402084E+03  0.72659195905E+03  0.24435016092E+03  0.77688977550E+03  0.10100000352E+00 0.  1.
       -3    1    3    3    0  502 -0.12615402084E+03 -0.72659195905E+03  0.52884617424E+03  0.90748498508E+03  0.10100000352E+00 0. -1.
</event>
<event>
 5   0  0.1082667E-03  0.1489236E+04  0.7818609E-02  0.8891642E-01
        2   -1    0    0  501    0  0.00000000000E+00  0.00000000000E+00  0.10975122676E+04  0.10975122676E+04  0.25500000920E-02 0. -1.
       -2   -1    0    0    0  501  0.00000000000E+00  0.00000000000E+00 -0.50519363775E+03  0.50519363775E+03  0.25500000920E-02 0.  1.
    10030    2    1    2    0    0  0.00000000000E+00  0.00000000000E+00  0.59231862983E+03  0.16027059053E+04  0.14892363344E+04 0.  0.
        5    1    3    3  502    0 -0.47063738820E+03 -0.41765176146E+03  0.72461608674E+03  0.95969948847E+03  0.46999998093E+01 0. -1.
       -5    1    3    3    0  502  0.47063738820E+03  0.41765176146E+03 -0.13229745691E+03  0.64300641686E+03  0.46999998093E+01 0.  1.
</event>
<event>
 5   0  0.5606965E-04  0.1511132E+04  0.7818609E-02  0.8877084E-01
        1   -1    0    0  501    0  0.00000000000E+00  0.00000000000E+00  0.88069724704E+03  0.88069724705E+03  0.50400001928E-02 0.  1.
       -1   -1    0    0    0  501  0.00000000000E+00  0.00000000000E+00 -0.64821388319E+03  0.64821388321E+03  0.50400001928E-02 0. -1.
    10030    2    1    2    0    0  0.00000000000E+00  0.00000000000E+00  0.23248336385E+03  0.15289111303E+04  0.15111322675E+04 0.  0.
        4    1    3    3  502    0 -0.10007957256E+03 -0.68013862117E+03  0.43341694664E+03  0.81268464203E+03  0.12699999809E+01 0. -1.
       -4    1    3    3    0  502  0.10007957256E+03  0.68013862117E+03 -0.20093358279E+03  0.71622648823E+03  0.12699999809E+01 0.  1.
</event>
<event>
 5   0  0.6146552E-04  0.1390935E+04  0.7818609E-02  0.8960406E-01
        1   -1    0    0  501    0  0.00000000000E+00  0.00000000000E+00  0.93400464257E+03  0.93400464259E+03  0.50400001928E-02 0.  1.
       -1   -1    0    0    0  501  0.00000000000E+00  0.00000000000E+00 -0.51785105408E+03  0.51785105410E+03  0.50400001928E-02 0. -1.
    10030    2    1    2    0    0  0.00000000000E+00  0.00000000000E+00  0.41615358850E+03  0.14518556967E+04  0.13909353525E+04 0.  0.
        5    1    3    3  502    0 -0.11050850091E+03 -0.53463790066E+03 -0.24160929580E+03  0.59703178761E+03  0.46999998093E+01 0. -1.
       -5    1    3    3    0  502  0.11050850091E+03  0.53463790066E+03  0.65776288429E+03  0.85482390909E+03  0.46999998093E+01 0.  1.
</event>
<event>
 5   0  0.5840834E-04  0.1408247E+04  0.7818609E-02  0.8947871E-01
        1   -1    0    0  501    0  0.00000000000E+00  0.00000000000E+00  0.87790667486E+03  0.87790667487E+03  0.50400001928E-02 0.  1.
       -1   -1    0    0    0  501  0.00000000000E+00  0.00000000000E+00 -0.56474097972E+03  0.56474097974E+03  0.50400001928E-02 0. -1.
    10030    2    1    2    0    0  0.00000000000E+00  0.00000000000E+00  0.31316569513E+03  0.14426476546E+04  0.14082469609E+04 0.  0.
        3    1    3    3  502    0  0.31983350385E+03 -0.19000060857E+03  0.76901276052E+03  0.85426830533E+03  0.10100000352E+00 0.  1.
       -3    1    3    3    0  502 -0.31983350385E+03  0.19000060857E+03 -0.45584706539E+03  0.58837934929E+03  0.10100000352E+00 0. -1.
</event>
<event>
 5   0  0.6146552E-04  0.1502786E+04  0.7818609E-02  0.8882602E-01
       -1   -1    0    0    0  501  0.00000000000E+00  0.00000000000E+00  0.45935658853E+03  0.45935658855E+03  0.50400001928E-02 0. -1.
        1   -1    0    0  501    0  0.00000000000E+00  0.00000000000E+00 -0.12290921416E+04  0.12290921416E+04  0.50400001928E-02 0.  1.
    10030    2    1    2    0    0  0.00000000000E+00  0.00000000000E+00 -0.76973555309E+03  0.16884487302E+04  0.15027861767E+04 0.  0.
        5    1    3    3  502    0  0.97172296880E+02  0.59528120579E+03  0.11856001919E+03  0.61472004798E+03  0.46999998093E+01 0. -1.
       -5    1    3    3    0  502 -0.97172296880E+02 -0.59528120579E+03 -0.88829557228E+03  0.10737286822E+04  0.46999998093E+01 0.  1.
</event>
<event>
 5   0  0.1097156E-03  0.1506222E+04  0.7818609E-02  0.8880326E-01
       -2   -1    0    0    0  501  0.00000000000E+00  0.00000000000E+00  0.47625164904E+03  0.47625164905E+03  0.25500000920E-02 0. -1.
        2   -1    0    0  501    0  0.00000000000E+00  0.00000000000E+00 -0.11909165543E+04  0.11909165543E+04  0.25500000920E-02 0.  1.
    10030    2    1    2    0    0  0.00000000000E+00  0.00000000000E+00 -0.71466490521E+03  0.16671682033E+04  0.15062217272E+04 0.  0.
        2    1    3    3  502    0  0.65458070724E+03 -0.13366380111E+03  0.27423362677E+02  0.66865084674E+03  0.25500000920E-02 0. -1.
       -2    1    3    3    0  502 -0.65458070724E+03  0.13366380111E+03 -0.74208826789E+03  0.99851735656E+03  0.25500000920E-02 0.  1.
</event>
<event>
 5   0  0.1126175E-03  0.1479717E+04  0.7818609E-02  0.8898054E-01
       -2   -1    0    0    0  501  0.00000000000E+00  0.00000000000E+00  0.42889876768E+03  0.42889876768E+03  0.25500000920E-02 0. -1.
        2   -1    0    0  501    0  0.00000000000E+00  0.00000000000E+00 -0.12762704020E+04  0.12762704020E+04  0.25500000920E-02 0.  1.
    10030    2    1    2    0    0  0.00000000000E+00  0.00000000000E+00 -0.84737163428E+03  0.17051691696E+04  0.14797172738E+04 0.  0.
        3    1    3    3  502    0  0.30753656178E+03  0.52120710086E+03 -0.91415773508E+03  0.10963210997E+04  0.10100000352E+00 0.  1.
       -3    1    3    3    0  502 -0.30753656178E+03 -0.52120710086E+03  0.66786100802E+02  0.60884806995E+03  0.10100000352E+00 0. -1.
</event>
<event>
 5   0  0.1126175E-03  0.1479176E+04  0.7818609E-02  0.8898420E-01
       -2   -1    0    0    0  501  0.00000000000E+00  0.00000000000E+00  0.11989816150E+04  0.11989816150E+04  0.25500000920E-02 0.  1.
        2   -1    0    0  501    0  0.00000000000E+00  0.00000000000E+00 -0.45621243991E+03  0.45621243992E+03  0.25500000920E-02 0. -1.
    10030    2    1    2    0    0  0.00000000000E+00  0.00000000000E+00  0.74276917507E+03  0.16551940549E+04  0.14791758895E+04 0.  0.
        3    1    3    3  502    0 -0.28421934791E+02  0.73855477215E+02 -0.45146125602E+03  0.45834453611E+03  0.10100000352E+00 0. -1.
       -3    1    3    3    0  502  0.28421934791E+02 -0.73855477215E+02  0.11942304311E+04  0.11968495188E+04  0.10100000352E+00 0.  1.
</event>
<event>
 5   0  0.5914645E-04  0.1497684E+04  0.7818609E-02  0.8885994E-01
        1   -1    0    0  501    0  0.00000000000E+00  0.00000000000E+00  0.68623688040E+03  0.68623688042E+03  0.50400001928E-02 0. -1.
       -1   -1    0    0    0  501  0.00000000000E+00  0.00000000000E+00 -0.81715897164E+03  0.81715897165E+03  0.50400001928E-02 0.  1.
    10030    2    1    2    0    0  0.00000000000E+00  0.00000000000E+00 -0.13092209123E+03  0.15033958521E+04  0.14976843773E+04 0.  0.
        2    1    3    3  502    0  0.22737816216E+03  0.90529060257E+02 -0.77588044832E+03  0.81356426265E+03  0.25500000920E-02 0.  1.
       -2    1    3    3    0  502 -0.22737816216E+03 -0.90529060257E+02  0.64495835708E+03  0.68983158942E+03  0.25500000920E-02 0. -1.
</event>
<event>
 5   0  0.1147755E-03  0.1503625E+04  0.7818609E-02  0.8882046E-01
        2   -1    0    0  501    0  0.00000000000E+00  0.00000000000E+00  0.13528665166E+04  0.13528665166E+04  0.25500000920E-02 0.  1.
       -2   -1    0    0    0  501  0.00000000000E+00  0.00000000000E+00 -0.41779578334E+03  0.41779578335E+03  0.25500000920E-02 0. -1.
    10030    2    1    2    0    0  0.00000000000E+00  0.00000000000E+00  0.93507073331E+03  0.17706623000E+04  0.15036248549E+04 0.  0.
        4    1    3    3  502    0  0.86636110935E+02 -0.72640068297E+03  0.26337766174E+03  0.77751731399E+03  0.12699999809E+01 0.  1.
       -4    1    3    3    0  502 -0.86636110935E+02  0.72640068297E+03  0.67169307156E+03  0.99314498601E+03  0.12699999809E+01 0. -1.
</event>
<event>
 5   0  0.1126175E-03  0.1543225E+04  0.7818609E-02  0.8856207E-01
        2   -1    0    0  501    0  0.00000000000E+00  0.00000000000E+00  0.70471245761E+03  0.70471245761E+03  0.25500000920E-02 0.  1.
       -2   -1    0    0    0  501  0.00000000000E+00  0.00000000000E+00 -0.84486404960E+03  0.84486404960E+03  0.25500000920E-02 0. -1.
    10030    2    1    2    0    0  0.00000000000E+00  0.00000000000E+00 -0.14015159199E+03  0.15495765072E+04  0.15432254803E+04 0.  0.
        3    1    3    3  502    0 -0.63569044095E+03 -0.13597446773E+03 -0.48747248065E+03  0.81253973575E+03  0.10100000352E+00 0. -1.
       -3    1    3    3    0  502  0.63569044095E+03  0.13597446773E+03  0.34732088866E+03  0.73703677146E+03  0.10100000352E+00 0.  1.
</event>
<event>
 5   0  0.1126175E-03  0.1528060E+04  0.7818609E-02  0.8866005E-01
       -2   -1    0    0    0  501  0.00000000000E+00  0.00000000000E+00  0.81576245359E+03  0.81576245360E+03  0.25500000920E-02 0.  1.
        2   -1    0    0  501    0  0.00000000000E+00  0.00000000000E+00 -0.71557785521E+03  0.71557785521E+03  0.25500000920E-02 0. -1.
    10030    2    1    2    0    0  0.00000000000E+00  0.00000000000E+00  0.10018459838E+03  0.15313403088E+04  0.15280596152E+04 0.  0.
        3    1    3    3  502    0 -0.57750689817E+03 -0.45049300351E+03  0.26800655456E+03  0.77992671908E+03  0.10100000352E+00 0.  1.
       -3    1    3    3    0  502  0.57750689817E+03  0.45049300351E+03 -0.16782195618E+03  0.75141358973E+03  0.10100000352E+00 0. -1.
</event>
<event>
 5   0  0.1126175E-03  0.1513644E+04  0.7818609E-02  0.8875430E-01
        2   -1    0    0  501    0  0.00000000000E+00  0.00000000000E+00  0.16448666958E+04  0.16448666958E+04  0.25500000920E-02 0.  1.
       -2   -1    0    0    0  501  0.00000000000E+00  0.00000000000E+00 -0.34822267271E+03  0.34822267272E+03  0.25500000920E-02 0. -1.
    10030    2    1    2    0    0  0.00000000000E+00  0.00000000000E+00  0.12966440230E+04  0.19930893685E+04  0.15136444458E+04 0.  0.
        3    1    3    3  502    0 -0.56364882517E+03 -0.10851625314E+03  0.12978196960E+04  0.14190883513E+04  0.10100000352E+00 0.  1.
       -3    1    3    3    0  502  0.56364882517E+03  0.10851625314E+03 -0.11756729354E+01  0.57400101718E+03  0.10100000352E+00 0. -1.
</event>
<event>
 5   0  0.1082667E-03  0.1479436E+04  0.7818609E-02  0.8898244E-01
       -2   -1    0    0    0  501  0.00000000000E+00  0.00000000000E+00  0.58354226027E+03  0.58354226028E+03  0.25500000920E-02 0.  1.
        2   -1    0    0  501    0  0.00000000000E+00  0.00000000000E+00 -0.93769204535E+03  0.93769204535E+03  0.25500000920E-02 0. -1.
    10030    2    1    2    0    0  0.00000000000E+00  0.00000000000E+00 -0.35414978507E+03  0.15212343056E+04  0.14794362921E+04 0.  0.
        5    1    3    3  502    0 -0.38726072070E+02 -0.30338261988E+03 -0.86961670381E+03  0.92184381771E+03  0.46999998093E+01 0. -1.
       -5    1    3    3    0  502  0.38726072070E+02  0.30338261988E+03  0.51546691873E+03  0.59939048792E+03  0.46999998093E+01 0.  1.
</event>
<event>
 5   0  0.5840834E-04  0.1517417E+04  0.7818609E-02  0.8872953E-01
        1   -1    0    0  501    0  0.00000000000E+00  0.00000000000E+00  0.53181652199E+03  0.53181652202E+03  0.50400001928E-02 0.  1.
       -1   -1    0    0    0  501  0.00000000000E+00  0.00000000000E+00 -0.10824006006E+04  0.10824006006E+04  0.50400001928E-02 0. -1.
    10030    2    1    2    0    0  0.00000000000E+00  0.00000000000E+00 -0.55058407863E+03  0.16142171226E+04  0.15174169142E+04 0.  0.
        3    1    3    3  502    0  0.13459661976E+03 -0.65571012964E+03  0.10465698140E+03  0.67751392467E+03  0.10100000352E+00 0.  1.
       -3    1    3    3    0  502 -0.13459661976E+03  0.65571012964E+03 -0.65524106003E+03  0.93670319798E+03  0.10100000352E+00 0. -1.
</event>
<event>
 5   0  0.5914645E-04  0.1482924E+04  0.7818609E-02  0.8895889E-01
        1   -1    0    0  501    0  0.00000000000E+00  0.00000000000E+00  0.52556759587E+03  0.52556759590E+03  0.50400001928E-02 0.  1.
       -1   -1    0    0    0  501  0.00000000000E+00  0.00000000000E+00 -0.10460416223E+04  0.10460416223E+04  0.50400001928E-02 0. -1.
    10030    2    1    2    0    0  0.00000000000E+00  0.00000000000E+00 -0.52047402638E+03  0.15716092182E+04  0.14829235727E+04 0.  0.
        2    1    3    3  502    0 -0.36364225181E+03 -0.11637140499E+03  0.41337497942E+03  0.56272272463E+03  0.25500000920E-02 0.  1.
       -2    1    3    3    0  502  0.36364225181E+03  0.11637140499E+03 -0.93384900580E+03  0.10088864935E+04  0.25500000920E-02 0. -1.
</event>
<event>
 5   0  0.5606965E-04  0.1523280E+04  0.7818609E-02  0.8869118E-01
        1   -1    0    0  501    0  0.00000000000E+00  0.00000000000E+00  0.11758547380E+04  0.11758547380E+04  0.50400001928E-02 0. -1.
       -1   -1    0    0    0  501  0.00000000000E+00  0.00000000000E+00 -0.49333956222E+03  0.49333956225E+03  0.50400001928E-02 0.  1.
    10030    2    1    2    0    0  0.00000000000E+00  0.00000000000E+00  0.68251517576E+03  0.16691943002E+04  0.15232802260E+04 0.  0.
        4    1    3    3  502    0 -0.29047880549E+03 -0.40530925098E+03 -0.28959790917E+03  0.57664728150E+03  0.12699999809E+01 0.  1.
       -4    1    3    3    0  502  0.29047880549E+03  0.40530925098E+03  0.97211308493E+03  0.10925470187E+04  0.12699999809E+01 0. -1.
</event>
<event>
 5   0  0.1126175E-03  0.1480156E+04  0.7818609E-02  0.8897757E-01
       -2   -1    0    0    0  501  0.00000000000E+00  0.00000000000E+00  0.54121671188E+03  0.54121671189E+03  0.25500000920E-02 0.  1.
        2   -1    0    0  501    0  0.00000000000E+00  0.00000000000E+00 -0.10120080472E+04  0.10120080472E+04  0.25500000920E-02 0. -1.
    10030    2    1    2    0    0  0.00000000000E+00  0.00000000000E+00 -0.47079133532E+03  0.15532247591E+04  0.14801562995E+04 0.  0.
        3    1    3    3  502    0 -0.46092608483E+03 -0.56546369985E+03 -0.10469340513E+03  0.73699577394E+03  0.10100000352E+00 0. -1.
       -3    1    3    3    0  502  0.46092608483E+03  0.56546369985E+03 -0.36609793019E+03  0.81622898516E+03  0.10100000352E+00 0.  1.
</event>
<event>
 5   0  0.1126175E-03  0.1500741E+04  0.7818609E-02  0.8883960E-01
        2   -1    0    0  501    0  0.00000000000E+00  0.00000000000E+00  0.83540239468E+03  0.83540239468E+03  0.25500000920E-02 0. -1.
       -2   -1    0    0    0  501  0.00000000000E+00  0.00000000000E+00 -0.67399386988E+03  0.67399386988E+03  0.25500000920E-02 0.  1.
    10030    2    1    2    0    0  0.00000000000E+00  0.00000000000E+00  0.16140852480E+03  0.15093962646E+04  0.15007412740E+04 0.  0.
        3    1    3    3  502    0  0.34521165295E+03  0.52782498006E+03 -0.32819393881E+03  0.71097226851E+03  0.10100000352E+00 0.  1.
       -3    1    3    3    0  502 -0.34521165295E+03 -0.52782498006E+03  0.48960246361E+03  0.79842399606E+03  0.10100000352E+00 0. -1.
</event>
<event>
 5   0  0.1149716E-03  0.1532392E+04  0.7818609E-02  0.8863194E-01
        2   -1    0    0  501    0  0.00000000000E+00  0.00000000000E+00  0.95948754701E+03  0.95948754702E+03  0.25500000920E-02 0.  1.
       -2   -1    0    0    0  501  0.00000000000E+00  0.00000000000E+00 -0.61184327844E+03  0.61184327844E+03  0.25500000920E-02 0. -1.
    10030    2    1    2    0    0  0.00000000000E+00  0.00000000000E+00  0.34764426858E+03  0.15713308255E+04  0.15323916032E+04 0.  0.
        1    1    3    3  502    0  0.56788792056E+03  0.94880687970E+02 -0.34455010187E+03  0.67097973739E+03  0.50400001928E-02 0. -1.
       -1    1    3    3    0  502 -0.56788792056E+03 -0.94880687970E+02  0.69219437045E+03  0.90035108806E+03  0.50400001928E-02 0.  1.
</event>
<event>
 5   0  0.5924403E-04  0.1500883E+04  0.7818609E-02  0.8883866E-01
       -1   -1    0    0    0  501  0.00000000000E+00  0.00000000000E+00  0.67169061194E+03  0.67169061196E+03  0.50400001928E-02 0.  1.
        1   -1    0    0  501    0  0.00000000000E+00  0.00000000000E+00 -0.83842534449E+03  0.83842534450E+03  0.50400001928E-02 0. -1.
    10030    2    1    2    0    0  0.00000000000E+00  0.00000000000E+00 -0.16673473255E+03  0.15101159565E+04  0.15008829838E+04 0.  0.
        1    1    3    3  502    0 -0.44007617057E+03  0.52350334850E+03 -0.39420089661E+03  0.78937769078E+03  0.50400001928E-02 0. -1.
       -1    1    3    3    0  502  0.44007617057E+03 -0.52350334850E+03  0.22746616406E+03  0.72073826568E+03  0.50400001928E-02 0.  1.
</event>
<event>
 5   0  0.1097156E-03  0.1320330E+04  0.7818609E-02  0.9013597E-01
       -2   -1    0    0    0  501  0.00000000000E+00  0.00000000000E+00  0.45714476245E+03  0.45714476246E+03  0.25500000920E-02 0.  1.
        2   -1    0    0  501    0  0.00000000000E+00  0.00000000000E+00 -0.95334726862E+03  0.95334726862E+03  0.25500000920E-02 0. -1.
    10030    2    1    2    0    0  0.00000000000E+00  0.00000000000E+00 -0.49620250616E+03  0.14104920311E+04  0.13203298234E+04 0.  0.
        2    1    3    3  502    0 -0.35198610411E+03  0.55758963929E+03 -0.28217422527E+03  0.71723267964E+03  0.25500000920E-02 0. -1.
       -2    1    3    3    0  502  0.35198610411E+03 -0.55758963929E+03 -0.21402828089E+03  0.69325935144E+03  0.25500000920E-02 0.  1.
</event>
<event>
 5   0  0.1126175E-03  0.1514688E+04  0.7818609E-02  0.8874744E-01
       -2   -1    0    0    0  501  0.00000000000E+00  0.00000000000E+00  0.27354195454E+03  0.27354195455E+03  0.25500000920E-02 0. -1.
        2   -1    0    0  501    0  0.00000000000E+00  0.00000000000E+00 -0.20968256562E+04  0.20968256562E+04  0.25500000920E-02 0.  1.
    10030    2    1    2    0    0  0.00000000000E+00  0.00000000000E+00 -0.18232837017E+04  0.23703676107E+04  0.15146878072E+04 0.  0.
        3    1    3    3  502    0  0.10132476213E+03  0.56350826002E+03 -0.13584232555E+03  0.58843981352E+03  0.10100000352E+00 0. -1.
       -3    1    3    3    0  502 -0.10132476213E+03 -0.56350826002E+03 -0.16874413761E+04  0.17819277972E+04  0.10100000352E+00 0.  1.
</event>
<event>
 5   0  0.5924403E-04  0.1511228E+04  0.7818609E-02  0.8877021E-01
       -1   -1    0    0    0  501  0.00000000000E+00  0.00000000000E+00  0.46487532300E+03  0.46487532302E+03  0.50400001928E-02 0.  1.
        1   -1    0    0  501    0  0.00000000000E+00  0.00000000000E+00 -0.12281842153E+04  0.12281842153E+04  0.50400001928E-02 0. -1.
    10030    2    1    2    0    0  0.00000000000E+00  0.00000000000E+00 -0.76330889227E+03  0.16930595383E+04  0.15112280222E+04 0.  0.
        1    1    3    3  502    0 -0.33268533126E+03 -0.12873603687E+03  0.36460005780E+03  0.51008401171E+03  0.50400001928E-02 0.  1.
       -1    1    3    3    0  502  0.33268533126E+03  0.12873603687E+03 -0.11279089501E+04  0.11829755266E+04  0.50400001928E-02 0. -1.
</event>
<event>
 5   0  0.1147755E-03  0.1497593E+04  0.7818609E-02  0.8886055E-01
       -2   -1    0    0    0  501  0.00000000000E+00  0.00000000000E+00  0.75561322953E+03  0.75561322953E+03  0.25500000920E-02 0. -1.
        2   -1    0    0  501    0  0.00000000000E+00  0.00000000000E+00 -0.74204153194E+03  0.74204153195E+03  0.25500000920E-02 0.  1.
    10030    2    1    2    0    0  0.00000000000E+00  0.00000000000E+00  0.13571697588E+02  0.14976547615E+04  0.14975932671E+04 0.  0.
        4    1    3    3  502    0  0.37761159446E+03  0.45672373931E+03 -0.45095305190E+03  0.74467936606E+03  0.12699999809E+01 0.  1.
       -4    1    3    3    0  502 -0.37761159446E+03 -0.45672373931E+03  0.46452474948E+03  0.75297539542E+03  0.12699999809E+01 0. -1.
</event>
<event>
 5   0  0.4070625E-04  0.1542895E+04  0.7818609E-02  0.8856419E-01
       -3   -1    0    0    0  501  0.00000000000E+00  0.00000000000E+00  0.93043418632E+03  0.93043419180E+03  0.10100000352E+00 0.  1.
        3   -1    0    0  501    0  0.00000000000E+00  0.00000000000E+00 -0.63962754502E+03  0.63962755300E+03  0.10100000352E+00 0. -1.
    10030    2    1    2    0    0  0.00000000000E+00  0.00000000000E+00  0.29080664129E+03  0.15700617448E+04  0.15428951292E+04 0.  0.
        4    1    3    3  502    0 -0.14954707998E+03 -0.74321476844E+03  0.29073681548E+03  0.81194952425E+03  0.12699999809E+01 0.  1.
       -4    1    3    3    0  502  0.14954707998E+03  0.74321476844E+03  0.69825818722E-01  0.75811222054E+03  0.12699999809E+01 0. -1.
</event>
<event>
 5   0  0.1082667E-03  0.1494470E+04  0.7818609E-02  0.8888139E-01
       -2   -1    0    0    0  501  0.00000000000E+00  0.00000000000E+00  0.30079948138E+03  0.30079948139E+03  0.25500000920E-02 0. -1.
        2   -1    0    0  501    0  0.00000000000E+00  0.00000000000E+00 -0.18562540818E+04  0.18562540818E+04  0.25500000920E-02 0.  1.
    10030    2    1    2    0    0  0.00000000000E+00  0.00000000000E+00 -0.15554546004E+04  0.21570535632E+04  0.14944701605E+04 0.  0.
        5    1    3    3  502    0  0.62482845813E+03  0.35763296897E+03 -0.48896131252E+03  0.87029718931E+03  0.46999998093E+01 0. -1.
       -5    1    3    3    0  502 -0.62482845813E+03 -0.35763296897E+03 -0.10664932879E+04  0.12867563739E+04  0.46999998093E+01 0.  1.
</event>
<event>
 5   0  0.1147755E-03  0.1527631E+04  0.7818609E-02  0.8866284E-01
       -2   -1    0    0    0  501  0.00000000000E+00  0.00000000000E+00  0.45388396912E+03  0.45388396913E+03  0.25500000920E-02 0. -1.
        2   -1    0    0  501    0  0.00000000000E+00  0.00000000000E+00 -0.12853820381E+04  0.12853820381E+04  0.25500000920E-02 0.  1.
    10030    2    1    2    0    0  0.00000000000E+00  0.00000000000E+00 -0.83149806898E+03  0.17392660072E+04  0.15276312399E+04 0.  0.
        4    1    3    3  502    0  0.54854445496E+03 -0.26692704781E+03 -0.93905752531E+03  0.11198132508E+04  0.12699999809E+01 0.  1.
       -4    1    3    3    0  502 -0.54854445496E+03  0.26692704781E+03  0.10755945633E+03  0.61945275644E+03  0.12699999809E+01 0. -1.
</event>
<event>
 5   0  0.1126175E-03  0.1507278E+04  0.7818609E-02  0.8879627E-01
       -2   -1    0    0    0  501  0.00000000000E+00  0.00000000000E+00  0.59836652397E+03  0.59836652398E+03  0.25500000920E-02 0. -1.
        2   -1    0    0  501    0  0.00000000000E+00  0.00000000000E+00 -0.94920411223E+03  0.94920411223E+03  0.25500000920E-02 0.  1.
    10030    2    1    2    0    0  0.00000000000E+00  0.00000000000E+00 -0.35083758825E+03  0.15475706362E+04  0.15072782957E+04 0.  0.
        3    1    3    3  502    0 -0.56173821881E+03 -0.50216077138E+03 -0.19186856987E+03  0.77751451761E+03  0.10100000352E+00 0. -1.
       -3    1    3    3    0  502  0.56173821881E+03  0.50216077138E+03 -0.15896901838E+03  0.77005611860E+03  0.10100000352E+00 0.  1.
</event>
<event>
 5   0  0.1082667E-03  0.1500762E+04  0.7818609E-02  0.8883947E-01
       -2   -1    0    0    0  501  0.00000000000E+00  0.00000000000E+00  0.66373688647E+03  0.66373688648E+03  0.25500000920E-02 0. -1.
        2   -1    0    0  501    0  0.00000000000E+00  0.00000000000E+00 -0.84833524349E+03  0.84833524350E+03  0.25500000920E-02 0.  1.
    10030    2    1    2    0    0  0.00000000000E+00  0.00000000000E+00 -0.18459835702E+03  0.15120721300E+04  0.15007616642E+04 0.  0.
        5    1    3    3  502    0  0.34074796122E+02 -0.51119621397E+03 -0.64467056194E+03  0.82347124075E+03  0.46999998093E+01 0.  1.
       -5    1    3    3    0  502 -0.34074796122E+02  0.51119621397E+03  0.46007220491E+03  0.68860088923E+03  0.46999998093E+01 0. -1.
</event>
<event>
 5   0  0.1147755E-03  0.1501151E+04  0.7818609E-02  0.8883688E-01
        2   -1    0    0  501    0  0.00000000000E+00  0.00000000000E+00  0.48684873917E+03  0.48684873917E+03  0.25500000920E-02 0.  1.
       -2   -1    0    0    0  501  0.00000000000E+00  0.00000000000E+00 -0.11571638727E+04  0.11571638727E+04  0.25500000920E-02 0. -1.
    10030    2    1    2    0    0  0.00000000000E+00  0.00000000000E+00 -0.67031513349E+03  0.16440126118E+04  0.15011512548E+04 0.  0.
        4    1    3    3  502    0  0.52508242604E+03 -0.34830664136E+03  0.11149518885E+03  0.63989206948E+03  0.12699999809E+01 0.  1.
       -4    1    3    3    0  502 -0.52508242604E+03  0.34830664136E+03 -0.78181032234E+03  0.10041205423E+04  0.12699999809E+01 0. -1.
</event>
<event>
 5   0  0.1126175E-03  0.1515784E+04  0.7818609E-02  0.8874024E-01
       -2   -1    0    0    0  501  0.00000000000E+00  0.00000000000E+00  0.89350878353E+03  0.89350878353E+03  0.25500000920E-02 0. -1.
        2   -1    0    0  501    0  0.00000000000E+00  0.00000000000E+00 -0.64285942664E+03  0.64285942664E+03  0.25500000920E-02 0.  1.
    10030    2    1    2    0    0  0.00000000000E+00  0.00000000000E+00  0.25064935689E+03  0.15363682102E+04  0.15157843439E+04 0.  0.
        3    1    3    3  502    0  0.51281828765E+03 -0.54488701617E+03  0.24744348042E+03  0.78810706299E+03  0.10100000352E+00 0. -1.
       -3    1    3    3    0  502 -0.51281828765E+03  0.54488701617E+03  0.32058764715E+01  0.74826114718E+03  0.10100000352E+00 0.  1.
</event>
<event>
 5   0  0.6146552E-04  0.1486257E+04  0.7818609E-02  0.8893644E-01
        1   -1    0    0  501    0  0.00000000000E+00  0.00000000000E+00  0.19659591428E+04  0.19659591428E+04  0.50400001928E-02 0.  1.
       -1   -1    0    0    0  501  0.00000000000E+00  0.00000000000E+00 -0.28090093100E+03  0.28090093104E+03  0.50400001928E-02 0. -1.
    10030    2    1    2    0    0  0.00000000000E+00  0.00000000000E+00  0.16850582118E+04  0.22468600739E+04  0.14862567121E+04 0.  0.
        5    1    3    3  502    0 -0.17502485984E+03  0.43382237933E+03  0.17154066893E+04  0.17780544868E+04  0.46999998093E+01 0.  1.
       -5    1    3    3    0  502  0.17502485984E+03 -0.43382237933E+03 -0.30348477478E+02  0.46880558706E+03  0.46999998093E+01 0. -1.
</event>
<event>
 5   0  0.1149716E-03  0.1477634E+04  0.7818609E-02  0.8899464E-01
        2   -1    0    0  501    0  0.00000000000E+00  0.00000000000E+00  0.73472178439E+03  0.73472178440E+03  0.25500000920E-02 0.  1.
       -2   -1    0    0    0  501  0.00000000000E+00  0.00000000000E+00 -0.74293523288E+03  0.74293523288E+03  0.25500000920E-02 0. -1.
    10030    2    1    2    0    0  0.00000000000E+00  0.00000000000E+00 -0.82134484887E+01  0.14776570173E+04  0.14776341902E+04 0.  0.
        1    1    3    3  502    0  0.50037098884E+03  0.41602104926E+03  0.34576445498E+03  0.73688377527E+03  0.50400001928E-02 0.  1.
       -1    1    3    3    0  502 -0.50037098884E+03 -0.41602104926E+03 -0.35397790347E+03  0.74077324201E+03  0.50400001928E-02 0. -1.
</event>
<event>
 5   0  0.5840834E-04  0.1467802E+04  0.7818609E-02  0.8906151E-01
        1   -1    0    0  501    0  0.00000000000E+00  0.00000000000E+00  0.16359777272E+04  0.16359777272E+04  0.50400001928E-02 0. -1.
       -1   -1    0    0    0  501  0.00000000000E+00  0.00000000000E+00 -0.32922863267E+03  0.32922863271E+03  0.50400001928E-02 0.  1.
    10030    2    1    2    0    0  0.00000000000E+00  0.00000000000E+00  0.13067490945E+04  0.19652063599E+04  0.14678020442E+04 0.  0.
        3    1    3    3  502    0 -0.47642558803E+03 -0.28689451879E+01  0.14007763148E+04  0.14795823283E+04  0.10100000352E+00 0.  1.
       -3    1    3    3    0  502  0.47642558803E+03  0.28689451879E+01 -0.94027220276E+02  0.48562403167E+03  0.10100000352E+00 0. -1.
</event>
<event>
 5   0  0.1147755E-03  0.1568082E+04  0.7818609E-02  0.8840400E-01
        2   -1    0    0  501    0  0.00000000000E+00  0.00000000000E+00  0.99409624540E+03  0.99409624540E+03  0.25500000920E-02 0.  1.
       -2   -1    0    0    0  501  0.00000000000E+00  0.00000000000E+00 -0.61837118621E+03  0.61837118622E+03  0.25500000920E-02 0. -1.
    10030    2    1    2    0    0  0.00000000000E+00  0.00000000000E+00  0.37572505918E+03  0.16124674316E+04  0.15680822357E+04 0.  0.
        4    1    3    3  502    0 -0.10064712323E+03 -0.77048470772E+03  0.80296017425E+02  0.78116937444E+03  0.12699999809E+01 0. -1.
       -4    1    3    3    0  502  0.10064712323E+03  0.77048470772E+03  0.29542904176E+03  0.83129805718E+03  0.12699999809E+01 0.  1.
</event>
<event>
 5   0  0.1149716E-03  0.1553218E+04  0.7818609E-02  0.8849815E-01
        2   -1    0    0  501    0  0.00000000000E+00  0.00000000000E+00  0.43547790460E+03  0.43547790461E+03  0.25500000920E-02 0.  1.
       -2   -1    0    0    0  501  0.00000000000E+00  0.00000000000E+00 -0.13849646754E+04  0.13849646754E+04  0.25500000920E-02 0. -1.
    10030    2    1    2    0    0  0.00000000000E+00  0.00000000000E+00 -0.94948677080E+03  0.18204425800E+04  0.15532179690E+04 0.  0.
        1    1    3    3  502    0  0.74133057933E+03  0.15500629321E+03 -0.67612914821E+03  0.10152579002E+04  0.50400001928E-02 0. -1.
       -1    1    3    3    0  502 -0.74133057933E+03 -0.15500629321E+03 -0.27335762259E+03  0.80518467983E+03  0.50400001928E-02 0.  1.
</event>
<event>
 5   0  0.4070625E-04  0.1498671E+04  0.7818609E-02  0.8885337E-01
        3   -1    0    0  501    0  0.00000000000E+00  0.00000000000E+00  0.21966801510E+03  0.21966803832E+03  0.10100000352E+00 0. -1.
       -3   -1    0    0    0  501  0.00000000000E+00  0.00000000000E+00 -0.25561475000E+04  0.25561475020E+04  0.10100000352E+00 0.  1.
    10030    2    1    2    0    0  0.00000000000E+00  0.00000000000E+00 -0.23364794849E+04  0.27758155403E+04  0.14986712550E+04 0.  0.
        5    1    3    3  502    0  0.45432167316E+02 -0.36885100618E+03 -0.23733937393E+04  0.24023186879E+04  0.46999998093E+01 0.  1.
       -5    1    3    3    0  502 -0.45432167316E+02  0.36885100618E+03  0.36914254387E+02  0.37349685241E+03  0.46999998093E+01 0. -1.
</event>
<event>
 5   0  0.1147755E-03  0.1495351E+04  0.7818609E-02  0.8887550E-01
       -2   -1    0    0    0  501  0.00000000000E+00  0.00000000000E+00  0.65345900297E+03  0.65345900297E+03  0.25500000920E-02 0.  1.
        2   -1    0    0  501    0  0.00000000000E+00  0.00000000000E+00 -0.85547626352E+03  0.85547626353E+03  0.25500000920E-02 0. -1.
    10030    2    1    2    0    0  0.00000000000E+00  0.00000000000E+00 -0.20201726056E+03  0.15089352665E+04  0.14953510173E+04 0.  0.
        4    1    3    3  502    0 -0.40566192942E+03 -0.12942097165E+03  0.51915202137E+03  0.67144011131E+03  0.12699999809E+01 0.  1.
       -4    1    3    3    0  502  0.40566192942E+03  0.12942097165E+03 -0.72116928192E+03  0.83749515519E+03  0.12699999809E+01 0. -1.
</event>
<event>
 5   0  0.1149716E-03  0.1497238E+04  0.7818609E-02  0.8886292E-01
       -2   -1    0    0    0  501  0.00000000000E+00  0.00000000000E+00  0.92844378359E+03  0.92844378360E+03  0.25500000920E-02 0. -1.
        2   -1    0    0  501    0  0.00000000000E+00  0.00000000000E+00 -0.60362349648E+03  0.60362349649E+03  0.25500000920E-02 0.  1.
    10030    2    1    2    0    0  0.00000000000E+00  0.00000000000E+00  0.32482028711E+03  0.15320672801E+04  0.14972381012E+04 0.  0.
        1    1    3    3  502    0 -0.61891610361E+03 -0.22791236897E+03 -0.19998840706E+03  0.68919993777E+03  0.50400001928E-02 0. -1.
       -1    1    3    3    0  502  0.61891610361E+03  0.22791236897E+03  0.52480869417E+03  0.84286734231E+03  0.50400001928E-02 0.  1.
</event>
<event>
 5   0  0.5606965E-04  0.1502278E+04  0.7818609E-02  0.8882940E-01
        1   -1    0    0  501    0  0.00000000000E+00  0.00000000000E+00  0.19172205722E+04  0.19172205722E+04  0.50400001928E-02 0. -1.
       -1   -1    0    0    0  501  0.00000000000E+00  0.00000000000E+00 -0.29428517181E+03  0.29428517185E+03  0.50400001928E-02 0.  1.
    10030    2    1    2    0    0  0.00000000000E+00  0.00000000000E+00  0.16229354004E+04  0.22115057440E+04  0.15022777181E+04 0.  0.
        4    1    3    3  502    0  0.58401946332E+02 -0.20088109598E+03 -0.25053308221E+03  0.32639307627E+03  0.12699999809E+01 0.  1.
       -4    1    3    3    0  502 -0.58401946332E+02  0.20088109598E+03  0.18734684826E+04  0.18851126678E+04  0.12699999809E+01 0. -1.
</event>
<event>
 5   0  0.6146552E-04  0.1537282E+04  0.7818609E-02  0.8860033E-01
       -1   -1    0    0    0  501  0.00000000000E+00  0.00000000000E+00  0.69959629468E+03  0.69959629470E+03  0.50400001928E-02 0.  1.
        1   -1    0    0  501    0  0.00000000000E+00  0.00000000000E+00 -0.84449939162E+03  0.84449939163E+03  0.50400001928E-02 0. -1.
    10030    2    1    2    0    0  0.00000000000E+00  0.00000000000E+00 -0.14490309694E+03  0.15440956863E+04  0.15372815556E+04 0.  0.
        5    1    3    3  502    0 -0.40552585812E+03  0.52473393023E+03 -0.46274778399E+03  0.80867454561E+03  0.46999998093E+01 0. -1.
       -5    1    3    3    0  502  0.40552585812E+03 -0.52473393023E+03  0.31784468704E+03  0.73542114072E+03  0.46999998093E+01 0.  1.
</event>
<event>
 5   0  0.1147755E-03  0.1656889E+04  0.7818609E-02  0.8786342E-01
        2   -1    0    0  501    0  0.00000000000E+00  0.00000000000E+00  0.13739891605E+04  0.13739891605E+04  0.25500000920E-02 0.  1.
       -2   -1    0    0    0  501  0.00000000000E+00  0.00000000000E+00 -0.49950912548E+03  0.49950912549E+03  0.25500000920E-02 0. -1.
    10030    2    1    2    0    0  0.00000000000E+00  0.00000000000E+00  0.87448003501E+03  0.18734982860E+04  0.16568888001E+04 0.  0.
        4    1    3    3  502    0  0.26921230361E+03  0.76094150074E+03  0.64820964136E+03  0.10352219975E+04  0.12699999809E+01 0. -1.
       -4    1    3    3    0  502 -0.26921230361E+03 -0.76094150074E+03  0.22627039364E+03  0.83827628852E+03  0.12699999809E+01 0.  1.
</event>
<event>
 5   0  0.1126175E-03  0.1536511E+04  0.7818609E-02  0.8860530E-01
       -2   -1    0    0    0  501  0.00000000000E+00  0.00000000000E+00  0.32223351917E+03  0.32223351918E+03  0.25500000920E-02 0. -1.
        2   -1    0    0  501    0  0.00000000000E+00  0.00000000000E+00 -0.18316414818E+04  0.18316414818E+04  0.25500000920E-02 0.  1.
    10030    2    1    2    0    0  0.00000000000E+00  0.00000000000E+00 -0.15094079627E+04  0.21538750010E+04  0.15365106971E+04 0.  0.
        3    1    3    3  502    0 -0.52707994052E+03 -0.35451755771E+02  0.27224701002E+02  0.52897191346E+03  0.10100000352E+00 0. -1.
       -3    1    3    3    0  502  0.52707994052E+03  0.35451755771E+02 -0.15366326637E+04  0.16249030876E+04  0.10100000352E+00 0.  1.
</event>
<event>
 5   0  0.1097156E-03  0.1510620E+04  0.7818609E-02  0.8877421E-01
       -2   -1    0    0    0  501  0.00000000000E+00  0.00000000000E+00  0.52144309005E+03  0.52144309006E+03  0.25500000920E-02 0.  1.
        2   -1    0    0  501    0  0.00000000000E+00  0.00000000000E+00 -0.10940667659E+04  0.10940667659E+04  0.25500000920E-02 0. -1.
    10030    2    1    2    0    0  0.00000000000E+00  0.00000000000E+00 -0.57262367587E+03  0.16155098560E+04  0.15106204754E+04 0.  0.
        2    1    3    3  502    0 -0.38013720505E+03 -0.54618485158E+03 -0.66843292236E+03  0.94319921462E+03  0.25500000920E-02 0. -1.
       -2    1    3    3    0  502  0.38013720505E+03  0.54618485158E+03  0.95809246493E+02  0.67231064136E+03  0.25500000920E-02 0.  1.
</event>
<event>
 5   0  0.1082667E-03  0.1488685E+04  0.7818609E-02  0.8892012E-01
        2   -1    0    0  501    0  0.00000000000E+00  0.00000000000E+00  0.44790142313E+03  0.44790142314E+03  0.25500000920E-02 0.  1.
       -2   -1    0    0    0  501  0.00000000000E+00  0.00000000000E+00 -0.12369816518E+04  0.12369816518E+04  0.25500000920E-02 0. -1.
    10030    2    1    2    0    0  0.00000000000E+00  0.00000000000E+00 -0.78908022862E+03  0.16848830749E+04  0.14886851141E+04 0.  0.
        5    1    3    3  502    0 -0.50018448158E+03  0.85408640330E+02  0.22178793429E+03  0.55379701087E+03  0.46999998093E+01 0.  1.
       -5    1    3    3    0  502  0.50018448158E+03 -0.85408640330E+02 -0.10108681629E+04  0.11310860640E+04  0.46999998093E+01 0. -1.
</event>
<event>
 5   0  0.1097156E-03  0.1385631E+04  0.7818609E-02  0.8964286E-01
       -2   -1    0    0    0  501  0.00000000000E+00  0.00000000000E+00  0.89347467661E+03  0.89347467661E+03  0.25500000920E-02 0.  1.
        2   -1    0    0  501    0  0.00000000000E+00  0.00000000000E+00 -0.53722111033E+03  0.53722111033E+03  0.25500000920E-02 0. -1.
    10030    2    1    2    0    0  0.00000000000E+00  0.00000000000E+00  0.35625356628E+03  0.14306957869E+04  0.13856312032E+04 0.  0.
        2    1    3    3  502    0 -0.32031864604E+03 -0.34606077606E+03  0.70220849905E+03  0.84584801937E+03  0.25500000920E-02 0.  1.
       -2    1    3    3    0  502  0.32031864604E+03  0.34606077606E+03 -0.34595493277E+03  0.58484776758E+03  0.25500000920E-02 0. -1.
</event>
<event>
 5   0  0.5840834E-04  0.1492841E+04  0.7818609E-02  0.8889227E-01
        1   -1    0    0  501    0  0.00000000000E+00  0.00000000000E+00  0.10586639614E+04  0.10586639614E+04  0.50400001928E-02 0. -1.
       -1   -1    0    0    0  501  0.00000000000E+00  0.00000000000E+00 -0.52627070388E+03  0.52627070391E+03  0.50400001928E-02 0.  1.
    10030    2    1    2    0    0  0.00000000000E+00  0.00000000000E+00  0.53239325753E+03  0.15849346653E+04  0.14928413555E+04 0.  0.
        3    1    3    3  502    0  0.44412851375E+03  0.93286056848E+02  0.89536899300E+03  0.10038117697E+04  0.10100000352E+00 0. -1.
       -3    1    3    3    0  502 -0.44412851375E+03 -0.93286056848E+02 -0.36297573546E+03  0.58112289566E+03  0.10100000352E+00 0.  1.
</event>
<event>
 5   0  0.1149716E-03  0.1473126E+04  0.7818609E-02  0.8902523E-01
       -2   -1    0    0    0  501  0.00000000000E+00  0.00000000000E+00  0.33616856818E+03  0.33616856819E+03  0.25500000920E-02 0.  1.
        2   -1    0    0  501    0  0.00000000000E+00  0.00000000000E+00 -0.16138489343E+04  0.16138489343E+04  0.25500000920E-02 0. -1.
    10030    2    1    2    0    0  0.00000000000E+00  0.00000000000E+00 -0.12776803661E+04  0.19500175025E+04  0.14731263157E+04 0.  0.
        1    1    3    3  502    0 -0.72237944912E+02  0.67000103309E+03 -0.24525534339E+03  0.71712613152E+03  0.50400001928E-02 0.  1.
       -1    1    3    3    0  502  0.72237944912E+02 -0.67000103309E+03 -0.10324250227E+04  0.12328913710E+04  0.50400001928E-02 0. -1.
</event>
<event>
 5   0  0.5606965E-04  0.1489707E+04  0.7818609E-02  0.8891327E-01
        1   -1    0    0  501    0  0.00000000000E+00  0.00000000000E+00  0.10427732678E+04  0.10427732678E+04  0.50400001928E-02 0. -1.
       -1   -1    0    0    0  501  0.00000000000E+00  0.00000000000E+00 -0.53204900347E+03  0.53204900349E+03  0.50400001928E-02 0.  1.
    10030    2    1    2    0    0  0.00000000000E+00  0.00000000000E+00  0.51072426433E+03  0.15748222713E+04  0.14897066530E+04 0.  0.
        4    1    3    3  502    0  0.23824025999E+03 -0.60305479840E+03 -0.13214895879E+03  0.66173897540E+03  0.12699999809E+01 0.  1.
       -4    1    3    3    0  502 -0.23824025999E+03  0.60305479840E+03  0.64287322312E+03  0.91308329591E+03  0.12699999809E+01 0. -1.
</event>
<event>
 5   0  0.5606965E-04  0.1422984E+04  0.7818609E-02  0.8937348E-01
        1   -1    0    0  501    0  0.00000000000E+00  0.00000000000E+00  0.57719086895E+03  0.57719086897E+03  0.50400001928E-02 0. -1.
       -1   -1    0    0    0  501  0.00000000000E+00  0.00000000000E+00 -0.87704204922E+03  0.87704204923E+03  0.50400001928E-02 0.  1.
    10030    2    1    2    0    0  0.00000000000E+00  0.00000000000E+00 -0.29985118027E+03  0.14542329182E+04  0.14229837139E+04 0.  0.
        4    1    3    3  502    0  0.37186313512E+03 -0.60631070629E+03 -0.13152503033E+03  0.72332241105E+03  0.12699999809E+01 0.  1.
       -4    1    3    3    0  502 -0.37186313512E+03  0.60631070629E+03 -0.16832614994E+03  0.73091050716E+03  0.12699999809E+01 0. -1.
</event>
<event>
 5   0  0.1126175E-03  0.1355464E+04  0.7818609E-02  0.8986702E-01
       -2   -1    0    0    0  501  0.00000000000E+00  0.00000000000E+00  0.60135112886E+03  0.60135112887E+03  0.25500000920E-02 0.  1.
        2   -1    0    0  501    0  0.00000000000E+00  0.00000000000E+00 -0.76381463268E+03  0.76381463269E+03  0.25500000920E-02 0. -1.
    10030    2    1    2    0    0  0.00000000000E+00  0.00000000000E+00 -0.16246350382E+03  0.13651657616E+04  0.13554641886E+04 0.  0.
        3    1    3    3  502    0 -0.12185385633E+03 -0.63584819846E+02  0.58716677714E+03  0.60303915793E+03  0.10100000352E+00 0.  1.
       -3    1    3    3    0  502  0.12185385633E+03  0.63584819846E+02 -0.74963028096E+03  0.76212660363E+03  0.10100000352E+00 0. -1.
</event>
<event>
 5   0  0.1082667E-03  0.1495480E+04  0.7818609E-02  0.8887465E-01
       -2   -1    0    0    0  501  0.00000000000E+00  0.00000000000E+00  0.57597011394E+03  0.57597011395E+03  0.25500000920E-02 0. -1.
        2   -1    0    0  501    0  0.00000000000E+00  0.00000000000E+00 -0.97073572518E+03  0.97073572518E+03  0.25500000920E-02 0.  1.
    10030    2    1    2    0    0  0.00000000000E+00  0.00000000000E+00 -0.39476561124E+03  0.15467058391E+04  0.14954795435E+04 0.  0.
        5    1    3    3  502    0  0.63115101256E+03  0.23837964541E+03 -0.53078535719E+03  0.85844722692E+03  0.46999998093E+01 0.  1.
       -5    1    3    3    0  502 -0.63115101256E+03 -0.23837964541E+03  0.13601974595E+03  0.68825861221E+03  0.46999998093E+01 0. -1.
</event>
<event>
 5   0  0.1082667E-03  0.1514330E+04  0.7818609E-02  0.8874979E-01
       -2   -1    0    0    0  501  0.00000000000E+00  0.00000000000E+00  0.36331551801E+03  0.36331551802E+03  0.25500000920E-02 0. -1.
        2   -1    0    0  501    0  0.00000000000E+00  0.00000000000E+00 -0.15779634723E+04  0.15779634724E+04  0.25500000920E-02 0.  1.
    10030    2    1    2    0    0  0.00000000000E+00  0.00000000000E+00 -0.12146479543E+04  0.19412789904E+04  0.15143297083E+04 0.  0.
        5    1    3    3  502    0 -0.56902998534E+02 -0.16400448335E+03  0.33744113502E+03  0.37950498205E+03  0.46999998093E+01 0. -1.
       -5    1    3    3    0  502  0.56902998534E+02  0.16400448335E+03 -0.15520890894E+04  0.15617740083E+04  0.46999998093E+01 0.  1.
</event>
<event>
 5   0  0.1149716E-03  0.1499798E+04  0.7818609E-02  0.8884588E-01
        2   -1    0    0  501    0  0.00000000000E+00  0.00000000000E+00  0.11870849120E+04  0.11870849120E+04  0.25500000920E-02 0.  1.
       -2   -1    0    0    0  501  0.00000000000E+00  0.00000000000E+00 -0.47372194436E+03  0.47372194436E+03  0.25500000920E-02 0. -1.
    10030    2    1    2    0    0  0.00000000000E+00  0.00000000000E+00  0.71336296767E+03  0.16608068564E+04  0.14997975499E+04 0.  0.
        1    1    3    3  502    0  0.31160194546E+03  0.51458000676E+03  0.85247421347E+03  0.10433602640E+04  0.50400001928E-02 0. -1.
       -1    1    3    3    0  502 -0.31160194546E+03 -0.51458000676E+03 -0.13911124579E+03  0.61744659243E+03  0.50400001928E-02 0.  1.
</event>
<event>
 5   0  0.5606965E-04  0.1510223E+04  0.7818609E-02  0.8877683E-01
       -1   -1    0    0    0  501  0.00000000000E+00  0.00000000000E+00  0.10389916177E+04  0.10389916177E+04  0.50400001928E-02 0. -1.
        1   -1    0    0  501    0  0.00000000000E+00  0.00000000000E+00 -0.54879483897E+03  0.54879483899E+03  0.50400001928E-02 0.  1.
    10030    2    1    2    0    0  0.00000000000E+00  0.00000000000E+00  0.49019677873E+03  0.15877864567E+04  0.15102228148E+04 0.  0.
        4    1    3    3  502    0 -0.63859058657E+03  0.52366751683E+01  0.66874034694E+03  0.92468406742E+03  0.12699999809E+01 0. -1.
       -4    1    3    3    0  502  0.63859058657E+03 -0.52366751683E+01 -0.17854356821E+03  0.66310238928E+03  0.12699999809E+01 0.  1.
</event>
<event>
 5   0  0.4070625E-04  0.1494822E+04  0.7818609E-02  0.8887904E-01
        3   -1    0    0  501    0  0.00000000000E+00  0.00000000000E+00  0.16218654648E+04  0.16218654679E+04  0.10100000352E+00 0.  1.
       -3   -1    0    0    0  501  0.00000000000E+00  0.00000000000E+00 -0.34443244467E+03  0.34443245947E+03  0.10100000352E+00 0. -1.
    10030    2    1    2    0    0  0.00000000000E+00  0.00000000000E+00  0.12774330201E+04  0.19662979274E+04  0.14948218685E+04 0.  0.
        4    1    3    3  502    0 -0.27357979167E+03  0.53302765667E+03  0.50953480749E+02  0.60130047005E+03  0.12699999809E+01 0. -1.
       -4    1    3    3    0  502  0.27357979167E+03 -0.53302765667E+03  0.12264795394E+04  0.13649974573E+04  0.12699999809E+01 0.  1.
</event>
<event>
 5   0  0.1082667E-03  0.1490739E+04  0.7818609E-02  0.8890635E-01
       -2   -1    0    0    0  501  0.00000000000E+00  0.00000000000E+00  0.44667459044E+03  0.44667459045E+03  0.25500000920E-02 0. -1.
        2   -1    0    0  501    0  0.00000000000E+00  0.00000000000E+00 -0.12438047453E+04  0.12438047453E+04  0.25500000920E-02 0.  1.
    10030    2    1    2    0    0  0.00000000000E+00  0.00000000000E+00 -0.79713015489E+03  0.16904793358E+04  0.14907393806E+04 0.  0.
        5    1    3    3  502    0 -0.11264725461E+03 -0.11767739233E+03 -0.12233538798E+04  0.12341613257E+04  0.46999998093E+01 0.  1.
       -5    1    3    3    0  502  0.11264725461E+03  0.11767739233E+03  0.42622372492E+03  0.45631801007E+03  0.46999998093E+01 0. -1.
</event>
<event>
 5   0  0.1097156E-03  0.1509006E+04  0.7818609E-02  0.8878486E-01
       -2   -1    0    0    0  501  0.00000000000E+00  0.00000000000E+00  0.50403422354E+03  0.50403422355E+03  0.25500000920E-02 0. -1.
        2   -1    0    0  501    0  0.00000000000E+00  0.00000000000E+00 -0.11294367605E+04  0.11294367605E+04  0.25500000920E-02 0.  1.
    10030    2    1    2    0    0  0.00000000000E+00  0.00000000000E+00 -0.62540253699E+03  0.16334709841E+04  0.15090060048E+04 0.  0.
        2    1    3    3  502    0 -0.15822094185E+03 -0.54894724125E+02 -0.11090629911E+04  0.11216363115E+04  0.25500000920E-02 0.  1.
       -2    1    3    3    0  502  0.15822094185E+03  0.54894724125E+02  0.48366045409E+03  0.51183467255E+03  0.25500000920E-02 0. -1.
</event>
<event>
 5   0  0.1126175E-03  0.1514934E+04  0.7818609E-02  0.8874582E-01
        2   -1    0    0  501    0  0.00000000000E+00  0.00000000000E+00  0.10573473036E+04  0.10573473036E+04  0.25500000920E-02 0. -1.
       -2   -1    0    0    0  501  0.00000000000E+00  0.00000000000E+00 -0.54263740910E+03  0.54263740911E+03  0.25500000920E-02 0.  1.
    10030    2    1    2    0    0  0.00000000000E+00  0.00000000000E+00  0.51470989450E+03  0.15999847127E+04  0.15149339277E+04 0.  0.
        3    1    3    3  502    0 -0.54555716104E+03 -0.32491972175E+03  0.69351808402E+03  0.94030462330E+03  0.10100000352E+00 0. -1.
       -3    1    3    3    0  502  0.54555716104E+03  0.32491972175E+03 -0.17880818951E+03  0.65968008942E+03  0.10100000352E+00 0.  1.
</event>
<event>
 5   0  0.5924403E-04  0.1484231E+04  0.7818609E-02  0.8895008E-01
        1   -1    0    0  501    0  0.00000000000E+00  0.00000000000E+00  0.10888777266E+04  0.10888777266E+04  0.50400001928E-02 0.  1.
       -1   -1    0    0    0  501  0.00000000000E+00  0.00000000000E+00 -0.50578238243E+03  0.50578238246E+03  0.50400001928E-02 0. -1.
    10030    2    1    2    0    0  0.00000000000E+00  0.00000000000E+00  0.58309534420E+03  0.15946601091E+04  0.14842306705E+04 0.  0.
        1    1    3    3  502    0  0.67674160908E+03  0.21251519704E+03  0.57157477946E+02  0.71162412251E+03  0.50400001928E-02 0.  1.
       -1    1    3    3    0  502 -0.67674160908E+03 -0.21251519704E+03  0.52593786626E+03  0.88303598659E+03  0.50400001928E-02 0. -1.
</event>
<event>
 5   0  0.1126175E-03  0.1471179E+04  0.7818609E-02  0.8903848E-01
       -2   -1    0    0    0  501  0.00000000000E+00  0.00000000000E+00  0.11127225707E+04  0.11127225707E+04  0.25500000920E-02 0. -1.
        2   -1    0    0  501    0  0.00000000000E+00  0.00000000000E+00 -0.48627773519E+03  0.48627773520E+03  0.25500000920E-02 0.  1.
    10030    2    1    2    0    0  0.00000000000E+00  0.00000000000E+00  0.62644483548E+03  0.15990003059E+04  0.14711794066E+04 0.  0.
        3    1    3    3  502    0  0.19968686544E+03 -0.70382657358E+03  0.23012372957E+03  0.76694434676E+03  0.10100000352E+00 0. -1.
       -3    1    3    3    0  502 -0.19968686544E+03  0.70382657358E+03  0.39632110591E+03  0.83205595912E+03  0.10100000352E+00 0.  1.
</event>
<event>
 5   0  0.4070625E-04  0.1497364E+04  0.7818609E-02  0.8886208E-01
       -4   -1    0    0    0  501  0.00000000000E+00  0.00000000000E+00  0.32549897805E+03  0.32550145562E+03  0.12699999809E+01 0. -1.
        4   -1    0    0  501    0  0.00000000000E+00  0.00000000000E+00 -0.17220373080E+04  0.17220377763E+04  0.12699999809E+01 0.  1.
    10030    2    1    2    0    0  0.00000000000E+00  0.00000000000E+00 -0.13965383300E+04  0.20475392319E+04  0.14973635495E+04 0.  0.
        4    1    3    3  502    0  0.67043126127E+03 -0.13454154396E+03 -0.28138636101E+03  0.73943180903E+03  0.12699999809E+01 0. -1.
       -4    1    3    3    0  502 -0.67043126127E+03  0.13454154396E+03 -0.11151519689E+04  0.13081074229E+04  0.12699999809E+01 0.  1.
</event>
<event>
 5   0  0.5924403E-04  0.1434767E+04  0.7818609E-02  0.8929030E-01
        1   -1    0    0  501    0  0.00000000000E+00  0.00000000000E+00  0.11670538326E+04  0.11670538326E+04  0.50400001928E-02 0.  1.
       -1   -1    0    0    0  501  0.00000000000E+00  0.00000000000E+00 -0.44097289419E+03  0.44097289422E+03  0.50400001928E-02 0. -1.
    10030    2    1    2    0    0  0.00000000000E+00  0.00000000000E+00  0.72608093843E+03  0.16080267269E+04  0.14347670282E+04 0.  0.
        1    1    3    3  502    0 -0.51173620617E+03 -0.22972616444E+03 -0.13816656369E+03  0.57770066183E+03  0.50400001928E-02 0. -1.
       -1    1    3    3    0  502  0.51173620617E+03  0.22972616444E+03  0.86424750212E+03  0.10303260650E+04  0.50400001928E-02 0.  1.
</event>
<event>
 5   0  0.5914645E-04  0.1389439E+04  0.7818609E-02  0.8961499E-01
       -1   -1    0    0    0  501  0.00000000000E+00  0.00000000000E+00  0.74604955217E+03  0.74604955219E+03  0.50400001928E-02 0. -1.
        1   -1    0    0  501    0  0.00000000000E+00  0.00000000000E+00 -0.64692071113E+03  0.64692071115E+03  0.50400001928E-02 0.  1.
    10030    2    1    2    0    0  0.00000000000E+00  0.00000000000E+00  0.99128841046E+02  0.13929702633E+04  0.13894386015E+04 0.  0.
        2    1    3    3  502    0 -0.34335725064E+01  0.24751225597E+02 -0.64647002385E+03  0.64695278369E+03  0.25500000920E-02 0.  1.
       -2    1    3    3    0  502  0.34335725064E+01 -0.24751225597E+02  0.74559886490E+03  0.74601747964E+03  0.25500000920E-02 0. -1.
</event>
<event>
 5   0  0.1147755E-03  0.1570823E+04  0.7818609E-02  0.8838676E-01
        2   -1    0    0  501    0  0.00000000000E+00  0.00000000000E+00  0.18741605660E+04  0.18741605660E+04  0.25500000920E-02 0.  1.
       -2   -1    0    0    0  501  0.00000000000E+00  0.00000000000E+00 -0.32914516523E+03  0.32914516524E+03  0.25500000920E-02 0. -1.
    10030    2    1    2    0    0  0.00000000000E+00  0.00000000000E+00  0.15450154008E+04  0.22033057313E+04  0.15708225733E+04 0.  0.
        4    1    3    3  502    0  0.32274876267E+03 -0.54765992884E+03  0.14195072303E+04  0.15553457979E+04  0.12699999809E+01 0.  1.
       -4    1    3    3    0  502 -0.32274876267E+03  0.54765992884E+03  0.12550817054E+03  0.64795993335E+03  0.12699999809E+01 0. -1.
</event>
<event>
 5   0  0.1147755E-03  0.1491792E+04  0.7818609E-02  0.8889930E-01
       -2   -1    0    0    0  501  0.00000000000E+00  0.00000000000E+00  0.26012671025E+03  0.26012671026E+03  0.25500000920E-02 0.  1.
        2   -1    0    0  501    0  0.00000000000E+00  0.00000000000E+00 -0.21388058959E+04  0.21388058959E+04  0.25500000920E-02 0. -1.
    10030    2    1    2    0    0  0.00000000000E+00  0.00000000000E+00 -0.18786791856E+04  0.23989326062E+04  0.14917915961E+04 0.  0.
        4    1    3    3  502    0 -0.55387863594E+03 -0.15358186133E+03 -0.17037991236E+04  0.17981384813E+04  0.12699999809E+01 0. -1.
       -4    1    3    3    0  502  0.55387863594E+03  0.15358186133E+03 -0.17488006207E+03  0.60079412488E+03  0.12699999809E+01 0.  1.
</event>
<event>
 5   0  0.1097156E-03  0.1529812E+04  0.7818609E-02  0.8864867E-01
        2   -1    0    0  501    0  0.00000000000E+00  0.00000000000E+00  0.52523976707E+03  0.52523976708E+03  0.25500000920E-02 0.  1.
       -2   -1    0    0    0  501  0.00000000000E+00  0.00000000000E+00 -0.11139312039E+04  0.11139312039E+04  0.25500000920E-02 0. -1.
    10030    2    1    2    0    0  0.00000000000E+00  0.00000000000E+00 -0.58869143684E+03  0.16391709710E+04  0.15298117088E+04 0.  0.
        2    1    3    3  502    0 -0.74545394865E+03 -0.53027574448E+02 -0.46899275989E+03  0.88230817861E+03  0.25500000920E-02 0. -1.
       -2    1    3    3    0  502  0.74545394865E+03  0.53027574448E+02 -0.11969867695E+03  0.75686279238E+03  0.25500000920E-02 0.  1.
</event>
<event>
 5   0  0.1149716E-03  0.1495052E+04  0.7818609E-02  0.8887750E-01
        2   -1    0    0  501    0  0.00000000000E+00  0.00000000000E+00  0.14485459947E+04  0.14485459947E+04  0.25500000920E-02 0. -1.
       -2   -1    0    0    0  501  0.00000000000E+00  0.00000000000E+00 -0.38576261917E+03  0.38576261918E+03  0.25500000920E-02 0.  1.
    10030    2    1    2    0    0  0.00000000000E+00  0.00000000000E+00  0.10627833756E+04  0.18343086139E+04  0.14950517007E+04 0.  0.
        1    1    3    3  502    0  0.20695453114E+01 -0.22358585067E+02 -0.38534876088E+03  0.38600240528E+03  0.50400001928E-02 0.  1.
       -1    1    3    3    0  502 -0.20695453114E+01  0.22358585067E+02  0.14481321364E+04  0.14483062086E+04  0.50400001928E-02 0. -1.
</event>
<event>
 5   0  0.1147755E-03  0.1311076E+04  0.7818609E-02  0.9020828E-01
        2   -1    0    0  501    0  0.00000000000E+00  0.00000000000E+00  0.13694918907E+04  0.13694918907E+04  0.25500000920E-02 0.  1.
       -2   -1    0    0    0  501  0.00000000000E+00  0.00000000000E+00 -0.31378783325E+03  0.31378783326E+03  0.25500000920E-02 0. -1.
    10030    2    1    2    0    0  0.00000000000E+00  0.00000000000E+00  0.10557040575E+04  0.16832797240E+04  0.13110757309E+04 0.  0.
        4    1    3    3  502    0  0.60505812296E+03  0.24669084135E+03  0.46019960537E+03  0.79921023082E+03  0.12699999809E+01 0.  1.
       -4    1    3    3    0  502 -0.60505812296E+03 -0.24669084135E+03  0.59550445211E+03  0.88406949316E+03  0.12699999809E+01 0. -1.
</event>
<event>
 5   0  0.1082667E-03  0.1504183E+04  0.7818609E-02  0.8881676E-01
       -2   -1    0    0    0  501  0.00000000000E+00  0.00000000000E+00  0.47895117555E+03  0.47895117556E+03  0.25500000920E-02 0. -1.
        2   -1    0    0  501    0  0.00000000000E+00  0.00000000000E+00 -0.11810000194E+04  0.11810000194E+04  0.25500000920E-02 0.  1.
    10030    2    1    2    0    0  0.00000000000E+00  0.00000000000E+00 -0.70204884381E+03  0.16599511949E+04  0.15041826320E+04 0.  0.
        5    1    3    3  502    0  0.43024114679E+03  0.57494354216E+03 -0.59766813220E+03  0.93428946655E+03  0.46999998093E+01 0.  1.
       -5    1    3    3    0  502 -0.43024114679E+03 -0.57494354216E+03 -0.10438071161E+03  0.72566172837E+03  0.46999998093E+01 0. -1.
</event>
<event>
 5   0  0.5840834E-04  0.1472647E+04  0.7818609E-02  0.8902849E-01
       -1   -1    0    0    0  501  0.00000000000E+00  0.00000000000E+00  0.27414929357E+03  0.27414929362E+03  0.50400001928E-02 0.  1.
        1   -1    0    0  501    0  0.00000000000E+00  0.00000000000E+00 -0.19776537521E+04  0.19776537521E+04  0.50400001928E-02 0. -1.
    10030    2    1    2    0    0  0.00000000000E+00  0.00000000000E+00 -0.17035044585E+04  0.22518030457E+04  0.14726471120E+04 0.  0.
        3    1    3    3  502    0  0.18479408278E+03 -0.20591445855E+03 -0.18951473673E+04  0.19152371057E+04  0.10100000352E+00 0. -1.
       -3    1    3    3    0  502 -0.18479408278E+03  0.20591445855E+03  0.19164290877E+03  0.33656593998E+03  0.10100000352E+00 0.  1.
</event>
<event>
 5   0  0.5840834E-04  0.1469925E+04  0.7818609E-02  0.8904703E-01
       -1   -1    0    0    0  501  0.00000000000E+00  0.00000000000E+00  0.86573395011E+03  0.86573395013E+03  0.50400001928E-02 0.  1.
        1   -1    0    0  501    0  0.00000000000E+00  0.00000000000E+00 -0.62394421864E+03  0.62394421866E+03  0.50400001928E-02 0. -1.
    10030    2    1    2    0    0  0.00000000000E+00  0.00000000000E+00  0.24178973147E+03  0.14896781688E+04  0.14699247506E+04 0.  0.
        3    1    3    3  502    0 -0.21446313403E+03  0.42949321463E+03 -0.44310051055E+03  0.65329696917E+03  0.10100000352E+00 0. -1.
       -3    1    3    3    0  502  0.21446313403E+03 -0.42949321463E+03  0.68489024202E+03  0.83638119963E+03  0.10100000352E+00 0.  1.
</event>
<event>
 5   0  0.5606965E-04  0.1515479E+04  0.7818609E-02  0.8874224E-01
       -1   -1    0    0    0  501  0.00000000000E+00  0.00000000000E+00  0.92812537027E+03  0.92812537028E+03  0.50400001928E-02 0. -1.
        1   -1    0    0  501    0  0.00000000000E+00  0.00000000000E+00 -0.61863347810E+03  0.61863347812E+03  0.50400001928E-02 0.  1.
    10030    2    1    2    0    0  0.00000000000E+00  0.00000000000E+00  0.30949189217E+03  0.15467588484E+04  0.15154793644E+04 0.  0.
        4    1    3    3  502    0 -0.74334168738E+03 -0.14466175853E+03  0.12805422042E+03  0.76803866104E+03  0.12699999809E+01 0.  1.
       -4    1    3    3    0  502  0.74334168738E+03  0.14466175853E+03  0.18143767175E+03  0.77872018737E+03  0.12699999809E+01 0. -1.
</event>
<event>
 5   0  0.5924403E-04  0.1551055E+04  0.7818609E-02  0.8851194E-01
       -1   -1    0    0    0  501  0.00000000000E+00  0.00000000000E+00  0.72118793912E+03  0.72118793914E+03  0.50400001928E-02 0.  1.
        1   -1    0    0  501    0  0.00000000000E+00  0.00000000000E+00 -0.83396183954E+03  0.83396183956E+03  0.50400001928E-02 0. -1.
    10030    2    1    2    0    0  0.00000000000E+00  0.00000000000E+00 -0.11277390042E+03  0.15551497787E+04  0.15510554089E+04 0.  0.
        1    1    3    3  502    0 -0.75654498266E+03 -0.17052494782E+03 -0.54343985635E+02  0.77742674087E+03  0.50400001928E-02 0.  1.
       -1    1    3    3    0  502  0.75654498266E+03  0.17052494782E+03 -0.58429914783E+02  0.77772303784E+03  0.50400001928E-02 0. -1.
</event>
<event>
 5   0  0.1149716E-03  0.1496329E+04  0.7818609E-02  0.8886898E-01
       -2   -1    0    0    0  501  0.00000000000E+00  0.00000000000E+00  0.60666670799E+03  0.60666670800E+03  0.25500000920E-02 0.  1.
        2   -1    0    0  501    0  0.00000000000E+00  0.00000000000E+00 -0.92266450862E+03  0.92266450862E+03  0.25500000920E-02 0. -1.
    10030    2    1    2    0    0  0.00000000000E+00  0.00000000000E+00 -0.31599780063E+03  0.15293312166E+04  0.14963286270E+04 0.  0.
        1    1    3    3  502    0 -0.62733876668E+03 -0.39995572347E+03 -0.23867873178E+03  0.78133606466E+03  0.50400001928E-02 0. -1.
       -1    1    3    3    0  502  0.62733876668E+03  0.39995572347E+03 -0.77319068846E+02  0.74799515195E+03  0.50400001928E-02 0.  1.
</event>
<event>
 5   0  0.1147755E-03  0.1508315E+04  0.7818609E-02  0.8878942E-01
       -2   -1    0    0    0  501  0.00000000000E+00  0.00000000000E+00  0.43581562780E+03  0.43581562781E+03  0.25500000920E-02 0. -1.
        2   -1    0    0  501    0  0.00000000000E+00  0.00000000000E+00 -0.13050330771E+04  0.13050330771E+04  0.25500000920E-02 0.  1.
    10030    2    1    2    0    0  0.00000000000E+00  0.00000000000E+00 -0.86921744927E+03  0.17408487049E+04  0.15083153646E+04 0.  0.
        4    1    3    3  502    0 -0.48321142165E+03 -0.20044601838E+02 -0.11024890512E+04  0.12039014847E+04  0.12699999809E+01 0.  1.
       -4    1    3    3    0  502  0.48321142165E+03  0.20044601838E+02  0.23327160191E+03  0.53694722015E+03  0.12699999809E+01 0. -1.
</event>
<event>
 5   0  0.1097156E-03  0.1494365E+04  0.7818609E-02  0.8888209E-01
       -2   -1    0    0    0  501  0.00000000000E+00  0.00000000000E+00  0.46318317810E+03  0.46318317810E+03  0.25500000920E-02 0. -1.
        2   -1    0    0  501    0  0.00000000000E+00  0.00000000000E+00 -0.12053150480E+04  0.12053150480E+04  0.25500000920E-02 0.  1.
    10030    2    1    2    0    0  0.00000000000E+00  0.00000000000E+00 -0.74213186992E+03  0.16684982261E+04  0.14943649548E+04 0.  0.
        2    1    3    3  502    0  0.63824020672E+02  0.18970046829E+03  0.43269509992E+03  0.47674398033E+03  0.25500000920E-02 0. -1.
       -2    1    3    3    0  502 -0.63824020672E+02 -0.18970046829E+03 -0.11748269698E+04  0.11917542458E+04  0.25500000920E-02 0.  1.
</event>
<event>
 5   0  0.6146552E-04  0.1545045E+04  0.7818609E-02  0.8855039E-01
        1   -1    0    0  501    0  0.00000000000E+00  0.00000000000E+00  0.15476924496E+04  0.15476924496E+04  0.50400001928E-02 0. -1.
       -1   -1    0    0    0  501  0.00000000000E+00  0.00000000000E+00 -0.38560038904E+03  0.38560038907E+03  0.50400001928E-02 0.  1.
    10030    2    1    2    0    0  0.00000000000E+00  0.00000000000E+00  0.11620920605E+04  0.19332928386E+04  0.15450447381E+04 0.  0.
        5    1    3    3  502    0  0.23656959496E+03 -0.28532315549E+03 -0.26705845063E+03  0.45685531886E+03  0.46999998093E+01 0.  1.
       -5    1    3    3    0  502 -0.23656959496E+03  0.28532315549E+03  0.14291505111E+04  0.14764375198E+04  0.46999998093E+01 0. -1.
</event>
<event>
 5   0  0.5840834E-04  0.1571939E+04  0.7818609E-02  0.8837975E-01
       -1   -1    0    0    0  501  0.00000000000E+00  0.00000000000E+00  0.11138073080E+04  0.11138073080E+04  0.50400001928E-02 0. -1.
        1   -1    0    0  501    0  0.00000000000E+00  0.00000000000E+00 -0.55462724996E+03  0.55462724998E+03  0.50400001928E-02 0.  1.
    10030    2    1    2    0    0  0.00000000000E+00  0.00000000000E+00  0.55918005806E+03  0.16684345580E+04  0.15719387829E+04 0.  0.
        3    1    3    3  502    0 -0.17280855431E+03 -0.74780885342E+03  0.99883174187E+02  0.77398807251E+03  0.10100000352E+00 0.  1.
       -3    1    3    3    0  502  0.17280855431E+03  0.74780885342E+03  0.45929688387E+03  0.89444648550E+03  0.10100000352E+00 0. -1.
</event>
<event>
 5   0  0.1149716E-03  0.1510065E+04  0.7818609E-02  0.8877788E-01
       -2   -1    0    0    0  501  0.00000000000E+00  0.00000000000E+00  0.43922631838E+03  0.43922631839E+03  0.25500000920E-02 0. -1.
        2   -1    0    0  501    0  0.00000000000E+00  0.00000000000E+00 -0.12979042718E+04  0.12979042718E+04  0.25500000920E-02 0.  1.
    10030    2    1    2    0    0  0.00000000000E+00  0.00000000000E+00 -0.85867795341E+03  0.17371305902E+04  0.15100645217E+04 0.  0.
        1    1    3    3  502    0 -0.49653565004E+03 -0.15966581676E+03 -0.10573525946E+04  0.11789975972E+04  0.50400001928E-02 0.  1.
       -1    1    3    3    0  502  0.49653565004E+03  0.15966581676E+03  0.19867464119E+03  0.55813299301E+03  0.50400001928E-02 0. -1.
</event>
<event>
 5   0  0.5606965E-04  0.1483311E+04  0.7818609E-02  0.8895627E-01
       -1   -1    0    0    0  501  0.00000000000E+00  0.00000000000E+00  0.45612255420E+03  0.45612255423E+03  0.50400001928E-02 0.  1.
        1   -1    0    0  501    0  0.00000000000E+00  0.00000000000E+00 -0.12059320407E+04  0.12059320407E+04  0.50400001928E-02 0. -1.
    10030    2    1    2    0    0  0.00000000000E+00  0.00000000000E+00 -0.74980948653E+03  0.16620545950E+04  0.14833108948E+04 0.  0.
        4    1    3    3  502    0 -0.61405394895E+03 -0.61111148738E+02 -0.83588575597E+03  0.10389915470E+04  0.12699999809E+01 0. -1.
       -4    1    3    3    0  502  0.61405394895E+03  0.61111148738E+02  0.86076269438E+02  0.62306304800E+03  0.12699999809E+01 0.  1.
</event>
<event>
 5   0  0.5840834E-04  0.1101026E+04  0.7818609E-02  0.9204192E-01
       -1   -1    0    0    0  501  0.00000000000E+00  0.00000000000E+00  0.82660399102E+03  0.82660399104E+03  0.50400001928E-02 0. -1.
        1   -1    0    0  501    0  0.00000000000E+00  0.00000000000E+00 -0.36663826620E+03  0.36663826623E+03  0.50400001928E-02 0.  1.
    10030    2    1    2    0    0  0.00000000000E+00  0.00000000000E+00  0.45996572482E+03  0.11932422573E+04  0.11010261652E+04 0.  0.
        3    1    3    3  502    0 -0.19736215380E+03  0.10949516497E+03 -0.31419110697E+03  0.38685536420E+03  0.10100000352E+00 0.  1.
       -3    1    3    3    0  502  0.19736215380E+03 -0.10949516497E+03  0.77415683179E+03  0.80638689307E+03  0.10100000352E+00 0. -1.
</event>
<event>
 5   0  0.5924403E-04  0.1408761E+04  0.7818609E-02  0.8947501E-01
       -1   -1    0    0    0  501  0.00000000000E+00  0.00000000000E+00  0.40184462404E+03  0.40184462407E+03  0.50400001928E-02 0.  1.
        1   -1    0    0  501    0  0.00000000000E+00  0.00000000000E+00 -0.12346855058E+04  0.12346855058E+04  0.50400001928E-02 0. -1.
    10030    2    1    2    0    0  0.00000000000E+00  0.00000000000E+00 -0.83284088171E+03  0.16365301298E+04  0.14087607787E+04 0.  0.
        1    1    3    3  502    0 -0.88868160560E+02  0.38363210103E+03  0.26202551621E+03  0.47299948210E+03  0.50400001928E-02 0.  1.
       -1    1    3    3    0  502  0.88868160560E+02 -0.38363210103E+03 -0.10948663979E+04  0.11635306477E+04  0.50400001928E-02 0. -1.
</event>
<event>
 5   0  0.6146552E-04  0.1475340E+04  0.7818609E-02  0.8901019E-01
       -1   -1    0    0    0  501  0.00000000000E+00  0.00000000000E+00  0.31852172255E+03  0.31852172259E+03  0.50400001928E-02 0.  1.
        1   -1    0    0  501    0  0.00000000000E+00  0.00000000000E+00 -0.17083832814E+04  0.17083832814E+04  0.50400001928E-02 0. -1.
    10030    2    1    2    0    0  0.00000000000E+00  0.00000000000E+00 -0.13898615588E+04  0.20269050040E+04  0.14753402124E+04 0.  0.
        5    1    3    3  502    0 -0.10683025459E+03 -0.23114773874E+03  0.25620344770E+03  0.36125375712E+03  0.46999998093E+01 0.  1.
       -5    1    3    3    0  502  0.10683025459E+03  0.23114773874E+03 -0.16460650065E+04  0.16656512468E+04  0.46999998093E+01 0. -1.
</event>
<event>
 5   0  0.5840834E-04  0.1523302E+04  0.7818609E-02  0.8869104E-01
        1   -1    0    0  501    0  0.00000000000E+00  0.00000000000E+00  0.74679605248E+03  0.74679605249E+03  0.50400001928E-02 0. -1.
       -1   -1    0    0    0  501  0.00000000000E+00  0.00000000000E+00 -0.77680131258E+03  0.77680131260E+03  0.50400001928E-02 0.  1.
    10030    2    1    2    0    0  0.00000000000E+00  0.00000000000E+00 -0.30005260105E+02  0.15235973651E+04  0.15233018792E+04 0.  0.
        3    1    3    3  502    0  0.17995383344E+03  0.71995501222E+03 -0.18648133513E+03  0.76517573167E+03  0.10100000352E+00 0.  1.
       -3    1    3    3    0  502 -0.17995383344E+03 -0.71995501222E+03  0.15647607503E+03  0.75842163342E+03  0.10100000352E+00 0. -1.
</event>
<event>
 5   0  0.1147755E-03  0.1437733E+04  0.7818609E-02  0.8926949E-01
       -2   -1    0    0    0  501  0.00000000000E+00  0.00000000000E+00  0.38274473206E+03  0.38274473207E+03  0.25500000920E-02 0.  1.
        2   -1    0    0  501    0  0.00000000000E+00  0.00000000000E+00 -0.13501668933E+04  0.13501668933E+04  0.25500000920E-02 0. -1.
    10030    2    1    2    0    0  0.00000000000E+00  0.00000000000E+00 -0.96742216128E+03  0.17329116254E+04  0.14377333074E+04 0.  0.
        4    1    3    3  502    0  0.46679219162E+03 -0.48295232573E+02 -0.11400677809E+04  0.12328761242E+04  0.12699999809E+01 0. -1.
       -4    1    3    3    0  502 -0.46679219162E+03  0.48295232573E+02  0.17264561958E+03  0.50003550125E+03  0.12699999809E+01 0.  1.
</event>
<event>
 5   0  0.1149716E-03  0.1458258E+04  0.7818609E-02  0.8912695E-01
       -2   -1    0    0    0  501  0.00000000000E+00  0.00000000000E+00  0.10979431081E+04  0.10979431081E+04  0.25500000920E-02 0.  1.
        2   -1    0    0  501    0  0.00000000000E+00  0.00000000000E+00 -0.48420471356E+03  0.48420471357E+03  0.25500000920E-02 0. -1.
    10030    2    1    2    0    0  0.00000000000E+00  0.00000000000E+00  0.61373839453E+03  0.15821478217E+04  0.14582581776E+04 0.  0.
        1    1    3    3  502    0  0.63704794714E+03  0.20084026906E+03 -0.10306567191E+02  0.66803676993E+03  0.50400001928E-02 0.  1.
       -1    1    3    3    0  502 -0.63704794714E+03 -0.20084026906E+03  0.62404496172E+03  0.91411105173E+03  0.50400001928E-02 0. -1.
</event>
<event>
 5   0  0.5606965E-04  0.1484637E+04  0.7818609E-02  0.8894734E-01
        1   -1    0    0  501    0  0.00000000000E+00  0.00000000000E+00  0.73220346776E+03  0.73220346778E+03  0.50400001928E-02 0. -1.
       -1   -1    0    0    0  501  0.00000000000E+00  0.00000000000E+00 -0.75257288180E+03  0.75257288182E+03  0.50400001928E-02 0.  1.
    10030    2    1    2    0    0  0.00000000000E+00  0.00000000000E+00 -0.20369414043E+02  0.14847763496E+04  0.14846366206E+04 0.  0.
        4    1    3    3  502    0  0.35186247639E+03 -0.46926852609E+03 -0.46521622014E+03  0.74863068081E+03  0.12699999809E+01 0.  1.
       -4    1    3    3    0  502 -0.35186247639E+03  0.46926852609E+03  0.44484680610E+03  0.73614566878E+03  0.12699999809E+01 0. -1.
</event>
<event>
 5   0  0.1082667E-03  0.1474752E+04  0.7818609E-02  0.8901418E-01
       -2   -1    0    0    0  501  0.00000000000E+00  0.00000000000E+00  0.36073199358E+03  0.36073199358E+03  0.25500000920E-02 0. -1.
        2   -1    0    0  501    0  0.00000000000E+00  0.00000000000E+00 -0.15072788440E+04  0.15072788440E+04  0.25500000920E-02 0.  1.
    10030    2    1    2    0    0  0.00000000000E+00  0.00000000000E+00 -0.11465468504E+04  0.18680108376E+04  0.14747524569E+04 0.  0.
        5    1    3    3  502    0  0.37638938387E+02  0.67321533986E+03 -0.95129475672E+03  0.11660271814E+04  0.46999998093E+01 0.  1.
       -5    1    3    3    0  502 -0.37638938387E+02 -0.67321533986E+03 -0.19525209369E+03  0.70198365621E+03  0.46999998093E+01 0. -1.
</event>
<event>
 5   0  0.5606965E-04  0.1492185E+04  0.7818609E-02  0.8889666E-01
       -1   -1    0    0    0  501  0.00000000000E+00  0.00000000000E+00  0.34191276191E+03  0.34191276195E+03  0.50400001928E-02 0. -1.
        1   -1    0    0  501    0  0.00000000000E+00  0.00000000000E+00 -0.16280592300E+04  0.16280592300E+04  0.50400001928E-02 0.  1.
    10030    2    1    2    0    0  0.00000000000E+00  0.00000000000E+00 -0.12861464681E+04  0.19699719919E+04  0.14921852806E+04 0.  0.
        4    1    3    3  502    0  0.65346929530E+03 -0.15409242217E+03 -0.21348081048E+03  0.70451562354E+03  0.12699999809E+01 0. -1.
       -4    1    3    3    0  502 -0.65346929530E+03  0.15409242217E+03 -0.10726656576E+04  0.12654563684E+04  0.12699999809E+01 0.  1.
</event>
<event>
 5   0  0.5924403E-04  0.1503331E+04  0.7818609E-02  0.8882241E-01
       -1   -1    0    0    0  501  0.00000000000E+00  0.00000000000E+00  0.60138342816E+03  0.60138342818E+03  0.50400001928E-02 0.  1.
        1   -1    0    0  501    0  0.00000000000E+00  0.00000000000E+00 -0.93950186953E+03  0.93950186955E+03  0.50400001928E-02 0. -1.
    10030    2    1    2    0    0  0.00000000000E+00  0.00000000000E+00 -0.33811844137E+03  0.15408852977E+04  0.15033307754E+04 0.  0.
        1    1    3    3  502    0 -0.55617064073E+03 -0.42920966863E+03 -0.44304589611E+03  0.83056389721E+03  0.50400001928E-02 0.  1.
       -1    1    3    3    0  502  0.55617064073E+03  0.42920966863E+03  0.10492745474E+03  0.71032140052E+03  0.50400001928E-02 0. -1.
</event>
<event>
 5   0  0.5924403E-04  0.1489567E+04  0.7818609E-02  0.8891421E-01
        1   -1    0    0  501    0  0.00000000000E+00  0.00000000000E+00  0.58670501053E+03  0.58670501055E+03  0.50400001928E-02 0.  1.
       -1   -1    0    0    0  501  0.00000000000E+00  0.00000000000E+00 -0.94545377977E+03  0.94545377978E+03  0.50400001928E-02 0. -1.
    10030    2    1    2    0    0  0.00000000000E+00  0.00000000000E+00 -0.35874876924E+03  0.15321587903E+04  0.14895670107E+04 0.  0.
        1    1    3    3  502    0 -0.63044821206E+03  0.36408479428E+03 -0.34096435881E+03  0.80391503252E+03  0.50400001928E-02 0. -1.
       -1    1    3    3    0  502  0.63044821206E+03 -0.36408479428E+03 -0.17784410436E+02  0.72824375781E+03  0.50400001928E-02 0.  1.
</event>
<event>
 5   0  0.5840834E-04  0.1497960E+04  0.7818609E-02  0.8885810E-01
       -1   -1    0    0    0  501  0.00000000000E+00  0.00000000000E+00  0.30481071944E+03  0.30481071949E+03  0.50400001928E-02 0. -1.
        1   -1    0    0  501    0  0.00000000000E+00  0.00000000000E+00 -0.18403922955E+04  0.18403922955E+04  0.50400001928E-02 0.  1.
    10030    2    1    2    0    0  0.00000000000E+00  0.00000000000E+00 -0.15355815760E+04  0.21452030150E+04  0.14979603462E+04 0.  0.
        3    1    3    3  502    0 -0.97704259002E+02 -0.73585997175E+03 -0.91053480113E+03  0.11747806836E+04  0.10100000352E+00 0.  1.
       -3    1    3    3    0  502  0.97704259002E+02  0.73585997175E+03 -0.62504677491E+03  0.97042233140E+03  0.10100000352E+00 0. -1.
</event>
<event>
 5   0  0.1082667E-03  0.1503438E+04  0.7818609E-02  0.8882170E-01
       -2   -1    0    0    0  501  0.00000000000E+00  0.00000000000E+00  0.10054259517E+04  0.10054259517E+04  0.25500000920E-02 0. -1.
        2   -1    0    0  501    0  0.00000000000E+00  0.00000000000E+00 -0.56203179663E+03  0.56203179664E+03  0.25500000920E-02 0.  1.
    10030    2    1    2    0    0  0.00000000000E+00  0.00000000000E+00  0.44339415503E+03  0.15674577483E+04  0.15034378657E+04 0.  0.
        5    1    3    3  502    0 -0.24970655051E+03 -0.15178995746E+03 -0.50037357810E+03  0.57947334729E+03  0.46999998093E+01 0.  1.
       -5    1    3    3    0  502  0.24970655051E+03  0.15178995746E+03  0.94376773313E+03  0.98798440102E+03  0.46999998093E+01 0. -1.
</event>
<event>
 5   0  0.1149716E-03  0.1538924E+04  0.7818609E-02  0.8858974E-01
        2   -1    0    0  501    0  0.00000000000E+00  0.00000000000E+00  0.21236895355E+04  0.21236895356E+04  0.25500000920E-02 0. -1.
       -2   -1    0    0    0  501  0.00000000000E+00  0.00000000000E+00 -0.27879401319E+03  0.27879401320E+03  0.25500000920E-02 0.  1.
    10030    2    1    2    0    0  0.00000000000E+00  0.00000000000E+00  0.18448955224E+04  0.24024835487E+04  0.15389242066E+04 0.  0.
        1    1    3    3  502    0  0.70697882880E+03  0.24995053335E+03  0.11918418116E+04  0.14081126508E+04  0.50400001928E-02 0. -1.
       -1    1    3    3    0  502 -0.70697882880E+03 -0.24995053335E+03  0.65305371076E+03  0.99437089793E+03  0.50400001928E-02 0.  1.
</event>
<event>
 5   0  0.5606965E-04  0.1537678E+04  0.7818609E-02  0.8859777E-01
        1   -1    0    0  501    0  0.00000000000E+00  0.00000000000E+00  0.55369492848E+03  0.55369492851E+03  0.50400001928E-02 0.  1.
       -1   -1    0    0    0  501  0.00000000000E+00  0.00000000000E+00 -0.10675801088E+04  0.10675801088E+04  0.50400001928E-02 0. -1.
    10030    2    1    2    0    0  0.00000000000E+00  0.00000000000E+00 -0.51388518033E+03  0.16212750373E+04  0.15376783695E+04 0.  0.
        4    1    3    3  502    0 -0.22323332013E+03 -0.56341810641E+03  0.24189488276E+03  0.65252419500E+03  0.12699999809E+01 0.  1.
       -4    1    3    3    0  502  0.22323332013E+03  0.56341810641E+03 -0.75578006310E+03  0.96875084233E+03  0.12699999809E+01 0. -1.
</event>
<event>
 5   0  0.5840834E-04  0.1498169E+04  0.7818609E-02  0.8885671E-01
       -1   -1    0    0    0  501  0.00000000000E+00  0.00000000000E+00  0.86972652351E+03  0.86972652352E+03  0.50400001928E-02 0.  1.
        1   -1    0    0  501    0  0.00000000000E+00  0.00000000000E+00 -0.64517711693E+03  0.64517711695E+03  0.50400001928E-02 0. -1.
    10030    2    1    2    0    0  0.00000000000E+00  0.00000000000E+00  0.22454940658E+03  0.15149036405E+04  0.14981690839E+04 0.  0.
        3    1    3    3  502    0  0.51604624673E+03 -0.41435093464E+03  0.46710348646E+03  0.81004697584E+03  0.10100000352E+00 0.  1.
       -3    1    3    3    0  502 -0.51604624673E+03  0.41435093464E+03 -0.24255407988E+03  0.70485666463E+03  0.10100000352E+00 0. -1.
</event>
<event>
 5   0  0.1082667E-03  0.1509382E+04  0.7818609E-02  0.8878238E-01
        2   -1    0    0  501    0  0.00000000000E+00  0.00000000000E+00  0.11495517338E+04  0.11495517338E+04  0.25500000920E-02 0.  1.
       -2   -1    0    0    0  501  0.00000000000E+00  0.00000000000E+00 -0.49546133550E+03  0.49546133551E+03  0.25500000920E-02 0. -1.
    10030    2    1    2    0    0  0.00000000000E+00  0.00000000000E+00  0.65409039832E+03  0.16450130693E+04  0.15093819096E+04 0.  0.
        5    1    3    3  502    0 -0.51245979494E+03  0.13308660139E+02  0.93065791713E+03  0.10625151343E+04  0.46999998093E+01 0.  1.
       -5    1    3    3    0  502  0.51245979494E+03 -0.13308660139E+02 -0.27656751882E+03  0.58249793504E+03  0.46999998093E+01 0. -1.
</event>
<event>
 5   0  0.5840834E-04  0.1252498E+04  0.7818609E-02  0.9068106E-01
        1   -1    0    0  501    0  0.00000000000E+00  0.00000000000E+00  0.34481606755E+03  0.34481606759E+03  0.50400001928E-02 0.  1.
       -1   -1    0    0    0  501  0.00000000000E+00  0.00000000000E+00 -0.11373832111E+04  0.11373832111E+04  0.50400001928E-02 0. -1.
    10030    2    1    2    0    0  0.00000000000E+00  0.00000000000E+00 -0.79256714350E+03  0.14821992787E+04  0.12524983132E+04 0.  0.
        3    1    3    3  502    0  0.22484850669E+03 -0.27771513913E+03  0.21233718188E+03  0.41565567297E+03  0.10100000352E+00 0.  1.
       -3    1    3    3    0  502 -0.22484850669E+03  0.27771513913E+03 -0.10049043254E+04  0.10665436057E+04  0.10100000352E+00 0. -1.
</event>
<event>
 5   0  0.5840834E-04  0.1501452E+04  0.7818609E-02  0.8883488E-01
        1   -1    0    0  501    0  0.00000000000E+00  0.00000000000E+00  0.69910644986E+03  0.69910644988E+03  0.50400001928E-02 0.  1.
       -1   -1    0    0    0  501  0.00000000000E+00  0.00000000000E+00 -0.80615647910E+03  0.80615647911E+03  0.50400001928E-02 0. -1.
    10030    2    1    2    0    0  0.00000000000E+00  0.00000000000E+00 -0.10705002924E+03  0.15052629290E+04  0.15014515565E+04 0.  0.
        3    1    3    3  502    0  0.19962096987E+03  0.39513399806E+03 -0.66137242066E+03  0.79585984761E+03  0.10100000352E+00 0. -1.
       -3    1    3    3    0  502 -0.19962096987E+03 -0.39513399806E+03  0.55432239142E+03  0.70940308137E+03  0.10100000352E+00 0.  1.
</event>
<event>
 5   0  0.1147755E-03  0.1516370E+04  0.7818609E-02  0.8873640E-01
       -2   -1    0    0    0  501  0.00000000000E+00  0.00000000000E+00  0.51253236302E+03  0.51253236303E+03  0.25500000920E-02 0.  1.
        2   -1    0    0  501    0  0.00000000000E+00  0.00000000000E+00 -0.11215764889E+04  0.11215764889E+04  0.25500000920E-02 0. -1.
    10030    2    1    2    0    0  0.00000000000E+00  0.00000000000E+00 -0.60904412584E+03  0.16341088519E+04  0.15163696755E+04 0.  0.
        4    1    3    3  502    0 -0.55398570011E+03 -0.13455329927E+03 -0.84317005171E+03  0.10178124067E+04  0.12699999809E+01 0. -1.
       -4    1    3    3    0  502  0.55398570011E+03  0.13455329927E+03  0.23412592587E+03  0.61629644518E+03  0.12699999809E+01 0.  1.
</event>
<event>
 5   0  0.1097156E-03  0.1495664E+04  0.7818609E-02  0.8887342E-01
        2   -1    0    0  501    0  0.00000000000E+00  0.00000000000E+00  0.15993457552E+04  0.15993457552E+04  0.25500000920E-02 0. -1.
       -2   -1    0    0    0  501  0.00000000000E+00  0.00000000000E+00 -0.34967581565E+03  0.34967581566E+03  0.25500000920E-02 0.  1.
    10030    2    1    2    0    0  0.00000000000E+00  0.00000000000E+00  0.12496699396E+04  0.19490215709E+04  0.14956637744E+04 0.  0.
        2    1    3    3  502    0  0.70038721521E+03 -0.24513667269E+03  0.50386062694E+03  0.89694468666E+03  0.25500000920E-02 0.  1.
       -2    1    3    3    0  502 -0.70038721521E+03  0.24513667269E+03  0.74580931265E+03  0.10520768843E+04  0.25500000920E-02 0. -1.
</event>
<event>
 5   0  0.5914645E-04  0.1502010E+04  0.7818609E-02  0.8883117E-01
       -1   -1    0    0    0  501  0.00000000000E+00  0.00000000000E+00  0.23157771764E+03  0.23157771770E+03  0.50400001928E-02 0.  1.
        1   -1    0    0  501    0  0.00000000000E+00  0.00000000000E+00 -0.24355057559E+04  0.24355057559E+04  0.50400001928E-02 0. -1.
    10030    2    1    2    0    0  0.00000000000E+00  0.00000000000E+00 -0.22039280382E+04  0.26670834736E+04  0.15020104718E+04 0.  0.
        2    1    3    3  502    0  0.14536192271E+03 -0.12463226233E+03 -0.23914341922E+04  0.23990874901E+04  0.25500000920E-02 0. -1.
       -2    1    3    3    0  502 -0.14536192271E+03  0.12463226233E+03  0.18750615397E+03  0.26799598350E+03  0.25500000920E-02 0.  1.
</event>
<event>
 5   0  0.1097156E-03  0.1294240E+04  0.7818609E-02  0.9034145E-01
       -2   -1    0    0    0  501  0.00000000000E+00  0.00000000000E+00  0.30262032697E+03  0.30262032698E+03  0.25500000920E-02 0.  1.
        2   -1    0    0  501    0  0.00000000000E+00  0.00000000000E+00 -0.13837944698E+04  0.13837944698E+04  0.25500000920E-02 0. -1.
    10030    2    1    2    0    0  0.00000000000E+00  0.00000000000E+00 -0.10811741428E+04  0.16864147967E+04  0.12942400626E+04 0.  0.
        2    1    3    3  502    0 -0.15073504757E+02 -0.64473361555E+03 -0.47095568463E+03  0.79856615409E+03  0.25500000920E-02 0.  1.
       -2    1    3    3    0  502  0.15073504757E+02  0.64473361555E+03 -0.61021845816E+03  0.88784864265E+03  0.25500000920E-02 0. -1.
</event>
<event>
 5   0  0.5914645E-04  0.1494954E+04  0.7818609E-02  0.8887815E-01
        1   -1    0    0  501    0  0.00000000000E+00  0.00000000000E+00  0.13794855882E+04  0.13794855882E+04  0.50400001928E-02 0.  1.
       -1   -1    0    0    0  501  0.00000000000E+00  0.00000000000E+00 -0.40502211090E+03  0.40502211093E+03  0.50400001928E-02 0. -1.
    10030    2    1    2    0    0  0.00000000000E+00  0.00000000000E+00  0.97446347729E+03  0.17845076991E+04  0.14949544005E+04 0.  0.
        2    1    3    3  502    0  0.38379074939E+03 -0.36933794424E+03 -0.13876158921E+03  0.55041859981E+03  0.25500000920E-02 0. -1.
       -2    1    3    3    0  502 -0.38379074939E+03  0.36933794424E+03  0.11132250665E+04  0.12340890993E+04  0.25500000920E-02 0.  1.
</event>
<event>
 5   0  0.4070625E-04  0.1285166E+04  0.7818609E-02  0.9041412E-01
        3   -1    0    0  501    0  0.00000000000E+00  0.00000000000E+00  0.11529329071E+04  0.11529329115E+04  0.10100000352E+00 0. -1.
       -3   -1    0    0    0  501  0.00000000000E+00  0.00000000000E+00 -0.35814116809E+03  0.35814118233E+03  0.10100000352E+00 0.  1.
    10030    2    1    2    0    0  0.00000000000E+00  0.00000000000E+00  0.79479173897E+03  0.15110740938E+04  0.12851657514E+04 0.  0.
        5    1    3    3  502    0 -0.33560562084E+03 -0.51725191938E+03  0.18474519495E+03  0.64368746912E+03  0.46999998093E+01 0.  1.
       -5    1    3    3    0  502  0.33560562084E+03  0.51725191938E+03  0.61004654402E+03  0.86738662470E+03  0.46999998093E+01 0. -1.
</event>
<event>
 5   0  0.5924403E-04  0.1466842E+04  0.7818609E-02  0.8906807E-01
        1   -1    0    0  501    0  0.00000000000E+00  0.00000000000E+00  0.10228871326E+04  0.10228871326E+04  0.50400001928E-02 0.  1.
       -1   -1    0    0    0  501  0.00000000000E+00  0.00000000000E+00 -0.52587076065E+03  0.52587076067E+03  0.50400001928E-02 0. -1.
    10030    2    1    2    0    0  0.00000000000E+00  0.00000000000E+00  0.49701637193E+03  0.15487578933E+04  0.14668420972E+04 0.  0.
        1    1    3    3  502    0 -0.48588544869E+03  0.33786395318E+03 -0.20889297640E+03  0.62759301758E+03  0.50400001928E-02 0. -1.
       -1    1    3    3    0  502  0.48588544869E+03 -0.33786395318E+03  0.70590934833E+03  0.92116487568E+03  0.50400001928E-02 0.  1.
</event>
<event>
 5   0  0.1097156E-03  0.1531891E+04  0.7818609E-02  0.8863518E-01
       -2   -1    0    0    0  501  0.00000000000E+00  0.00000000000E+00  0.60431885707E+03  0.60431885707E+03  0.25500000920E-02 0.  1.
        2   -1    0    0  501    0  0.00000000000E+00  0.00000000000E+00 -0.97079954117E+03  0.97079954118E+03  0.25500000920E-02 0. -1.
    10030    2    1    2    0    0  0.00000000000E+00  0.00000000000E+00 -0.36648068411E+03  0.15751183982E+04  0.15318909480E+04 0.  0.
        2    1    3    3  502    0  0.38112302057E+02 -0.59294815111E+03 -0.68023520573E+03  0.90319432715E+03  0.25500000920E-02 0. -1.
       -2    1    3    3    0  502 -0.38112302057E+02  0.59294815111E+03  0.31375452163E+03  0.67192407110E+03  0.25500000920E-02 0.  1.
</event>
<event>
 5   0  0.1147755E-03  0.1496079E+04  0.7818609E-02  0.8887064E-01
        2   -1    0    0  501    0  0.00000000000E+00  0.00000000000E+00  0.12271441153E+04  0.12271441153E+04  0.25500000920E-02 0.  1.
       -2   -1    0    0    0  501  0.00000000000E+00  0.00000000000E+00 -0.45598834526E+03  0.45598834526E+03  0.25500000920E-02 0. -1.
    10030    2    1    2    0    0  0.00000000000E+00  0.00000000000E+00  0.77115577009E+03  0.16831324606E+04  0.14960794291E+04 0.  0.
        4    1    3    3  502    0  0.71117461609E+02  0.94901847611E+02  0.12164996314E+04  0.12222671639E+04  0.12699999809E+01 0.  1.
       -4    1    3    3    0  502 -0.71117461609E+02 -0.94901847611E+02 -0.44534386126E+03  0.46086529669E+03  0.12699999809E+01 0. -1.
</event>
<event>
 5   0  0.1149716E-03  0.1530802E+04  0.7818609E-02  0.8864225E-01
       -2   -1    0    0    0  501  0.00000000000E+00  0.00000000000E+00  0.78742117665E+03  0.78742117665E+03  0.25500000920E-02 0.  1.
        2   -1    0    0  501    0  0.00000000000E+00  0.00000000000E+00 -0.74399633601E+03  0.74399633602E+03  0.25500000920E-02 0. -1.
    10030    2    1    2    0    0  0.00000000000E+00  0.00000000000E+00  0.43424840637E+02  0.15314175127E+04  0.15308017120E+04 0.  0.
        1    1    3    3  502    0 -0.26615326031E+03 -0.47038598871E+03  0.56390639610E+03  0.78108319655E+03  0.50400001928E-02 0.  1.
       -1    1    3    3    0  502  0.26615326031E+03  0.47038598871E+03 -0.52048155546E+03  0.75033431612E+03  0.50400001928E-02 0. -1.
</event>
<event>
 5   0  0.1149716E-03  0.1502426E+04  0.7818609E-02  0.8882842E-01
       -2   -1    0    0    0  501  0.00000000000E+00  0.00000000000E+00  0.78761474780E+03  0.78761474780E+03  0.25500000920E-02 0.  1.
        2   -1    0    0  501    0  0.00000000000E+00  0.00000000000E+00 -0.71649320471E+03  0.71649320471E+03  0.25500000920E-02 0. -1.
    10030    2    1    2    0    0  0.00000000000E+00  0.00000000000E+00  0.71121543090E+02  0.15041079525E+04  0.15024255252E+04 0.  0.
        1    1    3    3  502    0 -0.35975972378E+03  0.65191626522E+03  0.13516459062E+03  0.75676372950E+03  0.50400001928E-02 0.  1.
       -1    1    3    3    0  502  0.35975972378E+03 -0.65191626522E+03 -0.64043047531E+02  0.74734422301E+03  0.50400001928E-02 0. -1.
</event>
<event>
 5   0  0.5914645E-04  0.1526880E+04  0.7818609E-02  0.8866772E-01
       -1   -1    0    0    0  501  0.00000000000E+00  0.00000000000E+00  0.60430647147E+03  0.60430647150E+03  0.50400001928E-02 0. -1.
        1   -1    0    0  501    0  0.00000000000E+00  0.00000000000E+00 -0.96447805325E+03  0.96447805326E+03  0.50400001928E-02 0.  1.
    10030    2    1    2    0    0  0.00000000000E+00  0.00000000000E+00 -0.36017158178E+03  0.15687845248E+04  0.15268796013E+04 0.  0.
        2    1    3    3  502    0  0.73773895439E+03  0.14700268146E+03 -0.46234627834E+02  0.75366185654E+03  0.25500000920E-02 0. -1.
       -2    1    3    3    0  502 -0.73773895439E+03 -0.14700268146E+03 -0.31393695394E+03  0.81512266822E+03  0.25500000920E-02 0.  1.
</event>
<event>
 5   0  0.5914645E-04  0.1497757E+04  0.7818609E-02  0.8885946E-01
       -1   -1    0    0    0  501  0.00000000000E+00  0.00000000000E+00  0.40221455146E+03  0.40221455149E+03  0.50400001928E-02 0. -1.
        1   -1    0    0  501    0  0.00000000000E+00  0.00000000000E+00 -0.13943274525E+04  0.13943274525E+04  0.50400001928E-02 0.  1.
    10030    2    1    2    0    0  0.00000000000E+00  0.00000000000E+00 -0.99211290105E+03  0.17965420040E+04  0.14977567105E+04 0.  0.
        2    1    3    3  502    0  0.63389958206E+03  0.28781238954E+03 -0.16504512115E+03  0.71547504759E+03  0.25500000920E-02 0. -1.
       -2    1    3    3    0  502 -0.63389958206E+03 -0.28781238954E+03 -0.82706777990E+03  0.10810669564E+04  0.25500000920E-02 0.  1.
</event>
<event>
 5   0  0.1149716E-03  0.1508507E+04  0.7818609E-02  0.8878816E-01
       -2   -1    0    0    0  501  0.00000000000E+00  0.00000000000E+00  0.28024804370E+03  0.28024804371E+03  0.25500000920E-02 0. -1.
        2   -1    0    0  501    0  0.00000000000E+00  0.00000000000E+00 -0.20299806469E+04  0.20299806469E+04  0.25500000920E-02 0.  1.
    10030    2    1    2    0    0  0.00000000000E+00  0.00000000000E+00 -0.17497326032E+04  0.23102286906E+04  0.15085066855E+04 0.  0.
        1    1    3    3  502    0 -0.38613924535E+03  0.56885736056E+03 -0.39987462894E+03  0.79536276777E+03  0.50400001928E-02 0. -1.
       -1    1    3    3    0  502  0.38613924535E+03 -0.56885736056E+03 -0.13498579743E+04  0.15148659228E+04  0.50400001928E-02 0.  1.
</event>
<event>
 5   0  0.1082667E-03  0.1475738E+04  0.7818609E-02  0.8900749E-01
        2   -1    0    0  501    0  0.00000000000E+00  0.00000000000E+00  0.82731690501E+03  0.82731690501E+03  0.25500000920E-02 0. -1.
       -2   -1    0    0    0  501  0.00000000000E+00  0.00000000000E+00 -0.65809187424E+03  0.65809187424E+03  0.25500000920E-02 0.  1.
    10030    2    1    2    0    0  0.00000000000E+00  0.00000000000E+00  0.16922503077E+03  0.14854087793E+04  0.14757378258E+04 0.  0.
        5    1    3    3  502    0  0.52866338178E+02  0.73432171584E+03  0.35248176301E+02  0.73708056276E+03  0.46999998093E+01 0.  1.
       -5    1    3    3    0  502 -0.52866338178E+02 -0.73432171584E+03  0.13397685447E+03  0.74832821649E+03  0.46999998093E+01 0. -1.
</event>
<event>
 5   0  0.1147755E-03  0.1499944E+04  0.7818609E-02  0.8884490E-01
        2   -1    0    0  501    0  0.00000000000E+00  0.00000000000E+00  0.95448010197E+03  0.95448010197E+03  0.25500000920E-02 0.  1.
       -2   -1    0    0    0  501  0.00000000000E+00  0.00000000000E+00 -0.58928182102E+03  0.58928182103E+03  0.25500000920E-02 0. -1.
    10030    2    1    2    0    0  0.00000000000E+00  0.00000000000E+00  0.36519828095E+03  0.15437619230E+04  0.14999436958E+04 0.  0.
        4    1    3    3  502    0  0.21644975422E+03 -0.69845652337E+03  0.11105686321E+02  0.73131180785E+03  0.12699999809E+01 0. -1.
       -4    1    3    3    0  502 -0.21644975422E+03  0.69845652337E+03  0.35409259462E+03  0.81245011515E+03  0.12699999809E+01 0.  1.
</event>
<event>
 5   0  0.5924403E-04  0.1454455E+04  0.7818609E-02  0.8915318E-01
       -1   -1    0    0    0  501  0.00000000000E+00  0.00000000000E+00  0.68522640474E+03  0.68522640476E+03  0.50400001928E-02 0. -1.
        1   -1    0    0  501    0  0.00000000000E+00  0.00000000000E+00 -0.77180253831E+03  0.77180253832E+03  0.50400001928E-02 0.  1.
    10030    2    1    2    0    0  0.00000000000E+00  0.00000000000E+00 -0.86576133565E+02  0.14570289431E+04  0.14544545074E+04 0.  0.
        1    1    3    3  502    0 -0.15218835339E+03 -0.19347924670E+03  0.64222131986E+03  0.68778175137E+03  0.50400001928E-02 0. -1.
       -1    1    3    3    0  502  0.15218835339E+03  0.19347924670E+03 -0.72879745342E+03  0.76924719171E+03  0.50400001928E-02 0.  1.
</event>
<event>
 5   0  0.1126175E-03  0.1509147E+04  0.7818609E-02  0.8878393E-01
       -2   -1    0    0    0  501  0.00000000000E+00  0.00000000000E+00  0.38777120488E+03  0.38777120489E+03  0.25500000920E-02 0. -1.
        2   -1    0    0  501    0  0.00000000000E+00  0.00000000000E+00 -0.14683428631E+04  0.14683428631E+04  0.25500000920E-02 0.  1.
    10030    2    1    2    0    0  0.00000000000E+00  0.00000000000E+00 -0.10805716582E+04  0.18561140680E+04  0.15091468864E+04 0.  0.
        3    1    3    3  502    0  0.38389876842E+03  0.13058346477E+03  0.24237619618E+03  0.47241563939E+03  0.10100000352E+00 0. -1.
       -3    1    3    3    0  502 -0.38389876842E+03 -0.13058346477E+03 -0.13229478544E+04  0.13836984286E+04  0.10100000352E+00 0.  1.
</event>
<event>
 5   0  0.1149716E-03  0.1480714E+04  0.7818609E-02  0.8897380E-01
        2   -1    0    0  501    0  0.00000000000E+00  0.00000000000E+00  0.14020220408E+04  0.14020220408E+04  0.25500000920E-02 0.  1.
       -2   -1    0    0    0  501  0.00000000000E+00  0.00000000000E+00 -0.39095565718E+03  0.39095565719E+03  0.25500000920E-02 0. -1.
    10030    2    1    2    0    0  0.00000000000E+00  0.00000000000E+00  0.10110663836E+04  0.17929776980E+04  0.14807139472E+04 0.  0.
        1    1    3    3  502    0 -0.73600167386E+03 -0.79912736434E+02  0.51355973722E+03  0.90101504598E+03  0.50400001928E-02 0.  1.
       -1    1    3    3    0  502  0.73600167386E+03  0.79912736434E+02  0.49750664642E+03  0.89196265203E+03  0.50400001928E-02 0. -1.
</event>
<event>
 5   0  0.5606965E-04  0.1477406E+04  0.7818609E-02  0.8899618E-01
       -1   -1    0    0    0  501  0.00000000000E+00  0.00000000000E+00  0.41353365476E+03  0.41353365479E+03  0.50400001928E-02 0.  1.
        1   -1    0    0  501    0  0.00000000000E+00  0.00000000000E+00 -0.13195588055E+04  0.13195588055E+04  0.50400001928E-02 0. -1.
    10030    2    1    2    0    0  0.00000000000E+00  0.00000000000E+00 -0.90602515078E+03  0.17330924603E+04  0.14774058015E+04 0.  0.
        4    1    3    3  502    0  0.46316919972E+03  0.17745299009E+02  0.22171860651E+03  0.51381062326E+03  0.12699999809E+01 0.  1.
       -4    1    3    3    0  502 -0.46316919972E+03 -0.17745299009E+02 -0.11277437573E+04  0.12192818371E+04  0.12699999809E+01 0. -1.
</event>
<event>
 5   0  0.1126175E-03  0.1535323E+04  0.7818609E-02  0.8861298E-01
        2   -1    0    0  501    0  0.00000000000E+00  0.00000000000E+00  0.13532240939E+04  0.13532240939E+04  0.25500000920E-02 0.  1.
       -2   -1    0    0    0  501  0.00000000000E+00  0.00000000000E+00 -0.43548146473E+03  0.43548146474E+03  0.25500000920E-02 0. -1.
    10030    2    1    2    0    0  0.00000000000E+00  0.00000000000E+00  0.91774262919E+03  0.17887055587E+04  0.15353227811E+04 0.  0.
        3    1    3    3  502    0 -0.24019454798E+03  0.52111743418E+03  0.10529791129E+04  0.11991754765E+04  0.10100000352E+00 0.  1.
       -3    1    3    3    0  502  0.24019454798E+03 -0.52111743418E+03 -0.13523648366E+03  0.58953008219E+03  0.10100000352E+00 0. -1.
</event>
<event>
 5   0  0.1149716E-03  0.1501252E+04  0.7818609E-02  0.8883621E-01
       -2   -1    0    0    0  501  0.00000000000E+00  0.00000000000E+00  0.32128360017E+03  0.32128360018E+03  0.25500000920E-02 0. -1.
        2   -1    0    0  501    0  0.00000000000E+00  0.00000000000E+00 -0.17537143638E+04  0.17537143638E+04  0.25500000920E-02 0.  1.
    10030    2    1    2    0    0  0.00000000000E+00  0.00000000000E+00 -0.14324307637E+04  0.20749979640E+04  0.15012523632E+04 0.  0.
        1    1    3    3  502    0  0.50444753055E+03 -0.26360544085E+03 -0.39816784159E+02  0.57056157937E+03  0.50400001928E-02 0. -1.
       -1    1    3    3    0  502 -0.50444753055E+03  0.26360544085E+03 -0.13926139795E+04  0.15044363847E+04  0.50400001928E-02 0.  1.
</event>
<event>
 5   0  0.5914645E-04  0.1535271E+04  0.7818609E-02  0.8861331E-01
        1   -1    0    0  501    0  0.00000000000E+00  0.00000000000E+00  0.51661177073E+03  0.51661177076E+03  0.50400001928E-02 0.  1.
       -1   -1    0    0    0  501  0.00000000000E+00  0.00000000000E+00 -0.11406333953E+04  0.11406333953E+04  0.50400001928E-02 0. -1.
    10030    2    1    2    0    0  0.00000000000E+00  0.00000000000E+00 -0.62402162453E+03  0.16572451660E+04  0.15352714914E+04 0.  0.
        2    1    3    3  502    0  0.97277987033E+02 -0.63032734901E+03 -0.77313722386E+03  0.10022558259E+04  0.25500000920E-02 0. -1.
       -2    1    3    3    0  502 -0.97277987033E+02  0.63032734901E+03  0.14911559933E+03  0.65498934010E+03  0.25500000920E-02 0.  1.
</event>
<event>
 5   0  0.1082667E-03  0.1448915E+04  0.7818609E-02  0.8919153E-01
        2   -1    0    0  501    0  0.00000000000E+00  0.00000000000E+00  0.60082381443E+03  0.60082381444E+03  0.25500000920E-02 0.  1.
       -2   -1    0    0    0  501  0.00000000000E+00  0.00000000000E+00 -0.87353188969E+03  0.87353188969E+03  0.25500000920E-02 0. -1.
    10030    2    1    2    0    0  0.00000000000E+00  0.00000000000E+00 -0.27270807526E+03  0.14743557041E+04  0.14489151279E+04 0.  0.
        5    1    3    3  502    0  0.54842458424E+03 -0.17616496934E+03  0.31069242768E+03  0.65448872842E+03  0.46999998093E+01 0.  1.
       -5    1    3    3    0  502 -0.54842458424E+03  0.17616496934E+03 -0.58340050294E+03  0.81986697570E+03  0.46999998093E+01 0. -1.
</event>
<event>
 5   0  0.5924403E-04  0.1477730E+04  0.7818609E-02  0.8899399E-01
        1   -1    0    0  501    0  0.00000000000E+00  0.00000000000E+00  0.13308826605E+04  0.13308826605E+04  0.50400001928E-02 0. -1.
       -1   -1    0    0    0  501  0.00000000000E+00  0.00000000000E+00 -0.41019483920E+03  0.41019483923E+03  0.50400001928E-02 0.  1.
    10030    2    1    2    0    0  0.00000000000E+00  0.00000000000E+00  0.92068782129E+03  0.17410774997E+04  0.14777296085E+04 0.  0.
        1    1    3    3  502    0 -0.24519628148E+03  0.42727350060E+03  0.11091493255E+04  0.12136293038E+04  0.50400001928E-02 0. -1.
       -1    1    3    3    0  502  0.24519628148E+03 -0.42727350060E+03 -0.18846150424E+03  0.52744819591E+03  0.50400001928E-02 0.  1.
</event>
<event>
 5   0  0.1126175E-03  0.1472537E+04  0.7818609E-02  0.8902924E-01
       -2   -1    0    0    0  501  0.00000000000E+00  0.00000000000E+00  0.59853530381E+03  0.59853530382E+03  0.25500000920E-02 0. -1.
        2   -1    0    0  501    0  0.00000000000E+00  0.00000000000E+00 -0.90569612475E+03  0.90569612475E+03  0.25500000920E-02 0.  1.
    10030    2    1    2    0    0  0.00000000000E+00  0.00000000000E+00 -0.30716082093E+03  0.15042314286E+04  0.14725367299E+04 0.  0.
        3    1    3    3  502    0 -0.12089559600E+03  0.54318802801E+03 -0.64605887884E+03  0.85267875782E+03  0.10100000352E+00 0.  1.
       -3    1    3    3    0  502  0.12089559600E+03 -0.54318802801E+03  0.33889805791E+03  0.65155267075E+03  0.10100000352E+00 0. -1.
</event>
<event>
 5   0  0.1097156E-03  0.1511112E+04  0.7818609E-02  0.8877097E-01
        2   -1    0    0  501    0  0.00000000000E+00  0.00000000000E+00  0.39771698249E+03  0.39771698250E+03  0.25500000920E-02 0. -1.
       -2   -1    0    0    0  501  0.00000000000E+00  0.00000000000E+00 -0.14353552152E+04  0.14353552152E+04  0.25500000920E-02 0.  1.
    10030    2    1    2    0    0  0.00000000000E+00  0.00000000000E+00 -0.10376382327E+04  0.18330721977E+04  0.15111123651E+04 0.  0.
        2    1    3    3  502    0  0.54069264644E+03  0.44263291125E+03 -0.17019800980E+03  0.71919385049E+03  0.25500000920E-02 0.  1.
       -2    1    3    3    0  502 -0.54069264644E+03 -0.44263291125E+03 -0.86744022286E+03  0.11138783472E+04  0.25500000920E-02 0. -1.
</event>
<event>
 5   0  0.4070625E-04  0.1525082E+04  0.7818609E-02  0.8867943E-01
        3   -1    0    0  501    0  0.00000000000E+00  0.00000000000E+00  0.78386102412E+03  0.78386103063E+03  0.10100000352E+00 0. -1.
       -3   -1    0    0    0  501  0.00000000000E+00  0.00000000000E+00 -0.74180060982E+03  0.74180061670E+03  0.10100000352E+00 0.  1.
    10030    2    1    2    0    0  0.00000000000E+00  0.00000000000E+00  0.42060414297E+02  0.15256616473E+04  0.15250817629E+04 0.  0.
        2    1    3    3  502    0 -0.75765131618E+03 -0.18389571659E+02 -0.63233065419E+02  0.76050779997E+03  0.25500000920E-02 0. -1.
       -2    1    3    3    0  502  0.75765131618E+03  0.18389571659E+02  0.10529347972E+03  0.76515384736E+03  0.25500000920E-02 0.  1.
</event>
<event>
 5   0  0.5840834E-04  0.1510393E+04  0.7818609E-02  0.8877571E-01
       -1   -1    0    0    0  501  0.00000000000E+00  0.00000000000E+00  0.39310039968E+03  0.39310039971E+03  0.50400001928E-02 0. -1.
        1   -1    0    0  501    0  0.00000000000E+00  0.00000000000E+00 -0.14508297591E+04  0.14508297591E+04  0.50400001928E-02 0.  1.
    10030    2    1    2    0    0  0.00000000000E+00  0.00000000000E+00 -0.10577293594E+04  0.18439301588E+04  0.15103930061E+04 0.  0.
        3    1    3    3  502    0  0.57126841312E+02  0.25564204201E+03  0.33586207707E+03  0.42593388531E+03  0.10100000352E+00 0. -1.
       -3    1    3    3    0  502 -0.57126841312E+02 -0.25564204201E+03 -0.13935914365E+04  0.14179962735E+04  0.10100000352E+00 0.  1.
</event>
<event>
 5   0  0.1126175E-03  0.1497367E+04  0.7818609E-02  0.8886206E-01
       -2   -1    0    0    0  501  0.00000000000E+00  0.00000000000E+00  0.54072416205E+03  0.54072416206E+03  0.25500000920E-02 0. -1.
        2   -1    0    0  501    0  0.00000000000E+00  0.00000000000E+00 -0.10366230340E+04  0.10366230340E+04  0.25500000920E-02 0.  1.
    10030    2    1    2    0    0  0.00000000000E+00  0.00000000000E+00 -0.49589887195E+03  0.15773471961E+04  0.14973671847E+04 0.  0.
        3    1    3    3  502    0 -0.13414017271E+03  0.64273388428E+03  0.13102585164E+03  0.66952835335E+03  0.10100000352E+00 0. -1.
       -3    1    3    3    0  502  0.13414017271E+03 -0.64273388428E+03 -0.62692472359E+03  0.90781884272E+03  0.10100000352E+00 0.  1.
</event>
<event>
 5   0  0.1082667E-03  0.1499146E+04  0.7818609E-02  0.8885021E-01
        2   -1    0    0  501    0  0.00000000000E+00  0.00000000000E+00  0.74177398944E+03  0.74177398945E+03  0.25500000920E-02 0.  1.
       -2   -1    0    0    0  501  0.00000000000E+00  0.00000000000E+00 -0.75745372693E+03  0.75745372694E+03  0.25500000920E-02 0. -1.
    10030    2    1    2    0    0  0.00000000000E+00  0.00000000000E+00 -0.15679737492E+02  0.14992277164E+04  0.14991457205E+04 0.  0.
        5    1    3    3  502    0  0.71540251451E+03  0.10765237031E+03  0.18825143182E+03  0.74756302890E+03  0.46999998093E+01 0.  1.
       -5    1    3    3    0  502 -0.71540251451E+03 -0.10765237031E+03 -0.20393116931E+03  0.75166468748E+03  0.46999998093E+01 0. -1.
</event>
<event>
 5   0  0.4070625E-04  0.1480311E+04  0.7818609E-02  0.8897652E-01
        3   -1    0    0  501    0  0.00000000000E+00  0.00000000000E+00  0.17390844652E+04  0.17390844681E+04  0.10100000352E+00 0.  1.
       -3   -1    0    0    0  501  0.00000000000E+00  0.00000000000E+00 -0.31501081380E+03  0.31501082999E+03  0.10100000352E+00 0. -1.
    10030    2    1    2    0    0  0.00000000000E+00  0.00000000000E+00  0.14240736514E+04  0.20540952981E+04  0.14803113622E+04 0.  0.
        2    1    3    3  502    0  0.64846312788E+03 -0.27884479022E+03  0.40308986484E+03  0.81285932633E+03  0.25500000920E-02 0.  1.
       -2    1    3    3    0  502 -0.64846312788E+03  0.27884479022E+03  0.10209837865E+04  0.12412359718E+04  0.25500000920E-02 0. -1.
</event>
<event>
 5   0  0.1149716E-03  0.1503530E+04  0.7818609E-02  0.8882109E-01
        2   -1    0    0  501    0  0.00000000000E+00  0.00000000000E+00  0.10454009953E+04  0.10454009953E+04  0.25500000920E-02 0. -1.
       -2   -1    0    0    0  501  0.00000000000E+00  0.00000000000E+00 -0.54060636325E+03  0.54060636325E+03  0.25500000920E-02 0.  1.
    10030    2    1    2    0    0  0.00000000000E+00  0.00000000000E+00  0.50479463205E+03  0.15860073585E+04  0.15035297539E+04 0.  0.
        1    1    3    3  502    0 -0.22823789138E+03  0.50266529555E+03 -0.28587440691E+03  0.62168248404E+03  0.50400001928E-02 0.  1.
       -1    1    3    3    0  502  0.22823789138E+03 -0.50266529555E+03  0.79066903895E+03  0.96432487451E+03  0.50400001928E-02 0. -1.
</event>
<event>
 5   0  0.5924403E-04  0.1506648E+04  0.7818609E-02  0.8880044E-01
        1   -1    0    0  501    0  0.00000000000E+00  0.00000000000E+00  0.69483425276E+03  0.69483425277E+03  0.50400001928E-02 0. -1.
       -1   -1    0    0    0  501  0.00000000000E+00  0.00000000000E+00 -0.81673710127E+03  0.81673710129E+03  0.50400001928E-02 0.  1.
    10030    2    1    2    0    0  0.00000000000E+00  0.00000000000E+00 -0.12190284851E+03  0.15115713541E+04  0.15066478201E+04 0.  0.
        1    1    3    3  502    0 -0.13577877633E+03 -0.39465317346E+03 -0.69014510188E+03  0.80652790720E+03  0.50400001928E-02 0.  1.
       -1    1    3    3    0  502  0.13577877633E+03  0.39465317346E+03  0.56824225337E+03  0.70504344686E+03  0.50400001928E-02 0. -1.
</event>
<event>
 5   0  0.1126175E-03  0.1509783E+04  0.7818609E-02  0.8877974E-01
        2   -1    0    0  501    0  0.00000000000E+00  0.00000000000E+00  0.96134968040E+03  0.96134968040E+03  0.25500000920E-02 0.  1.
       -2   -1    0    0    0  501  0.00000000000E+00  0.00000000000E+00 -0.59277168636E+03  0.59277168637E+03  0.25500000920E-02 0. -1.
    10030    2    1    2    0    0  0.00000000000E+00  0.00000000000E+00  0.36857799403E+03  0.15541213668E+04  0.15097825953E+04 0.  0.
        3    1    3    3  502    0 -0.13007251610E+03 -0.36476159193E+03  0.85130889691E+03  0.93525222617E+03  0.10100000352E+00 0.  1.
       -3    1    3    3    0  502  0.13007251610E+03  0.36476159193E+03 -0.48273090288E+03  0.61886914060E+03  0.10100000352E+00 0. -1.
</event>
<event>
 5   0  0.1147755E-03  0.1479845E+04  0.7818609E-02  0.8897968E-01
       -2   -1    0    0    0  501  0.00000000000E+00  0.00000000000E+00  0.45580695782E+03  0.45580695782E+03  0.25500000920E-02 0. -1.
        2   -1    0    0  501    0  0.00000000000E+00  0.00000000000E+00 -0.12011334589E+04  0.12011334589E+04  0.25500000920E-02 0.  1.
    10030    2    1    2    0    0  0.00000000000E+00  0.00000000000E+00 -0.74532650112E+03  0.16569404168E+04  0.14798445700E+04 0.  0.
        4    1    3    3  502    0 -0.55325673415E+03 -0.45694344937E+03 -0.57480371420E+03  0.91939722240E+03  0.12699999809E+01 0.  1.
       -4    1    3    3    0  502  0.55325673415E+03  0.45694344937E+03 -0.17052278692E+03  0.73754319436E+03  0.12699999809E+01 0. -1.
</event>
<event>
 5   0  0.1097156E-03  0.1467563E+04  0.7818609E-02  0.8906314E-01
       -2   -1    0    0    0  501  0.00000000000E+00  0.00000000000E+00  0.58676624146E+03  0.58676624147E+03  0.25500000920E-02 0. -1.
        2   -1    0    0  501    0  0.00000000000E+00  0.00000000000E+00 -0.91763141646E+03  0.91763141646E+03  0.25500000920E-02 0.  1.
    10030    2    1    2    0    0  0.00000000000E+00  0.00000000000E+00 -0.33086517500E+03  0.15043976579E+04  0.14675627922E+04 0.  0.
        2    1    3    3  502    0  0.37623491804E+03  0.29819961225E+03  0.40343697747E+03  0.62708621185E+03  0.25500000920E-02 0. -1.
       -2    1    3    3    0  502 -0.37623491804E+03 -0.29819961225E+03 -0.73430215247E+03  0.87731144608E+03  0.25500000920E-02 0.  1.
</event>
<event>
 5   0  0.1097156E-03  0.1482324E+04  0.7818609E-02  0.8896293E-01
       -2   -1    0    0    0  501  0.00000000000E+00  0.00000000000E+00  0.63999100885E+03  0.63999100886E+03  0.25500000920E-02 0. -1.
        2   -1    0    0  501    0  0.00000000000E+00  0.00000000000E+00 -0.85832615203E+03  0.85832615203E+03  0.25500000920E-02 0.  1.
    10030    2    1    2    0    0  0.00000000000E+00  0.00000000000E+00 -0.21833514318E+03  0.14983171609E+04  0.14823238782E+04 0.  0.
        2    1    3    3  502    0 -0.30149727534E+03  0.42333787221E+03  0.42493245763E+03  0.67132939355E+03  0.25500000920E-02 0. -1.
       -2    1    3    3    0  502  0.30149727534E+03 -0.42333787221E+03 -0.64326760081E+03  0.82698776735E+03  0.25500000920E-02 0.  1.
</event>
<event>
 5   0  0.1149716E-03  0.1523880E+04  0.7818609E-02  0.8868727E-01
       -2   -1    0    0    0  501  0.00000000000E+00  0.00000000000E+00  0.28300087863E+03  0.28300087864E+03  0.25500000920E-02 0. -1.
        2   -1    0    0  501    0  0.00000000000E+00  0.00000000000E+00 -0.20514152697E+04  0.20514152697E+04  0.25500000920E-02 0.  1.
    10030    2    1    2    0    0  0.00000000000E+00  0.00000000000E+00 -0.17684143910E+04  0.23344161483E+04  0.15238796852E+04 0.  0.
        1    1    3    3  502    0 -0.61653709337E+03 -0.25302982586E+03 -0.14499917551E+04  0.15958126990E+04  0.50400001928E-02 0. -1.
       -1    1    3    3    0  502  0.61653709337E+03  0.25302982586E+03 -0.31842263590E+03  0.73860344933E+03  0.50400001928E-02 0.  1.
</event>
<event>
 5   0  0.4070625E-04  0.1500662E+04  0.7818609E-02  0.8884013E-01
        3   -1    0    0  501    0  0.00000000000E+00  0.00000000000E+00  0.80044865220E+03  0.80044865857E+03  0.10100000352E+00 0. -1.
       -3   -1    0    0    0  501  0.00000000000E+00  0.00000000000E+00 -0.70335118044E+03  0.70335118769E+03  0.10100000352E+00 0.  1.
    10030    2    1    2    0    0  0.00000000000E+00  0.00000000000E+00  0.97097471756E+02  0.15037998463E+04  0.15006618735E+04 0.  0.
        2    1    3    3  502    0 -0.39164185091E+03  0.49243042859E+03 -0.36111590431E+03  0.72544866306E+03  0.25500000920E-02 0.  1.
       -2    1    3    3    0  502  0.39164185091E+03 -0.49243042859E+03  0.45821337606E+03  0.77835118320E+03  0.25500000920E-02 0. -1.
</event>
<event>
 5   0  0.5924403E-04  0.1544996E+04  0.7818609E-02  0.8855070E-01
       -1   -1    0    0    0  501  0.00000000000E+00  0.00000000000E+00  0.10733196055E+04  0.10733196055E+04  0.50400001928E-02 0. -1.
        1   -1    0    0  501    0  0.00000000000E+00  0.00000000000E+00 -0.55598858507E+03  0.55598858509E+03  0.50400001928E-02 0.  1.
    10030    2    1    2    0    0  0.00000000000E+00  0.00000000000E+00  0.51733102045E+03  0.16293081906E+04  0.15449963739E+04 0.  0.
        1    1    3    3  502    0 -0.30006780319E+03 -0.36132308552E+03  0.90545231745E+03  0.10200190968E+04  0.50400001928E-02 0. -1.
       -1    1    3    3    0  502  0.30006780319E+03  0.36132308552E+03 -0.38812129700E+03  0.60928909382E+03  0.50400001928E-02 0.  1.
</event>
<event>
 5   0  0.1149716E-03  0.1535811E+04  0.7818609E-02  0.8860982E-01
       -2   -1    0    0    0  501  0.00000000000E+00  0.00000000000E+00  0.49175656844E+03  0.49175656845E+03  0.25500000920E-02 0.  1.
        2   -1    0    0  501    0  0.00000000000E+00  0.00000000000E+00 -0.11991268199E+04  0.11991268199E+04  0.25500000920E-02 0. -1.
    10030    2    1    2    0    0  0.00000000000E+00  0.00000000000E+00 -0.70737025144E+03  0.16908833883E+04  0.15358105223E+04 0.  0.
        1    1    3    3  502    0  0.35569929932E+03 -0.88469594812E+02 -0.10965998649E+04  0.11562353240E+04  0.50400001928E-02 0. -1.
       -1    1    3    3    0  502 -0.35569929932E+03  0.88469594812E+02  0.38922961342E+03  0.53464806437E+03  0.50400001928E-02 0.  1.
</event>
<event>
 5   0  0.5914645E-04  0.1371682E+04  0.7818609E-02  0.8974575E-01
       -1   -1    0    0    0  501  0.00000000000E+00  0.00000000000E+00  0.39669921761E+03  0.39669921764E+03  0.50400001928E-02 0. -1.
        1   -1    0    0  501    0  0.00000000000E+00  0.00000000000E+00 -0.11857295355E+04  0.11857295355E+04  0.50400001928E-02 0.  1.
    10030    2    1    2    0    0  0.00000000000E+00  0.00000000000E+00 -0.78903031784E+03  0.15824287531E+04  0.13716821484E+04 0.  0.
        2    1    3    3  502    0 -0.19468623457E+03  0.64746163535E+03 -0.52740278308E+03  0.85747477793E+03  0.25500000920E-02 0.  1.
       -2    1    3    3    0  502  0.19468623457E+03 -0.64746163535E+03 -0.26162753477E+03  0.72495397518E+03  0.25500000920E-02 0. -1.
</event>
<event>
 5   0  0.5840834E-04  0.1502657E+04  0.7818609E-02  0.8882688E-01
        1   -1    0    0  501    0  0.00000000000E+00  0.00000000000E+00  0.13951563731E+04  0.13951563731E+04  0.50400001928E-02 0. -1.
       -1   -1    0    0    0  501  0.00000000000E+00  0.00000000000E+00 -0.40461000303E+03  0.40461000306E+03  0.50400001928E-02 0.  1.
    10030    2    1    2    0    0  0.00000000000E+00  0.00000000000E+00  0.99054637008E+03  0.17997663762E+04  0.15026566133E+04 0.  0.
        3    1    3    3  502    0  0.73255758895E+03 -0.16133750561E+03  0.54642314186E+03  0.92803484417E+03  0.10100000352E+00 0. -1.
       -3    1    3    3    0  502 -0.73255758895E+03  0.16133750561E+03  0.44412322822E+03  0.87173153200E+03  0.10100000352E+00 0.  1.
</event>
<event>
 5   0  0.5606965E-04  0.1454423E+04  0.7818609E-02  0.8915340E-01
        1   -1    0    0  501    0  0.00000000000E+00  0.00000000000E+00  0.71529321030E+03  0.71529321032E+03  0.50400001928E-02 0.  1.
       -1   -1    0    0    0  501  0.00000000000E+00  0.00000000000E+00 -0.73932823263E+03  0.73932823264E+03  0.50400001928E-02 0. -1.
    10030    2    1    2    0    0  0.00000000000E+00  0.00000000000E+00 -0.24035022326E+02  0.14546214430E+04  0.14544228615E+04 0.  0.
        4    1    3    3  502    0 -0.35190726494E+03 -0.72692922492E+02  0.62029651351E+03  0.71686286113E+03  0.12699999809E+01 0.  1.
       -4    1    3    3    0  502  0.35190726494E+03  0.72692922492E+02 -0.64433153583E+03  0.73775858183E+03  0.12699999809E+01 0. -1.
</event>
<event>
 5   0  0.1149716E-03  0.1500184E+04  0.7818609E-02  0.8884330E-01
       -2   -1    0    0    0  501  0.00000000000E+00  0.00000000000E+00  0.53191065887E+03  0.53191065888E+03  0.25500000920E-02 0.  1.
        2   -1    0    0  501    0  0.00000000000E+00  0.00000000000E+00 -0.10577680954E+04  0.10577680954E+04  0.25500000920E-02 0. -1.
    10030    2    1    2    0    0  0.00000000000E+00  0.00000000000E+00 -0.52585743652E+03  0.15896787543E+04  0.15001841548E+04 0.  0.
        1    1    3    3  502    0  0.20088018436E+03 -0.28316234587E+03  0.44164622749E+03  0.56176966175E+03  0.50400001928E-02 0.  1.
       -1    1    3    3    0  502 -0.20088018436E+03  0.28316234587E+03 -0.96750366401E+03  0.10279090925E+04  0.50400001928E-02 0. -1.
</event>
<event>
 5   0  0.5914645E-04  0.1534377E+04  0.7818609E-02  0.8861909E-01
        1   -1    0    0  501    0  0.00000000000E+00  0.00000000000E+00  0.79063177284E+03  0.79063177286E+03  0.50400001928E-02 0. -1.
       -1   -1    0    0    0  501  0.00000000000E+00  0.00000000000E+00 -0.74444056427E+03  0.74444056429E+03  0.50400001928E-02 0.  1.
    10030    2    1    2    0    0  0.00000000000E+00  0.00000000000E+00  0.46191208572E+02  0.15350723371E+04  0.15343772198E+04 0.  0.
        2    1    3    3  502    0  0.12511502683E+03 -0.14819459665E+03  0.76570066230E+03  0.78988158142E+03  0.25500000920E-02 0. -1.
       -2    1    3    3    0  502 -0.12511502683E+03  0.14819459665E+03 -0.71950945373E+03  0.74519075573E+03  0.25500000920E-02 0.  1.
</event>
<event>
 5   0  0.6146552E-04  0.1509757E+04  0.7818609E-02  0.8877991E-01
       -1   -1    0    0    0  501  0.00000000000E+00  0.00000000000E+00  0.69002428094E+03  0.69002428096E+03  0.50400001928E-02 0. -1.
        1   -1    0    0  501    0  0.00000000000E+00  0.00000000000E+00 -0.82582787246E+03  0.82582787247E+03  0.50400001928E-02 0.  1.
    10030    2    1    2    0    0  0.00000000000E+00  0.00000000000E+00 -0.13580359152E+03  0.15158521534E+04  0.15097566478E+04 0.  0.
        5    1    3    3  502    0 -0.27380846697E+03  0.37982846846E+03  0.52658539837E+03  0.70466659763E+03  0.46999998093E+01 0. -1.
       -5    1    3    3    0  502  0.27380846697E+03 -0.37982846846E+03 -0.66238898989E+03  0.81118555581E+03  0.46999998093E+01 0.  1.
</event>
<event>
 5   0  0.6146552E-04  0.1509262E+04  0.7818609E-02  0.8878317E-01
       -1   -1    0    0    0  501  0.00000000000E+00  0.00000000000E+00  0.91591153885E+03  0.91591153887E+03  0.50400001928E-02 0.  1.
        1   -1    0    0  501    0  0.00000000000E+00  0.00000000000E+00 -0.62174996320E+03  0.62174996322E+03  0.50400001928E-02 0. -1.
    10030    2    1    2    0    0  0.00000000000E+00  0.00000000000E+00  0.29416157566E+03  0.15376615021E+04  0.15092620258E+04 0.  0.
        5    1    3    3  502    0 -0.35776839354E+03 -0.34727668692E+03  0.72417243243E+03  0.87923098363E+03  0.46999998093E+01 0.  1.
       -5    1    3    3    0  502  0.35776839354E+03  0.34727668692E+03 -0.43001085677E+03  0.65843051845E+03  0.46999998093E+01 0. -1.
</event>
<event>
 5   0  0.1149716E-03  0.1465584E+04  0.7818609E-02  0.8907667E-01
       -2   -1    0    0    0  501  0.00000000000E+00  0.00000000000E+00  0.42251520645E+03  0.42251520645E+03  0.25500000920E-02 0.  1.
        2   -1    0    0  501    0  0.00000000000E+00  0.00000000000E+00 -0.12709223944E+04  0.12709223944E+04  0.25500000920E-02 0. -1.
    10030    2    1    2    0    0  0.00000000000E+00  0.00000000000E+00 -0.84840718800E+03  0.16934376009E+04  0.14655838944E+04 0.  0.
        1    1    3    3  502    0 -0.46150062643E+03 -0.50161427258E+03 -0.73507501459E+03  0.10024644551E+04  0.50400001928E-02 0. -1.
       -1    1    3    3    0  502  0.46150062643E+03  0.50161427258E+03 -0.11333217341E+03  0.69097314579E+03  0.50400001928E-02 0.  1.
</event>
<event>
 5   0  0.6146552E-04  0.1487757E+04  0.7818609E-02  0.8892635E-01
        1   -1    0    0  501    0  0.00000000000E+00  0.00000000000E+00  0.10211127850E+04  0.10211127850E+04  0.50400001928E-02 0.  1.
       -1   -1    0    0    0  501  0.00000000000E+00  0.00000000000E+00 -0.54191426855E+03  0.54191426858E+03  0.50400001928E-02 0. -1.
    10030    2    1    2    0    0  0.00000000000E+00  0.00000000000E+00  0.47919851641E+03  0.15630270535E+04  0.14877574910E+04 0.  0.
        5    1    3    3  502    0  0.19741592760E+03 -0.57948688262E+03  0.68353575111E+03  0.91761719069E+03  0.46999998093E+01 0.  1.
       -5    1    3    3    0  502 -0.19741592760E+03  0.57948688262E+03 -0.20433723471E+03  0.64540986286E+03  0.46999998093E+01 0. -1.
</event>
<event>
 5   0  0.1097156E-03  0.1496473E+04  0.7818609E-02  0.8886802E-01
        2   -1    0    0  501    0  0.00000000000E+00  0.00000000000E+00  0.60944826778E+03  0.60944826778E+03  0.25500000920E-02 0. -1.
       -2   -1    0    0    0  501  0.00000000000E+00  0.00000000000E+00 -0.91863064919E+03  0.91863064920E+03  0.25500000920E-02 0.  1.
    10030    2    1    2    0    0  0.00000000000E+00  0.00000000000E+00 -0.30918238142E+03  0.15280789170E+04  0.14964729973E+04 0.  0.
        2    1    3    3  502    0 -0.13961586357E+03  0.15418823353E+03  0.57933168584E+03  0.61554187749E+03  0.25500000920E-02 0. -1.
       -2    1    3    3    0  502  0.13961586357E+03 -0.15418823353E+03 -0.88851406726E+03  0.91253703949E+03  0.25500000920E-02 0.  1.
</event>
<event>
 5   0  0.5914645E-04  0.1509151E+04  0.7818609E-02  0.8878391E-01
        1   -1    0    0  501    0  0.00000000000E+00  0.00000000000E+00  0.20538393415E+04  0.20538393415E+04  0.50400001928E-02 0. -1.
       -1   -1    0    0    0  501  0.00000000000E+00  0.00000000000E+00 -0.27722903093E+03  0.27722903098E+03  0.50400001928E-02 0.  1.
    10030    2    1    2    0    0  0.00000000000E+00  0.00000000000E+00  0.17766103106E+04  0.23310683725E+04  0.15091506093E+04 0.  0.
        2    1    3    3  502    0  0.32343908542E+03 -0.62253076769E+03  0.13175504878E+04  0.14926810399E+04  0.25500000920E-02 0. -1.
       -2    1    3    3    0  502 -0.32343908542E+03  0.62253076769E+03  0.45905982276E+03  0.83838733267E+03  0.25500000920E-02 0.  1.
</event>
<event>
 5   0  0.1082667E-03  0.1528665E+04  0.7818609E-02  0.8865612E-01
       -2   -1    0    0    0  501  0.00000000000E+00  0.00000000000E+00  0.23489821460E+03  0.23489821461E+03  0.25500000920E-02 0. -1.
        2   -1    0    0  501    0  0.00000000000E+00  0.00000000000E+00 -0.24870522753E+04  0.24870522753E+04  0.25500000920E-02 0.  1.
    10030    2    1    2    0    0  0.00000000000E+00  0.00000000000E+00 -0.22521540607E+04  0.27219504899E+04  0.15286649588E+04 0.  0.
        5    1    3    3  502    0 -0.53441475975E+03 -0.34594867023E+03 -0.37293647847E+03  0.73782336968E+03  0.46999998093E+01 0.  1.
       -5    1    3    3    0  502  0.53441475975E+03  0.34594867023E+03 -0.18792175822E+04  0.19841271202E+04  0.46999998093E+01 0. -1.
</event>
<event>
 5   0  0.1147755E-03  0.1546637E+04  0.7818609E-02  0.8854019E-01
        2   -1    0    0  501    0  0.00000000000E+00  0.00000000000E+00  0.14051515714E+04  0.14051515714E+04  0.25500000920E-02 0. -1.
       -2   -1    0    0    0  501  0.00000000000E+00  0.00000000000E+00 -0.42559219127E+03  0.42559219128E+03  0.25500000920E-02 0.  1.
    10030    2    1    2    0    0  0.00000000000E+00  0.00000000000E+00  0.97955938012E+03  0.18307437627E+04  0.15466370438E+04 0.  0.
        4    1    3    3  502    0 -0.64790495553E+03 -0.41046496404E+03  0.60670560573E+03  0.97793436540E+03  0.12699999809E+01 0. -1.
       -4    1    3    3    0  502  0.64790495553E+03  0.41046496404E+03  0.37285377439E+03  0.85280939727E+03  0.12699999809E+01 0.  1.
</event>
<event>
 5   0  0.1147755E-03  0.1498877E+04  0.7818609E-02  0.8885200E-01
        2   -1    0    0  501    0  0.00000000000E+00  0.00000000000E+00  0.15353986167E+04  0.15353986167E+04  0.25500000920E-02 0.  1.
       -2   -1    0    0    0  501  0.00000000000E+00  0.00000000000E+00 -0.36580614432E+03  0.36580614433E+03  0.25500000920E-02 0. -1.
    10030    2    1    2    0    0  0.00000000000E+00  0.00000000000E+00  0.11695924724E+04  0.19012047610E+04  0.14988772438E+04 0.  0.
        4    1    3    3  502    0  0.46678745927E+03 -0.55368955879E+03  0.34017220031E+03  0.80011336598E+03  0.12699999809E+01 0.  1.
       -4    1    3    3    0  502 -0.46678745927E+03  0.55368955879E+03  0.82942027206E+03  0.11010913951E+04  0.12699999809E+01 0. -1.
</event>
<event>
 5   0  0.4070625E-04  0.1511706E+04  0.7818609E-02  0.8876706E-01
       -3   -1    0    0    0  501  0.00000000000E+00  0.00000000000E+00  0.98277215056E+03  0.98277215575E+03  0.10100000352E+00 0. -1.
        3   -1    0    0  501    0  0.00000000000E+00  0.00000000000E+00 -0.58132847593E+03  0.58132848470E+03  0.10100000352E+00 0.  1.
    10030    2    1    2    0    0  0.00000000000E+00  0.00000000000E+00  0.40144367464E+03  0.15641006405E+04  0.15117055896E+04 0.  0.
        2    1    3    3  502    0 -0.18327066386E+03 -0.58600536695E+03  0.65682134323E+03  0.89911328722E+03  0.25500000920E-02 0. -1.
       -2    1    3    3    0  502  0.18327066386E+03  0.58600536695E+03 -0.25537766859E+03  0.66498735323E+03  0.25500000920E-02 0.  1.
</event>
<event>
 5   0  0.4070625E-04  0.1488377E+04  0.7818609E-02  0.8892219E-01
        3   -1    0    0  501    0  0.00000000000E+00  0.00000000000E+00  0.13319020714E+04  0.13319020753E+04  0.10100000352E+00 0. -1.
       -3   -1    0    0    0  501  0.00000000000E+00  0.00000000000E+00 -0.41580850581E+03  0.41580851807E+03  0.10100000352E+00 0.  1.
    10030    2    1    2    0    0  0.00000000000E+00  0.00000000000E+00  0.91609356564E+03  0.17477105933E+04  0.14883765979E+04 0.  0.
        1    1    3    3  502    0  0.49120688705E+03  0.36140706879E+03 -0.42786598503E+02  0.61133457967E+03  0.50400001928E-02 0.  1.
       -1    1    3    3    0  502 -0.49120688705E+03 -0.36140706879E+03  0.95888016414E+03  0.11363760137E+04  0.50400001928E-02 0. -1.
</event>
<event>
 5   0  0.6146552E-04  0.1490319E+04  0.7818609E-02  0.8890917E-01
       -1   -1    0    0    0  501  0.00000000000E+00  0.00000000000E+00  0.61835669383E+03  0.61835669385E+03  0.50400001928E-02 0.  1.
        1   -1    0    0  501    0  0.00000000000E+00  0.00000000000E+00 -0.89796465853E+03  0.89796465854E+03  0.50400001928E-02 0. -1.
    10030    2    1    2    0    0  0.00000000000E+00  0.00000000000E+00 -0.27960796471E+03  0.15163213524E+04  0.14903187007E+04 0.  0.
        5    1    3    3  502    0 -0.19487569482E+03  0.55300060807E+03  0.32806064818E+03  0.67188696061E+03  0.46999998093E+01 0.  1.
       -5    1    3    3    0  502  0.19487569482E+03 -0.55300060807E+03 -0.60766861288E+03  0.84443439179E+03  0.46999998093E+01 0. -1.
</event>
<event>
 5   0  0.1149716E-03  0.1493664E+04  0.7818609E-02  0.8888677E-01
       -2   -1    0    0    0  501  0.00000000000E+00  0.00000000000E+00  0.44658127605E+03  0.44658127605E+03  0.25500000920E-02 0.  1.
        2   -1    0    0  501    0  0.00000000000E+00  0.00000000000E+00 -0.12489505114E+04  0.12489505114E+04  0.25500000920E-02 0. -1.
    10030    2    1    2    0    0  0.00000000000E+00  0.00000000000E+00 -0.80236923535E+03  0.16955317874E+04  0.14936638351E+04 0.  0.
        1    1    3    3  502    0 -0.54310126943E+03  0.41627972596E+02 -0.98118497070E+03  0.11222369731E+04  0.50400001928E-02 0. -1.
       -1    1    3    3    0  502  0.54310126943E+03 -0.41627972596E+02  0.17881573535E+03  0.57329481438E+03  0.50400001928E-02 0.  1.
</event>
<event>
 5   0  0.1082667E-03  0.1480663E+04  0.7818609E-02  0.8897414E-01
       -2   -1    0    0    0  501  0.00000000000E+00  0.00000000000E+00  0.48146785286E+03  0.48146785287E+03  0.25500000920E-02 0. -1.
        2   -1    0    0  501    0  0.00000000000E+00  0.00000000000E+00 -0.11383748215E+04  0.11383748215E+04  0.25500000920E-02 0.  1.
    10030    2    1    2    0    0  0.00000000000E+00  0.00000000000E+00 -0.65690696868E+03  0.16198426744E+04  0.14806632042E+04 0.  0.
        5    1    3    3  502    0 -0.71652235531E+03  0.10635307324E+03 -0.16127021526E+03  0.74212225015E+03  0.46999998093E+01 0. -1.
       -5    1    3    3    0  502  0.71652235531E+03 -0.10635307324E+03 -0.49563675342E+03  0.87772042427E+03  0.46999998093E+01 0.  1.
</event>
<event>
 5   0  0.5840834E-04  0.1457139E+04  0.7818609E-02  0.8913466E-01
        1   -1    0    0  501    0  0.00000000000E+00  0.00000000000E+00  0.13382780658E+04  0.13382780658E+04  0.50400001928E-02 0.  1.
       -1   -1    0    0    0  501  0.00000000000E+00  0.00000000000E+00 -0.39663904468E+03  0.39663904471E+03  0.50400001928E-02 0. -1.
    10030    2    1    2    0    0  0.00000000000E+00  0.00000000000E+00  0.94163902114E+03  0.17349171105E+04  0.14571387492E+04 0.  0.
        3    1    3    3  502    0 -0.12557359535E+03 -0.69078219255E+03  0.70250256419E+03  0.99320623653E+03  0.10100000352E+00 0.  1.
       -3    1    3    3    0  502  0.12557359535E+03  0.69078219255E+03  0.23913645695E+03  0.74171087402E+03  0.10100000352E+00 0. -1.
</event>
<event>
 5   0  0.1147755E-03  0.1521323E+04  0.7818609E-02  0.8870396E-01
       -2   -1    0    0    0  501  0.00000000000E+00  0.00000000000E+00  0.64038675064E+03  0.64038675065E+03  0.25500000920E-02 0. -1.
        2   -1    0    0  501    0  0.00000000000E+00  0.00000000000E+00 -0.90352571860E+03  0.90352571860E+03  0.25500000920E-02 0.  1.
    10030    2    1    2    0    0  0.00000000000E+00  0.00000000000E+00 -0.26313896796E+03  0.15439124693E+04  0.15213229757E+04 0.  0.
        4    1    3    3  502    0 -0.61262374738E+03 -0.21501872926E+03  0.27062741256E+03  0.70340722140E+03  0.12699999809E+01 0. -1.
       -4    1    3    3    0  502  0.61262374738E+03  0.21501872926E+03 -0.53376638052E+03  0.84050524785E+03  0.12699999809E+01 0.  1.
</event>
<event>
 5   0  0.1149716E-03  0.1489383E+04  0.7818609E-02  0.8891544E-01
        2   -1    0    0  501    0  0.00000000000E+00  0.00000000000E+00  0.17278316990E+04  0.17278316990E+04  0.25500000920E-02 0.  1.
       -2   -1    0    0    0  501  0.00000000000E+00  0.00000000000E+00 -0.32096042653E+03  0.32096042654E+03  0.25500000920E-02 0. -1.
    10030    2    1    2    0    0  0.00000000000E+00  0.00000000000E+00  0.14068712724E+04  0.20487921255E+04  0.14893832268E+04 0.  0.
        1    1    3    3  502    0 -0.70023907017E+03 -0.12943207051E+03  0.10031713425E+04  0.12302195572E+04  0.50400001928E-02 0. -1.
       -1    1    3    3    0  502  0.70023907017E+03  0.12943207051E+03  0.40369992989E+03  0.81857256837E+03  0.50400001928E-02 0.  1.
</event>
<event>
 5   0  0.5840834E-04  0.1442786E+04  0.7818609E-02  0.8923417E-01
       -1   -1    0    0    0  501  0.00000000000E+00  0.00000000000E+00  0.10102896189E+04  0.10102896189E+04  0.50400001928E-02 0. -1.
        1   -1    0    0  501    0  0.00000000000E+00  0.00000000000E+00 -0.51510791751E+03  0.51510791753E+03  0.50400001928E-02 0.  1.
    10030    2    1    2    0    0  0.00000000000E+00  0.00000000000E+00  0.49518170138E+03  0.15253975364E+04  0.14427864453E+04 0.  0.
        3    1    3    3  502    0  0.34470353797E+03 -0.78138993602E+02 -0.41729075034E+03  0.54686178503E+03  0.10100000352E+00 0.  1.
       -3    1    3    3    0  502 -0.34470353797E+03  0.78138993602E+02  0.91247245172E+03  0.97853575139E+03  0.10100000352E+00 0. -1.
</event>
<event>
 5   0  0.1126175E-03  0.1492229E+04  0.7818609E-02  0.8889637E-01
       -2   -1    0    0    0  501  0.00000000000E+00  0.00000000000E+00  0.55717095555E+03  0.55717095555E+03  0.25500000920E-02 0.  1.
        2   -1    0    0  501    0  0.00000000000E+00  0.00000000000E+00 -0.99913127030E+03  0.99913127031E+03  0.25500000920E-02 0. -1.
    10030    2    1    2    0    0  0.00000000000E+00  0.00000000000E+00 -0.44196031475E+03  0.15563022259E+04  0.14922291039E+04 0.  0.
        3    1    3    3  502    0 -0.69565906956E+03 -0.24457139682E+03 -0.10238658787E+03  0.74447278848E+03  0.10100000352E+00 0.  1.
       -3    1    3    3    0  502  0.69565906956E+03  0.24457139682E+03 -0.33957372688E+03  0.81182943738E+03  0.10100000352E+00 0. -1.
</event>
<event>
 5   0  0.5840834E-04  0.1508526E+04  0.7818609E-02  0.8878803E-01
       -1   -1    0    0    0  501  0.00000000000E+00  0.00000000000E+00  0.40943831324E+03  0.40943831327E+03  0.50400001928E-02 0.  1.
        1   -1    0    0  501    0  0.00000000000E+00  0.00000000000E+00 -0.13894960222E+04  0.13894960223E+04  0.50400001928E-02 0. -1.
    10030    2    1    2    0    0  0.00000000000E+00  0.00000000000E+00 -0.98005770900E+03  0.17989343355E+04  0.15085263109E+04 0.  0.
        3    1    3    3  502    0  0.29633660125E+03  0.43317041633E+03 -0.11360363384E+04  0.12514114284E+04  0.10100000352E+00 0. -1.
       -3    1    3    3    0  502 -0.29633660125E+03 -0.43317041633E+03  0.15597862935E+03  0.54752290714E+03  0.10100000352E+00 0.  1.
</event>
<event>
 5   0  0.6146552E-04  0.1499044E+04  0.7818609E-02  0.8885089E-01
       -1   -1    0    0    0  501  0.00000000000E+00  0.00000000000E+00  0.59968320768E+03  0.59968320770E+03  0.50400001928E-02 0.  1.
        1   -1    0    0  501    0  0.00000000000E+00  0.00000000000E+00 -0.93679938096E+03  0.93679938098E+03  0.50400001928E-02 0. -1.
    10030    2    1    2    0    0  0.00000000000E+00  0.00000000000E+00 -0.33711617328E+03  0.15364825887E+04  0.14990435054E+04 0.  0.
        5    1    3    3  502    0 -0.19295322230E+02 -0.62938026632E+03  0.24812802470E+03  0.67681713611E+03  0.46999998093E+01 0.  1.
       -5    1    3    3    0  502  0.19295322230E+02  0.62938026632E+03 -0.58524419798E+03  0.85966545258E+03  0.46999998093E+01 0. -1.
</event>
<event>
 5   0  0.5924403E-04  0.1521431E+04  0.7818609E-02  0.8870325E-01
       -1   -1    0    0    0  501  0.00000000000E+00  0.00000000000E+00  0.76749191449E+03  0.76749191451E+03  0.50400001928E-02 0.  1.
        1   -1    0    0  501    0  0.00000000000E+00  0.00000000000E+00 -0.75399938250E+03  0.75399938251E+03  0.50400001928E-02 0. -1.
    10030    2    1    2    0    0  0.00000000000E+00  0.00000000000E+00  0.13492531991E+02  0.15214912970E+04  0.15214314702E+04 0.  0.
        1    1    3    3  502    0  0.63482908391E+03  0.41859940702E+03  0.28077839997E+02  0.76093481617E+03  0.50400001928E-02 0. -1.
       -1    1    3    3    0  502 -0.63482908391E+03 -0.41859940702E+03 -0.14585308006E+02  0.76055648085E+03  0.50400001928E-02 0.  1.
</event>
<event>
 5   0  0.5924403E-04  0.1341213E+04  0.7818609E-02  0.8997507E-01
       -1   -1    0    0    0  501  0.00000000000E+00  0.00000000000E+00  0.53890452925E+03  0.53890452928E+03  0.50400001928E-02 0.  1.
        1   -1    0    0  501    0  0.00000000000E+00  0.00000000000E+00 -0.83449472527E+03  0.83449472529E+03  0.50400001928E-02 0. -1.
    10030    2    1    2    0    0  0.00000000000E+00  0.00000000000E+00 -0.29559019602E+03  0.13733992546E+04  0.13412128647E+04 0.  0.
        1    1    3    3  502    0  0.10054269884E+03 -0.38274279368E+03 -0.70218584781E+03  0.80601851424E+03  0.50400001928E-02 0. -1.
       -1    1    3    3    0  502 -0.10054269884E+03  0.38274279368E+03  0.40659565179E+03  0.56738074032E+03  0.50400001928E-02 0.  1.
</event>
<event>
 5   0  0.1126175E-03  0.1508000E+04  0.7818609E-02  0.8879150E-01
        2   -1    0    0  501    0  0.00000000000E+00  0.00000000000E+00  0.13487009743E+04  0.13487009743E+04  0.25500000920E-02 0.  1.
       -2   -1    0    0    0  501  0.00000000000E+00  0.00000000000E+00 -0.42152874552E+03  0.42152874552E+03  0.25500000920E-02 0. -1.
    10030    2    1    2    0    0  0.00000000000E+00  0.00000000000E+00  0.92717222877E+03  0.17702297198E+04  0.15080003047E+04 0.  0.
        3    1    3    3  502    0 -0.36207339069E+03 -0.53221018917E+03  0.26612910977E+01  0.64370173091E+03  0.10100000352E+00 0. -1.
       -3    1    3    3    0  502  0.36207339069E+03  0.53221018917E+03  0.92451093768E+03  0.11265279889E+04  0.10100000352E+00 0.  1.
</event>
<event>
 5   0  0.5924403E-04  0.1504816E+04  0.7818609E-02  0.8881257E-01
       -1   -1    0    0    0  501  0.00000000000E+00  0.00000000000E+00  0.28922177393E+03  0.28922177397E+03  0.50400001928E-02 0.  1.
        1   -1    0    0  501    0  0.00000000000E+00  0.00000000000E+00 -0.19573829693E+04  0.19573829693E+04  0.50400001928E-02 0. -1.
    10030    2    1    2    0    0  0.00000000000E+00  0.00000000000E+00 -0.16681611954E+04  0.22466047433E+04  0.15048159684E+04 0.  0.
        1    1    3    3  502    0 -0.55219049900E+01 -0.39383765455E+03  0.12301031715E+03  0.41263801052E+03  0.50400001928E-02 0.  1.
       -1    1    3    3    0  502  0.55219049900E+01  0.39383765455E+03 -0.17911715126E+04  0.18339667328E+04  0.50400001928E-02 0. -1.
</event>
<event>
 5   0  0.5914645E-04  0.1502951E+04  0.7818609E-02  0.8882493E-01
       -1   -1    0    0    0  501  0.00000000000E+00  0.00000000000E+00  0.85517946679E+03  0.85517946680E+03  0.50400001928E-02 0.  1.
        1   -1    0    0  501    0  0.00000000000E+00  0.00000000000E+00 -0.66034715977E+03  0.66034715979E+03  0.50400001928E-02 0. -1.
    10030    2    1    2    0    0  0.00000000000E+00  0.00000000000E+00  0.19483230701E+03  0.15155266266E+04  0.15029508735E+04 0.  0.
        2    1    3    3  502    0  0.27307672546E+03 -0.12779462113E+03 -0.59668418736E+03  0.66853151206E+03  0.25500000920E-02 0. -1.
       -2    1    3    3    0  502 -0.27307672546E+03  0.12779462113E+03  0.79151649437E+03  0.84699511453E+03  0.25500000920E-02 0.  1.
</event>
<event>
 5   0  0.6146552E-04  0.1498649E+04  0.7818609E-02  0.8885352E-01
        1   -1    0    0  501    0  0.00000000000E+00  0.00000000000E+00  0.59759154436E+03  0.59759154438E+03  0.50400001928E-02 0. -1.
       -1   -1    0    0    0  501  0.00000000000E+00  0.00000000000E+00 -0.93958354754E+03  0.93958354755E+03  0.50400001928E-02 0.  1.
    10030    2    1    2    0    0  0.00000000000E+00  0.00000000000E+00 -0.34199200318E+03  0.15371750919E+04  0.14986489693E+04 0.  0.
        5    1    3    3  502    0 -0.20362615267E+03 -0.62653079626E+03  0.19519820941E+03  0.68711635090E+03  0.46999998093E+01 0. -1.
       -5    1    3    3    0  502  0.20362615267E+03  0.62653079626E+03 -0.53719021259E+03  0.85005874104E+03  0.46999998093E+01 0.  1.
</event>
<event>
 5   0  0.1149716E-03  0.1474900E+04  0.7818609E-02  0.8901318E-01
       -2   -1    0    0    0  501  0.00000000000E+00  0.00000000000E+00  0.78606323493E+03  0.78606323494E+03  0.25500000920E-02 0.  1.
        2   -1    0    0  501    0  0.00000000000E+00  0.00000000000E+00 -0.69184349295E+03  0.69184349295E+03  0.25500000920E-02 0. -1.
    10030    2    1    2    0    0  0.00000000000E+00  0.00000000000E+00  0.94219741984E+02  0.14779067279E+04  0.14749003141E+04 0.  0.
        1    1    3    3  502    0 -0.19207869296E+03 -0.41724563948E+03 -0.53099297414E+03  0.70209806051E+03  0.50400001928E-02 0. -1.
       -1    1    3    3    0  502  0.19207869296E+03  0.41724563948E+03  0.62521271613E+03  0.77580866738E+03  0.50400001928E-02 0.  1.
</event>
<event>
 5   0  0.1126175E-03  0.1488423E+04  0.7818609E-02  0.8892188E-01
        2   -1    0    0  501    0  0.00000000000E+00  0.00000000000E+00  0.11742901394E+04  0.11742901394E+04  0.25500000920E-02 0. -1.
       -2   -1    0    0    0  501  0.00000000000E+00  0.00000000000E+00 -0.47164699520E+03  0.47164699521E+03  0.25500000920E-02 0.  1.
    10030    2    1    2    0    0  0.00000000000E+00  0.00000000000E+00  0.70264314419E+03  0.16459371346E+04  0.14884225418E+04 0.  0.
        3    1    3    3  502    0  0.70639312420E+03 -0.21682916926E+03  0.44926229358E+03  0.86477901986E+03  0.10100000352E+00 0. -1.
       -3    1    3    3    0  502 -0.70639312420E+03  0.21682916926E+03  0.25338085061E+03  0.78115811474E+03  0.10100000352E+00 0.  1.
</event>
<event>
 5   0  0.5924403E-04  0.1479313E+04  0.7818609E-02  0.8898328E-01
        1   -1    0    0  501    0  0.00000000000E+00  0.00000000000E+00  0.48441682454E+03  0.48441682457E+03  0.50400001928E-02 0. -1.
       -1   -1    0    0    0  501  0.00000000000E+00  0.00000000000E+00 -0.11293815185E+04  0.11293815186E+04  0.50400001928E-02 0.  1.
    10030    2    1    2    0    0  0.00000000000E+00  0.00000000000E+00 -0.64496469400E+03  0.16137983431E+04  0.14793125551E+04 0.  0.
        1    1    3    3  502    0 -0.42694006432E+03  0.54718961270E+03 -0.60145949325E+03  0.91839414894E+03  0.50400001928E-02 0.  1.
       -1    1    3    3    0  502  0.42694006432E+03 -0.54718961270E+03 -0.43505200751E+02  0.69540419418E+03  0.50400001928E-02 0. -1.
</event>
<event>
 5   0  0.5914645E-04  0.1567266E+04  0.7818609E-02  0.8840914E-01
        1   -1    0    0  501    0  0.00000000000E+00  0.00000000000E+00  0.49053221905E+03  0.49053221907E+03  0.50400001928E-02 0. -1.
       -1   -1    0    0    0  501  0.00000000000E+00  0.00000000000E+00 -0.12518666537E+04  0.12518666537E+04  0.50400001928E-02 0.  1.
    10030    2    1    2    0    0  0.00000000000E+00  0.00000000000E+00 -0.76133443468E+03  0.17423988728E+04  0.15672663177E+04 0.  0.
        2    1    3    3  502    0 -0.76352215308E+03 -0.24683157947E+02 -0.57484274927E+03  0.95604368254E+03  0.25500000920E-02 0.  1.
       -2    1    3    3    0  502  0.76352215308E+03  0.24683157947E+02 -0.18649168541E+03  0.78635519027E+03  0.25500000920E-02 0. -1.
</event>
<event>
 5   0  0.5606965E-04  0.1492651E+04  0.7818609E-02  0.8889355E-01
        1   -1    0    0  501    0  0.00000000000E+00  0.00000000000E+00  0.54386160154E+03  0.54386160156E+03  0.50400001928E-02 0.  1.
       -1   -1    0    0    0  501  0.00000000000E+00  0.00000000000E+00 -0.10241610367E+04  0.10241610368E+04  0.50400001928E-02 0. -1.
    10030    2    1    2    0    0  0.00000000000E+00  0.00000000000E+00 -0.48029943521E+03  0.15680226383E+04  0.14926511471E+04 0.  0.
        4    1    3    3  502    0 -0.10970920645E+03 -0.39041569392E+03 -0.89831628264E+03  0.98561365686E+03  0.12699999809E+01 0. -1.
       -4    1    3    3    0  502  0.10970920645E+03  0.39041569392E+03  0.41801684743E+03  0.58240898145E+03  0.12699999809E+01 0.  1.
</event>
<event>
 5   0  0.5840834E-04  0.1510985E+04  0.7818609E-02  0.8877181E-01
        1   -1    0    0  501    0  0.00000000000E+00  0.00000000000E+00  0.10731928183E+04  0.10731928183E+04  0.50400001928E-02 0. -1.
       -1   -1    0    0    0  501  0.00000000000E+00  0.00000000000E+00 -0.53184156207E+03  0.53184156209E+03  0.50400001928E-02 0.  1.
    10030    2    1    2    0    0  0.00000000000E+00  0.00000000000E+00  0.54135125627E+03  0.16050343804E+04  0.15109845068E+04 0.  0.
        3    1    3    3  502    0  0.29503288331E+02 -0.40269809478E+03 -0.40760889191E+03  0.57374316425E+03  0.10100000352E+00 0.  1.
       -3    1    3    3    0  502 -0.29503288331E+02  0.40269809478E+03  0.94896014818E+03  0.10312912162E+04  0.10100000352E+00 0. -1.
</event>
<event>
 5   0  0.4070625E-04  0.1451582E+04  0.7818609E-02  0.8917304E-01
        3   -1    0    0  501    0  0.00000000000E+00  0.00000000000E+00  0.50699071521E+03  0.50699072527E+03  0.10100000352E+00 0. -1.
       -3   -1    0    0    0  501  0.00000000000E+00  0.00000000000E+00 -0.10390183303E+04  0.10390183353E+04  0.10100000352E+00 0.  1.
    10030    2    1    2    0    0  0.00000000000E+00  0.00000000000E+00 -0.53202761513E+03  0.15460090605E+04  0.14515821134E+04 0.  0.
        5    1    3    3  502    0 -0.30175748272E+03  0.65957398676E+03 -0.23875296067E+03  0.76362326354E+03  0.46999998093E+01 0. -1.
       -5    1    3    3    0  502  0.30175748272E+03 -0.65957398676E+03 -0.29327465445E+03  0.78238579699E+03  0.46999998093E+01 0.  1.
</event>
<event>
 5   0  0.5924403E-04  0.1378472E+04  0.7818609E-02  0.8969550E-01
       -1   -1    0    0    0  501  0.00000000000E+00  0.00000000000E+00  0.91393687351E+03  0.91393687352E+03  0.50400001928E-02 0. -1.
        1   -1    0    0  501    0  0.00000000000E+00  0.00000000000E+00 -0.51978047919E+03  0.51978047922E+03  0.50400001928E-02 0.  1.
    10030    2    1    2    0    0  0.00000000000E+00  0.00000000000E+00  0.39415639432E+03  0.14337173527E+04  0.13784724097E+04 0.  0.
        1    1    3    3  502    0  0.20590096702E+03 -0.30126046905E+03  0.80522841288E+03  0.88405083302E+03  0.50400001928E-02 0. -1.
       -1    1    3    3    0  502 -0.20590096702E+03  0.30126046905E+03 -0.41107201856E+03  0.54966651972E+03  0.50400001928E-02 0.  1.
</event>
<event>
 5   0  0.1147755E-03  0.1487235E+04  0.7818609E-02  0.8892986E-01
        2   -1    0    0  501    0  0.00000000000E+00  0.00000000000E+00  0.82384859802E+03  0.82384859803E+03  0.25500000920E-02 0.  1.
       -2   -1    0    0    0  501  0.00000000000E+00  0.00000000000E+00 -0.67119958026E+03  0.67119958027E+03  0.25500000920E-02 0. -1.
    10030    2    1    2    0    0  0.00000000000E+00  0.00000000000E+00  0.15264901776E+03  0.14950481783E+04  0.14872347941E+04 0.  0.
        4    1    3    3  502    0  0.25712837712E+03  0.32817911969E+03 -0.54266092179E+03  0.68432377268E+03  0.12699999809E+01 0. -1.
       -4    1    3    3    0  502 -0.25712837712E+03 -0.32817911969E+03  0.69530993955E+03  0.81072440561E+03  0.12699999809E+01 0.  1.
</event>
<event>
 5   0  0.1147755E-03  0.1494110E+04  0.7818609E-02  0.8888379E-01
       -2   -1    0    0    0  501  0.00000000000E+00  0.00000000000E+00  0.42430214668E+03  0.42430214669E+03  0.25500000920E-02 0.  1.
        2   -1    0    0  501    0  0.00000000000E+00  0.00000000000E+00 -0.13153153402E+04  0.13153153402E+04  0.25500000920E-02 0. -1.
    10030    2    1    2    0    0  0.00000000000E+00  0.00000000000E+00 -0.89101319348E+03  0.17396174869E+04  0.14941099322E+04 0.  0.
        4    1    3    3  502    0 -0.14445049981E+03  0.73275861520E+03 -0.42573464209E+03  0.85968176288E+03  0.12699999809E+01 0. -1.
       -4    1    3    3    0  502  0.14445049981E+03 -0.73275861520E+03 -0.46527855139E+03  0.87993572398E+03  0.12699999809E+01 0.  1.
</event>
<event>
 5   0  0.5924403E-04  0.1430792E+04  0.7818609E-02  0.8931826E-01
       -1   -1    0    0    0  501  0.00000000000E+00  0.00000000000E+00  0.61558850585E+03  0.61558850587E+03  0.50400001928E-02 0. -1.
        1   -1    0    0  501    0  0.00000000000E+00  0.00000000000E+00 -0.83138582600E+03  0.83138582602E+03  0.50400001928E-02 0.  1.
    10030    2    1    2    0    0  0.00000000000E+00  0.00000000000E+00 -0.21579732016E+03  0.14469743319E+04  0.14307921700E+04 0.  0.
        1    1    3    3  502    0 -0.22554573944E+03 -0.60374189420E+03 -0.42192041406E+03  0.77031940857E+03  0.50400001928E-02 0.  1.
       -1    1    3    3    0  502  0.22554573944E+03  0.60374189420E+03  0.20612309390E+03  0.67665492332E+03  0.50400001928E-02 0. -1.
</event>
<event>
 5   0  0.5606965E-04  0.1788674E+04  0.7818609E-02  0.8712346E-01
       -1   -1    0    0    0  501  0.00000000000E+00  0.00000000000E+00  0.81139519089E+03  0.81139519090E+03  0.50400001928E-02 0.  1.
        1   -1    0    0  501    0  0.00000000000E+00  0.00000000000E+00 -0.98575760521E+03  0.98575760522E+03  0.50400001928E-02 0. -1.
    10030    2    1    2    0    0  0.00000000000E+00  0.00000000000E+00 -0.17436241432E+03  0.17971527961E+04  0.17886743474E+04 0.  0.
        4    1    3    3  502    0  0.13149009824E+03  0.45310466771E+03  0.67618581375E+03  0.82451340405E+03  0.12699999809E+01 0.  1.
       -4    1    3    3    0  502 -0.13149009824E+03 -0.45310466771E+03 -0.85054822807E+03  0.97263939207E+03  0.12699999809E+01 0. -1.
</event>
<event>
 5   0  0.1147755E-03  0.1461057E+04  0.7818609E-02  0.8910771E-01
        2   -1    0    0  501    0  0.00000000000E+00  0.00000000000E+00  0.50168820083E+03  0.50168820083E+03  0.25500000920E-02 0.  1.
       -2   -1    0    0    0  501  0.00000000000E+00  0.00000000000E+00 -0.10637514131E+04  0.10637514131E+04  0.25500000920E-02 0. -1.
    10030    2    1    2    0    0  0.00000000000E+00  0.00000000000E+00 -0.56206321226E+03  0.15654396139E+04  0.14610565117E+04 0.  0.
        4    1    3    3  502    0 -0.33962307020E+03 -0.54877987613E+03  0.85719535015E+02  0.65103965612E+03  0.12699999809E+01 0.  1.
       -4    1    3    3    0  502  0.33962307020E+03  0.54877987613E+03 -0.64778274727E+03  0.91439995780E+03  0.12699999809E+01 0. -1.
</event>
<event>
 5   0  0.1147755E-03  0.1496141E+04  0.7818609E-02  0.8887023E-01
        2   -1    0    0  501    0  0.00000000000E+00  0.00000000000E+00  0.17467259779E+04  0.17467259779E+04  0.25500000920E-02 0.  1.
       -2   -1    0    0    0  501  0.00000000000E+00  0.00000000000E+00 -0.32037619217E+03  0.32037619218E+03  0.25500000920E-02 0. -1.
    10030    2    1    2    0    0  0.00000000000E+00  0.00000000000E+00  0.14263497857E+04  0.20671021701E+04  0.14961409259E+04 0.  0.
        4    1    3    3  502    0  0.44134571681E+03 -0.28998935271E+03 -0.18860801600E+02  0.52842900106E+03  0.12699999809E+01 0. -1.
       -4    1    3    3    0  502 -0.44134571681E+03  0.28998935271E+03  0.14452105873E+04  0.15386731690E+04  0.12699999809E+01 0.  1.
</event>
<event>
 5   0  0.1082667E-03  0.1495988E+04  0.7818609E-02  0.8887125E-01
        2   -1    0    0  501    0  0.00000000000E+00  0.00000000000E+00  0.10945043046E+04  0.10945043046E+04  0.25500000920E-02 0.  1.
       -2   -1    0    0    0  501  0.00000000000E+00  0.00000000000E+00 -0.51118597212E+03  0.51118597213E+03  0.25500000920E-02 0. -1.
    10030    2    1    2    0    0  0.00000000000E+00  0.00000000000E+00  0.58331833251E+03  0.16056902768E+04  0.14959882980E+04 0.  0.
        5    1    3    3  502    0  0.71930184898E+03 -0.88915384534E+02  0.93246601864E+02  0.73076543043E+03  0.46999998093E+01 0. -1.
       -5    1    3    3    0  502 -0.71930184898E+03  0.88915384534E+02  0.49007173064E+03  0.87492484633E+03  0.46999998093E+01 0.  1.
</event>
<event>
 5   0  0.1149716E-03  0.1503540E+04  0.7818609E-02  0.8882102E-01
       -2   -1    0    0    0  501  0.00000000000E+00  0.00000000000E+00  0.58996162600E+03  0.58996162600E+03  0.25500000920E-02 0. -1.
        2   -1    0    0  501    0  0.00000000000E+00  0.00000000000E+00 -0.95795764647E+03  0.95795764647E+03  0.25500000920E-02 0.  1.
    10030    2    1    2    0    0  0.00000000000E+00  0.00000000000E+00 -0.36799602047E+03  0.15479192725E+04  0.15035401568E+04 0.  0.
        1    1    3    3  502    0  0.60890148744E+03 -0.38922218012E+03  0.29246934978E+02  0.72326365188E+03  0.50400001928E-02 0.  1.
       -1    1    3    3    0  502 -0.60890148744E+03  0.38922218012E+03 -0.39724295545E+03  0.82465562060E+03  0.50400001928E-02 0. -1.
</event>
<event>
 5   0  0.4070625E-04  0.1556171E+04  0.7818609E-02  0.8847935E-01
       -3   -1    0    0    0  501  0.00000000000E+00  0.00000000000E+00  0.83170000816E+03  0.83170001429E+03  0.10100000352E+00 0.  1.
        3   -1    0    0  501    0  0.00000000000E+00  0.00000000000E+00 -0.72792749932E+03  0.72792750632E+03  0.10100000352E+00 0. -1.
    10030    2    1    2    0    0  0.00000000000E+00  0.00000000000E+00  0.10377250885E+03  0.15596275206E+04  0.15561713497E+04 0.  0.
        2    1    3    3  502    0  0.64852115724E+03 -0.65862703029E+02 -0.37390991818E+03  0.75148267708E+03  0.25500000920E-02 0. -1.
       -2    1    3    3    0  502 -0.64852115724E+03  0.65862703029E+02  0.47768242703E+03  0.80814484353E+03  0.25500000920E-02 0.  1.
</event>
<event>
 5   0  0.1082667E-03  0.1275641E+04  0.7818609E-02  0.9049108E-01
        2   -1    0    0  501    0  0.00000000000E+00  0.00000000000E+00  0.35412045742E+03  0.35412045743E+03  0.25500000920E-02 0. -1.
       -2   -1    0    0    0  501  0.00000000000E+00  0.00000000000E+00 -0.11488043325E+04  0.11488043325E+04  0.25500000920E-02 0.  1.
    10030    2    1    2    0    0  0.00000000000E+00  0.00000000000E+00 -0.79468387511E+03  0.15029247900E+04  0.12756411968E+04 0.  0.
        5    1    3    3  502    0 -0.20832309770E+03 -0.75890653428E+02  0.30723559867E+03  0.37891121308E+03  0.46999998093E+01 0. -1.
       -5    1    3    3    0  502  0.20832309770E+03  0.75890653428E+02 -0.11019194738E+04  0.11240135769E+04  0.46999998093E+01 0.  1.
</event>
<event>
 5   0  0.5914645E-04  0.1485327E+04  0.7818609E-02  0.8894269E-01
       -1   -1    0    0    0  501  0.00000000000E+00  0.00000000000E+00  0.71229610064E+03  0.71229610066E+03  0.50400001928E-02 0.  1.
        1   -1    0    0  501    0  0.00000000000E+00  0.00000000000E+00 -0.77432584476E+03  0.77432584478E+03  0.50400001928E-02 0. -1.
    10030    2    1    2    0    0  0.00000000000E+00  0.00000000000E+00 -0.62029744120E+02  0.14866219454E+04  0.14853272769E+04 0.  0.
        2    1    3    3  502    0 -0.47976519395E+03  0.63193277672E+02  0.53284217791E+03  0.71978386911E+03  0.25500000920E-02 0.  1.
       -2    1    3    3    0  502  0.47976519395E+03 -0.63193277672E+02 -0.59487192203E+03  0.76683807632E+03  0.25500000920E-02 0. -1.
</event>
<event>
 5   0  0.1082667E-03  0.1472307E+04  0.7818609E-02  0.8903080E-01
        2   -1    0    0  501    0  0.00000000000E+00  0.00000000000E+00  0.18600419709E+04  0.18600419709E+04  0.25500000920E-02 0.  1.
       -2   -1    0    0    0  501  0.00000000000E+00  0.00000000000E+00 -0.29134938864E+03  0.29134938866E+03  0.25500000920E-02 0. -1.
    10030    2    1    2    0    0  0.00000000000E+00  0.00000000000E+00  0.15686925822E+04  0.21513913595E+04  0.14723071569E+04 0.  0.
        5    1    3    3  502    0 -0.64703155447E+02  0.62327946175E+03  0.13488387054E+04  0.14872967858E+04  0.46999998093E+01 0.  1.
       -5    1    3    3    0  502  0.64703155447E+02 -0.62327946175E+03  0.21985387684E+03  0.66409457378E+03  0.46999998093E+01 0. -1.
</event>
<event>
 5   0  0.5840834E-04  0.1508630E+04  0.7818609E-02  0.8878734E-01
        1   -1    0    0  501    0  0.00000000000E+00  0.00000000000E+00  0.91292547490E+03  0.91292547491E+03  0.50400001928E-02 0. -1.
       -1   -1    0    0    0  501  0.00000000000E+00  0.00000000000E+00 -0.62326132941E+03  0.62326132943E+03  0.50400001928E-02 0.  1.
    10030    2    1    2    0    0  0.00000000000E+00  0.00000000000E+00  0.28966414549E+03  0.15361868043E+04  0.15086300344E+04 0.  0.
        3    1    3    3  502    0  0.66501545445E+03 -0.22783430307E+03 -0.13372858967E+03  0.71556786555E+03  0.10100000352E+00 0. -1.
       -3    1    3    3    0  502 -0.66501545445E+03  0.22783430307E+03  0.42339273516E+03  0.82061893879E+03  0.10100000352E+00 0.  1.
</event>
<event>
 5   0  0.5606965E-04  0.1357024E+04  0.7818609E-02  0.8985528E-01
        1   -1    0    0  501    0  0.00000000000E+00  0.00000000000E+00  0.29486984661E+04  0.29486984661E+04  0.50400001928E-02 0. -1.
       -1   -1    0    0    0  501  0.00000000000E+00  0.00000000000E+00 -0.15612940656E+03  0.15612940664E+03  0.50400001928E-02 0.  1.
    10030    2    1    2    0    0  0.00000000000E+00  0.00000000000E+00  0.27925690595E+04  0.31048278727E+04  0.13570240112E+04 0.  0.
        4    1    3    3  502    0  0.29287741620E+03 -0.20023252273E+03  0.73002554446E+02  0.36221710332E+03  0.12699999809E+01 0.  1.
       -4    1    3    3    0  502 -0.29287741620E+03  0.20023252273E+03  0.27195665051E+04  0.27426107694E+04  0.12699999809E+01 0. -1.
</event>
<event>
 5   0  0.5840834E-04  0.1491889E+04  0.7818609E-02  0.8889865E-01
       -1   -1    0    0    0  501  0.00000000000E+00  0.00000000000E+00  0.72371350546E+03  0.72371350548E+03  0.50400001928E-02 0.  1.
        1   -1    0    0  501    0  0.00000000000E+00  0.00000000000E+00 -0.76885834987E+03  0.76885834988E+03  0.50400001928E-02 0. -1.
    10030    2    1    2    0    0  0.00000000000E+00  0.00000000000E+00 -0.45144844411E+02  0.14925718554E+04  0.14918889659E+04 0.  0.
        3    1    3    3  502    0 -0.32056278215E+03  0.52458298007E+02 -0.69438615371E+03  0.76660583809E+03  0.10100000352E+00 0. -1.
       -3    1    3    3    0  502  0.32056278215E+03 -0.52458298007E+02  0.64924130930E+03  0.72596601727E+03  0.10100000352E+00 0.  1.
</event>
<event>
 5   0  0.5840834E-04  0.1511333E+04  0.7818609E-02  0.8876952E-01
       -1   -1    0    0    0  501  0.00000000000E+00  0.00000000000E+00  0.52192671600E+03  0.52192671602E+03  0.50400001928E-02 0. -1.
        1   -1    0    0  501    0  0.00000000000E+00  0.00000000000E+00 -0.10940840370E+04  0.10940840370E+04  0.50400001928E-02 0.  1.
    10030    2    1    2    0    0  0.00000000000E+00  0.00000000000E+00 -0.57215732101E+03  0.16160107530E+04  0.15113327741E+04 0.  0.
        3    1    3    3  502    0  0.14862148737E+03  0.69033926026E+03  0.15807240023E+01  0.70615802031E+03  0.10100000352E+00 0. -1.
       -3    1    3    3    0  502 -0.14862148737E+03 -0.69033926026E+03 -0.57373804501E+03  0.90985273273E+03  0.10100000352E+00 0.  1.
</event>
<event>
 5   0  0.1097156E-03  0.1504904E+04  0.7818609E-02  0.8881199E-01
        2   -1    0    0  501    0  0.00000000000E+00  0.00000000000E+00  0.46325243764E+03  0.46325243765E+03  0.25500000920E-02 0.  1.
       -2   -1    0    0    0  501  0.00000000000E+00  0.00000000000E+00 -0.12221925298E+04  0.12221925298E+04  0.25500000920E-02 0. -1.
    10030    2    1    2    0    0  0.00000000000E+00  0.00000000000E+00 -0.75894009213E+03  0.16854449674E+04  0.15049035434E+04 0.  0.
        2    1    3    3  502    0 -0.37117200261E+03 -0.61683236445E+03 -0.13426888297E+03  0.73231069519E+03  0.25500000920E-02 0.  1.
       -2    1    3    3    0  502  0.37117200261E+03  0.61683236445E+03 -0.62467120916E+03  0.95313427224E+03  0.25500000920E-02 0. -1.
</event>
<event>
 5   0  0.6146552E-04  0.1519377E+04  0.7818609E-02  0.8871669E-01
        1   -1    0    0  501    0  0.00000000000E+00  0.00000000000E+00  0.44591293334E+03  0.44591293337E+03  0.50400001928E-02 0. -1.
       -1   -1    0    0    0  501  0.00000000000E+00  0.00000000000E+00 -0.12942586315E+04  0.12942586315E+04  0.50400001928E-02 0.  1.
    10030    2    1    2    0    0  0.00000000000E+00  0.00000000000E+00 -0.84834569819E+03  0.17401715649E+04  0.15193770604E+04 0.  0.
        5    1    3    3  502    0  0.30291339983E+03 -0.48247752293E+03 -0.99976091853E+03  0.11506889554E+04  0.46999998093E+01 0.  1.
       -5    1    3    3    0  502 -0.30291339983E+03  0.48247752293E+03  0.15141522034E+03  0.58948260948E+03  0.46999998093E+01 0. -1.
</event>
<event>
 5   0  0.5914645E-04  0.1486182E+04  0.7818609E-02  0.8893694E-01
        1   -1    0    0  501    0  0.00000000000E+00  0.00000000000E+00  0.10087777128E+04  0.10087777128E+04  0.50400001928E-02 0. -1.
       -1   -1    0    0    0  501  0.00000000000E+00  0.00000000000E+00 -0.54737955495E+03  0.54737955497E+03  0.50400001928E-02 0.  1.
    10030    2    1    2    0    0  0.00000000000E+00  0.00000000000E+00  0.46139815784E+03  0.15561572678E+04  0.14861820824E+04 0.  0.
        2    1    3    3  502    0 -0.54859905138E+03  0.12755634904E+03  0.73824078406E+03  0.92856394320E+03  0.25500000920E-02 0.  1.
       -2    1    3    3    0  502  0.54859905138E+03 -0.12755634904E+03 -0.27684262622E+03  0.62759332458E+03  0.25500000920E-02 0. -1.
</event>
<event>
 5   0  0.5840834E-04  0.1492353E+04  0.7818609E-02  0.8889554E-01
       -1   -1    0    0    0  501  0.00000000000E+00  0.00000000000E+00  0.13782922836E+04  0.13782922836E+04  0.50400001928E-02 0. -1.
        1   -1    0    0  501    0  0.00000000000E+00  0.00000000000E+00 -0.40396344643E+03  0.40396344646E+03  0.50400001928E-02 0.  1.
    10030    2    1    2    0    0  0.00000000000E+00  0.00000000000E+00  0.97432883718E+03  0.17822557301E+04  0.14923534449E+04 0.  0.
        3    1    3    3  502    0  0.73630149850E+03 -0.26634466321E+02  0.34620954003E+03  0.81407023487E+03  0.10100000352E+00 0.  1.
       -3    1    3    3    0  502 -0.73630149850E+03  0.26634466321E+02  0.62811929715E+03  0.96818549521E+03  0.10100000352E+00 0. -1.
</event>
<event>
 5   0  0.1149716E-03  0.1609344E+04  0.7818609E-02  0.8814828E-01
        2   -1    0    0  501    0  0.00000000000E+00  0.00000000000E+00  0.10886639291E+04  0.10886639291E+04  0.25500000920E-02 0. -1.
       -2   -1    0    0    0  501  0.00000000000E+00  0.00000000000E+00 -0.59476325131E+03  0.59476325131E+03  0.25500000920E-02 0.  1.
    10030    2    1    2    0    0  0.00000000000E+00  0.00000000000E+00  0.49390067784E+03  0.16834271805E+04  0.16093443362E+04 0.  0.
        1    1    3    3  502    0  0.79161492809E+03  0.28604194781E+01  0.95962734284E+02  0.79741533893E+03  0.50400001928E-02 0. -1.
       -1    1    3    3    0  502 -0.79161492809E+03 -0.28604194781E+01  0.39793794355E+03  0.88601184152E+03  0.50400001928E-02 0.  1.
</event>
<event>
 5   0  0.1097156E-03  0.1531817E+04  0.7818609E-02  0.8863567E-01
        2   -1    0    0  501    0  0.00000000000E+00  0.00000000000E+00  0.76734583338E+03  0.76734583339E+03  0.25500000920E-02 0.  1.
       -2   -1    0    0    0  501  0.00000000000E+00  0.00000000000E+00 -0.76447336129E+03  0.76447336129E+03  0.25500000920E-02 0. -1.
    10030    2    1    2    0    0  0.00000000000E+00  0.00000000000E+00  0.28724720950E+01  0.15318191947E+04  0.15318165014E+04 0.  0.
        2    1    3    3  502    0  0.12939131994E+03  0.51261193505E+03 -0.55273288865E+03  0.76487041768E+03  0.25500000920E-02 0. -1.
       -2    1    3    3    0  502 -0.12939131994E+03 -0.51261193505E+03  0.55560536075E+03  0.76694877700E+03  0.25500000920E-02 0.  1.
</event>
<event>
 5   0  0.5840834E-04  0.1552265E+04  0.7818609E-02  0.8850422E-01
       -1   -1    0    0    0  501  0.00000000000E+00  0.00000000000E+00  0.14845869693E+04  0.14845869694E+04  0.50400001928E-02 0.  1.
        1   -1    0    0  501    0  0.00000000000E+00  0.00000000000E+00 -0.40575695676E+03  0.40575695679E+03  0.50400001928E-02 0. -1.
    10030    2    1    2    0    0  0.00000000000E+00  0.00000000000E+00  0.10788300126E+04  0.18903439262E+04  0.15522647851E+04 0.  0.
        3    1    3    3  502    0  0.56066366234E+03 -0.43169176773E+03  0.92773763226E+03  0.11667898907E+04  0.10100000352E+00 0. -1.
       -3    1    3    3    0  502 -0.56066366234E+03  0.43169176773E+03  0.15109238033E+03  0.72355403543E+03  0.10100000352E+00 0.  1.
</event>
<event>
 5   0  0.1149716E-03  0.1484023E+04  0.7818609E-02  0.8895148E-01
        2   -1    0    0  501    0  0.00000000000E+00  0.00000000000E+00  0.99428687991E+03  0.99428687991E+03  0.25500000920E-02 0. -1.
       -2   -1    0    0    0  501  0.00000000000E+00  0.00000000000E+00 -0.55374451698E+03  0.55374451699E+03  0.25500000920E-02 0.  1.
    10030    2    1    2    0    0  0.00000000000E+00  0.00000000000E+00  0.44054236293E+03  0.15480313969E+04  0.14840227870E+04 0.  0.
        1    1    3    3  502    0  0.22005253616E+03 -0.56578273477E+03  0.66534472279E+03  0.90067575842E+03  0.50400001928E-02 0. -1.
       -1    1    3    3    0  502 -0.22005253616E+03  0.56578273477E+03 -0.22480235987E+03  0.64735563848E+03  0.50400001928E-02 0.  1.
</event>
<event>
 5   0  0.5924403E-04  0.1498076E+04  0.7818609E-02  0.8885733E-01
        1   -1    0    0  501    0  0.00000000000E+00  0.00000000000E+00  0.13464046482E+04  0.13464046482E+04  0.50400001928E-02 0.  1.
       -1   -1    0    0    0  501  0.00000000000E+00  0.00000000000E+00 -0.41670850852E+03  0.41670850855E+03  0.50400001928E-02 0. -1.
    10030    2    1    2    0    0  0.00000000000E+00  0.00000000000E+00  0.92969613964E+03  0.17631131567E+04  0.14980764638E+04 0.  0.
        1    1    3    3  502    0  0.48912466524E+03 -0.47098870149E+03  0.92701875215E+02  0.68532250274E+03  0.50400001928E-02 0. -1.
       -1    1    3    3    0  502 -0.48912466524E+03  0.47098870149E+03  0.83699426443E+03  0.10777906540E+04  0.50400001928E-02 0.  1.
</event>
<event>
 5   0  0.5840834E-04  0.1503690E+04  0.7818609E-02  0.8882003E-01
       -1   -1    0    0    0  501  0.00000000000E+00  0.00000000000E+00  0.62241856375E+03  0.62241856377E+03  0.50400001928E-02 0.  1.
        1   -1    0    0  501    0  0.00000000000E+00  0.00000000000E+00 -0.90818396769E+03  0.90818396770E+03  0.50400001928E-02 0. -1.
    10030    2    1    2    0    0  0.00000000000E+00  0.00000000000E+00 -0.28576540394E+03  0.15306025315E+04  0.15036895435E+04 0.  0.
        3    1    3    3  502    0  0.36452538789E+03  0.10492251104E+03  0.51787583557E+03  0.64193682167E+03  0.10100000352E+00 0.  1.
       -3    1    3    3    0  502 -0.36452538789E+03 -0.10492251104E+03 -0.80364123951E+03  0.88866570981E+03  0.10100000352E+00 0. -1.
</event>
<event>
 5   0  0.1147755E-03  0.1498119E+04  0.7818609E-02  0.8885705E-01
        2   -1    0    0  501    0  0.00000000000E+00  0.00000000000E+00  0.12266638157E+04  0.12266638157E+04  0.25500000920E-02 0. -1.
       -2   -1    0    0    0  501  0.00000000000E+00  0.00000000000E+00 -0.45741142317E+03  0.45741142318E+03  0.25500000920E-02 0.  1.
    10030    2    1    2    0    0  0.00000000000E+00  0.00000000000E+00  0.76925239258E+03  0.16840752389E+04  0.14981188761E+04 0.  0.
        4    1    3    3  502    0  0.44992449592E+03  0.24672425781E+03 -0.22880455316E+03  0.56183453780E+03  0.12699999809E+01 0.  1.
       -4    1    3    3    0  502 -0.44992449592E+03 -0.24672425781E+03  0.99805694574E+03  0.11222407011E+04  0.12699999809E+01 0. -1.
</event>
<event>
 5   0  0.4070625E-04  0.1495174E+04  0.7818609E-02  0.8887669E-01
        4   -1    0    0  501    0  0.00000000000E+00  0.00000000000E+00  0.12758004023E+04  0.12758010344E+04  0.12699999809E+01 0. -1.
       -4   -1    0    0    0  501  0.00000000000E+00  0.00000000000E+00 -0.43806548853E+03  0.43806732946E+03  0.12699999809E+01 0.  1.
    10030    2    1    2    0    0  0.00000000000E+00  0.00000000000E+00  0.83773491373E+03  0.17138683638E+04  0.14951738972E+04 0.  0.
        5    1    3    3  502    0 -0.23976251624E+03 -0.70314842459E+03  0.32323564772E+03  0.81018957359E+03  0.46999998093E+01 0.  1.
       -5    1    3    3    0  502  0.23976251624E+03  0.70314842459E+03  0.51449926601E+03  0.90367879024E+03  0.46999998093E+01 0. -1.
</event>
<event>
 5   0  0.1149716E-03  0.1505409E+04  0.7818609E-02  0.8880864E-01
       -2   -1    0    0    0  501  0.00000000000E+00  0.00000000000E+00  0.12465067926E+04  0.12465067926E+04  0.25500000920E-02 0.  1.
        2   -1    0    0  501    0  0.00000000000E+00  0.00000000000E+00 -0.45452120123E+03  0.45452120123E+03  0.25500000920E-02 0. -1.
    10030    2    1    2    0    0  0.00000000000E+00  0.00000000000E+00  0.79198559132E+03  0.17010279938E+04  0.15054086019E+04 0.  0.
        1    1    3    3  502    0 -0.33172419895E+03  0.62829101942E+03  0.67683163628E+03  0.98127040776E+03  0.50400001928E-02 0.  1.
       -1    1    3    3    0  502  0.33172419895E+03 -0.62829101942E+03  0.11515395505E+03  0.71975758603E+03  0.50400001928E-02 0. -1.
</event>
<event>
 5   0  0.1082667E-03  0.1492689E+04  0.7818609E-02  0.8889329E-01
       -2   -1    0    0    0  501  0.00000000000E+00  0.00000000000E+00  0.44281310349E+03  0.44281310350E+03  0.25500000920E-02 0.  1.
        2   -1    0    0  501    0  0.00000000000E+00  0.00000000000E+00 -0.12579352244E+04  0.12579352244E+04  0.25500000920E-02 0. -1.
    10030    2    1    2    0    0  0.00000000000E+00  0.00000000000E+00 -0.81512212087E+03  0.17007483279E+04  0.14926891179E+04 0.  0.
        5    1    3    3  502    0  0.30865202845E+03 -0.58188017882E+03 -0.77073717645E+01  0.65873523569E+03  0.46999998093E+01 0. -1.
       -5    1    3    3    0  502 -0.30865202845E+03  0.58188017882E+03 -0.80741474910E+03  0.10420130922E+04  0.46999998093E+01 0.  1.
</event>
<event>
 5   0  0.1147755E-03  0.1498184E+04  0.7818609E-02  0.8885662E-01
        2   -1    0    0  501    0  0.00000000000E+00  0.00000000000E+00  0.13220870261E+04  0.13220870261E+04  0.25500000920E-02 0. -1.
       -2   -1    0    0    0  501  0.00000000000E+00  0.00000000000E+00 -0.42443405068E+03  0.42443405069E+03  0.25500000920E-02 0.  1.
    10030    2    1    2    0    0  0.00000000000E+00  0.00000000000E+00  0.89765297539E+03  0.17465210768E+04  0.14981839030E+04 0.  0.
        4    1    3    3  502    0  0.60059745094E+03 -0.43840989356E+03  0.34315570168E+03  0.81894931549E+03  0.12699999809E+01 0.  1.
       -4    1    3    3    0  502 -0.60059745094E+03  0.43840989356E+03  0.55449727370E+03  0.92757176126E+03  0.12699999809E+01 0. -1.
</event>
<event>
 5   0  0.5840834E-04  0.1480551E+04  0.7818609E-02  0.8897491E-01
       -1   -1    0    0    0  501  0.00000000000E+00  0.00000000000E+00  0.73158902083E+03  0.73158902084E+03  0.50400001928E-02 0.  1.
        1   -1    0    0  501    0  0.00000000000E+00  0.00000000000E+00 -0.74906474398E+03  0.74906474399E+03  0.50400001928E-02 0. -1.
    10030    2    1    2    0    0  0.00000000000E+00  0.00000000000E+00 -0.17475723150E+02  0.14806537648E+04  0.14805506308E+04 0.  0.
        3    1    3    3  502    0  0.71347292528E+03 -0.11493180858E+03 -0.16923142810E+03  0.74222114102E+03  0.10100000352E+00 0. -1.
       -3    1    3    3    0  502 -0.71347292528E+03  0.11493180858E+03  0.15175570495E+03  0.73843262381E+03  0.10100000352E+00 0.  1.
</event>
<event>
 5   0  0.5840834E-04  0.1519974E+04  0.7818609E-02  0.8871278E-01
        1   -1    0    0  501    0  0.00000000000E+00  0.00000000000E+00  0.11901725770E+04  0.11901725770E+04  0.50400001928E-02 0.  1.
       -1   -1    0    0    0  501  0.00000000000E+00  0.00000000000E+00 -0.48529131782E+03  0.48529131785E+03  0.50400001928E-02 0. -1.
    10030    2    1    2    0    0  0.00000000000E+00  0.00000000000E+00  0.70488125916E+03  0.16754638948E+04  0.15199742345E+04 0.  0.
        3    1    3    3  502    0 -0.10003258266E+03 -0.49040341018E+03  0.98285306336E+03  0.11029515749E+04  0.10100000352E+00 0.  1.
       -3    1    3    3    0  502  0.10003258266E+03  0.49040341018E+03 -0.27797180420E+03  0.57251231990E+03  0.10100000352E+00 0. -1.
</event>
<event>
 5   0  0.1126175E-03  0.1507027E+04  0.7818609E-02  0.8879794E-01
        2   -1    0    0  501    0  0.00000000000E+00  0.00000000000E+00  0.26536990647E+03  0.26536990648E+03  0.25500000920E-02 0.  1.
       -2   -1    0    0    0  501  0.00000000000E+00  0.00000000000E+00 -0.21395881019E+04  0.21395881019E+04  0.25500000920E-02 0. -1.
    10030    2    1    2    0    0  0.00000000000E+00  0.00000000000E+00 -0.18742181954E+04  0.24049580084E+04  0.15070266016E+04 0.  0.
        3    1    3    3  502    0 -0.62883063387E+02  0.58038407572E+03 -0.17681327635E+03  0.60996958933E+03  0.10100000352E+00 0.  1.
       -3    1    3    3    0  502  0.62883063387E+02 -0.58038407572E+03 -0.16974049191E+04  0.17949884190E+04  0.10100000352E+00 0. -1.
</event>
<event>
 5   0  0.1147755E-03  0.1524117E+04  0.7818609E-02  0.8868572E-01
       -2   -1    0    0    0  501  0.00000000000E+00  0.00000000000E+00  0.41177774909E+03  0.41177774910E+03  0.25500000920E-02 0. -1.
        2   -1    0    0  501    0  0.00000000000E+00  0.00000000000E+00 -0.14103080595E+04  0.14103080595E+04  0.25500000920E-02 0.  1.
    10030    2    1    2    0    0  0.00000000000E+00  0.00000000000E+00 -0.99853031039E+03  0.18220858086E+04  0.15241174210E+04 0.  0.
        4    1    3    3  502    0  0.50677328908E+03  0.35491358061E+03 -0.10311616256E+04  0.12025301357E+04  0.12699999809E+01 0.  1.
       -4    1    3    3    0  502 -0.50677328908E+03 -0.35491358061E+03  0.32631315169E+02  0.61955567293E+03  0.12699999809E+01 0. -1.
</event>
<event>
 5   0  0.5606965E-04  0.1527719E+04  0.7818609E-02  0.8866226E-01
        1   -1    0    0  501    0  0.00000000000E+00  0.00000000000E+00  0.93651878047E+03  0.93651878049E+03  0.50400001928E-02 0.  1.
       -1   -1    0    0    0  501  0.00000000000E+00  0.00000000000E+00 -0.62303223107E+03  0.62303223109E+03  0.50400001928E-02 0. -1.
    10030    2    1    2    0    0  0.00000000000E+00  0.00000000000E+00  0.31348654940E+03  0.15595510116E+04  0.15277190648E+04 0.  0.
        4    1    3    3  502    0  0.52843329477E+03 -0.47931937898E+03 -0.12187388912E+03  0.72377045521E+03  0.12699999809E+01 0. -1.
       -4    1    3    3    0  502 -0.52843329477E+03  0.47931937898E+03  0.43536043852E+03  0.83578055637E+03  0.12699999809E+01 0.  1.
</event>
<event>
 5   0  0.5924403E-04  0.1497945E+04  0.7818609E-02  0.8885820E-01
        1   -1    0    0  501    0  0.00000000000E+00  0.00000000000E+00  0.96109133506E+03  0.96109133508E+03  0.50400001928E-02 0. -1.
       -1   -1    0    0    0  501  0.00000000000E+00  0.00000000000E+00 -0.58366980725E+03  0.58366980727E+03  0.50400001928E-02 0.  1.
    10030    2    1    2    0    0  0.00000000000E+00  0.00000000000E+00  0.37742152781E+03  0.15447611423E+04  0.14979452517E+04 0.  0.
        1    1    3    3  502    0  0.52044598309E+03 -0.53715458553E+03  0.22945407361E+03  0.78233512128E+03  0.50400001928E-02 0. -1.
       -1    1    3    3    0  502 -0.52044598309E+03  0.53715458553E+03  0.14796745421E+03  0.76242602106E+03  0.50400001928E-02 0.  1.
</event>
<event>
 5   0  0.5914645E-04  0.1487340E+04  0.7818609E-02  0.8892916E-01
        1   -1    0    0  501    0  0.00000000000E+00  0.00000000000E+00  0.10376634223E+04  0.10376634223E+04  0.50400001928E-02 0. -1.
       -1   -1    0    0    0  501  0.00000000000E+00  0.00000000000E+00 -0.53297133092E+03  0.53297133094E+03  0.50400001928E-02 0.  1.
    10030    2    1    2    0    0  0.00000000000E+00  0.00000000000E+00  0.50469209138E+03  0.15706347533E+04  0.14873397127E+04 0.  0.
        2    1    3    3  502    0 -0.70346093554E+03  0.19547374734E+03  0.40160365617E+03  0.83327832708E+03  0.25500000920E-02 0.  1.
       -2    1    3    3    0  502  0.70346093554E+03 -0.19547374734E+03  0.10308843521E+03  0.73735642617E+03  0.25500000920E-02 0. -1.
</event>
<event>
 5   0  0.1147755E-03  0.1391416E+04  0.7818609E-02  0.8960056E-01
       -2   -1    0    0    0  501  0.00000000000E+00  0.00000000000E+00  0.88960348366E+03  0.88960348367E+03  0.25500000920E-02 0.  1.
        2   -1    0    0  501    0  0.00000000000E+00  0.00000000000E+00 -0.54407304567E+03  0.54407304567E+03  0.25500000920E-02 0. -1.
    10030    2    1    2    0    0  0.00000000000E+00  0.00000000000E+00  0.34553043799E+03  0.14336765293E+04  0.13914155049E+04 0.  0.
        4    1    3    3  502    0  0.58747927187E+01 -0.55467758198E+03 -0.25987590466E+03  0.61256741006E+03  0.12699999809E+01 0. -1.
       -4    1    3    3    0  502 -0.58747927187E+01  0.55467758198E+03  0.60540634265E+03  0.82110911928E+03  0.12699999809E+01 0.  1.
</event>
<event>
 5   0  0.1147755E-03  0.1497035E+04  0.7818609E-02  0.8886427E-01
       -2   -1    0    0    0  501  0.00000000000E+00  0.00000000000E+00  0.43153986067E+03  0.43153986067E+03  0.25500000920E-02 0.  1.
        2   -1    0    0  501    0  0.00000000000E+00  0.00000000000E+00 -0.12983229739E+04  0.12983229739E+04  0.25500000920E-02 0. -1.
    10030    2    1    2    0    0  0.00000000000E+00  0.00000000000E+00 -0.86678311319E+03  0.17298628345E+04  0.14970345557E+04 0.  0.
        4    1    3    3  502    0 -0.69308804589E+01 -0.56691235838E+03  0.13132734273E+03  0.58196747593E+03  0.12699999809E+01 0.  1.
       -4    1    3    3    0  502  0.69308804589E+01  0.56691235838E+03 -0.99811045592E+03  0.11478953586E+04  0.12699999809E+01 0. -1.
</event>
<event>
 5   0  0.1082667E-03  0.1494810E+04  0.7818609E-02  0.8887911E-01
        2   -1    0    0  501    0  0.00000000000E+00  0.00000000000E+00  0.75291579215E+03  0.75291579215E+03  0.25500000920E-02 0.  1.
       -2   -1    0    0    0  501  0.00000000000E+00  0.00000000000E+00 -0.74193486136E+03  0.74193486136E+03  0.25500000920E-02 0. -1.
    10030    2    1    2    0    0  0.00000000000E+00  0.00000000000E+00  0.10980930792E+02  0.14948506535E+04  0.14948103209E+04 0.  0.
        5    1    3    3  502    0 -0.33286343246E+03 -0.29185111394E+03 -0.59670287138E+03  0.74300171204E+03  0.46999998093E+01 0. -1.
       -5    1    3    3    0  502  0.33286343246E+03  0.29185111394E+03  0.60768380217E+03  0.75184894148E+03  0.46999998093E+01 0.  1.
</event>
<event>
 5   0  0.5840834E-04  0.1473555E+04  0.7818609E-02  0.8902231E-01
        1   -1    0    0  501    0  0.00000000000E+00  0.00000000000E+00  0.69535109445E+03  0.69535109446E+03  0.50400001928E-02 0. -1.
       -1   -1    0    0    0  501  0.00000000000E+00  0.00000000000E+00 -0.78067226810E+03  0.78067226812E+03  0.50400001928E-02 0.  1.
    10030    2    1    2    0    0  0.00000000000E+00  0.00000000000E+00 -0.85321173658E+02  0.14760233626E+04  0.14735553143E+04 0.  0.
        3    1    3    3  502    0 -0.36644594503E+03  0.59929757002E+02  0.59477551904E+03  0.70116484129E+03  0.10100000352E+00 0. -1.
       -3    1    3    3    0  502  0.36644594503E+03 -0.59929757002E+02 -0.68009669270E+03  0.77485852130E+03  0.10100000352E+00 0.  1.
</event>
<event>
 5   0  0.5914645E-04  0.1506773E+04  0.7818609E-02  0.8879962E-01
        1   -1    0    0  501    0  0.00000000000E+00  0.00000000000E+00  0.67671455912E+03  0.67671455913E+03  0.50400001928E-02 0. -1.
       -1   -1    0    0    0  501  0.00000000000E+00  0.00000000000E+00 -0.83874494304E+03  0.83874494306E+03  0.50400001928E-02 0.  1.
    10030    2    1    2    0    0  0.00000000000E+00  0.00000000000E+00 -0.16203038393E+03  0.15154595022E+04  0.15067725965E+04 0.  0.
        2    1    3    3  502    0  0.15699486311E+03 -0.39272937359E+03 -0.70807345603E+03  0.82477376720E+03  0.25500000920E-02 0.  1.
       -2    1    3    3    0  502 -0.15699486311E+03  0.39272937359E+03  0.54604307210E+03  0.69068573499E+03  0.25500000920E-02 0. -1.
</event>
<event>
 5   0  0.1149716E-03  0.1479269E+04  0.7818609E-02  0.8898357E-01
        2   -1    0    0  501    0  0.00000000000E+00  0.00000000000E+00  0.99476898608E+03  0.99476898608E+03  0.25500000920E-02 0. -1.
       -2   -1    0    0    0  501  0.00000000000E+00  0.00000000000E+00 -0.54993587710E+03  0.54993587711E+03  0.25500000920E-02 0.  1.
    10030    2    1    2    0    0  0.00000000000E+00  0.00000000000E+00  0.44483310897E+03  0.15447048632E+04  0.14792689477E+04 0.  0.
        1    1    3    3  502    0  0.42101312712E+03  0.26171986100E+02 -0.41201301150E+03  0.58965392200E+03  0.50400001928E-02 0.  1.
       -1    1    3    3    0  502 -0.42101312712E+03 -0.26171986100E+02  0.85684612047E+03  0.95505094119E+03  0.50400001928E-02 0. -1.
</event>
<event>
 5   0  0.5606965E-04  0.1512476E+04  0.7818609E-02  0.8876199E-01
        1   -1    0    0  501    0  0.00000000000E+00  0.00000000000E+00  0.99462610676E+03  0.99462610677E+03  0.50400001928E-02 0.  1.
       -1   -1    0    0    0  501  0.00000000000E+00  0.00000000000E+00 -0.57498599220E+03  0.57498599222E+03  0.50400001928E-02 0. -1.
    10030    2    1    2    0    0  0.00000000000E+00  0.00000000000E+00  0.41964011456E+03  0.15696120990E+04  0.15124762198E+04 0.  0.
        4    1    3    3  502    0 -0.85346867145E+02  0.37236161047E+03  0.88712893662E+03  0.96588644248E+03  0.12699999809E+01 0.  1.
       -4    1    3    3    0  502  0.85346867145E+02 -0.37236161047E+03 -0.46748882206E+03  0.60372565651E+03  0.12699999809E+01 0. -1.
</event>
<event>
 5   0  0.1149716E-03  0.1463500E+04  0.7818609E-02  0.8909094E-01
       -2   -1    0    0    0  501  0.00000000000E+00  0.00000000000E+00  0.45831692946E+03  0.45831692946E+03  0.25500000920E-02 0.  1.
        2   -1    0    0  501    0  0.00000000000E+00  0.00000000000E+00 -0.11683144259E+04  0.11683144259E+04  0.25500000920E-02 0. -1.
    10030    2    1    2    0    0  0.00000000000E+00  0.00000000000E+00 -0.70999749644E+03  0.16266313554E+04  0.14635002977E+04 0.  0.
        1    1    3    3  502    0  0.35967093839E+03 -0.29825160218E+03 -0.98092414552E+03  0.10865216893E+04  0.50400001928E-02 0. -1.
       -1    1    3    3    0  502 -0.35967093839E+03  0.29825160218E+03  0.27092664908E+03  0.54010966602E+03  0.50400001928E-02 0.  1.
</event>
<event>
 5   0  0.1097156E-03  0.1481004E+04  0.7818609E-02  0.8897184E-01
        2   -1    0    0  501    0  0.00000000000E+00  0.00000000000E+00  0.60845175686E+03  0.60845175686E+03  0.25500000920E-02 0.  1.
       -2   -1    0    0    0  501  0.00000000000E+00  0.00000000000E+00 -0.90121014788E+03  0.90121014788E+03  0.25500000920E-02 0. -1.
    10030    2    1    2    0    0  0.00000000000E+00  0.00000000000E+00 -0.29275839102E+03  0.15096619047E+04  0.14810035757E+04 0.  0.
        2    1    3    3  502    0  0.89621356712E+02  0.44316221244E+03  0.45141424545E+03  0.63890496564E+03  0.25500000920E-02 0.  1.
       -2    1    3    3    0  502 -0.89621356712E+02 -0.44316221244E+03 -0.74417263648E+03  0.87075693911E+03  0.25500000920E-02 0. -1.
</event>
<event>
 5   0  0.5606965E-04  0.1529909E+04  0.7818609E-02  0.8864804E-01
       -1   -1    0    0    0  501  0.00000000000E+00  0.00000000000E+00  0.18447424249E+04  0.18447424249E+04  0.50400001928E-02 0. -1.
        1   -1    0    0  501    0  0.00000000000E+00  0.00000000000E+00 -0.31720161639E+03  0.31720161643E+03  0.50400001928E-02 0.  1.
    10030    2    1    2    0    0  0.00000000000E+00  0.00000000000E+00  0.15275408085E+04  0.21619440414E+04  0.15299088588E+04 0.  0.
        4    1    3    3  502    0  0.48080559741E+02  0.57947960645E+03  0.61398392304E+02  0.58470482296E+03  0.12699999809E+01 0.  1.
       -4    1    3    3    0  502 -0.48080559741E+02 -0.57947960645E+03  0.14661424162E+04  0.15772392184E+04  0.12699999809E+01 0. -1.
</event>
<event>
 5   0  0.1147755E-03  0.1488418E+04  0.7818609E-02  0.8892191E-01
        2   -1    0    0  501    0  0.00000000000E+00  0.00000000000E+00  0.46682213335E+03  0.46682213336E+03  0.25500000920E-02 0. -1.
       -2   -1    0    0    0  501  0.00000000000E+00  0.00000000000E+00 -0.11864204850E+04  0.11864204850E+04  0.25500000920E-02 0.  1.
    10030    2    1    2    0    0  0.00000000000E+00  0.00000000000E+00 -0.71959835167E+03  0.16532426184E+04  0.14884184114E+04 0.  0.
        4    1    3    3  502    0 -0.20925605658E+03 -0.35596242060E+03  0.32791563702E+03  0.52728324456E+03  0.12699999809E+01 0. -1.
       -4    1    3    3    0  502  0.20925605658E+03  0.35596242060E+03 -0.10475139887E+04  0.11259593738E+04  0.12699999809E+01 0.  1.
</event>
<event>
 5   0  0.5840834E-04  0.1505902E+04  0.7818609E-02  0.8880538E-01
       -1   -1    0    0    0  501  0.00000000000E+00  0.00000000000E+00  0.37240885099E+03  0.37240885102E+03  0.50400001928E-02 0.  1.
        1   -1    0    0  501    0  0.00000000000E+00  0.00000000000E+00 -0.15223461690E+04  0.15223461690E+04  0.50400001928E-02 0. -1.
    10030    2    1    2    0    0  0.00000000000E+00  0.00000000000E+00 -0.11499373180E+04  0.18947550200E+04  0.15059019724E+04 0.  0.
        3    1    3    3  502    0  0.21541715986E+03  0.45471263382E+03  0.12982181952E+03  0.51963626427E+03  0.10100000352E+00 0.  1.
       -3    1    3    3    0  502 -0.21541715986E+03 -0.45471263382E+03 -0.12797591375E+04  0.13751187557E+04  0.10100000352E+00 0. -1.
</event>
<event>
 5   0  0.1082667E-03  0.1519585E+04  0.7818609E-02  0.8871532E-01
        2   -1    0    0  501    0  0.00000000000E+00  0.00000000000E+00  0.15561433779E+04  0.15561433779E+04  0.25500000920E-02 0. -1.
       -2   -1    0    0    0  501  0.00000000000E+00  0.00000000000E+00 -0.37097144811E+03  0.37097144811E+03  0.25500000920E-02 0.  1.
    10030    2    1    2    0    0  0.00000000000E+00  0.00000000000E+00  0.11851719298E+04  0.19271148260E+04  0.15195851570E+04 0.  0.
        5    1    3    3  502    0 -0.65888879274E+03  0.11507912535E+03  0.10496342594E+04  0.12446412394E+04  0.46999998093E+01 0. -1.
       -5    1    3    3    0  502  0.65888879274E+03 -0.11507912535E+03  0.13553767035E+03  0.68247358658E+03  0.46999998093E+01 0.  1.
</event>
<event>
 5   0  0.1082667E-03  0.1468147E+04  0.7818609E-02  0.8905916E-01
        2   -1    0    0  501    0  0.00000000000E+00  0.00000000000E+00  0.30390604546E+04  0.30390604546E+04  0.25500000920E-02 0.  1.
       -2   -1    0    0    0  501  0.00000000000E+00  0.00000000000E+00 -0.17731260146E+03  0.17731260148E+03  0.25500000920E-02 0. -1.
    10030    2    1    2    0    0  0.00000000000E+00  0.00000000000E+00  0.28617478531E+04  0.32163730561E+04  0.14681467437E+04 0.  0.
        5    1    3    3  502    0  0.12755086539E+03  0.18279348283E+02 -0.15230971960E+03  0.19955875957E+03  0.46999998093E+01 0. -1.
       -5    1    3    3    0  502 -0.12755086539E+03 -0.18279348283E+02  0.30140575727E+04  0.30168142965E+04  0.46999998093E+01 0.  1.
</event>
<event>
 5   0  0.1149716E-03  0.1532973E+04  0.7818609E-02  0.8862817E-01
       -2   -1    0    0    0  501  0.00000000000E+00  0.00000000000E+00  0.64565556724E+03  0.64565556725E+03  0.25500000920E-02 0.  1.
        2   -1    0    0  501    0  0.00000000000E+00  0.00000000000E+00 -0.90993084372E+03  0.90993084372E+03  0.25500000920E-02 0. -1.
    10030    2    1    2    0    0  0.00000000000E+00  0.00000000000E+00 -0.26427527648E+03  0.15555864110E+04  0.15329734702E+04 0.  0.
        1    1    3    3  502    0 -0.63988109543E+03 -0.10422814982E+03 -0.54705864106E+03  0.84828325474E+03  0.50400001928E-02 0. -1.
       -1    1    3    3    0  502  0.63988109543E+03  0.10422814982E+03  0.28278336458E+03  0.70730315623E+03  0.50400001928E-02 0.  1.
</event>
<event>
 5   0  0.5606965E-04  0.1545615E+04  0.7818609E-02  0.8854674E-01
       -1   -1    0    0    0  501  0.00000000000E+00  0.00000000000E+00  0.84174082070E+03  0.84174082071E+03  0.50400001928E-02 0. -1.
        1   -1    0    0  501    0  0.00000000000E+00  0.00000000000E+00 -0.70951903848E+03  0.70951903850E+03  0.50400001928E-02 0.  1.
    10030    2    1    2    0    0  0.00000000000E+00  0.00000000000E+00  0.13222178222E+03  0.15512598592E+04  0.15456146192E+04 0.  0.
        4    1    3    3  502    0 -0.21662753356E+03 -0.55206543823E+03 -0.43120449418E+03  0.73324120526E+03  0.12699999809E+01 0.  1.
       -4    1    3    3    0  502  0.21662753356E+03  0.55206543823E+03  0.56342627640E+03  0.81801865396E+03  0.12699999809E+01 0. -1.
</event>
<event>
 5   0  0.5840834E-04  0.1432984E+04  0.7818609E-02  0.8930283E-01
       -1   -1    0    0    0  501  0.00000000000E+00  0.00000000000E+00  0.40269148547E+03  0.40269148551E+03  0.50400001928E-02 0.  1.
        1   -1    0    0  501    0  0.00000000000E+00  0.00000000000E+00 -0.12748245251E+04  0.12748245251E+04  0.50400001928E-02 0. -1.
    10030    2    1    2    0    0  0.00000000000E+00  0.00000000000E+00 -0.87213303960E+03  0.16775160106E+04  0.14329842731E+04 0.  0.
        3    1    3    3  502    0 -0.35985572421E+03 -0.15418248171E+02  0.28900340788E+03  0.46179740644E+03  0.10100000352E+00 0.  1.
       -3    1    3    3    0  502  0.35985572421E+03  0.15418248171E+02 -0.11611364475E+04  0.12157186042E+04  0.10100000352E+00 0. -1.
</event>
<event>
 5   0  0.5840834E-04  0.1402502E+04  0.7818609E-02  0.8952009E-01
       -1   -1    0    0    0  501  0.00000000000E+00  0.00000000000E+00  0.13146865625E+04  0.13146865625E+04  0.50400001928E-02 0.  1.
        1   -1    0    0  501    0  0.00000000000E+00  0.00000000000E+00 -0.37404598811E+03  0.37404598814E+03  0.50400001928E-02 0. -1.
    10030    2    1    2    0    0  0.00000000000E+00  0.00000000000E+00  0.94064057443E+03  0.16887325507E+04  0.14025023841E+04 0.  0.
        3    1    3    3  502    0  0.51720204252E+03 -0.47168904421E+03  0.52090214728E+03  0.87254086693E+03  0.10100000352E+00 0.  1.
       -3    1    3    3    0  502 -0.51720204252E+03  0.47168904421E+03  0.41973842715E+03  0.81619168376E+03  0.10100000352E+00 0. -1.
</event>
<event>
 5   0  0.1147755E-03  0.1509951E+04  0.7818609E-02  0.8877862E-01
        2   -1    0    0  501    0  0.00000000000E+00  0.00000000000E+00  0.18648411553E+04  0.18648411553E+04  0.25500000920E-02 0.  1.
       -2   -1    0    0    0  501  0.00000000000E+00  0.00000000000E+00 -0.30564978806E+03  0.30564978807E+03  0.25500000920E-02 0. -1.
    10030    2    1    2    0    0  0.00000000000E+00  0.00000000000E+00  0.15591913673E+04  0.21704909434E+04  0.15099513951E+04 0.  0.
        4    1    3    3  502    0 -0.19409436188E+02  0.57582449914E+03  0.78275345663E+02  0.58144580372E+03  0.12699999809E+01 0. -1.
       -4    1    3    3    0  502  0.19409436188E+02 -0.57582449914E+03  0.14809160216E+04  0.15890451397E+04  0.12699999809E+01 0.  1.
</event>
<event>
 5   0  0.6146552E-04  0.1417076E+04  0.7818609E-02  0.8941550E-01
       -1   -1    0    0    0  501  0.00000000000E+00  0.00000000000E+00  0.16649426788E+04  0.16649426788E+04  0.50400001928E-02 0. -1.
        1   -1    0    0  501    0  0.00000000000E+00  0.00000000000E+00 -0.30152758525E+03  0.30152758529E+03  0.50400001928E-02 0.  1.
    10030    2    1    2    0    0  0.00000000000E+00  0.00000000000E+00  0.13634150936E+04  0.19664702641E+04  0.14170760679E+04 0.  0.
        5    1    3    3  502    0 -0.39129594284E+03  0.16532188177E+02  0.15010571830E+04  0.15513157592E+04  0.46999998093E+01 0.  1.
       -5    1    3    3    0  502  0.39129594284E+03 -0.16532188177E+02 -0.13764208947E+03  0.41515450488E+03  0.46999998093E+01 0. -1.
</event>
<event>
 5   0  0.5606965E-04  0.1585250E+04  0.7818609E-02  0.8829661E-01
        1   -1    0    0  501    0  0.00000000000E+00  0.00000000000E+00  0.12866500234E+04  0.12866500234E+04  0.50400001928E-02 0. -1.
       -1   -1    0    0    0  501  0.00000000000E+00  0.00000000000E+00 -0.48828664041E+03  0.48828664044E+03  0.50400001928E-02 0.  1.
    10030    2    1    2    0    0  0.00000000000E+00  0.00000000000E+00  0.79836338301E+03  0.17749366639E+04  0.15852495291E+04 0.  0.
        4    1    3    3  502    0 -0.70163599011E+03 -0.27375082684E+03  0.12260172965E+03  0.76306315258E+03  0.12699999809E+01 0.  1.
       -4    1    3    3    0  502  0.70163599011E+03  0.27375082684E+03  0.67576165336E+03  0.10118735113E+04  0.12699999809E+01 0. -1.
</event>
<event>
 5   0  0.5914645E-04  0.1504459E+04  0.7818609E-02  0.8881493E-01
       -1   -1    0    0    0  501  0.00000000000E+00  0.00000000000E+00  0.64295756391E+03  0.64295756393E+03  0.50400001928E-02 0. -1.
        1   -1    0    0  501    0  0.00000000000E+00  0.00000000000E+00 -0.88007197105E+03  0.88007197106E+03  0.50400001928E-02 0.  1.
    10030    2    1    2    0    0  0.00000000000E+00  0.00000000000E+00 -0.23711440713E+03  0.15230295350E+04  0.15044586144E+04 0.  0.
        2    1    3    3  502    0  0.15930141758E+03 -0.48164454268E+03  0.44371808057E+03  0.67397636618E+03  0.25500000920E-02 0. -1.
       -2    1    3    3    0  502 -0.15930141758E+03  0.48164454268E+03 -0.68083248770E+03  0.84905316881E+03  0.25500000920E-02 0.  1.
</event>
<event>
 5   0  0.1126175E-03  0.1504542E+04  0.7818609E-02  0.8881438E-01
       -2   -1    0    0    0  501  0.00000000000E+00  0.00000000000E+00  0.46914779348E+03  0.46914779348E+03  0.25500000920E-02 0. -1.
        2   -1    0    0  501    0  0.00000000000E+00  0.00000000000E+00 -0.12062553234E+04  0.12062553234E+04  0.25500000920E-02 0.  1.
    10030    2    1    2    0    0  0.00000000000E+00  0.00000000000E+00 -0.73710752994E+03  0.16754031169E+04  0.15045424864E+04 0.  0.
        3    1    3    3  502    0 -0.64227979297E+03  0.24956775094E+03 -0.32440958961E+02  0.68982593513E+03  0.10100000352E+00 0. -1.
       -3    1    3    3    0  502  0.64227979297E+03 -0.24956775094E+03 -0.70466657098E+03  0.98557718177E+03  0.10100000352E+00 0.  1.
</event>
<event>
 5   0  0.1147755E-03  0.1497227E+04  0.7818609E-02  0.8886299E-01
        2   -1    0    0  501    0  0.00000000000E+00  0.00000000000E+00  0.50650023745E+03  0.50650023746E+03  0.25500000920E-02 0.  1.
       -2   -1    0    0    0  501  0.00000000000E+00  0.00000000000E+00 -0.11064597434E+04  0.11064597434E+04  0.25500000920E-02 0. -1.
    10030    2    1    2    0    0  0.00000000000E+00  0.00000000000E+00 -0.59995950597E+03  0.16129599809E+04  0.14972269337E+04 0.  0.
        4    1    3    3  502    0  0.20724893228E+03  0.12248146893E+03 -0.10636213811E+04  0.10905255089E+04  0.12699999809E+01 0. -1.
       -4    1    3    3    0  502 -0.20724893228E+03 -0.12248146893E+03  0.46366187517E+03  0.52243447201E+03  0.12699999809E+01 0.  1.
</event>
<event>
 5   0  0.1126175E-03  0.1529789E+04  0.7818609E-02  0.8864882E-01
       -2   -1    0    0    0  501  0.00000000000E+00  0.00000000000E+00  0.97999846700E+03  0.97999846701E+03  0.25500000920E-02 0. -1.
        2   -1    0    0  501    0  0.00000000000E+00  0.00000000000E+00 -0.59700480080E+03  0.59700480081E+03  0.25500000920E-02 0.  1.
    10030    2    1    2    0    0  0.00000000000E+00  0.00000000000E+00  0.38299366620E+03  0.15770032678E+04  0.15297892529E+04 0.  0.
        3    1    3    3  502    0 -0.29253041003E+03 -0.37329556027E+03 -0.42714141347E+03  0.63825810877E+03  0.10100000352E+00 0.  1.
       -3    1    3    3    0  502  0.29253041003E+03  0.37329556027E+03  0.81013507967E+03  0.93874515904E+03  0.10100000352E+00 0. -1.
</event>
<event>
 5   0  0.1126175E-03  0.1493014E+04  0.7818609E-02  0.8889112E-01
       -2   -1    0    0    0  501  0.00000000000E+00  0.00000000000E+00  0.38663313595E+03  0.38663313596E+03  0.25500000920E-02 0. -1.
        2   -1    0    0  501    0  0.00000000000E+00  0.00000000000E+00 -0.14413475905E+04  0.14413475905E+04  0.25500000920E-02 0.  1.
    10030    2    1    2    0    0  0.00000000000E+00  0.00000000000E+00 -0.10547144545E+04  0.18279807265E+04  0.14930140507E+04 0.  0.
        3    1    3    3  502    0  0.51494073863E+03 -0.35623284315E+03 -0.10250047454E+04  0.12011246984E+04  0.10100000352E+00 0. -1.
       -3    1    3    3    0  502 -0.51494073863E+03  0.35623284315E+03 -0.29709709109E+02  0.62685602801E+03  0.10100000352E+00 0.  1.
</event>
<event>
 5   0  0.6146552E-04  0.1527495E+04  0.7818609E-02  0.8866372E-01
        1   -1    0    0  501    0  0.00000000000E+00  0.00000000000E+00  0.13001968707E+04  0.13001968708E+04  0.50400001928E-02 0.  1.
       -1   -1    0    0    0  501  0.00000000000E+00  0.00000000000E+00 -0.44863233757E+03  0.44863233760E+03  0.50400001928E-02 0. -1.
    10030    2    1    2    0    0  0.00000000000E+00  0.00000000000E+00  0.85156453317E+03  0.17488292084E+04  0.15274951541E+04 0.  0.
        5    1    3    3  502    0 -0.43555863123E+03 -0.26933576460E+03  0.10744822413E+04  0.11902887264E+04  0.46999998093E+01 0.  1.
       -5    1    3    3    0  502  0.43555863123E+03  0.26933576460E+03 -0.22291770816E+03  0.55854048192E+03  0.46999998093E+01 0. -1.
</event>
<event>
 5   0  0.5606965E-04  0.1509587E+04  0.7818609E-02  0.8878103E-01
       -1   -1    0    0    0  501  0.00000000000E+00  0.00000000000E+00  0.99020741724E+03  0.99020741726E+03  0.50400001928E-02 0.  1.
        1   -1    0    0  501    0  0.00000000000E+00  0.00000000000E+00 -0.57534703817E+03  0.57534703819E+03  0.50400001928E-02 0. -1.
    10030    2    1    2    0    0  0.00000000000E+00  0.00000000000E+00  0.41486037908E+03  0.15655544554E+04  0.15095865722E+04 0.  0.
        4    1    3    3  502    0  0.19989601277E+03  0.71191894269E+03  0.50409041617E+02  0.74116778212E+03  0.12699999809E+01 0.  1.
       -4    1    3    3    0  502 -0.19989601277E+03 -0.71191894269E+03  0.36445133746E+03  0.82438667332E+03  0.12699999809E+01 0. -1.
</event>
<event>
 5   0  0.6146552E-04  0.1487872E+04  0.7818609E-02  0.8892558E-01
       -1   -1    0    0    0  501  0.00000000000E+00  0.00000000000E+00  0.70053741617E+03  0.70053741619E+03  0.50400001928E-02 0.  1.
        1   -1    0    0  501    0  0.00000000000E+00  0.00000000000E+00 -0.79002286014E+03  0.79002286016E+03  0.50400001928E-02 0. -1.
    10030    2    1    2    0    0  0.00000000000E+00  0.00000000000E+00 -0.89485443973E+02  0.14905602763E+04  0.14878717326E+04 0.  0.
        5    1    3    3  502    0 -0.83423590036E+02 -0.22371707527E+03 -0.75057930107E+03  0.78765487514E+03  0.46999998093E+01 0. -1.
       -5    1    3    3    0  502  0.83423590036E+02  0.22371707527E+03  0.66109385710E+03  0.70290540120E+03  0.46999998093E+01 0.  1.
</event>
<event>
 5   0  0.5924403E-04  0.1488851E+04  0.7818609E-02  0.8891901E-01
       -1   -1    0    0    0  501  0.00000000000E+00  0.00000000000E+00  0.71209055351E+03  0.71209055353E+03  0.50400001928E-02 0.  1.
        1   -1    0    0  501    0  0.00000000000E+00  0.00000000000E+00 -0.77822916931E+03  0.77822916932E+03  0.50400001928E-02 0. -1.
    10030    2    1    2    0    0  0.00000000000E+00  0.00000000000E+00 -0.66138615797E+02  0.14903197228E+04  0.14888514230E+04 0.  0.
        1    1    3    3  502    0  0.56933743789E+03  0.33338711937E+03  0.31205695772E+03  0.72984356846E+03  0.50400001928E-02 0.  1.
       -1    1    3    3    0  502 -0.56933743789E+03 -0.33338711937E+03 -0.37819557351E+03  0.76047615439E+03  0.50400001928E-02 0. -1.
</event>
<event>
 5   0  0.1147755E-03  0.1479336E+04  0.7818609E-02  0.8898312E-01
        2   -1    0    0  501    0  0.00000000000E+00  0.00000000000E+00  0.17077941368E+04  0.17077941368E+04  0.25500000920E-02 0.  1.
       -2   -1    0    0    0  501  0.00000000000E+00  0.00000000000E+00 -0.32035976494E+03  0.32035976495E+03  0.25500000920E-02 0. -1.
    10030    2    1    2    0    0  0.00000000000E+00  0.00000000000E+00  0.13874343718E+04  0.20281539017E+04  0.14793356999E+04 0.  0.
        4    1    3    3  502    0 -0.27134490886E+03 -0.44070354808E+03 -0.30782070555E+02  0.51845619451E+03  0.12699999809E+01 0. -1.
       -4    1    3    3    0  502  0.27134490886E+03  0.44070354808E+03  0.14182164424E+04  0.15096977072E+04  0.12699999809E+01 0.  1.
</event>
<event>
 5   0  0.1149716E-03  0.1507478E+04  0.7818609E-02  0.8879495E-01
       -2   -1    0    0    0  501  0.00000000000E+00  0.00000000000E+00  0.50237738792E+03  0.50237738793E+03  0.25500000920E-02 0. -1.
        2   -1    0    0  501    0  0.00000000000E+00  0.00000000000E+00 -0.11308679390E+04  0.11308679390E+04  0.25500000920E-02 0.  1.
    10030    2    1    2    0    0  0.00000000000E+00  0.00000000000E+00 -0.62849055109E+03  0.16332453269E+04  0.15074780016E+04 0.  0.
        1    1    3    3  502    0  0.78227544832E+02 -0.13716855055E+03 -0.11127461813E+04  0.11238944897E+04  0.50400001928E-02 0.  1.
       -1    1    3    3    0  502 -0.78227544832E+02  0.13716855055E+03  0.48425563017E+03  0.50935083725E+03  0.50400001928E-02 0. -1.
</event>
<event>
 5   0  0.1097156E-03  0.1499986E+04  0.7818609E-02  0.8884462E-01
       -2   -1    0    0    0  501  0.00000000000E+00  0.00000000000E+00  0.43014149566E+03  0.43014149566E+03  0.25500000920E-02 0.  1.
        2   -1    0    0  501    0  0.00000000000E+00  0.00000000000E+00 -0.13076854624E+04  0.13076854624E+04  0.25500000920E-02 0. -1.
    10030    2    1    2    0    0  0.00000000000E+00  0.00000000000E+00 -0.87754396674E+03  0.17378269581E+04  0.14999863741E+04 0.  0.
        2    1    3    3  502    0 -0.60224746145E+01  0.72937029335E+03 -0.64101482389E+03  0.97103928833E+03  0.25500000920E-02 0. -1.
       -2    1    3    3    0  502  0.60224746145E+01 -0.72937029335E+03 -0.23652914285E+03  0.76678766973E+03  0.25500000920E-02 0.  1.
</event>
<event>
 5   0  0.5840834E-04  0.1486303E+04  0.7818609E-02  0.8893613E-01
       -1   -1    0    0    0  501  0.00000000000E+00  0.00000000000E+00  0.61587816434E+03  0.61587816437E+03  0.50400001928E-02 0.  1.
        1   -1    0    0  501    0  0.00000000000E+00  0.00000000000E+00 -0.89672597552E+03  0.89672597554E+03  0.50400001928E-02 0. -1.
    10030    2    1    2    0    0  0.00000000000E+00  0.00000000000E+00 -0.28084781118E+03  0.15126041399E+04  0.14863027252E+04 0.  0.
        3    1    3    3  502    0  0.51687988451E+02 -0.51035178929E+03 -0.68765984001E+03  0.85790830672E+03  0.10100000352E+00 0. -1.
       -3    1    3    3    0  502 -0.51687988451E+02  0.51035178929E+03  0.40681202883E+03  0.65469583318E+03  0.10100000352E+00 0.  1.
</event>
<event>
 5   0  0.1126175E-03  0.1467344E+04  0.7818609E-02  0.8906464E-01
        2   -1    0    0  501    0  0.00000000000E+00  0.00000000000E+00  0.14779069782E+04  0.14779069782E+04  0.25500000920E-02 0. -1.
       -2   -1    0    0    0  501  0.00000000000E+00  0.00000000000E+00 -0.36421436597E+03  0.36421436598E+03  0.25500000920E-02 0.  1.
    10030    2    1    2    0    0  0.00000000000E+00  0.00000000000E+00  0.11136926122E+04  0.18421213442E+04  0.14673444763E+04 0.  0.
        3    1    3    3  502    0  0.38006785444E+03  0.45277100503E+03  0.11324389176E+02  0.59125409847E+03  0.10100000352E+00 0.  1.
       -3    1    3    3    0  502 -0.38006785444E+03 -0.45277100503E+03  0.11023682230E+04  0.12508672457E+04  0.10100000352E+00 0. -1.
</event>
<event>
 5   0  0.1082667E-03  0.1530695E+04  0.7818609E-02  0.8864294E-01
        2   -1    0    0  501    0  0.00000000000E+00  0.00000000000E+00  0.42530795574E+03  0.42530795575E+03  0.25500000920E-02 0.  1.
       -2   -1    0    0    0  501  0.00000000000E+00  0.00000000000E+00 -0.13772537945E+04  0.13772537945E+04  0.25500000920E-02 0. -1.
    10030    2    1    2    0    0  0.00000000000E+00  0.00000000000E+00 -0.95194583879E+03  0.18025617503E+04  0.15306952615E+04 0.  0.
        5    1    3    3  502    0  0.74030923347E+02 -0.12437565951E+03 -0.13609723667E+04  0.13686554553E+04  0.46999998093E+01 0. -1.
       -5    1    3    3    0  502 -0.74030923347E+02  0.12437565951E+03  0.40902652793E+03  0.43390629500E+03  0.46999998093E+01 0.  1.
</event>
<event>
 5   0  0.1149716E-03  0.1548653E+04  0.7818609E-02  0.8852729E-01
        2   -1    0    0  501    0  0.00000000000E+00  0.00000000000E+00  0.99538927476E+03  0.99538927477E+03  0.25500000920E-02 0.  1.
       -2   -1    0    0    0  501  0.00000000000E+00  0.00000000000E+00 -0.60235881339E+03  0.60235881340E+03  0.25500000920E-02 0. -1.
    10030    2    1    2    0    0  0.00000000000E+00  0.00000000000E+00  0.39303046137E+03  0.15977480882E+04  0.15486529662E+04 0.  0.
        1    1    3    3  502    0  0.38464822923E+02  0.77102594631E+03  0.25859719596E+03  0.81414560262E+03  0.50400001928E-02 0.  1.
       -1    1    3    3    0  502 -0.38464822923E+02 -0.77102594631E+03  0.13443326541E+03  0.78360248555E+03  0.50400001928E-02 0. -1.
</event>
<event>
 5   0  0.5840834E-04  0.1488255E+04  0.7818609E-02  0.8892301E-01
        1   -1    0    0  501    0  0.00000000000E+00  0.00000000000E+00  0.17204403490E+04  0.17204403490E+04  0.50400001928E-02 0. -1.
       -1   -1    0    0    0  501  0.00000000000E+00  0.00000000000E+00 -0.32185130743E+03  0.32185130747E+03  0.50400001928E-02 0.  1.
    10030    2    1    2    0    0  0.00000000000E+00  0.00000000000E+00  0.13985890416E+04  0.20422916565E+04  0.14882553218E+04 0.  0.
        3    1    3    3  502    0 -0.66926116322E+02  0.34677556048E+03 -0.19951095759E+03  0.40563163929E+03  0.10100000352E+00 0.  1.
       -3    1    3    3    0  502  0.66926116322E+02 -0.34677556048E+03  0.15980999992E+04  0.16366600172E+04  0.10100000352E+00 0. -1.
</event>
<event>
 5   0  0.5606965E-04  0.1498897E+04  0.7818609E-02  0.8885186E-01
        1   -1    0    0  501    0  0.00000000000E+00  0.00000000000E+00  0.60628091485E+03  0.60628091487E+03  0.50400001928E-02 0. -1.
       -1   -1    0    0    0  501  0.00000000000E+00  0.00000000000E+00 -0.92642434405E+03  0.92642434407E+03  0.50400001928E-02 0.  1.
    10030    2    1    2    0    0  0.00000000000E+00  0.00000000000E+00 -0.32014342921E+03  0.15327052589E+04  0.14988974600E+04 0.  0.
        4    1    3    3  502    0  0.69694878043E+02 -0.48380420107E+03  0.42085110928E+03  0.64501251932E+03  0.12699999809E+01 0. -1.
       -4    1    3    3    0  502 -0.69694878043E+02  0.48380420107E+03 -0.74099453848E+03  0.88769273961E+03  0.12699999809E+01 0.  1.
</event>
<event>
 5   0  0.5840834E-04  0.1499464E+04  0.7818609E-02  0.8884809E-01
       -1   -1    0    0    0  501  0.00000000000E+00  0.00000000000E+00  0.40028246207E+03  0.40028246210E+03  0.50400001928E-02 0. -1.
        1   -1    0    0  501    0  0.00000000000E+00  0.00000000000E+00 -0.14042535362E+04  0.14042535362E+04  0.50400001928E-02 0.  1.
    10030    2    1    2    0    0  0.00000000000E+00  0.00000000000E+00 -0.10039710741E+04  0.18045359983E+04  0.14994639881E+04 0.  0.
        3    1    3    3  502    0  0.36706246026E+03 -0.47047233114E+03  0.44254005218E+02  0.59836234113E+03  0.10100000352E+00 0. -1.
       -3    1    3    3    0  502 -0.36706246026E+03  0.47047233114E+03 -0.10482250794E+04  0.12061736572E+04  0.10100000352E+00 0.  1.
</event>
<event>
 5   0  0.1149716E-03  0.1516179E+04  0.7818609E-02  0.8873765E-01
       -2   -1    0    0    0  501  0.00000000000E+00  0.00000000000E+00  0.50137846918E+03  0.50137846919E+03  0.25500000920E-02 0.  1.
        2   -1    0    0  501    0  0.00000000000E+00  0.00000000000E+00 -0.11462393599E+04  0.11462393599E+04  0.25500000920E-02 0. -1.
    10030    2    1    2    0    0  0.00000000000E+00  0.00000000000E+00 -0.64486089076E+03  0.16476178291E+04  0.15161790601E+04 0.  0.
        1    1    3    3  502    0  0.34957163758E+03  0.65818834804E+03 -0.17151141500E+03  0.76474073829E+03  0.50400001928E-02 0.  1.
       -1    1    3    3    0  502 -0.34957163758E+03 -0.65818834804E+03 -0.47334947577E+03  0.88287709084E+03  0.50400001928E-02 0. -1.
</event>
<event>
 5   0  0.4070625E-04  0.1499180E+04  0.7818609E-02  0.8884999E-01
        4   -1    0    0  501    0  0.00000000000E+00  0.00000000000E+00  0.67307066618E+03  0.67307186434E+03  0.12699999809E+01 0.  1.
       -4   -1    0    0    0  501  0.00000000000E+00  0.00000000000E+00 -0.83480594488E+03  0.83480691091E+03  0.12699999809E+01 0. -1.
    10030    2    1    2    0    0  0.00000000000E+00  0.00000000000E+00 -0.16173527870E+03  0.15078787753E+04  0.14991798093E+04 0.  0.
        2    1    3    3  502    0  0.46560384708E+03 -0.16088057030E+03  0.48740232994E+03  0.69298667487E+03  0.25500000920E-02 0.  1.
       -2    1    3    3    0  502 -0.46560384708E+03  0.16088057030E+03 -0.64913760864E+03  0.81489210038E+03  0.25500000920E-02 0. -1.
</event>
<event>
 5   0  0.1097156E-03  0.1517112E+04  0.7818609E-02  0.8873153E-01
       -2   -1    0    0    0  501  0.00000000000E+00  0.00000000000E+00  0.34059670714E+03  0.34059670715E+03  0.25500000920E-02 0.  1.
        2   -1    0    0  501    0  0.00000000000E+00  0.00000000000E+00 -0.16894084029E+04  0.16894084029E+04  0.25500000920E-02 0. -1.
    10030    2    1    2    0    0  0.00000000000E+00  0.00000000000E+00 -0.13488116958E+04  0.20300051101E+04  0.15171116492E+04 0.  0.
        2    1    3    3  502    0 -0.71638738571E+03  0.19862553391E+03 -0.47260985726E+03  0.88092171407E+03  0.25500000920E-02 0. -1.
       -2    1    3    3    0  502  0.71638738571E+03 -0.19862553391E+03 -0.87620183854E+03  0.11490833960E+04  0.25500000920E-02 0.  1.
</event>
<event>
 5   0  0.1126175E-03  0.1479153E+04  0.7818609E-02  0.8898435E-01
       -2   -1    0    0    0  501  0.00000000000E+00  0.00000000000E+00  0.37549483297E+03  0.37549483298E+03  0.25500000920E-02 0. -1.
        2   -1    0    0  501    0  0.00000000000E+00  0.00000000000E+00 -0.14566738823E+04  0.14566738823E+04  0.25500000920E-02 0.  1.
    10030    2    1    2    0    0  0.00000000000E+00  0.00000000000E+00 -0.10811790493E+04  0.18321687153E+04  0.14791531579E+04 0.  0.
        3    1    3    3  502    0 -0.10214106841E+03 -0.54697452159E+03  0.62880497823E+02  0.55997133171E+03  0.10100000352E+00 0. -1.
       -3    1    3    3    0  502  0.10214106841E+03  0.54697452159E+03 -0.11440595471E+04  0.12721973836E+04  0.10100000352E+00 0.  1.
</event>
<event>
 5   0  0.1097156E-03  0.1471979E+04  0.7818609E-02  0.8903303E-01
       -2   -1    0    0    0  501  0.00000000000E+00  0.00000000000E+00  0.64859862279E+03  0.64859862279E+03  0.25500000920E-02 0. -1.
        2   -1    0    0  501    0  0.00000000000E+00  0.00000000000E+00 -0.83515556482E+03  0.83515556483E+03  0.25500000920E-02 0.  1.
    10030    2    1    2    0    0  0.00000000000E+00  0.00000000000E+00 -0.18655694204E+03  0.14837541876E+04  0.14719792786E+04 0.  0.
        2    1    3    3  502    0 -0.67435435459E+03 -0.21747539677E+03  0.10739039573E+03  0.71664638481E+03  0.25500000920E-02 0. -1.
       -2    1    3    3    0  502  0.67435435459E+03  0.21747539677E+03 -0.29394733777E+03  0.76710780282E+03  0.25500000920E-02 0.  1.
</event>
<event>
 5   0  0.1126175E-03  0.1449910E+04  0.7818609E-02  0.8918463E-01
       -2   -1    0    0    0  501  0.00000000000E+00  0.00000000000E+00  0.15979443307E+04  0.15979443307E+04  0.25500000920E-02 0.  1.
        2   -1    0    0  501    0  0.00000000000E+00  0.00000000000E+00 -0.32889751371E+03  0.32889751372E+03  0.25500000920E-02 0. -1.
    10030    2    1    2    0    0  0.00000000000E+00  0.00000000000E+00  0.12690468170E+04  0.19268418444E+04  0.14499102282E+04 0.  0.
        3    1    3    3  502    0  0.26459025046E+03 -0.36519228739E+03  0.13888486231E+04  0.14602307748E+04  0.10100000352E+00 0.  1.
       -3    1    3    3    0  502 -0.26459025046E+03  0.36519228739E+03 -0.11980180611E+03  0.46661106969E+03  0.10100000352E+00 0. -1.
</event>
<event>
 5   0  0.1126175E-03  0.1537377E+04  0.7818609E-02  0.8859971E-01
        2   -1    0    0  501    0  0.00000000000E+00  0.00000000000E+00  0.77066144760E+03  0.77066144760E+03  0.25500000920E-02 0. -1.
       -2   -1    0    0    0  501  0.00000000000E+00  0.00000000000E+00 -0.76672103240E+03  0.76672103240E+03  0.25500000920E-02 0.  1.
    10030    2    1    2    0    0  0.00000000000E+00  0.00000000000E+00  0.39404151982E+01  0.15373824800E+04  0.15373774302E+04 0.  0.
        3    1    3    3  502    0 -0.37727008748E+01  0.33192306837E+03 -0.69135390983E+03  0.76691420343E+03  0.10100000352E+00 0.  1.
       -3    1    3    3    0  502  0.37727008748E+01 -0.33192306837E+03  0.69529432503E+03  0.77046827657E+03  0.10100000352E+00 0. -1.
</event>
<event>
 5   0  0.1147755E-03  0.1477820E+04  0.7818609E-02  0.8899338E-01
       -2   -1    0    0    0  501  0.00000000000E+00  0.00000000000E+00  0.30115738391E+03  0.30115738392E+03  0.25500000920E-02 0.  1.
        2   -1    0    0  501    0  0.00000000000E+00  0.00000000000E+00 -0.18129647476E+04  0.18129647476E+04  0.25500000920E-02 0. -1.
    10030    2    1    2    0    0  0.00000000000E+00  0.00000000000E+00 -0.15118073637E+04  0.21141221315E+04  0.14778196379E+04 0.  0.
        4    1    3    3  502    0 -0.17950864054E+03  0.39154168955E+02 -0.17797647279E+04  0.17892234351E+04  0.12699999809E+01 0. -1.
       -4    1    3    3    0  502  0.17950864054E+03 -0.39154168955E+02  0.26795736426E+03  0.32489869642E+03  0.12699999809E+01 0.  1.
</event>
<event>
 5   0  0.6146552E-04  0.1490755E+04  0.7818609E-02  0.8890624E-01
       -1   -1    0    0    0  501  0.00000000000E+00  0.00000000000E+00  0.78784526733E+03  0.78784526735E+03  0.50400001928E-02 0. -1.
        1   -1    0    0  501    0  0.00000000000E+00  0.00000000000E+00 -0.70519877037E+03  0.70519877039E+03  0.50400001928E-02 0.  1.
    10030    2    1    2    0    0  0.00000000000E+00  0.00000000000E+00  0.82646496963E+02  0.14930440377E+04  0.14907548609E+04 0.  0.
        5    1    3    3  502    0 -0.59713551598E+03  0.12567576740E+03 -0.38735293563E+03  0.72279292311E+03  0.46999998093E+01 0.  1.
       -5    1    3    3    0  502  0.59713551598E+03 -0.12567576740E+03  0.46999943259E+03  0.77025111463E+03  0.46999998093E+01 0. -1.
</event>
<event>
 5   0  0.5914645E-04  0.1645640E+04  0.7818609E-02  0.8792990E-01
       -1   -1    0    0    0  501  0.00000000000E+00  0.00000000000E+00  0.96632979881E+03  0.96632979882E+03  0.50400001928E-02 0.  1.
        1   -1    0    0  501    0  0.00000000000E+00  0.00000000000E+00 -0.70062264026E+03  0.70062264028E+03  0.50400001928E-02 0. -1.
    10030    2    1    2    0    0  0.00000000000E+00  0.00000000000E+00  0.26570715855E+03  0.16669524391E+04  0.16456397358E+04 0.  0.
        2    1    3    3  502    0  0.50223193620E+03  0.58446431551E+03  0.42502819976E+03  0.88004796712E+03  0.25500000920E-02 0.  1.
       -2    1    3    3    0  502 -0.50223193620E+03 -0.58446431551E+03 -0.15932104121E+03  0.78690447198E+03  0.25500000920E-02 0. -1.
</event>
<event>
 5   0  0.5914645E-04  0.1377786E+04  0.7818609E-02  0.8970057E-01
       -1   -1    0    0    0  501  0.00000000000E+00  0.00000000000E+00  0.36834041560E+03  0.36834041563E+03  0.50400001928E-02 0. -1.
        1   -1    0    0  501    0  0.00000000000E+00  0.00000000000E+00 -0.12884102242E+04  0.12884102242E+04  0.50400001928E-02 0.  1.
    10030    2    1    2    0    0  0.00000000000E+00  0.00000000000E+00 -0.92006980860E+03  0.16567506398E+04  0.13777859884E+04 0.  0.
        2    1    3    3  502    0  0.50453990093E+03 -0.45682845897E+03 -0.58797716971E+03  0.89942754276E+03  0.25500000920E-02 0.  1.
       -2    1    3    3    0  502 -0.50453990093E+03  0.45682845897E+03 -0.33209263889E+03  0.75732309708E+03  0.25500000920E-02 0. -1.
</event>
<event>
 5   0  0.5840834E-04  0.1454449E+04  0.7818609E-02  0.8915322E-01
       -1   -1    0    0    0  501  0.00000000000E+00  0.00000000000E+00  0.40727409160E+03  0.40727409163E+03  0.50400001928E-02 0.  1.
        1   -1    0    0  501    0  0.00000000000E+00  0.00000000000E+00 -0.12985243982E+04  0.12985243982E+04  0.50400001928E-02 0. -1.
    10030    2    1    2    0    0  0.00000000000E+00  0.00000000000E+00 -0.89125030658E+03  0.17057984898E+04  0.14544488231E+04 0.  0.
        3    1    3    3  502    0 -0.45007023630E+03 -0.43725306258E+03 -0.87670723470E+03  0.10781322015E+04  0.10100000352E+00 0. -1.
       -3    1    3    3    0  502  0.45007023630E+03  0.43725306258E+03 -0.14543071878E+02  0.62766628831E+03  0.10100000352E+00 0.  1.
</event>
<event>
 5   0  0.1149716E-03  0.1491697E+04  0.7818609E-02  0.8889993E-01
        2   -1    0    0  501    0  0.00000000000E+00  0.00000000000E+00  0.78043084712E+03  0.78043084712E+03  0.25500000920E-02 0. -1.
       -2   -1    0    0    0  501  0.00000000000E+00  0.00000000000E+00 -0.71279819490E+03  0.71279819490E+03  0.25500000920E-02 0.  1.
    10030    2    1    2    0    0  0.00000000000E+00  0.00000000000E+00  0.67632652220E+02  0.14932290420E+04  0.14916966167E+04 0.  0.
        1    1    3    3  502    0  0.19532527506E+03  0.27968185707E+03  0.69775918000E+03  0.77668640876E+03  0.50400001928E-02 0. -1.
       -1    1    3    3    0  502 -0.19532527506E+03 -0.27968185707E+03 -0.63012652778E+03  0.71654263327E+03  0.50400001928E-02 0.  1.
</event>
<event>
 5   0  0.5840834E-04  0.1451713E+04  0.7818609E-02  0.8917214E-01
       -1   -1    0    0    0  501  0.00000000000E+00  0.00000000000E+00  0.42986788302E+03  0.42986788305E+03  0.50400001928E-02 0.  1.
        1   -1    0    0  501    0  0.00000000000E+00  0.00000000000E+00 -0.12256504917E+04  0.12256504917E+04  0.50400001928E-02 0. -1.
    10030    2    1    2    0    0  0.00000000000E+00  0.00000000000E+00 -0.79578260870E+03  0.16555183748E+04  0.14517131703E+04 0.  0.
        3    1    3    3  502    0 -0.55785142641E+03  0.36015914519E+03 -0.73223152908E+03  0.98847146959E+03  0.10100000352E+00 0.  1.
       -3    1    3    3    0  502  0.55785142641E+03 -0.36015914519E+03 -0.63551079619E+02  0.66704690520E+03  0.10100000352E+00 0. -1.
</event>
<event>
 5   0  0.1126175E-03  0.1528851E+04  0.7818609E-02  0.8865491E-01
       -2   -1    0    0    0  501  0.00000000000E+00  0.00000000000E+00  0.40197136481E+03  0.40197136482E+03  0.25500000920E-02 0. -1.
        2   -1    0    0  501    0  0.00000000000E+00  0.00000000000E+00 -0.14537011302E+04  0.14537011303E+04  0.25500000920E-02 0.  1.
    10030    2    1    2    0    0  0.00000000000E+00  0.00000000000E+00 -0.10517297654E+04  0.18556724951E+04  0.15288508460E+04 0.  0.
        3    1    3    3  502    0  0.46088308425E+03 -0.53680114740E+03 -0.17454722107E+03  0.72872177940E+03  0.10100000352E+00 0. -1.
       -3    1    3    3    0  502 -0.46088308425E+03  0.53680114740E+03 -0.87718254437E+03  0.11269507157E+04  0.10100000352E+00 0.  1.
</event>
<event>
 5   0  0.5924403E-04  0.1451201E+04  0.7818609E-02  0.8917568E-01
        1   -1    0    0  501    0  0.00000000000E+00  0.00000000000E+00  0.13204601536E+04  0.13204601536E+04  0.50400001928E-02 0. -1.
       -1   -1    0    0    0  501  0.00000000000E+00  0.00000000000E+00 -0.39872189447E+03  0.39872189450E+03  0.50400001928E-02 0.  1.
    10030    2    1    2    0    0  0.00000000000E+00  0.00000000000E+00  0.92173825913E+03  0.17191820481E+04  0.14512013975E+04 0.  0.
        1    1    3    3  502    0  0.10033005977E+03  0.24435787238E+02 -0.38997263968E+03  0.40341280137E+03  0.50400001928E-02 0.  1.
       -1    1    3    3    0  502 -0.10033005977E+03 -0.24435787238E+02  0.13117108988E+04  0.13157692467E+04  0.50400001928E-02 0. -1.
</event>
<event>
 5   0  0.1147755E-03  0.1446616E+04  0.7818609E-02  0.8920750E-01
        2   -1    0    0  501    0  0.00000000000E+00  0.00000000000E+00  0.41405006459E+03  0.41405006460E+03  0.25500000920E-02 0. -1.
       -2   -1    0    0    0  501  0.00000000000E+00  0.00000000000E+00 -0.12635528856E+04  0.12635528856E+04  0.25500000920E-02 0.  1.
    10030    2    1    2    0    0  0.00000000000E+00  0.00000000000E+00 -0.84950282099E+03  0.16776029502E+04  0.14466155728E+04 0.  0.
        4    1    3    3  502    0 -0.36863642838E+03  0.25270886984E+03 -0.10842564316E+04  0.11727609354E+04  0.12699999809E+01 0.  1.
       -4    1    3    3    0  502  0.36863642838E+03 -0.25270886984E+03  0.23475361066E+03  0.50484201474E+03  0.12699999809E+01 0. -1.
</event>
<event>
 5   0  0.1147755E-03  0.1524696E+04  0.7818609E-02  0.8868194E-01
        2   -1    0    0  501    0  0.00000000000E+00  0.00000000000E+00  0.75073820542E+03  0.75073820542E+03  0.25500000920E-02 0.  1.
       -2   -1    0    0    0  501  0.00000000000E+00  0.00000000000E+00 -0.77413736414E+03  0.77413736415E+03  0.25500000920E-02 0. -1.
    10030    2    1    2    0    0  0.00000000000E+00  0.00000000000E+00 -0.23399158724E+02  0.15248755696E+04  0.15246960294E+04 0.  0.
        4    1    3    3  502    0 -0.73045209836E+03 -0.20973790420E+03  0.48495764070E+02  0.76151408949E+03  0.12699999809E+01 0. -1.
       -4    1    3    3    0  502  0.73045209836E+03  0.20973790420E+03 -0.71894922794E+02  0.76336148008E+03  0.12699999809E+01 0.  1.
</event>
<event>
 5   0  0.6146552E-04  0.1559320E+04  0.7818609E-02  0.8845937E-01
        1   -1    0    0  501    0  0.00000000000E+00  0.00000000000E+00  0.15327389208E+04  0.15327389208E+04  0.50400001928E-02 0.  1.
       -1   -1    0    0    0  501  0.00000000000E+00  0.00000000000E+00 -0.39659039224E+03  0.39659039227E+03  0.50400001928E-02 0. -1.
    10030    2    1    2    0    0  0.00000000000E+00  0.00000000000E+00  0.11361485285E+04  0.19293293130E+04  0.15593197617E+04 0.  0.
        5    1    3    3  502    0  0.50934346504E+03  0.96495259187E+02  0.12885817444E+04  0.13889589995E+04  0.46999998093E+01 0.  1.
       -5    1    3    3    0  502 -0.50934346504E+03 -0.96495259187E+02 -0.15243321585E+03  0.54037031351E+03  0.46999998093E+01 0. -1.
</event>
<event>
 5   0  0.5840834E-04  0.1536559E+04  0.7818609E-02  0.8860499E-01
        1   -1    0    0  501    0  0.00000000000E+00  0.00000000000E+00  0.78864818141E+03  0.78864818142E+03  0.50400001928E-02 0.  1.
       -1   -1    0    0    0  501  0.00000000000E+00  0.00000000000E+00 -0.74843708699E+03  0.74843708701E+03  0.50400001928E-02 0. -1.
    10030    2    1    2    0    0  0.00000000000E+00  0.00000000000E+00  0.40211094416E+02  0.15370852684E+04  0.15365592049E+04 0.  0.
        3    1    3    3  502    0 -0.25353659010E+03 -0.71370941207E+03 -0.10874697578E+03  0.76517177310E+03  0.10100000352E+00 0. -1.
       -3    1    3    3    0  502  0.25353659010E+03  0.71370941207E+03  0.14895807020E+03  0.77191349533E+03  0.10100000352E+00 0.  1.
</event>
<event>
 5   0  0.5914645E-04  0.1430056E+04  0.7818609E-02  0.8932345E-01
        1   -1    0    0  501    0  0.00000000000E+00  0.00000000000E+00  0.15413037661E+04  0.15413037661E+04  0.50400001928E-02 0.  1.
       -1   -1    0    0    0  501  0.00000000000E+00  0.00000000000E+00 -0.33170939462E+03  0.33170939466E+03  0.50400001928E-02 0. -1.
    10030    2    1    2    0    0  0.00000000000E+00  0.00000000000E+00  0.12095943715E+04  0.18730131608E+04  0.14300558580E+04 0.  0.
        2    1    3    3  502    0  0.37793630782E+03 -0.90786181599E+02  0.13908501648E+04  0.14441406318E+04  0.25500000920E-02 0.  1.
       -2    1    3    3    0  502 -0.37793630782E+03  0.90786181599E+02 -0.18125579326E+03  0.42887252900E+03  0.25500000920E-02 0. -1.
</event>
<event>
 5   0  0.1147755E-03  0.1592623E+04  0.7818609E-02  0.8825093E-01
        2   -1    0    0  501    0  0.00000000000E+00  0.00000000000E+00  0.21977185919E+04  0.21977185919E+04  0.25500000920E-02 0.  1.
       -2   -1    0    0    0  501  0.00000000000E+00  0.00000000000E+00 -0.28853202666E+03  0.28853202667E+03  0.25500000920E-02 0. -1.
    10030    2    1    2    0    0  0.00000000000E+00  0.00000000000E+00  0.19091865653E+04  0.24862506186E+04  0.15926232440E+04 0.  0.
        4    1    3    3  502    0  0.16287404728E+03 -0.33712294967E+03  0.20517404485E+04  0.20856222858E+04  0.12699999809E+01 0.  1.
       -4    1    3    3    0  502 -0.16287404728E+03  0.33712294967E+03 -0.14255388321E+03  0.40062833273E+03  0.12699999809E+01 0. -1.
</event>
<event>
 5   0  0.5840834E-04  0.1502966E+04  0.7818609E-02  0.8882483E-01
        1   -1    0    0  501    0  0.00000000000E+00  0.00000000000E+00  0.11701365465E+04  0.11701365465E+04  0.50400001928E-02 0. -1.
       -1   -1    0    0    0  501  0.00000000000E+00  0.00000000000E+00 -0.48261619964E+03  0.48261619966E+03  0.50400001928E-02 0.  1.
    10030    2    1    2    0    0  0.00000000000E+00  0.00000000000E+00  0.68752034686E+03  0.16527527462E+04  0.15029662048E+04 0.  0.
        3    1    3    3  502    0  0.49298905103E+03 -0.54891045243E+03  0.50076904390E+03  0.89168970766E+03  0.10100000352E+00 0. -1.
       -3    1    3    3    0  502 -0.49298905103E+03  0.54891045243E+03  0.18675130296E+03  0.76106303851E+03  0.10100000352E+00 0.  1.
</event>
<event>
 5   0  0.1097156E-03  0.1525523E+04  0.7818609E-02  0.8867656E-01
        2   -1    0    0  501    0  0.00000000000E+00  0.00000000000E+00  0.12879633733E+04  0.12879633733E+04  0.25500000920E-02 0.  1.
       -2   -1    0    0    0  501  0.00000000000E+00  0.00000000000E+00 -0.45172459340E+03  0.45172459341E+03  0.25500000920E-02 0. -1.
    10030    2    1    2    0    0  0.00000000000E+00  0.00000000000E+00  0.83623877993E+03  0.17396879667E+04  0.15255225087E+04 0.  0.
        2    1    3    3  502    0  0.49651728778E+03  0.44020925213E+03 -0.10841151330E+02  0.66364985745E+03  0.25500000920E-02 0. -1.
       -2    1    3    3    0  502 -0.49651728778E+03 -0.44020925213E+03  0.84707993126E+03  0.10760381093E+04  0.25500000920E-02 0.  1.
</event>
<event>
 5   0  0.1147755E-03  0.1522598E+04  0.7818609E-02  0.8869563E-01
        2   -1    0    0  501    0  0.00000000000E+00  0.00000000000E+00  0.15673848420E+04  0.15673848420E+04  0.25500000920E-02 0. -1.
       -2   -1    0    0    0  501  0.00000000000E+00  0.00000000000E+00 -0.36977262554E+03  0.36977262555E+03  0.25500000920E-02 0.  1.
    10030    2    1    2    0    0  0.00000000000E+00  0.00000000000E+00  0.11976122165E+04  0.19371574676E+04  0.15225977910E+04 0.  0.
        4    1    3    3  502    0  0.41006505192E+03  0.31270098389E+03 -0.11371028218E+03  0.52807849161E+03  0.12699999809E+01 0.  1.
       -4    1    3    3    0  502 -0.41006505192E+03 -0.31270098389E+03  0.13113224987E+04  0.14090789760E+04  0.12699999809E+01 0. -1.
</event>
<event>
 5   0  0.6146552E-04  0.1510674E+04  0.7818609E-02  0.8877386E-01
        1   -1    0    0  501    0  0.00000000000E+00  0.00000000000E+00  0.26438509479E+04  0.26438509479E+04  0.50400001928E-02 0.  1.
       -1   -1    0    0    0  501  0.00000000000E+00  0.00000000000E+00 -0.21579656160E+03  0.21579656166E+03  0.50400001928E-02 0. -1.
    10030    2    1    2    0    0  0.00000000000E+00  0.00000000000E+00  0.24280543863E+04  0.28596475095E+04  0.15106739477E+04 0.  0.
        5    1    3    3  502    0  0.37225573694E+03  0.20104341401E+03  0.23984812563E+04  0.24355137476E+04  0.46999998093E+01 0.  1.
       -5    1    3    3    0  502 -0.37225573694E+03 -0.20104341401E+03  0.29573129983E+02  0.42413376194E+03  0.46999998093E+01 0. -1.
</event>
<event>
 5   0  0.5914645E-04  0.1507664E+04  0.7818609E-02  0.8879373E-01
        1   -1    0    0  501    0  0.00000000000E+00  0.00000000000E+00  0.13663985657E+04  0.13663985658E+04  0.50400001928E-02 0. -1.
       -1   -1    0    0    0  501  0.00000000000E+00  0.00000000000E+00 -0.41588341171E+03  0.41588341174E+03  0.50400001928E-02 0.  1.
    10030    2    1    2    0    0  0.00000000000E+00  0.00000000000E+00  0.95051515404E+03  0.17822819775E+04  0.15076637520E+04 0.  0.
        2    1    3    3  502    0 -0.85210955514E+02 -0.24302485368E+03 -0.36226793733E+03  0.44447727148E+03  0.25500000920E-02 0.  1.
       -2    1    3    3    0  502  0.85210955514E+02  0.24302485368E+03  0.13127830914E+04  0.13378047060E+04  0.25500000920E-02 0. -1.
</event>
<event>
 5   0  0.1097156E-03  0.1441879E+04  0.7818609E-02  0.8924050E-01
       -2   -1    0    0    0  501  0.00000000000E+00  0.00000000000E+00  0.54193839840E+03  0.54193839840E+03  0.25500000920E-02 0.  1.
        2   -1    0    0  501    0  0.00000000000E+00  0.00000000000E+00 -0.95906465823E+03  0.95906465823E+03  0.25500000920E-02 0. -1.
    10030    2    1    2    0    0  0.00000000000E+00  0.00000000000E+00 -0.41712625983E+03  0.15010030566E+04  0.14418792804E+04 0.  0.
        2    1    3    3  502    0 -0.25380295632E+03 -0.66995420780E+03 -0.29248762986E+03  0.77382400765E+03  0.25500000920E-02 0. -1.
       -2    1    3    3    0  502  0.25380295632E+03  0.66995420780E+03 -0.12463862997E+03  0.72717904898E+03  0.25500000920E-02 0.  1.
</event>
<event>
 5   0  0.1126175E-03  0.1476632E+04  0.7818609E-02  0.8900143E-01
       -2   -1    0    0    0  501  0.00000000000E+00  0.00000000000E+00  0.69065860077E+03  0.69065860078E+03  0.25500000920E-02 0. -1.
        2   -1    0    0  501    0  0.00000000000E+00  0.00000000000E+00 -0.78926153666E+03  0.78926153667E+03  0.25500000920E-02 0.  1.
    10030    2    1    2    0    0  0.00000000000E+00  0.00000000000E+00 -0.98602935891E+02  0.14799201374E+04  0.14766316651E+04 0.  0.
        3    1    3    3  502    0 -0.51994876767E+03 -0.25373731536E+03 -0.50899592737E+03  0.77058822369E+03  0.10100000352E+00 0.  1.
       -3    1    3    3    0  502  0.51994876767E+03  0.25373731536E+03  0.41039299148E+03  0.70933191375E+03  0.10100000352E+00 0. -1.
</event>
<event>
 5   0  0.1082667E-03  0.1521106E+04  0.7818609E-02  0.8870538E-01
        2   -1    0    0  501    0  0.00000000000E+00  0.00000000000E+00  0.11357874978E+04  0.11357874978E+04  0.25500000920E-02 0. -1.
       -2   -1    0    0    0  501  0.00000000000E+00  0.00000000000E+00 -0.50928623670E+03  0.50928623670E+03  0.25500000920E-02 0.  1.
    10030    2    1    2    0    0  0.00000000000E+00  0.00000000000E+00  0.62650126109E+03  0.16450737345E+04  0.15211060981E+04 0.  0.
        5    1    3    3  502    0  0.58045936808E+02  0.34274100198E+03 -0.41832375005E+03  0.54392791349E+03  0.46999998093E+01 0.  1.
       -5    1    3    3    0  502 -0.58045936808E+02 -0.34274100198E+03  0.10448250111E+04  0.11011458210E+04  0.46999998093E+01 0. -1.
</event>
<event>
 5   0  0.5914645E-04  0.1472839E+04  0.7818609E-02  0.8902718E-01
       -1   -1    0    0    0  501  0.00000000000E+00  0.00000000000E+00  0.76644559582E+03  0.76644559584E+03  0.50400001928E-02 0. -1.
        1   -1    0    0  501    0  0.00000000000E+00  0.00000000000E+00 -0.70756977029E+03  0.70756977031E+03  0.50400001928E-02 0.  1.
    10030    2    1    2    0    0  0.00000000000E+00  0.00000000000E+00  0.58875825531E+02  0.14740153661E+04  0.14728390736E+04 0.  0.
        2    1    3    3  502    0 -0.93888887228E+02  0.40467805316E+03  0.63798133896E+03  0.76131441516E+03  0.25500000920E-02 0. -1.
       -2    1    3    3    0  502  0.93888887228E+02 -0.40467805316E+03 -0.57910551343E+03  0.71270095099E+03  0.25500000920E-02 0.  1.
</event>
<event>
 5   0  0.1097156E-03  0.1513350E+04  0.7818609E-02  0.8875624E-01
       -2   -1    0    0    0  501  0.00000000000E+00  0.00000000000E+00  0.22775373787E+03  0.22775373789E+03  0.25500000920E-02 0. -1.
        2   -1    0    0  501    0  0.00000000000E+00  0.00000000000E+00 -0.25139303589E+04  0.25139303589E+04  0.25500000920E-02 0.  1.
    10030    2    1    2    0    0  0.00000000000E+00  0.00000000000E+00 -0.22861766211E+04  0.27416840968E+04  0.15133499741E+04 0.  0.
        2    1    3    3  502    0  0.12515971940E+03  0.40290604114E+03 -0.22810664197E+04  0.23197547811E+04  0.25500000920E-02 0.  1.
       -2    1    3    3    0  502 -0.12515971940E+03 -0.40290604114E+03 -0.51102014159E+01  0.42192931578E+03  0.25500000920E-02 0. -1.
</event>
<event>
 5   0  0.5914645E-04  0.1580175E+04  0.7818609E-02  0.8832821E-01
        1   -1    0    0  501    0  0.00000000000E+00  0.00000000000E+00  0.45603084671E+03  0.45603084674E+03  0.50400001928E-02 0. -1.
       -1   -1    0    0    0  501  0.00000000000E+00  0.00000000000E+00 -0.13688507772E+04  0.13688507772E+04  0.50400001928E-02 0.  1.
    10030    2    1    2    0    0  0.00000000000E+00  0.00000000000E+00 -0.91281993047E+03  0.18248816239E+04  0.15801749004E+04 0.  0.
        2    1    3    3  502    0  0.32280503120E+02 -0.67181925460E+03  0.22342112693E+02  0.67296531243E+03  0.25500000920E-02 0. -1.
       -2    1    3    3    0  502 -0.32280503120E+02  0.67181925460E+03 -0.93516204316E+03  0.11519163115E+04  0.25500000920E-02 0.  1.
</event>
<event>
 5   0  0.1082667E-03  0.1488626E+04  0.7818609E-02  0.8892052E-01
       -2   -1    0    0    0  501  0.00000000000E+00  0.00000000000E+00  0.15095397021E+04  0.15095397021E+04  0.25500000920E-02 0. -1.
        2   -1    0    0  501    0  0.00000000000E+00  0.00000000000E+00 -0.36700037157E+03  0.36700037158E+03  0.25500000920E-02 0.  1.
    10030    2    1    2    0    0  0.00000000000E+00  0.00000000000E+00  0.11425393305E+04  0.18765400737E+04  0.14886257173E+04 0.  0.
        5    1    3    3  502    0 -0.81940065198E+02 -0.40918753210E+03 -0.20563457113E+03  0.46524861908E+03  0.46999998093E+01 0.  1.
       -5    1    3    3    0  502  0.81940065198E+02  0.40918753210E+03  0.13481739016E+04  0.14112914546E+04  0.46999998093E+01 0. -1.
</event>
<event>
 5   0  0.5924403E-04  0.1488715E+04  0.7818609E-02  0.8891992E-01
       -1   -1    0    0    0  501  0.00000000000E+00  0.00000000000E+00  0.32418831143E+03  0.32418831147E+03  0.50400001928E-02 0. -1.
        1   -1    0    0  501    0  0.00000000000E+00  0.00000000000E+00 -0.17090937308E+04  0.17090937308E+04  0.50400001928E-02 0.  1.
    10030    2    1    2    0    0  0.00000000000E+00  0.00000000000E+00 -0.13849054193E+04  0.20332820422E+04  0.14887151651E+04 0.  0.
        1    1    3    3  502    0  0.27720512875E+03  0.50785130618E+03 -0.52838972427E+02  0.58098845911E+03  0.50400001928E-02 0. -1.
       -1    1    3    3    0  502 -0.27720512875E+03 -0.50785130618E+03 -0.13320664469E+04  0.14522935831E+04  0.50400001928E-02 0.  1.
</event>
<event>
 5   0  0.5606965E-04  0.1504740E+04  0.7818609E-02  0.8881307E-01
       -1   -1    0    0    0  501  0.00000000000E+00  0.00000000000E+00  0.86407985590E+03  0.86407985592E+03  0.50400001928E-02 0.  1.
        1   -1    0    0  501    0  0.00000000000E+00  0.00000000000E+00 -0.65510218264E+03  0.65510218266E+03  0.50400001928E-02 0. -1.
    10030    2    1    2    0    0  0.00000000000E+00  0.00000000000E+00  0.20897767326E+03  0.15191820386E+04  0.15047399770E+04 0.  0.
        4    1    3    3  502    0  0.12287693974E+03  0.14426459078E+03  0.83958966164E+03  0.86071100104E+03  0.12699999809E+01 0.  1.
       -4    1    3    3    0  502 -0.12287693974E+03 -0.14426459078E+03 -0.63061198838E+03  0.65847103753E+03  0.12699999809E+01 0. -1.
</event>
<event>
 5   0  0.5924403E-04  0.1509419E+04  0.7818609E-02  0.8878214E-01
       -1   -1    0    0    0  501  0.00000000000E+00  0.00000000000E+00  0.63549137770E+03  0.63549137772E+03  0.50400001928E-02 0. -1.
        1   -1    0    0  501    0  0.00000000000E+00  0.00000000000E+00 -0.89629250466E+03  0.89629250467E+03  0.50400001928E-02 0.  1.
    10030    2    1    2    0    0  0.00000000000E+00  0.00000000000E+00 -0.26080112696E+03  0.15317838824E+04  0.15094186412E+04 0.  0.
        1    1    3    3  502    0 -0.37715109601E+03  0.29889061935E+02  0.53230676164E+03  0.65305956371E+03  0.50400001928E-02 0. -1.
       -1    1    3    3    0  502  0.37715109601E+03 -0.29889061935E+02 -0.79310788861E+03  0.87872431868E+03  0.50400001928E-02 0.  1.
</event>
<event>
 5   0  0.1082667E-03  0.1495215E+04  0.7818609E-02  0.8887641E-01
       -2   -1    0    0    0  501  0.00000000000E+00  0.00000000000E+00  0.65214087676E+03  0.65214087676E+03  0.25500000920E-02 0. -1.
        2   -1    0    0  501    0  0.00000000000E+00  0.00000000000E+00 -0.85704920088E+03  0.85704920089E+03  0.25500000920E-02 0.  1.
    10030    2    1    2    0    0  0.00000000000E+00  0.00000000000E+00 -0.20490832413E+03  0.15091900776E+04  0.14952147903E+04 0.  0.
        5    1    3    3  502    0 -0.50787800705E+03  0.46770335827E+03  0.18694548352E+03  0.71530217753E+03  0.46999998093E+01 0. -1.
       -5    1    3    3    0  502  0.50787800705E+03 -0.46770335827E+03 -0.39185380765E+03  0.79388790011E+03  0.46999998093E+01 0.  1.
</event>
<event>
 5   0  0.6146552E-04  0.1581403E+04  0.7818609E-02  0.8832055E-01
        1   -1    0    0  501    0  0.00000000000E+00  0.00000000000E+00  0.10845604388E+04  0.10845604388E+04  0.50400001928E-02 0.  1.
       -1   -1    0    0    0  501  0.00000000000E+00  0.00000000000E+00 -0.57646306879E+03  0.57646306882E+03  0.50400001928E-02 0. -1.
    10030    2    1    2    0    0  0.00000000000E+00  0.00000000000E+00  0.50809737000E+03  0.16610235076E+04  0.15814032236E+04 0.  0.
        5    1    3    3  502    0  0.77923819551E+03  0.38588254588E+02  0.38890995721E+03  0.87176502772E+03  0.46999998093E+01 0.  1.
       -5    1    3    3    0  502 -0.77923819551E+03 -0.38588254588E+02  0.11918741279E+03  0.78925847991E+03  0.46999998093E+01 0. -1.
</event>
<event>
 5   0  0.5840834E-04  0.1487938E+04  0.7818609E-02  0.8892514E-01
        1   -1    0    0  501    0  0.00000000000E+00  0.00000000000E+00  0.74274228003E+03  0.74274228004E+03  0.50400001928E-02 0.  1.
       -1   -1    0    0    0  501  0.00000000000E+00  0.00000000000E+00 -0.74519771425E+03  0.74519771427E+03  0.50400001928E-02 0. -1.
    10030    2    1    2    0    0  0.00000000000E+00  0.00000000000E+00 -0.24554342284E+01  0.14879399943E+04  0.14879379683E+04 0.  0.
        3    1    3    3  502    0 -0.71945708466E+03  0.17498802526E+03  0.71232946884E+02  0.74385042083E+03  0.10100000352E+00 0. -1.
       -3    1    3    3    0  502  0.71945708466E+03 -0.17498802526E+03 -0.73688381113E+02  0.74408957348E+03  0.10100000352E+00 0.  1.
</event>
<event>
 5   0  0.1149716E-03  0.1430539E+04  0.7818609E-02  0.8932005E-01
       -2   -1    0    0    0  501  0.00000000000E+00  0.00000000000E+00  0.57270486731E+03  0.57270486731E+03  0.25500000920E-02 0.  1.
        2   -1    0    0  501    0  0.00000000000E+00  0.00000000000E+00 -0.89332317511E+03  0.89332317511E+03  0.25500000920E-02 0. -1.
    10030    2    1    2    0    0  0.00000000000E+00  0.00000000000E+00 -0.32061830780E+03  0.14660280424E+04  0.14305391018E+04 0.  0.
        1    1    3    3  502    0  0.65739616671E+03 -0.21736349982E+03 -0.34418702656E+03  0.77322785797E+03  0.50400001928E-02 0. -1.
       -1    1    3    3    0  502 -0.65739616671E+03  0.21736349982E+03  0.23568718753E+02  0.69280018446E+03  0.50400001928E-02 0.  1.
</event>
<event>
 5   0  0.5840834E-04  0.1520734E+04  0.7818609E-02  0.8870781E-01
       -1   -1    0    0    0  501  0.00000000000E+00  0.00000000000E+00  0.96731221461E+03  0.96731221462E+03  0.50400001928E-02 0.  1.
        1   -1    0    0  501    0  0.00000000000E+00  0.00000000000E+00 -0.59769562550E+03  0.59769562552E+03  0.50400001928E-02 0. -1.
    10030    2    1    2    0    0  0.00000000000E+00  0.00000000000E+00  0.36961658912E+03  0.15650078401E+04  0.15207344005E+04 0.  0.
        3    1    3    3  502    0  0.34621542573E+03 -0.65716949883E+03  0.17529441510E+02  0.74299674477E+03  0.10100000352E+00 0. -1.
       -3    1    3    3    0  502 -0.34621542573E+03  0.65716949883E+03  0.35208714761E+03  0.82201109538E+03  0.10100000352E+00 0.  1.
</event>
<event>
 5   0  0.1126175E-03  0.1461863E+04  0.7818609E-02  0.8910217E-01
        2   -1    0    0  501    0  0.00000000000E+00  0.00000000000E+00  0.14280326415E+04  0.14280326415E+04  0.25500000920E-02 0. -1.
       -2   -1    0    0    0  501  0.00000000000E+00  0.00000000000E+00 -0.37412395256E+03  0.37412395257E+03  0.25500000920E-02 0.  1.
    10030    2    1    2    0    0  0.00000000000E+00  0.00000000000E+00  0.10539086890E+04  0.18021565941E+04  0.14618634905E+04 0.  0.
        3    1    3    3  502    0 -0.68715713866E+03  0.20670586749E+03  0.69843474413E+03  0.10013607496E+04  0.10100000352E+00 0.  1.
       -3    1    3    3    0  502  0.68715713866E+03 -0.20670586749E+03  0.35547394484E+03  0.80079584448E+03  0.10100000352E+00 0. -1.
</event>
<event>
 5   0  0.5924403E-04  0.1486815E+04  0.7818609E-02  0.8893268E-01
       -1   -1    0    0    0  501  0.00000000000E+00  0.00000000000E+00  0.77495333311E+03  0.77495333313E+03  0.50400001928E-02 0. -1.
        1   -1    0    0  501    0  0.00000000000E+00  0.00000000000E+00 -0.71314592297E+03  0.71314592298E+03  0.50400001928E-02 0.  1.
    10030    2    1    2    0    0  0.00000000000E+00  0.00000000000E+00  0.61807410146E+02  0.14880992561E+04  0.14868151331E+04 0.  0.
        1    1    3    3  502    0 -0.28104008122E+03 -0.27628425853E+03 -0.59998846385E+03  0.71784585779E+03  0.50400001928E-02 0.  1.
       -1    1    3    3    0  502  0.28104008122E+03  0.27628425853E+03  0.66179587400E+03  0.77025339832E+03  0.50400001928E-02 0. -1.
</event>
<event>
 5   0  0.5924403E-04  0.1214951E+04  0.7818609E-02  0.9099870E-01
        1   -1    0    0  501    0  0.00000000000E+00  0.00000000000E+00  0.90594854618E+03  0.90594854619E+03  0.50400001928E-02 0. -1.
       -1   -1    0    0    0  501  0.00000000000E+00  0.00000000000E+00 -0.40733721750E+03  0.40733721753E+03  0.50400001928E-02 0.  1.
    10030    2    1    2    0    0  0.00000000000E+00  0.00000000000E+00  0.49861132868E+03  0.13132857637E+04  0.12149511266E+04 0.  0.
        1    1    3    3  502    0 -0.28270178544E+02 -0.17947859082E+03 -0.37727880590E+03  0.41874940592E+03  0.50400001928E-02 0.  1.
       -1    1    3    3    0  502  0.28270178544E+02  0.17947859082E+03  0.87589013458E+03  0.89453635780E+03  0.50400001928E-02 0. -1.
</event>
<event>
 5   0  0.1149716E-03  0.1496975E+04  0.7818609E-02  0.8886467E-01
        2   -1    0    0  501    0  0.00000000000E+00  0.00000000000E+00  0.76412814254E+03  0.76412814255E+03  0.25500000920E-02 0.  1.
       -2   -1    0    0    0  501  0.00000000000E+00  0.00000000000E+00 -0.73316735270E+03  0.73316735270E+03  0.25500000920E-02 0. -1.
    10030    2    1    2    0    0  0.00000000000E+00  0.00000000000E+00  0.30960789846E+02  0.14972954952E+04  0.14969753604E+04 0.  0.
        1    1    3    3  502    0 -0.67310357680E+03  0.31212938309E+03 -0.83235343859E+02  0.74660652246E+03  0.50400001928E-02 0. -1.
       -1    1    3    3    0  502  0.67310357680E+03 -0.31212938309E+03  0.11419613371E+03  0.75068897279E+03  0.50400001928E-02 0.  1.
</event>
<event>
 5   0  0.5840834E-04  0.1497791E+04  0.7818609E-02  0.8885923E-01
        1   -1    0    0  501    0  0.00000000000E+00  0.00000000000E+00  0.75982312031E+03  0.75982312033E+03  0.50400001928E-02 0.  1.
       -1   -1    0    0    0  501  0.00000000000E+00  0.00000000000E+00 -0.73812541577E+03  0.73812541579E+03  0.50400001928E-02 0. -1.
    10030    2    1    2    0    0  0.00000000000E+00  0.00000000000E+00  0.21697704539E+02  0.14979485361E+04  0.14977913828E+04 0.  0.
        3    1    3    3  502    0 -0.45353352435E+03  0.75094760989E+02 -0.58040930924E+03  0.74040992517E+03  0.10100000352E+00 0. -1.
       -3    1    3    3    0  502  0.45353352435E+03 -0.75094760989E+02  0.60210701378E+03  0.75753861095E+03  0.10100000352E+00 0.  1.
</event>
<event>
 5   0  0.5924403E-04  0.1504251E+04  0.7818609E-02  0.8881631E-01
       -1   -1    0    0    0  501  0.00000000000E+00  0.00000000000E+00  0.62084041564E+03  0.62084041567E+03  0.50400001928E-02 0.  1.
        1   -1    0    0  501    0  0.00000000000E+00  0.00000000000E+00 -0.91117220787E+03  0.91117220789E+03  0.50400001928E-02 0. -1.
    10030    2    1    2    0    0  0.00000000000E+00  0.00000000000E+00 -0.29033179223E+03  0.15320126236E+04  0.15042506869E+04 0.  0.
        1    1    3    3  502    0 -0.46595627345E+03 -0.57833546861E+03 -0.24207963578E+02  0.74308356767E+03  0.50400001928E-02 0.  1.
       -1    1    3    3    0  502  0.46595627345E+03  0.57833546861E+03 -0.26612382865E+03  0.78892905588E+03  0.50400001928E-02 0. -1.
</event>
<event>
 5   0  0.1126175E-03  0.1383341E+04  0.7818609E-02  0.8965967E-01
        2   -1    0    0  501    0  0.00000000000E+00  0.00000000000E+00  0.19197398616E+04  0.19197398616E+04  0.25500000920E-02 0.  1.
       -2   -1    0    0    0  501  0.00000000000E+00  0.00000000000E+00 -0.24920449296E+03  0.24920449298E+03  0.25500000920E-02 0. -1.
    10030    2    1    2    0    0  0.00000000000E+00  0.00000000000E+00  0.16705353687E+04  0.21689443546E+04  0.13833405927E+04 0.  0.
        3    1    3    3  502    0  0.54552075387E+03  0.28007139321E+03  0.33360008049E+03  0.69808445198E+03  0.10100000352E+00 0. -1.
       -3    1    3    3    0  502 -0.54552075387E+03 -0.28007139321E+03  0.13369352882E+04  0.14708599026E+04  0.10100000352E+00 0.  1.
</event>
<event>
 5   0  0.1082667E-03  0.1522139E+04  0.7818609E-02  0.8869863E-01
       -2   -1    0    0    0  501  0.00000000000E+00  0.00000000000E+00  0.61161812109E+03  0.61161812110E+03  0.25500000920E-02 0.  1.
        2   -1    0    0  501    0  0.00000000000E+00  0.00000000000E+00 -0.94704025395E+03  0.94704025395E+03  0.25500000920E-02 0. -1.
    10030    2    1    2    0    0  0.00000000000E+00  0.00000000000E+00 -0.33542213286E+03  0.15586583750E+04  0.15221392587E+04 0.  0.
        5    1    3    3  502    0  0.10745543150E+03 -0.65955927668E+03  0.20522419561E+03  0.69907379416E+03  0.46999998093E+01 0.  1.
       -5    1    3    3    0  502 -0.10745543150E+03  0.65955927668E+03 -0.54064632846E+03  0.85958458089E+03  0.46999998093E+01 0. -1.
</event>
<event>
 5   0  0.1097156E-03  0.1504615E+04  0.7818609E-02  0.8881390E-01
       -2   -1    0    0    0  501  0.00000000000E+00  0.00000000000E+00  0.49602701743E+03  0.49602701743E+03  0.25500000920E-02 0. -1.
        2   -1    0    0  501    0  0.00000000000E+00  0.00000000000E+00 -0.11409999623E+04  0.11409999623E+04  0.25500000920E-02 0.  1.
    10030    2    1    2    0    0  0.00000000000E+00  0.00000000000E+00 -0.64497294484E+03  0.16370269797E+04  0.15046153105E+04 0.  0.
        2    1    3    3  502    0  0.58539298301E+03  0.45991465752E+03 -0.20449764663E+03  0.77202702300E+03  0.25500000920E-02 0.  1.
       -2    1    3    3    0  502 -0.58539298301E+03 -0.45991465752E+03 -0.44047529821E+03  0.86499995670E+03  0.25500000920E-02 0. -1.
</event>
<event>
 5   0  0.1097156E-03  0.1586756E+04  0.7818609E-02  0.8828726E-01
       -2   -1    0    0    0  501  0.00000000000E+00  0.00000000000E+00  0.30223359389E+03  0.30223359391E+03  0.25500000920E-02 0.  1.
        2   -1    0    0  501    0  0.00000000000E+00  0.00000000000E+00 -0.20826569822E+04  0.20826569822E+04  0.25500000920E-02 0. -1.
    10030    2    1    2    0    0  0.00000000000E+00  0.00000000000E+00 -0.17804233883E+04  0.23848905761E+04  0.15867563198E+04 0.  0.
        2    1    3    3  502    0  0.65713056851E+03 -0.69807944246E+02 -0.23033735503E+03  0.69982071295E+03  0.25500000920E-02 0.  1.
       -2    1    3    3    0  502 -0.65713056851E+03  0.69807944246E+02 -0.15500860333E+04  0.16850698632E+04  0.25500000920E-02 0. -1.
</event>
<event>
 5   0  0.1126175E-03  0.1472667E+04  0.7818609E-02  0.8902835E-01
        2   -1    0    0  501    0  0.00000000000E+00  0.00000000000E+00  0.68293392162E+03  0.68293392162E+03  0.25500000920E-02 0.  1.
       -2   -1    0    0    0  501  0.00000000000E+00  0.00000000000E+00 -0.79390868836E+03  0.79390868837E+03  0.25500000920E-02 0. -1.
    10030    2    1    2    0    0  0.00000000000E+00  0.00000000000E+00 -0.11097476675E+03  0.14768426100E+04  0.14726672047E+04 0.  0.
        3    1    3    3  502    0 -0.28522786787E+03  0.15755164182E+03  0.60669508428E+03  0.68866275632E+03  0.10100000352E+00 0.  1.
       -3    1    3    3    0  502  0.28522786787E+03 -0.15755164182E+03 -0.71766985103E+03  0.78817985367E+03  0.10100000352E+00 0. -1.
</event>
<event>
 5   0  0.5914645E-04  0.1517830E+04  0.7818609E-02  0.8872682E-01
        1   -1    0    0  501    0  0.00000000000E+00  0.00000000000E+00  0.25574773132E+04  0.25574773132E+04  0.50400001928E-02 0.  1.
       -1   -1    0    0    0  501  0.00000000000E+00  0.00000000000E+00 -0.22520311423E+03  0.22520311429E+03  0.50400001928E-02 0. -1.
    10030    2    1    2    0    0  0.00000000000E+00  0.00000000000E+00  0.23322741989E+04  0.27826804275E+04  0.15178298397E+04 0.  0.
        2    1    3    3  502    0 -0.26476209087E+03  0.63553624022E+01  0.24700092992E+04  0.24841669215E+04  0.25500000920E-02 0.  1.
       -2    1    3    3    0  502  0.26476209087E+03 -0.63553624022E+01 -0.13773510031E+03  0.29851350599E+03  0.25500000920E-02 0. -1.
</event>
<event>
 5   0  0.1149716E-03  0.1520622E+04  0.7818609E-02  0.8870854E-01
       -2   -1    0    0    0  501  0.00000000000E+00  0.00000000000E+00  0.66113404184E+03  0.66113404184E+03  0.25500000920E-02 0.  1.
        2   -1    0    0  501    0  0.00000000000E+00  0.00000000000E+00 -0.87436518397E+03  0.87436518397E+03  0.25500000920E-02 0. -1.
    10030    2    1    2    0    0  0.00000000000E+00  0.00000000000E+00 -0.21323114213E+03  0.15354992258E+04  0.15206216993E+04 0.  0.
        1    1    3    3  502    0  0.26403040646E+03  0.60307815118E+02 -0.82400534419E+03  0.86737183225E+03  0.50400001928E-02 0. -1.
       -1    1    3    3    0  502 -0.26403040646E+03 -0.60307815118E+02  0.61077420206E+03  0.66812739356E+03  0.50400001928E-02 0.  1.
</event>
<event>
 5   0  0.5840834E-04  0.1520846E+04  0.7818609E-02  0.8870708E-01
        1   -1    0    0  501    0  0.00000000000E+00  0.00000000000E+00  0.40416328931E+03  0.40416328934E+03  0.50400001928E-02 0. -1.
       -1   -1    0    0    0  501  0.00000000000E+00  0.00000000000E+00 -0.14307171823E+04  0.14307171823E+04  0.50400001928E-02 0.  1.
    10030    2    1    2    0    0  0.00000000000E+00  0.00000000000E+00 -0.10265538930E+04  0.18348804716E+04  0.15208462940E+04 0.  0.
        3    1    3    3  502    0 -0.35476812446E+03 -0.22535116878E+03  0.25129646015E+03  0.48968713735E+03  0.10100000352E+00 0. -1.
       -3    1    3    3    0  502  0.35476812446E+03  0.22535116878E+03 -0.12778503531E+04  0.13451933343E+04  0.10100000352E+00 0.  1.
</event>
<event>
 5   0  0.5840834E-04  0.1354291E+04  0.7818609E-02  0.8987586E-01
       -1   -1    0    0    0  501  0.00000000000E+00  0.00000000000E+00  0.54360581080E+03  0.54360581082E+03  0.50400001928E-02 0. -1.
        1   -1    0    0  501    0  0.00000000000E+00  0.00000000000E+00 -0.84348993441E+03  0.84348993443E+03  0.50400001928E-02 0.  1.
    10030    2    1    2    0    0  0.00000000000E+00  0.00000000000E+00 -0.29988412361E+03  0.13870957453E+04  0.13542910023E+04 0.  0.
        3    1    3    3  502    0 -0.42508050555E+03  0.51352164512E+03 -0.27168292528E+03  0.71986772277E+03  0.10100000352E+00 0. -1.
       -3    1    3    3    0  502  0.42508050555E+03 -0.51352164512E+03 -0.28201198337E+02  0.66722802248E+03  0.10100000352E+00 0.  1.
</event>
<event>
 5   0  0.5606965E-04  0.1489269E+04  0.7818609E-02  0.8891620E-01
        1   -1    0    0  501    0  0.00000000000E+00  0.00000000000E+00  0.41518574760E+03  0.41518574763E+03  0.50400001928E-02 0.  1.
       -1   -1    0    0    0  501  0.00000000000E+00  0.00000000000E+00 -0.13355007823E+04  0.13355007823E+04  0.50400001928E-02 0. -1.
    10030    2    1    2    0    0  0.00000000000E+00  0.00000000000E+00 -0.92031503471E+03  0.17506865300E+04  0.14892694729E+04 0.  0.
        4    1    3    3  502    0  0.42881501201E+03 -0.44969593862E+03 -0.94251401963E+03  0.11289123269E+04  0.12699999809E+01 0. -1.
       -4    1    3    3    0  502 -0.42881501201E+03  0.44969593862E+03  0.22198984921E+02  0.62177420304E+03  0.12699999809E+01 0.  1.
</event>
<event>
 5   0  0.1147755E-03  0.1521616E+04  0.7818609E-02  0.8870205E-01
        2   -1    0    0  501    0  0.00000000000E+00  0.00000000000E+00  0.16398722290E+04  0.16398722290E+04  0.25500000920E-02 0.  1.
       -2   -1    0    0    0  501  0.00000000000E+00  0.00000000000E+00 -0.35297169109E+03  0.35297169110E+03  0.25500000920E-02 0. -1.
    10030    2    1    2    0    0  0.00000000000E+00  0.00000000000E+00  0.12869005379E+04  0.19928439201E+04  0.15216155544E+04 0.  0.
        4    1    3    3  502    0 -0.10302516664E+03  0.27112122998E+03 -0.27772424918E+03  0.40156354141E+03  0.12699999809E+01 0. -1.
       -4    1    3    3    0  502  0.10302516664E+03 -0.27112122998E+03  0.15646247871E+04  0.15912803787E+04  0.12699999809E+01 0.  1.
</event>
<event>
 5   0  0.5840834E-04  0.1476164E+04  0.7818609E-02  0.8900460E-01
        1   -1    0    0  501    0  0.00000000000E+00  0.00000000000E+00  0.11883355423E+04  0.11883355423E+04  0.50400001928E-02 0.  1.
       -1   -1    0    0    0  501  0.00000000000E+00  0.00000000000E+00 -0.45842690395E+03  0.45842690398E+03  0.50400001928E-02 0. -1.
    10030    2    1    2    0    0  0.00000000000E+00  0.00000000000E+00  0.72990863839E+03  0.16467624463E+04  0.14761639253E+04 0.  0.
        3    1    3    3  502    0  0.67106898008E+03 -0.23733366514E+03  0.58271646363E+03  0.91990180553E+03  0.10100000352E+00 0. -1.
       -3    1    3    3    0  502 -0.67106898008E+03  0.23733366514E+03  0.14719217476E+03  0.72686064080E+03  0.10100000352E+00 0.  1.
</event>
<event>
 5   0  0.1082667E-03  0.1509241E+04  0.7818609E-02  0.8878331E-01
       -2   -1    0    0    0  501  0.00000000000E+00  0.00000000000E+00  0.57167970284E+03  0.57167970285E+03  0.25500000920E-02 0. -1.
        2   -1    0    0  501    0  0.00000000000E+00  0.00000000000E+00 -0.99610340393E+03  0.99610340393E+03  0.25500000920E-02 0.  1.
    10030    2    1    2    0    0  0.00000000000E+00  0.00000000000E+00 -0.42442370109E+03  0.15677831068E+04  0.15092409986E+04 0.  0.
        5    1    3    3  502    0  0.35166900727E+03 -0.65167784667E+03 -0.61408787676E+02  0.74306677743E+03  0.46999998093E+01 0. -1.
       -5    1    3    3    0  502 -0.35166900727E+03  0.65167784667E+03 -0.36301491341E+03  0.82471632934E+03  0.46999998093E+01 0.  1.
</event>
<event>
 5   0  0.5840834E-04  0.1586138E+04  0.7818609E-02  0.8829109E-01
       -1   -1    0    0    0  501  0.00000000000E+00  0.00000000000E+00  0.90839918716E+03  0.90839918718E+03  0.50400001928E-02 0.  1.
        1   -1    0    0  501    0  0.00000000000E+00  0.00000000000E+00 -0.69238140378E+03  0.69238140379E+03  0.50400001928E-02 0. -1.
    10030    2    1    2    0    0  0.00000000000E+00  0.00000000000E+00  0.21601778339E+03  0.16007805910E+04  0.15861383350E+04 0.  0.
        3    1    3    3  502    0 -0.78821819271E+03  0.77032963615E+02  0.65950483838E+02  0.79471471191E+03  0.10100000352E+00 0. -1.
       -3    1    3    3    0  502  0.78821819271E+03 -0.77032963615E+02  0.15006729955E+03  0.80606587907E+03  0.10100000352E+00 0.  1.
</event>
<event>
 5   0  0.1149716E-03  0.1521036E+04  0.7818609E-02  0.8870583E-01
       -2   -1    0    0    0  501  0.00000000000E+00  0.00000000000E+00  0.10269646271E+04  0.10269646271E+04  0.25500000920E-02 0. -1.
        2   -1    0    0  501    0  0.00000000000E+00  0.00000000000E+00 -0.56320117152E+03  0.56320117152E+03  0.25500000920E-02 0.  1.
    10030    2    1    2    0    0  0.00000000000E+00  0.00000000000E+00  0.46376345559E+03  0.15901657986E+04  0.15210360694E+04 0.  0.
        1    1    3    3  502    0  0.67585436209E+03 -0.52660425194E+01 -0.13265009684E+03  0.68876911819E+03  0.50400001928E-02 0.  1.
       -1    1    3    3    0  502 -0.67585436209E+03  0.52660425194E+01  0.59641355243E+03  0.90139668044E+03  0.50400001928E-02 0. -1.
</event>
<event>
 5   0  0.5840834E-04  0.1513466E+04  0.7818609E-02  0.8875547E-01
        1   -1    0    0  501    0  0.00000000000E+00  0.00000000000E+00  0.87093036843E+03  0.87093036844E+03  0.50400001928E-02 0.  1.
       -1   -1    0    0    0  501  0.00000000000E+00  0.00000000000E+00 -0.65750970848E+03  0.65750970850E+03  0.50400001928E-02 0. -1.
    10030    2    1    2    0    0  0.00000000000E+00  0.00000000000E+00  0.21342065995E+03  0.15284400769E+04  0.15134664485E+04 0.  0.
        3    1    3    3  502    0 -0.21140938733E+03 -0.21800755070E+03 -0.59327339077E+03  0.66647921769E+03  0.10100000352E+00 0. -1.
       -3    1    3    3    0  502  0.21140938733E+03  0.21800755070E+03  0.80669405072E+03  0.86196085925E+03  0.10100000352E+00 0.  1.
</event>
<event>
 5   0  0.1082667E-03  0.1499622E+04  0.7818609E-02  0.8884704E-01
       -2   -1    0    0    0  501  0.00000000000E+00  0.00000000000E+00  0.37952807189E+03  0.37952807190E+03  0.25500000920E-02 0. -1.
        2   -1    0    0  501    0  0.00000000000E+00  0.00000000000E+00 -0.14813567957E+04  0.14813567957E+04  0.25500000920E-02 0.  1.
    10030    2    1    2    0    0  0.00000000000E+00  0.00000000000E+00 -0.11018287238E+04  0.18608848676E+04  0.14996219370E+04 0.  0.
        5    1    3    3  502    0  0.33014175122E+03  0.17947229797E+03  0.25423022236E+03  0.45371684738E+03  0.46999998093E+01 0. -1.
       -5    1    3    3    0  502 -0.33014175122E+03 -0.17947229797E+03 -0.13560589462E+04  0.14071680202E+04  0.46999998093E+01 0.  1.
</event>
<event>
 5   0  0.1126175E-03  0.1460813E+04  0.7818609E-02  0.8910938E-01
       -2   -1    0    0    0  501  0.00000000000E+00  0.00000000000E+00  0.69597094884E+03  0.69597094885E+03  0.25500000920E-02 0. -1.
        2   -1    0    0  501    0  0.00000000000E+00  0.00000000000E+00 -0.76654586984E+03  0.76654586984E+03  0.25500000920E-02 0.  1.
    10030    2    1    2    0    0  0.00000000000E+00  0.00000000000E+00 -0.70574920991E+02  0.14625168187E+04  0.14608130015E+04 0.  0.
        3    1    3    3  502    0 -0.23051989796E+03 -0.95035235522E+01  0.65853158610E+03  0.69777761530E+03  0.10100000352E+00 0. -1.
       -3    1    3    3    0  502  0.23051989796E+03  0.95035235522E+01 -0.72910650709E+03  0.76473920339E+03  0.10100000352E+00 0.  1.
</event>
<event>
 5   0  0.1082667E-03  0.1533392E+04  0.7818609E-02  0.8862546E-01
        2   -1    0    0  501    0  0.00000000000E+00  0.00000000000E+00  0.12585281858E+04  0.12585281858E+04  0.25500000920E-02 0.  1.
       -2   -1    0    0    0  501  0.00000000000E+00  0.00000000000E+00 -0.46707180122E+03  0.46707180123E+03  0.25500000920E-02 0. -1.
    10030    2    1    2    0    0  0.00000000000E+00  0.00000000000E+00  0.79145638458E+03  0.17255999870E+04  0.15333923524E+04 0.  0.
        5    1    3    3  502    0  0.55963830522E+03  0.13772268602E+03 -0.17325554311E+03  0.60183232228E+03  0.46999998093E+01 0. -1.
       -5    1    3    3    0  502 -0.55963830522E+03 -0.13772268602E+03  0.96471192769E+03  0.11237676648E+04  0.46999998093E+01 0.  1.
</event>
<event>
 5   0  0.5924403E-04  0.1492307E+04  0.7818609E-02  0.8889585E-01
       -1   -1    0    0    0  501  0.00000000000E+00  0.00000000000E+00  0.83009082199E+03  0.83009082200E+03  0.50400001928E-02 0.  1.
        1   -1    0    0  501    0  0.00000000000E+00  0.00000000000E+00 -0.67070345556E+03  0.67070345558E+03  0.50400001928E-02 0. -1.
    10030    2    1    2    0    0  0.00000000000E+00  0.00000000000E+00  0.15938736643E+03  0.15007942776E+04  0.14923066478E+04 0.  0.
        1    1    3    3  502    0 -0.67661658860E+03  0.14673222020E+03 -0.20010521551E+03  0.72068193381E+03  0.50400001928E-02 0. -1.
       -1    1    3    3    0  502  0.67661658860E+03 -0.14673222020E+03  0.35949258193E+03  0.78011234377E+03  0.50400001928E-02 0.  1.
</event>
<event>
 5   0  0.5606965E-04  0.1411050E+04  0.7818609E-02  0.8945859E-01
       -1   -1    0    0    0  501  0.00000000000E+00  0.00000000000E+00  0.92378361724E+03  0.92378361726E+03  0.50400001928E-02 0. -1.
        1   -1    0    0  501    0  0.00000000000E+00  0.00000000000E+00 -0.53883310648E+03  0.53883310650E+03  0.50400001928E-02 0.  1.
    10030    2    1    2    0    0  0.00000000000E+00  0.00000000000E+00  0.38495051076E+03  0.14626167238E+04  0.14110495331E+04 0.  0.
        4    1    3    3  502    0  0.18636348645E+03 -0.41909129665E+03  0.74815896793E+03  0.87756043564E+03  0.12699999809E+01 0. -1.
       -4    1    3    3    0  502 -0.18636348645E+03  0.41909129665E+03 -0.36320845716E+03  0.58505628812E+03  0.12699999809E+01 0.  1.
</event>
<event>
 5   0  0.5924403E-04  0.1492524E+04  0.7818609E-02  0.8889439E-01
        1   -1    0    0  501    0  0.00000000000E+00  0.00000000000E+00  0.10661043924E+04  0.10661043924E+04  0.50400001928E-02 0. -1.
       -1   -1    0    0    0  501  0.00000000000E+00  0.00000000000E+00 -0.52237587281E+03  0.52237587283E+03  0.50400001928E-02 0.  1.
    10030    2    1    2    0    0  0.00000000000E+00  0.00000000000E+00  0.54372851957E+03  0.15884802652E+04  0.14925243214E+04 0.  0.
        1    1    3    3  502    0  0.24784874348E+03 -0.52936712522E+03 -0.22191248761E+03  0.62522292432E+03  0.50400001928E-02 0.  1.
       -1    1    3    3    0  502 -0.24784874348E+03  0.52936712522E+03  0.76564100717E+03  0.96325734090E+03  0.50400001928E-02 0. -1.
</event>
<event>
 5   0  0.4070625E-04  0.1484240E+04  0.7818609E-02  0.8895001E-01
        3   -1    0    0  501    0  0.00000000000E+00  0.00000000000E+00  0.82821230399E+03  0.82821231015E+03  0.10100000352E+00 0.  1.
       -3   -1    0    0    0  501  0.00000000000E+00  0.00000000000E+00 -0.66497715179E+03  0.66497715946E+03  0.10100000352E+00 0. -1.
    10030    2    1    2    0    0  0.00000000000E+00  0.00000000000E+00  0.16323515221E+03  0.14931894696E+04  0.14842402357E+04 0.  0.
        1    1    3    3  502    0  0.53010427931E+03  0.38335848332E+01 -0.44085668338E+03  0.68947796094E+03  0.50400001928E-02 0. -1.
       -1    1    3    3    0  502 -0.53010427931E+03 -0.38335848332E+01  0.60409183559E+03  0.80371150867E+03  0.50400001928E-02 0.  1.
</event>
<event>
 5   0  0.6146552E-04  0.1487449E+04  0.7818609E-02  0.8892842E-01
        1   -1    0    0  501    0  0.00000000000E+00  0.00000000000E+00  0.15288726205E+04  0.15288726205E+04  0.50400001928E-02 0.  1.
       -1   -1    0    0    0  501  0.00000000000E+00  0.00000000000E+00 -0.36178692275E+03  0.36178692279E+03  0.50400001928E-02 0. -1.
    10030    2    1    2    0    0  0.00000000000E+00  0.00000000000E+00  0.11670856977E+04  0.18906595433E+04  0.14874489849E+04 0.  0.
        5    1    3    3  502    0  0.21960173391E+03  0.38683945133E+03  0.13411232440E+04  0.14129767613E+04  0.46999998093E+01 0.  1.
       -5    1    3    3    0  502 -0.21960173391E+03 -0.38683945133E+03 -0.17403754623E+03  0.47768278192E+03  0.46999998093E+01 0. -1.
</event>
<event>
 5   0  0.5606965E-04  0.1417275E+04  0.7818609E-02  0.8941408E-01
       -1   -1    0    0    0  501  0.00000000000E+00  0.00000000000E+00  0.54058877783E+03  0.54058877785E+03  0.50400001928E-02 0. -1.
        1   -1    0    0  501    0  0.00000000000E+00  0.00000000000E+00 -0.92892609981E+03  0.92892609982E+03  0.50400001928E-02 0.  1.
    10030    2    1    2    0    0  0.00000000000E+00  0.00000000000E+00 -0.38833732198E+03  0.14695148777E+04  0.14172748851E+04 0.  0.
        4    1    3    3  502    0  0.52887678710E+03  0.24640685311E+03  0.22282215764E+03  0.62456250290E+03  0.12699999809E+01 0.  1.
       -4    1    3    3    0  502 -0.52887678710E+03 -0.24640685311E+03 -0.61115947962E+03  0.84495237477E+03  0.12699999809E+01 0. -1.
</event>
<event>
 5   0  0.5914645E-04  0.1557935E+04  0.7818609E-02  0.8846815E-01
        1   -1    0    0  501    0  0.00000000000E+00  0.00000000000E+00  0.21346954064E+04  0.21346954064E+04  0.50400001928E-02 0. -1.
       -1   -1    0    0    0  501  0.00000000000E+00  0.00000000000E+00 -0.28425135168E+03  0.28425135173E+03  0.50400001928E-02 0.  1.
    10030    2    1    2    0    0  0.00000000000E+00  0.00000000000E+00  0.18504440547E+04  0.24189467581E+04  0.15579346004E+04 0.  0.
        2    1    3    3  502    0 -0.60259038610E+03 -0.20406921152E+03  0.22733406934E+03  0.67560357874E+03  0.25500000920E-02 0.  1.
       -2    1    3    3    0  502  0.60259038610E+03  0.20406921152E+03  0.16231099854E+04  0.17433431794E+04  0.25500000920E-02 0. -1.
</event>
<event>
 5   0  0.1097156E-03  0.1512952E+04  0.7818609E-02  0.8875886E-01
        2   -1    0    0  501    0  0.00000000000E+00  0.00000000000E+00  0.60236031383E+03  0.60236031383E+03  0.25500000920E-02 0.  1.
       -2   -1    0    0    0  501  0.00000000000E+00  0.00000000000E+00 -0.95002212596E+03  0.95002212596E+03  0.25500000920E-02 0. -1.
    10030    2    1    2    0    0  0.00000000000E+00  0.00000000000E+00 -0.34766181213E+03  0.15523824398E+04  0.15129515867E+04 0.  0.
        2    1    3    3  502    0 -0.61079298815E+03 -0.11908141902E+03 -0.61516549604E+03  0.87502974021E+03  0.25500000920E-02 0.  1.
       -2    1    3    3    0  502  0.61079298815E+03  0.11908141902E+03  0.26750368390E+03  0.67735269959E+03  0.25500000920E-02 0. -1.
</event>
<event>
 5   0  0.6146552E-04  0.1443788E+04  0.7818609E-02  0.8922719E-01
        1   -1    0    0  501    0  0.00000000000E+00  0.00000000000E+00  0.21123414909E+04  0.21123414909E+04  0.50400001928E-02 0.  1.
       -1   -1    0    0    0  501  0.00000000000E+00  0.00000000000E+00 -0.24670759195E+03  0.24670759201E+03  0.50400001928E-02 0. -1.
    10030    2    1    2    0    0  0.00000000000E+00  0.00000000000E+00  0.18656338989E+04  0.23590490829E+04  0.14437876335E+04 0.  0.
        5    1    3    3  502    0  0.79799148838E+02  0.22110318118E+03 -0.18239806357E+03  0.29756623545E+03  0.46999998093E+01 0. -1.
       -5    1    3    3    0  502 -0.79799148838E+02 -0.22110318118E+03  0.20480319625E+04  0.20614828474E+04  0.46999998093E+01 0.  1.
</event>
<event>
 5   0  0.5840834E-04  0.1491496E+04  0.7818609E-02  0.8890128E-01
       -1   -1    0    0    0  501  0.00000000000E+00  0.00000000000E+00  0.25222271688E+03  0.25222271693E+03  0.50400001928E-02 0. -1.
        1   -1    0    0  501    0  0.00000000000E+00  0.00000000000E+00 -0.22049568689E+04  0.22049568689E+04  0.50400001928E-02 0.  1.
    10030    2    1    2    0    0  0.00000000000E+00  0.00000000000E+00 -0.19527341520E+04  0.24571795858E+04  0.14914961779E+04 0.  0.
        3    1    3    3  502    0 -0.73032958255E+03  0.89811354021E+02 -0.11760621649E+04  0.13872885800E+04  0.10100000352E+00 0.  1.
       -3    1    3    3    0  502  0.73032958255E+03 -0.89811354021E+02 -0.77667198709E+03  0.10698910057E+04  0.10100000352E+00 0. -1.
</event>
<event>
 5   0  0.1097156E-03  0.1464794E+04  0.7818609E-02  0.8908208E-01
        2   -1    0    0  501    0  0.00000000000E+00  0.00000000000E+00  0.10040541331E+04  0.10040541331E+04  0.25500000920E-02 0. -1.
       -2   -1    0    0    0  501  0.00000000000E+00  0.00000000000E+00 -0.53423937388E+03  0.53423937388E+03  0.25500000920E-02 0.  1.
    10030    2    1    2    0    0  0.00000000000E+00  0.00000000000E+00  0.46981475927E+03  0.15382935070E+04  0.14647938441E+04 0.  0.
        2    1    3    3  502    0 -0.22933340783E+03  0.56804130317E+03  0.65647289487E+03  0.89789832150E+03  0.25500000920E-02 0. -1.
       -2    1    3    3    0  502  0.22933340783E+03 -0.56804130317E+03 -0.18665813560E+03  0.64039518553E+03  0.25500000920E-02 0.  1.
</event>
<event>
 5   0  0.5914645E-04  0.1468973E+04  0.7818609E-02  0.8905351E-01
       -1   -1    0    0    0  501  0.00000000000E+00  0.00000000000E+00  0.88518600405E+03  0.88518600407E+03  0.50400001928E-02 0.  1.
        1   -1    0    0  501    0  0.00000000000E+00  0.00000000000E+00 -0.60944334583E+03  0.60944334585E+03  0.50400001928E-02 0. -1.
    10030    2    1    2    0    0  0.00000000000E+00  0.00000000000E+00  0.27574265822E+03  0.14946293499E+04  0.14689734103E+04 0.  0.
        2    1    3    3  502    0 -0.77615220856E+02 -0.25022476378E+03 -0.56028640904E+03  0.61851225944E+03  0.25500000920E-02 0. -1.
       -2    1    3    3    0  502  0.77615220856E+02  0.25022476378E+03  0.83602906726E+03  0.87611709048E+03  0.25500000920E-02 0.  1.
</event>
<event>
 5   0  0.6146552E-04  0.1521212E+04  0.7818609E-02  0.8870469E-01
       -1   -1    0    0    0  501  0.00000000000E+00  0.00000000000E+00  0.70257144423E+03  0.70257144425E+03  0.50400001928E-02 0.  1.
        1   -1    0    0  501    0  0.00000000000E+00  0.00000000000E+00 -0.82343393100E+03  0.82343393102E+03  0.50400001928E-02 0. -1.
    10030    2    1    2    0    0  0.00000000000E+00  0.00000000000E+00 -0.12086248678E+03  0.15260053753E+04  0.15212115779E+04 0.  0.
        5    1    3    3  502    0  0.41271447896E+03 -0.15644786232E+03  0.56094783364E+03  0.71378829973E+03  0.46999998093E+01 0.  1.
       -5    1    3    3    0  502 -0.41271447896E+03  0.15644786232E+03 -0.68181032042E+03  0.81221707554E+03  0.46999998093E+01 0. -1.
</event>
<event>
 5   0  0.1149716E-03  0.1498431E+04  0.7818609E-02  0.8885497E-01
       -2   -1    0    0    0  501  0.00000000000E+00  0.00000000000E+00  0.42142799669E+03  0.42142799669E+03  0.25500000920E-02 0.  1.
        2   -1    0    0  501    0  0.00000000000E+00  0.00000000000E+00 -0.13319566282E+04  0.13319566282E+04  0.25500000920E-02 0. -1.
    10030    2    1    2    0    0  0.00000000000E+00  0.00000000000E+00 -0.91052863149E+03  0.17533846249E+04  0.14984309307E+04 0.  0.
        1    1    3    3  502    0  0.31576731063E+03 -0.60084109085E+03 -0.82641462037E+03  0.10694298180E+04  0.50400001928E-02 0. -1.
       -1    1    3    3    0  502 -0.31576731063E+03  0.60084109085E+03 -0.84114011125E+02  0.68395480684E+03  0.50400001928E-02 0.  1.
</event>
<event>
 5   0  0.1097156E-03  0.1493000E+04  0.7818609E-02  0.8889121E-01
        2   -1    0    0  501    0  0.00000000000E+00  0.00000000000E+00  0.86400468209E+03  0.86400468209E+03  0.25500000920E-02 0. -1.
       -2   -1    0    0    0  501  0.00000000000E+00  0.00000000000E+00 -0.64497562681E+03  0.64497562681E+03  0.25500000920E-02 0.  1.
    10030    2    1    2    0    0  0.00000000000E+00  0.00000000000E+00  0.21902905528E+03  0.15089803089E+04  0.14929996134E+04 0.  0.
        2    1    3    3  502    0 -0.42356164013E+03 -0.61234301921E+03  0.55147259150E+02  0.74659872513E+03  0.25500000920E-02 0. -1.
       -2    1    3    3    0  502  0.42356164013E+03  0.61234301921E+03  0.16388179613E+03  0.76238158377E+03  0.25500000920E-02 0.  1.
</event>
<event>
 5   0  0.1149716E-03  0.1117224E+04  0.7818609E-02  0.9188565E-01
       -2   -1    0    0    0  501  0.00000000000E+00  0.00000000000E+00  0.35389879558E+03  0.35389879559E+03  0.25500000920E-02 0. -1.
        2   -1    0    0  501    0  0.00000000000E+00  0.00000000000E+00 -0.88174137464E+03  0.88174137465E+03  0.25500000920E-02 0.  1.
    10030    2    1    2    0    0  0.00000000000E+00  0.00000000000E+00 -0.52784257906E+03  0.12356401702E+04  0.11172237207E+04 0.  0.
        1    1    3    3  502    0 -0.49235052537E+03 -0.26155743534E+03 -0.30264487963E+03  0.63436208510E+03  0.50400001928E-02 0. -1.
       -1    1    3    3    0  502  0.49235052537E+03  0.26155743534E+03 -0.22519769943E+03  0.60127808514E+03  0.50400001928E-02 0.  1.
</event>
<event>
 5   0  0.1082667E-03  0.1403611E+04  0.7818609E-02  0.8951209E-01
       -2   -1    0    0    0  501  0.00000000000E+00  0.00000000000E+00  0.10019654816E+04  0.10019654816E+04  0.25500000920E-02 0. -1.
        2   -1    0    0  501    0  0.00000000000E+00  0.00000000000E+00 -0.49156470024E+03  0.49156470025E+03  0.25500000920E-02 0.  1.
    10030    2    1    2    0    0  0.00000000000E+00  0.00000000000E+00  0.51040078136E+03  0.14935301818E+04  0.14036108601E+04 0.  0.
        5    1    3    3  502    0  0.40741589054E+03  0.22445937780E+03 -0.30395330284E+03  0.55567924241E+03  0.46999998093E+01 0.  1.
       -5    1    3    3    0  502 -0.40741589054E+03 -0.22445937780E+03  0.81435408419E+03  0.93785093943E+03  0.46999998093E+01 0. -1.
</event>
<event>
 5   0  0.1147755E-03  0.1483969E+04  0.7818609E-02  0.8895184E-01
       -2   -1    0    0    0  501  0.00000000000E+00  0.00000000000E+00  0.19125153978E+03  0.19125153980E+03  0.25500000920E-02 0.  1.
        2   -1    0    0  501    0  0.00000000000E+00  0.00000000000E+00 -0.28786226398E+04  0.28786226398E+04  0.25500000920E-02 0. -1.
    10030    2    1    2    0    0  0.00000000000E+00  0.00000000000E+00 -0.26873711000E+04  0.30698741796E+04  0.14839690190E+04 0.  0.
        4    1    3    3  502    0 -0.28037833462E+03 -0.11358582466E+03 -0.27452536964E+04  0.27618713258E+04  0.12699999809E+01 0. -1.
       -4    1    3    3    0  502  0.28037833462E+03  0.11358582466E+03  0.57882596334E+02  0.30800285379E+03  0.12699999809E+01 0.  1.
</event>
<event>
 5   0  0.1149716E-03  0.1463185E+04  0.7818609E-02  0.8909311E-01
       -2   -1    0    0    0  501  0.00000000000E+00  0.00000000000E+00  0.35524816793E+03  0.35524816794E+03  0.25500000920E-02 0.  1.
        2   -1    0    0  501    0  0.00000000000E+00  0.00000000000E+00 -0.15066293561E+04  0.15066293561E+04  0.25500000920E-02 0. -1.
    10030    2    1    2    0    0  0.00000000000E+00  0.00000000000E+00 -0.11513811881E+04  0.18618775240E+04  0.14631846343E+04 0.  0.
        1    1    3    3  502    0 -0.60202551648E+03  0.13155596697E+03 -0.10774518196E+04  0.12412268602E+04  0.50400001928E-02 0. -1.
       -1    1    3    3    0  502  0.60202551648E+03 -0.13155596697E+03 -0.73929368555E+02  0.62065066382E+03  0.50400001928E-02 0.  1.
</event>
<event>
 5   0  0.5606965E-04  0.1501777E+04  0.7818609E-02  0.8883272E-01
        1   -1    0    0  501    0  0.00000000000E+00  0.00000000000E+00  0.11219572286E+04  0.11219572286E+04  0.50400001928E-02 0.  1.
       -1   -1    0    0    0  501  0.00000000000E+00  0.00000000000E+00 -0.50254467827E+03  0.50254467829E+03  0.50400001928E-02 0. -1.
    10030    2    1    2    0    0  0.00000000000E+00  0.00000000000E+00  0.61941255031E+03  0.16245019069E+04  0.15017771266E+04 0.  0.
        4    1    3    3  502    0  0.42507124242E+03 -0.17187618479E+03  0.95294763570E+03  0.10575149140E+04  0.12699999809E+01 0.  1.
       -4    1    3    3    0  502 -0.42507124242E+03  0.17187618479E+03 -0.33353508539E+03  0.56698699289E+03  0.12699999809E+01 0. -1.
</event>
<event>
 5   0  0.1097156E-03  0.1505196E+04  0.7818609E-02  0.8881005E-01
       -2   -1    0    0    0  501  0.00000000000E+00  0.00000000000E+00  0.20268217336E+03  0.20268217338E+03  0.25500000920E-02 0. -1.
        2   -1    0    0  501    0  0.00000000000E+00  0.00000000000E+00 -0.27945398295E+04  0.27945398295E+04  0.25500000920E-02 0.  1.
    10030    2    1    2    0    0  0.00000000000E+00  0.00000000000E+00 -0.25918576561E+04  0.29972220029E+04  0.15051955437E+04 0.  0.
        2    1    3    3  502    0  0.17317479349E+03 -0.72676752789E+03 -0.11153622487E+04  0.13424654538E+04  0.25500000920E-02 0. -1.
       -2    1    3    3    0  502 -0.17317479349E+03  0.72676752789E+03 -0.14764954074E+04  0.16547565491E+04  0.25500000920E-02 0.  1.
</event>
<event>
 5   0  0.1126175E-03  0.1432671E+04  0.7818609E-02  0.8930503E-01
       -2   -1    0    0    0  501  0.00000000000E+00  0.00000000000E+00  0.39661271063E+03  0.39661271064E+03  0.25500000920E-02 0.  1.
        2   -1    0    0  501    0  0.00000000000E+00  0.00000000000E+00 -0.12937982877E+04  0.12937982877E+04  0.25500000920E-02 0. -1.
    10030    2    1    2    0    0  0.00000000000E+00  0.00000000000E+00 -0.89718557707E+03  0.16904109983E+04  0.14326714151E+04 0.  0.
        3    1    3    3  502    0  0.58695842391E+03  0.12116496642E+03 -0.91152284886E+03  0.10909056122E+04  0.10100000352E+00 0. -1.
       -3    1    3    3    0  502 -0.58695842391E+03 -0.12116496642E+03  0.14337271789E+02  0.59950538617E+03  0.10100000352E+00 0.  1.
</event>
<event>
 5   0  0.4070625E-04  0.1495629E+04  0.7818609E-02  0.8887365E-01
        4   -1    0    0  501    0  0.00000000000E+00  0.00000000000E+00  0.78806653583E+03  0.78806755916E+03  0.12699999809E+01 0. -1.
       -4   -1    0    0    0  501  0.00000000000E+00  0.00000000000E+00 -0.70961606619E+03  0.70961720265E+03  0.12699999809E+01 0.  1.
    10030    2    1    2    0    0  0.00000000000E+00  0.00000000000E+00  0.78450469645E+02  0.14976847618E+04  0.14956286871E+04 0.  0.
        5    1    3    3  502    0 -0.40177155990E+03 -0.33777816681E+03  0.57258276185E+03  0.77678026847E+03  0.46999998093E+01 0. -1.
       -5    1    3    3    0  502  0.40177155990E+03  0.33777816681E+03 -0.49413229220E+03  0.72090449334E+03  0.46999998093E+01 0.  1.
</event>
<event>
 5   0  0.1149716E-03  0.1505840E+04  0.7818609E-02  0.8880578E-01
        2   -1    0    0  501    0  0.00000000000E+00  0.00000000000E+00  0.16268184027E+04  0.16268184027E+04  0.25500000920E-02 0. -1.
       -2   -1    0    0    0  501  0.00000000000E+00  0.00000000000E+00 -0.34846473254E+03  0.34846473255E+03  0.25500000920E-02 0.  1.
    10030    2    1    2    0    0  0.00000000000E+00  0.00000000000E+00  0.12783536702E+04  0.19752831353E+04  0.15058404160E+04 0.  0.
        1    1    3    3  502    0 -0.19153933460E+03  0.20684878203E+03 -0.27662160234E+03  0.39495980331E+03  0.50400001928E-02 0.  1.
       -1    1    3    3    0  502  0.19153933460E+03 -0.20684878203E+03  0.15549752725E+04  0.15803233320E+04  0.50400001928E-02 0. -1.
</event>
<event>
 5   0  0.5924403E-04  0.1509566E+04  0.7818609E-02  0.8878117E-01
        1   -1    0    0  501    0  0.00000000000E+00  0.00000000000E+00  0.12098577917E+04  0.12098577917E+04  0.50400001928E-02 0.  1.
       -1   -1    0    0    0  501  0.00000000000E+00  0.00000000000E+00 -0.47087934020E+03  0.47087934023E+03  0.50400001928E-02 0. -1.
    10030    2    1    2    0    0  0.00000000000E+00  0.00000000000E+00  0.73897845151E+03  0.16807371320E+04  0.15095655517E+04 0.  0.
        1    1    3    3  502    0 -0.15659732206E+03 -0.17362369977E+03 -0.42954193109E+03  0.48905437426E+03  0.50400001928E-02 0. -1.
       -1    1    3    3    0  502  0.15659732206E+03  0.17362369977E+03  0.11685203826E+04  0.11916827577E+04  0.50400001928E-02 0.  1.
</event>
<event>
 5   0  0.1097156E-03  0.1453067E+04  0.7818609E-02  0.8916277E-01
       -2   -1    0    0    0  501  0.00000000000E+00  0.00000000000E+00  0.50222504837E+03  0.50222504837E+03  0.25500000920E-02 0.  1.
        2   -1    0    0  501    0  0.00000000000E+00  0.00000000000E+00 -0.10510252463E+04  0.10510252463E+04  0.25500000920E-02 0. -1.
    10030    2    1    2    0    0  0.00000000000E+00  0.00000000000E+00 -0.54880019796E+03  0.15532502947E+04  0.14530673834E+04 0.  0.
        2    1    3    3  502    0 -0.51746126414E+03 -0.57212615352E+02  0.26730527687E+03  0.58522777983E+03  0.25500000920E-02 0.  1.
       -2    1    3    3    0  502  0.51746126414E+03  0.57212615352E+02 -0.81610547483E+03  0.96802251487E+03  0.25500000920E-02 0. -1.
</event>
<event>
 5   0  0.6146552E-04  0.1492615E+04  0.7818609E-02  0.8889379E-01
       -1   -1    0    0    0  501  0.00000000000E+00  0.00000000000E+00  0.47999912025E+03  0.47999912028E+03  0.50400001928E-02 0.  1.
        1   -1    0    0  501    0  0.00000000000E+00  0.00000000000E+00 -0.11603666359E+04  0.11603666359E+04  0.50400001928E-02 0. -1.
    10030    2    1    2    0    0  0.00000000000E+00  0.00000000000E+00 -0.68036751564E+03  0.16403657562E+04  0.14926151070E+04 0.  0.
        5    1    3    3  502    0 -0.56066369692E+03  0.48357414904E+03 -0.23729399048E+03  0.77750772767E+03  0.46999998093E+01 0. -1.
       -5    1    3    3    0  502  0.56066369692E+03 -0.48357414904E+03 -0.44307352516E+03  0.86285802851E+03  0.46999998093E+01 0.  1.
</event>
<event>
 5   0  0.1082667E-03  0.1434580E+04  0.7818609E-02  0.8929162E-01
        2   -1    0    0  501    0  0.00000000000E+00  0.00000000000E+00  0.10924424222E+04  0.10924424222E+04  0.25500000920E-02 0.  1.
       -2   -1    0    0    0  501  0.00000000000E+00  0.00000000000E+00 -0.47096725482E+03  0.47096725482E+03  0.25500000920E-02 0. -1.
    10030    2    1    2    0    0  0.00000000000E+00  0.00000000000E+00  0.62147516734E+03  0.15634096770E+04  0.14345795323E+04 0.  0.
        5    1    3    3  502    0  0.58685888729E+03  0.24589435219E+03  0.67155161849E+03  0.92513299170E+03  0.46999998093E+01 0. -1.
       -5    1    3    3    0  502 -0.58685888729E+03 -0.24589435219E+03 -0.50076451151E+02  0.63827668529E+03  0.46999998093E+01 0.  1.
</event>
<event>
 5   0  0.5606965E-04  0.1502268E+04  0.7818609E-02  0.8882946E-01
       -1   -1    0    0    0  501  0.00000000000E+00  0.00000000000E+00  0.61326693571E+03  0.61326693573E+03  0.50400001928E-02 0. -1.
        1   -1    0    0  501    0  0.00000000000E+00  0.00000000000E+00 -0.91999416868E+03  0.91999416870E+03  0.50400001928E-02 0.  1.
    10030    2    1    2    0    0  0.00000000000E+00  0.00000000000E+00 -0.30672723297E+03  0.15332611044E+04  0.15022676256E+04 0.  0.
        4    1    3    3  502    0 -0.68047306316E+03 -0.45548402845E+02  0.16790367420E+03  0.70236137664E+03  0.12699999809E+01 0. -1.
       -4    1    3    3    0  502  0.68047306316E+03  0.45548402845E+02 -0.47463090718E+03  0.83089972779E+03  0.12699999809E+01 0.  1.
</event>
<event>
 5   0  0.1147755E-03  0.1495107E+04  0.7818609E-02  0.8887713E-01
        2   -1    0    0  501    0  0.00000000000E+00  0.00000000000E+00  0.82998796781E+03  0.82998796781E+03  0.25500000920E-02 0. -1.
       -2   -1    0    0    0  501  0.00000000000E+00  0.00000000000E+00 -0.67330657709E+03  0.67330657710E+03  0.25500000920E-02 0.  1.
    10030    2    1    2    0    0  0.00000000000E+00  0.00000000000E+00  0.15668139072E+03  0.15032945449E+04  0.14951071636E+04 0.  0.
        4    1    3    3  502    0  0.52600331805E+03  0.19546458519E+03  0.57495719763E+03  0.80340729812E+03  0.12699999809E+01 0. -1.
       -4    1    3    3    0  502 -0.52600331805E+03 -0.19546458519E+03 -0.41827580692E+03  0.69988724679E+03  0.12699999809E+01 0.  1.
</event>
<event>
 5   0  0.5924403E-04  0.1542312E+04  0.7818609E-02  0.8856793E-01
        1   -1    0    0  501    0  0.00000000000E+00  0.00000000000E+00  0.73339324535E+03  0.73339324537E+03  0.50400001928E-02 0. -1.
       -1   -1    0    0    0  501  0.00000000000E+00  0.00000000000E+00 -0.81086358859E+03  0.81086358860E+03  0.50400001928E-02 0.  1.
    10030    2    1    2    0    0  0.00000000000E+00  0.00000000000E+00 -0.77470343238E+02  0.15442568340E+04  0.15423123922E+04 0.  0.
        1    1    3    3  502    0 -0.17586387485E+03  0.36991127133E+03  0.61547929452E+03  0.73930860481E+03  0.50400001928E-02 0. -1.
       -1    1    3    3    0  502  0.17586387485E+03 -0.36991127133E+03 -0.69294963776E+03  0.80494822916E+03  0.50400001928E-02 0.  1.
</event>
<event>
 5   0  0.1149716E-03  0.1498831E+04  0.7818609E-02  0.8885231E-01
       -2   -1    0    0    0  501  0.00000000000E+00  0.00000000000E+00  0.20913221682E+03  0.20913221684E+03  0.25500000920E-02 0. -1.
        2   -1    0    0  501    0  0.00000000000E+00  0.00000000000E+00 -0.26854941496E+04  0.26854941496E+04  0.25500000920E-02 0.  1.
    10030    2    1    2    0    0  0.00000000000E+00  0.00000000000E+00 -0.24763619327E+04  0.28946263664E+04  0.14988306706E+04 0.  0.
        1    1    3    3  502    0  0.29413543380E+03  0.21992366299E+03  0.23420737294E+02  0.36800896989E+03  0.50400001928E-02 0. -1.
       -1    1    3    3    0  502 -0.29413543380E+03 -0.21992366299E+03 -0.24997826700E+04  0.25266173965E+04  0.50400001928E-02 0.  1.
</event>
<event>
 5   0  0.5606965E-04  0.1504315E+04  0.7818609E-02  0.8881589E-01
       -1   -1    0    0    0  501  0.00000000000E+00  0.00000000000E+00  0.55814667787E+03  0.55814667789E+03  0.50400001928E-02 0.  1.
        1   -1    0    0  501    0  0.00000000000E+00  0.00000000000E+00 -0.10136058382E+04  0.10136058382E+04  0.50400001928E-02 0. -1.
    10030    2    1    2    0    0  0.00000000000E+00  0.00000000000E+00 -0.45545916036E+03  0.15717525161E+04  0.15043147693E+04 0.  0.
        4    1    3    3  502    0 -0.48638681472E+02  0.60480699401E+03  0.23669908839E+03  0.65129508879E+03  0.12699999809E+01 0.  1.
       -4    1    3    3    0  502  0.48638681472E+02 -0.60480699401E+03 -0.69215824875E+03  0.92045742734E+03  0.12699999809E+01 0. -1.
</event>
<event>
 5   0  0.1126175E-03  0.1472673E+04  0.7818609E-02  0.8902831E-01
       -2   -1    0    0    0  501  0.00000000000E+00  0.00000000000E+00  0.50284935831E+03  0.50284935831E+03  0.25500000920E-02 0.  1.
        2   -1    0    0  501    0  0.00000000000E+00  0.00000000000E+00 -0.10782385005E+04  0.10782385005E+04  0.25500000920E-02 0. -1.
    10030    2    1    2    0    0  0.00000000000E+00  0.00000000000E+00 -0.57538914222E+03  0.15810878588E+04  0.14726731316E+04 0.  0.
        3    1    3    3  502    0 -0.68137141379E+03  0.17870783470E+03 -0.57459190447E+02  0.70675672086E+03  0.10100000352E+00 0.  1.
       -3    1    3    3    0  502  0.68137141379E+03 -0.17870783470E+03 -0.51792995177E+03  0.87433113799E+03  0.10100000352E+00 0. -1.
</event>
<event>
 5   0  0.5840834E-04  0.1538923E+04  0.7818609E-02  0.8858974E-01
       -1   -1    0    0    0  501  0.00000000000E+00  0.00000000000E+00  0.45755446588E+03  0.45755446590E+03  0.50400001928E-02 0.  1.
        1   -1    0    0  501    0  0.00000000000E+00  0.00000000000E+00 -0.12939904741E+04  0.12939904741E+04  0.50400001928E-02 0. -1.
    10030    2    1    2    0    0  0.00000000000E+00  0.00000000000E+00 -0.83643600820E+03  0.17515449400E+04  0.15389231563E+04 0.  0.
        3    1    3    3  502    0 -0.57732158375E+03 -0.22583405140E+03 -0.93701284037E+03  0.11235187150E+04  0.10100000352E+00 0. -1.
       -3    1    3    3    0  502  0.57732158375E+03  0.22583405140E+03  0.10057683218E+03  0.62802622494E+03  0.10100000352E+00 0.  1.
</event>
<event>
 5   0  0.1149716E-03  0.1498064E+04  0.7818609E-02  0.8885741E-01
        2   -1    0    0  501    0  0.00000000000E+00  0.00000000000E+00  0.98979047411E+03  0.98979047411E+03  0.25500000920E-02 0. -1.
       -2   -1    0    0    0  501  0.00000000000E+00  0.00000000000E+00 -0.56683622943E+03  0.56683622943E+03  0.25500000920E-02 0.  1.
    10030    2    1    2    0    0  0.00000000000E+00  0.00000000000E+00  0.42295424468E+03  0.15566267035E+04  0.14980642179E+04 0.  0.
        1    1    3    3  502    0 -0.32099569661E+03  0.10200701565E+03 -0.48371000165E+03  0.58942262783E+03  0.50400001928E-02 0.  1.
       -1    1    3    3    0  502  0.32099569661E+03 -0.10200701565E+03  0.90666424633E+03  0.96720407572E+03  0.50400001928E-02 0. -1.
</event>
<event>
 5   0  0.5606965E-04  0.1508993E+04  0.7818609E-02  0.8878495E-01
        1   -1    0    0  501    0  0.00000000000E+00  0.00000000000E+00  0.65196961039E+03  0.65196961041E+03  0.50400001928E-02 0. -1.
       -1   -1    0    0    0  501  0.00000000000E+00  0.00000000000E+00 -0.87314653452E+03  0.87314653454E+03  0.50400001928E-02 0.  1.
    10030    2    1    2    0    0  0.00000000000E+00  0.00000000000E+00 -0.22117692413E+03  0.15251161449E+04  0.15089930496E+04 0.  0.
        4    1    3    3  502    0 -0.54016615514E+03  0.39484498161E+03 -0.46299923401E+03  0.81366574111E+03  0.12699999809E+01 0. -1.
       -4    1    3    3    0  502  0.54016615514E+03 -0.39484498161E+03  0.24182230987E+03  0.71145040383E+03  0.12699999809E+01 0.  1.
</event>
<event>
 5   0  0.1126175E-03  0.1550765E+04  0.7818609E-02  0.8851379E-01
       -2   -1    0    0    0  501  0.00000000000E+00  0.00000000000E+00  0.37243843800E+03  0.37243843801E+03  0.25500000920E-02 0.  1.
        2   -1    0    0  501    0  0.00000000000E+00  0.00000000000E+00 -0.16142758776E+04  0.16142758776E+04  0.25500000920E-02 0. -1.
    10030    2    1    2    0    0  0.00000000000E+00  0.00000000000E+00 -0.12418374396E+04  0.19867143157E+04  0.15507654708E+04 0.  0.
        3    1    3    3  502    0  0.43332430180E+02 -0.49561600837E+03  0.14100268388E+03  0.51710220877E+03  0.10100000352E+00 0.  1.
       -3    1    3    3    0  502 -0.43332430180E+02  0.49561600837E+03 -0.13828401235E+04  0.14696121069E+04  0.10100000352E+00 0. -1.
</event>
<event>
 5   0  0.5606965E-04  0.1463852E+04  0.7818609E-02  0.8908854E-01
        1   -1    0    0  501    0  0.00000000000E+00  0.00000000000E+00  0.76480978048E+03  0.76480978049E+03  0.50400001928E-02 0.  1.
       -1   -1    0    0    0  501  0.00000000000E+00  0.00000000000E+00 -0.70045565685E+03  0.70045565687E+03  0.50400001928E-02 0. -1.
    10030    2    1    2    0    0  0.00000000000E+00  0.00000000000E+00  0.64354123626E+02  0.14652654374E+04  0.14638515460E+04 0.  0.
        4    1    3    3  502    0  0.62987008562E+03  0.15864435846E+03  0.36985934369E+03  0.74746364744E+03  0.12699999809E+01 0.  1.
       -4    1    3    3    0  502 -0.62987008562E+03 -0.15864435846E+03 -0.30550522006E+03  0.71780178992E+03  0.12699999809E+01 0. -1.
</event>
<event>
 5   0  0.4070625E-04  0.1480893E+04  0.7818609E-02  0.8897259E-01
        3   -1    0    0  501    0  0.00000000000E+00  0.00000000000E+00  0.86967744555E+03  0.86967745142E+03  0.10100000352E+00 0. -1.
       -3   -1    0    0    0  501  0.00000000000E+00  0.00000000000E+00 -0.63041908952E+03  0.63041909761E+03  0.10100000352E+00 0.  1.
    10030    2    1    2    0    0  0.00000000000E+00  0.00000000000E+00  0.23925835603E+03  0.15000965490E+04  0.14808933437E+04 0.  0.
        1    1    3    3  502    0 -0.25566243126E+03  0.51182230006E+03 -0.35650417399E+03  0.67410724050E+03  0.50400001928E-02 0.  1.
       -1    1    3    3    0  502  0.25566243126E+03 -0.51182230006E+03  0.59576253002E+03  0.82598930853E+03  0.50400001928E-02 0. -1.
</event>
<event>
 5   0  0.5606965E-04  0.1448171E+04  0.7818609E-02  0.8919670E-01
        1   -1    0    0  501    0  0.00000000000E+00  0.00000000000E+00  0.17508475270E+04  0.17508475270E+04  0.50400001928E-02 0.  1.
       -1   -1    0    0    0  501  0.00000000000E+00  0.00000000000E+00 -0.29945467221E+03  0.29945467225E+03  0.50400001928E-02 0. -1.
    10030    2    1    2    0    0  0.00000000000E+00  0.00000000000E+00  0.14513928548E+04  0.20503021992E+04  0.14481705319E+04 0.  0.
        4    1    3    3  502    0 -0.47994230128E+03  0.47256206699E+03  0.34941012179E+03  0.75878097355E+03  0.12699999809E+01 0. -1.
       -4    1    3    3    0  502  0.47994230128E+03 -0.47256206699E+03  0.11019827330E+04  0.12915212257E+04  0.12699999809E+01 0.  1.
</event>
<event>
 5   0  0.6146552E-04  0.1511395E+04  0.7818609E-02  0.8876911E-01
        1   -1    0    0  501    0  0.00000000000E+00  0.00000000000E+00  0.39130269909E+03  0.39130269913E+03  0.50400001928E-02 0. -1.
       -1   -1    0    0    0  501  0.00000000000E+00  0.00000000000E+00 -0.14594291398E+04  0.14594291398E+04  0.50400001928E-02 0.  1.
    10030    2    1    2    0    0  0.00000000000E+00  0.00000000000E+00 -0.10681264407E+04  0.18507318390E+04  0.15113948016E+04 0.  0.
        5    1    3    3  502    0 -0.31718309873E+03  0.42917630431E+03 -0.11892199217E+04  0.13034813119E+04  0.46999998093E+01 0.  1.
       -5    1    3    3    0  502  0.31718309873E+03 -0.42917630431E+03  0.12109348092E+03  0.54725052711E+03  0.46999998093E+01 0. -1.
</event>
<event>
 5   0  0.1097156E-03  0.1491779E+04  0.7818609E-02  0.8889939E-01
       -2   -1    0    0    0  501  0.00000000000E+00  0.00000000000E+00  0.28006065880E+03  0.28006065881E+03  0.25500000920E-02 0.  1.
        2   -1    0    0  501    0  0.00000000000E+00  0.00000000000E+00 -0.19865367266E+04  0.19865367266E+04  0.25500000920E-02 0. -1.
    10030    2    1    2    0    0  0.00000000000E+00  0.00000000000E+00 -0.17064760678E+04  0.22665973854E+04  0.14917785149E+04 0.  0.
        2    1    3    3  502    0 -0.29487273458E+03  0.68049447438E+03 -0.73237108357E+03  0.10423003710E+04  0.25500000920E-02 0.  1.
       -2    1    3    3    0  502  0.29487273458E+03 -0.68049447438E+03 -0.97410498424E+03  0.12242970145E+04  0.25500000920E-02 0. -1.
</event>
<event>
 5   0  0.1147755E-03  0.1499793E+04  0.7818609E-02  0.8884591E-01
        2   -1    0    0  501    0  0.00000000000E+00  0.00000000000E+00  0.12674270153E+04  0.12674270153E+04  0.25500000920E-02 0.  1.
       -2   -1    0    0    0  501  0.00000000000E+00  0.00000000000E+00 -0.44369006676E+03  0.44369006676E+03  0.25500000920E-02 0. -1.
    10030    2    1    2    0    0  0.00000000000E+00  0.00000000000E+00  0.82373694856E+03  0.17111170821E+04  0.14997930218E+04 0.  0.
        4    1    3    3  502    0 -0.46933012249E+03 -0.16885412942E+02  0.10788692642E+04  0.11766547425E+04  0.12699999809E+01 0.  1.
       -4    1    3    3    0  502  0.46933012249E+03  0.16885412942E+02 -0.25513231560E+03  0.53446233956E+03  0.12699999809E+01 0. -1.
</event>
<event>
 5   0  0.1082667E-03  0.1522693E+04  0.7818609E-02  0.8869501E-01
       -2   -1    0    0    0  501  0.00000000000E+00  0.00000000000E+00  0.24933559543E+03  0.24933559544E+03  0.25500000920E-02 0.  1.
        2   -1    0    0  501    0  0.00000000000E+00  0.00000000000E+00 -0.23247717191E+04  0.23247717191E+04  0.25500000920E-02 0. -1.
    10030    2    1    2    0    0  0.00000000000E+00  0.00000000000E+00 -0.20754361237E+04  0.25741073146E+04  0.15226928001E+04 0.  0.
        5    1    3    3  502    0 -0.62820990583E+03  0.13563613727E+03 -0.34775218500E+03  0.73075202339E+03  0.46999998093E+01 0.  1.
       -5    1    3    3    0  502  0.62820990583E+03 -0.13563613727E+03 -0.17276839387E+04  0.18433552912E+04  0.46999998093E+01 0. -1.
</event>
<event>
 5   0  0.4070625E-04  0.1380408E+04  0.7818609E-02  0.8968124E-01
        4   -1    0    0  501    0  0.00000000000E+00  0.00000000000E+00  0.54474919521E+03  0.54475067561E+03  0.12699999809E+01 0.  1.
       -4   -1    0    0    0  501  0.00000000000E+00  0.00000000000E+00 -0.87449379097E+03  0.87449471316E+03  0.12699999809E+01 0. -1.
    10030    2    1    2    0    0  0.00000000000E+00  0.00000000000E+00 -0.32974459576E+03  0.14192453888E+04  0.13804079017E+04 0.  0.
        3    1    3    3  502    0  0.63717545514E+02  0.48556123780E+03  0.33517746149E+03  0.59344214727E+03  0.10100000352E+00 0.  1.
       -3    1    3    3    0  502 -0.63717545514E+02 -0.48556123780E+03 -0.66492205725E+03  0.82580324150E+03  0.10100000352E+00 0. -1.
</event>
<event>
 5   0  0.5606965E-04  0.1488236E+04  0.7818609E-02  0.8892314E-01
        1   -1    0    0  501    0  0.00000000000E+00  0.00000000000E+00  0.96674891600E+03  0.96674891601E+03  0.50400001928E-02 0. -1.
       -1   -1    0    0    0  501  0.00000000000E+00  0.00000000000E+00 -0.57275625329E+03  0.57275625332E+03  0.50400001928E-02 0.  1.
    10030    2    1    2    0    0  0.00000000000E+00  0.00000000000E+00  0.39399266270E+03  0.15395051693E+04  0.14882358510E+04 0.  0.
        4    1    3    3  502    0 -0.35572506002E+03 -0.49484384835E+03 -0.24467750873E+03  0.65671869834E+03  0.12699999809E+01 0.  1.
       -4    1    3    3    0  502  0.35572506002E+03  0.49484384835E+03  0.63867017143E+03  0.88278647099E+03  0.12699999809E+01 0. -1.
</event>
<event>
 5   0  0.5924403E-04  0.1512715E+04  0.7818609E-02  0.8876041E-01
        1   -1    0    0  501    0  0.00000000000E+00  0.00000000000E+00  0.96570606031E+03  0.96570606032E+03  0.50400001928E-02 0.  1.
       -1   -1    0    0    0  501  0.00000000000E+00  0.00000000000E+00 -0.59239197020E+03  0.59239197022E+03  0.50400001928E-02 0. -1.
    10030    2    1    2    0    0  0.00000000000E+00  0.00000000000E+00  0.37331409011E+03  0.15580980305E+04  0.15127147989E+04 0.  0.
        1    1    3    3  502    0 -0.58838487805E+03  0.17436578237E+03 -0.26873433494E+03  0.66993905214E+03  0.50400001928E-02 0. -1.
       -1    1    3    3    0  502  0.58838487805E+03 -0.17436578237E+03  0.64204842505E+03  0.88815897840E+03  0.50400001928E-02 0.  1.
</event>
<event>
 5   0  0.1126175E-03  0.1598216E+04  0.7818609E-02  0.8821645E-01
        2   -1    0    0  501    0  0.00000000000E+00  0.00000000000E+00  0.82421388073E+03  0.82421388074E+03  0.25500000920E-02 0.  1.
       -2   -1    0    0    0  501  0.00000000000E+00  0.00000000000E+00 -0.77476642269E+03  0.77476642269E+03  0.25500000920E-02 0. -1.
    10030    2    1    2    0    0  0.00000000000E+00  0.00000000000E+00  0.49447458043E+02  0.15989803034E+04  0.15982155548E+04 0.  0.
        3    1    3    3  502    0  0.65018162525E+03  0.13946147923E+03 -0.41864470489E+03  0.78577926235E+03  0.10100000352E+00 0. -1.
       -3    1    3    3    0  502 -0.65018162525E+03 -0.13946147923E+03  0.46809216294E+03  0.81320104108E+03  0.10100000352E+00 0.  1.
</event>
<event>
 5   0  0.1149716E-03  0.1494308E+04  0.7818609E-02  0.8888247E-01
        2   -1    0    0  501    0  0.00000000000E+00  0.00000000000E+00  0.15018797119E+04  0.15018797119E+04  0.25500000920E-02 0. -1.
       -2   -1    0    0    0  501  0.00000000000E+00  0.00000000000E+00 -0.37169367566E+03  0.37169367566E+03  0.25500000920E-02 0.  1.
    10030    2    1    2    0    0  0.00000000000E+00  0.00000000000E+00  0.11301860362E+04  0.18735733875E+04  0.14943081215E+04 0.  0.
        1    1    3    3  502    0  0.19626743461E+03 -0.28679530116E+03 -0.26419057265E+03  0.43654221945E+03  0.50400001928E-02 0.  1.
       -1    1    3    3    0  502 -0.19626743461E+03  0.28679530116E+03  0.13943766089E+04  0.14370311681E+04  0.50400001928E-02 0. -1.
</event>
<event>
 5   0  0.1082667E-03  0.1531250E+04  0.7818609E-02  0.8863934E-01
        2   -1    0    0  501    0  0.00000000000E+00  0.00000000000E+00  0.12888527444E+04  0.12888527444E+04  0.25500000920E-02 0.  1.
       -2   -1    0    0    0  501  0.00000000000E+00  0.00000000000E+00 -0.45480863510E+03  0.45480863510E+03  0.25500000920E-02 0. -1.
    10030    2    1    2    0    0  0.00000000000E+00  0.00000000000E+00  0.83404410932E+03  0.17436613795E+04  0.15312496303E+04 0.  0.
        5    1    3    3  502    0  0.10353720183E+03 -0.45983451091E+03  0.11040300561E+04  0.12004466604E+04  0.46999998093E+01 0.  1.
       -5    1    3    3    0  502 -0.10353720183E+03  0.45983451091E+03 -0.26998594683E+03  0.54321471912E+03  0.46999998093E+01 0. -1.
</event>
<event>
 5   0  0.5840834E-04  0.1503381E+04  0.7818609E-02  0.8882208E-01
        1   -1    0    0  501    0  0.00000000000E+00  0.00000000000E+00  0.16686953111E+04  0.16686953111E+04  0.50400001928E-02 0.  1.
       -1   -1    0    0    0  501  0.00000000000E+00  0.00000000000E+00 -0.33861107817E+03  0.33861107821E+03  0.50400001928E-02 0. -1.
    10030    2    1    2    0    0  0.00000000000E+00  0.00000000000E+00  0.13300842329E+04  0.20073063893E+04  0.15033811472E+04 0.  0.
        3    1    3    3  502    0 -0.28697133082E+02 -0.72349431365E+03  0.93464287272E+03  0.11822964337E+04  0.10100000352E+00 0.  1.
       -3    1    3    3    0  502  0.28697133082E+02  0.72349431365E+03  0.39544136018E+03  0.82500995563E+03  0.10100000352E+00 0. -1.
</event>
<event>
 5   0  0.1097156E-03  0.1545805E+04  0.7818609E-02  0.8854552E-01
        2   -1    0    0  501    0  0.00000000000E+00  0.00000000000E+00  0.77960202500E+03  0.77960202501E+03  0.25500000920E-02 0.  1.
       -2   -1    0    0    0  501  0.00000000000E+00  0.00000000000E+00 -0.76626040124E+03  0.76626040124E+03  0.25500000920E-02 0. -1.
    10030    2    1    2    0    0  0.00000000000E+00  0.00000000000E+00  0.13341623766E+02  0.15458624262E+04  0.15458048525E+04 0.  0.
        2    1    3    3  502    0  0.28614880116E+03  0.47850629564E+02 -0.70974078143E+03  0.76674819594E+03  0.25500000920E-02 0. -1.
       -2    1    3    3    0  502 -0.28614880116E+03 -0.47850629564E+02  0.72308240519E+03  0.77911423030E+03  0.25500000920E-02 0.  1.
</event>
<event>
 5   0  0.5924403E-04  0.1497597E+04  0.7818609E-02  0.8886052E-01
       -1   -1    0    0    0  501  0.00000000000E+00  0.00000000000E+00  0.62436469245E+03  0.62436469247E+03  0.50400001928E-02 0.  1.
        1   -1    0    0  501    0  0.00000000000E+00  0.00000000000E+00 -0.89803151310E+03  0.89803151311E+03  0.50400001928E-02 0. -1.
    10030    2    1    2    0    0  0.00000000000E+00  0.00000000000E+00 -0.27366682065E+03  0.15223962056E+04  0.14975969678E+04 0.  0.
        1    1    3    3  502    0  0.19389754328E+03  0.49555589540E+03 -0.67236558712E+03  0.85746567600E+03  0.50400001928E-02 0. -1.
       -1    1    3    3    0  502 -0.19389754328E+03 -0.49555589540E+03  0.39869876647E+03  0.66493052958E+03  0.50400001928E-02 0.  1.
</event>
<event>
 5   0  0.1126175E-03  0.1482736E+04  0.7818609E-02  0.8896015E-01
       -2   -1    0    0    0  501  0.00000000000E+00  0.00000000000E+00  0.58972648637E+03  0.58972648637E+03  0.25500000920E-02 0.  1.
        2   -1    0    0  501    0  0.00000000000E+00  0.00000000000E+00 -0.93200239407E+03  0.93200239407E+03  0.25500000920E-02 0. -1.
    10030    2    1    2    0    0  0.00000000000E+00  0.00000000000E+00 -0.34227590770E+03  0.15217288804E+04  0.14827359807E+04 0.  0.
        3    1    3    3  502    0 -0.19970548550E+03 -0.71310447809E+03 -0.13519979991E+03  0.75278102640E+03  0.10100000352E+00 0.  1.
       -3    1    3    3    0  502  0.19970548550E+03  0.71310447809E+03 -0.20707610779E+03  0.76894785404E+03  0.10100000352E+00 0. -1.
</event>
<event>
 5   0  0.1097156E-03  0.1540753E+04  0.7818609E-02  0.8857796E-01
       -2   -1    0    0    0  501  0.00000000000E+00  0.00000000000E+00  0.41673302914E+03  0.41673302915E+03  0.25500000920E-02 0.  1.
        2   -1    0    0  501    0  0.00000000000E+00  0.00000000000E+00 -0.14241251644E+04  0.14241251644E+04  0.25500000920E-02 0. -1.
    10030    2    1    2    0    0  0.00000000000E+00  0.00000000000E+00 -0.10073921352E+04  0.18408581935E+04  0.15407530544E+04 0.  0.
        2    1    3    3  502    0 -0.17586800564E+03  0.24960741049E+03 -0.13487401427E+04  0.13828714284E+04  0.25500000920E-02 0. -1.
       -2    1    3    3    0  502  0.17586800564E+03 -0.24960741049E+03  0.34134800753E+03  0.45798676513E+03  0.25500000920E-02 0.  1.
</event>
<event>
 5   0  0.5924403E-04  0.1541927E+04  0.7818609E-02  0.8857041E-01
       -1   -1    0    0    0  501  0.00000000000E+00  0.00000000000E+00  0.95657749322E+03  0.95657749323E+03  0.50400001928E-02 0.  1.
        1   -1    0    0  501    0  0.00000000000E+00  0.00000000000E+00 -0.62136636342E+03  0.62136636344E+03  0.50400001928E-02 0. -1.
    10030    2    1    2    0    0  0.00000000000E+00  0.00000000000E+00  0.33521112980E+03  0.15779438567E+04  0.15419274669E+04 0.  0.
        1    1    3    3  502    0 -0.37520296563E+03  0.43825745426E+03  0.69095912311E+03  0.90015074930E+03  0.50400001928E-02 0.  1.
       -1    1    3    3    0  502  0.37520296563E+03 -0.43825745426E+03 -0.35574799331E+03  0.67779310737E+03  0.50400001928E-02 0. -1.
</event>
<event>
 5   0  0.1082667E-03  0.1488442E+04  0.7818609E-02  0.8892175E-01
       -2   -1    0    0    0  501  0.00000000000E+00  0.00000000000E+00  0.47454720603E+03  0.47454720604E+03  0.25500000920E-02 0.  1.
        2   -1    0    0  501    0  0.00000000000E+00  0.00000000000E+00 -0.11671443175E+04  0.11671443175E+04  0.25500000920E-02 0. -1.
    10030    2    1    2    0    0  0.00000000000E+00  0.00000000000E+00 -0.69259711146E+03  0.16416915235E+04  0.14884422393E+04 0.  0.
        5    1    3    3  502    0 -0.18519541829E+03  0.57582070201E+03  0.13190297046E+03  0.61910201699E+03  0.46999998093E+01 0.  1.
       -5    1    3    3    0  502  0.18519541829E+03 -0.57582070201E+03 -0.82450008193E+03  0.10225895066E+04  0.46999998093E+01 0. -1.
</event>
<event>
 5   0  0.1097156E-03  0.1481265E+04  0.7818609E-02  0.8897008E-01
       -2   -1    0    0    0  501  0.00000000000E+00  0.00000000000E+00  0.53703416735E+03  0.53703416736E+03  0.25500000920E-02 0.  1.
        2   -1    0    0  501    0  0.00000000000E+00  0.00000000000E+00 -0.10214188477E+04  0.10214188477E+04  0.25500000920E-02 0. -1.
    10030    2    1    2    0    0  0.00000000000E+00  0.00000000000E+00 -0.48438468032E+03  0.15584530150E+04  0.14812654325E+04 0.  0.
        2    1    3    3  502    0  0.59551849286E+03  0.38539654895E+03 -0.18105314488E+02  0.70957774606E+03  0.25500000920E-02 0. -1.
       -2    1    3    3    0  502 -0.59551849286E+03 -0.38539654895E+03 -0.46627936583E+03  0.84887526898E+03  0.25500000920E-02 0.  1.
</event>
<event>
 5   0  0.4070625E-04  0.1521271E+04  0.7818609E-02  0.8870430E-01
       -4   -1    0    0    0  501  0.00000000000E+00  0.00000000000E+00  0.11007289370E+04  0.11007296696E+04  0.12699999809E+01 0.  1.
        4   -1    0    0  501    0  0.00000000000E+00  0.00000000000E+00 -0.52561948163E+03  0.52562101591E+03  0.12699999809E+01 0. -1.
    10030    2    1    2    0    0  0.00000000000E+00  0.00000000000E+00  0.57510945537E+03  0.16263506856E+04  0.15212710695E+04 0.  0.
        4    1    3    3  502    0 -0.95170088655E+02  0.40872697313E+03  0.96576350388E+03  0.10530032491E+04  0.12699999809E+01 0.  1.
       -4    1    3    3    0  502  0.95170088655E+02 -0.40872697313E+03 -0.39065404851E+03  0.57334743643E+03  0.12699999809E+01 0. -1.
</event>
<event>
 5   0  0.5924403E-04  0.1497397E+04  0.7818609E-02  0.8886186E-01
       -1   -1    0    0    0  501  0.00000000000E+00  0.00000000000E+00  0.87827630624E+03  0.87827630625E+03  0.50400001928E-02 0. -1.
        1   -1    0    0  501    0  0.00000000000E+00  0.00000000000E+00 -0.63823828619E+03  0.63823828621E+03  0.50400001928E-02 0.  1.
    10030    2    1    2    0    0  0.00000000000E+00  0.00000000000E+00  0.24003802005E+03  0.15165145925E+04  0.14973971611E+04 0.  0.
        1    1    3    3  502    0 -0.87772469250E+02 -0.51109712917E+03 -0.42689893659E+03  0.67168964849E+03  0.50400001928E-02 0.  1.
       -1    1    3    3    0  502  0.87772469250E+02  0.51109712917E+03  0.66693695664E+03  0.84482494397E+03  0.50400001928E-02 0. -1.
</event>
<event>
 5   0  0.1147755E-03  0.1508917E+04  0.7818609E-02  0.8878545E-01
       -2   -1    0    0    0  501  0.00000000000E+00  0.00000000000E+00  0.67366501664E+03  0.67366501664E+03  0.25500000920E-02 0.  1.
        2   -1    0    0  501    0  0.00000000000E+00  0.00000000000E+00 -0.84494186006E+03  0.84494186007E+03  0.25500000920E-02 0. -1.
    10030    2    1    2    0    0  0.00000000000E+00  0.00000000000E+00 -0.17127684342E+03  0.15186068767E+04  0.15089171909E+04 0.  0.
        4    1    3    3  502    0 -0.23546510554E+03 -0.42180718921E+03  0.49760095591E+03  0.69352249064E+03  0.12699999809E+01 0.  1.
       -4    1    3    3    0  502  0.23546510554E+03  0.42180718921E+03 -0.66887779933E+03  0.82508438607E+03  0.12699999809E+01 0. -1.
</event>
<event>
 5   0  0.1126175E-03  0.1496871E+04  0.7818609E-02  0.8886537E-01
        2   -1    0    0  501    0  0.00000000000E+00  0.00000000000E+00  0.80075612668E+03  0.80075612668E+03  0.25500000920E-02 0.  1.
       -2   -1    0    0    0  501  0.00000000000E+00  0.00000000000E+00 -0.69953321412E+03  0.69953321412E+03  0.25500000920E-02 0. -1.
    10030    2    1    2    0    0  0.00000000000E+00  0.00000000000E+00  0.10122291256E+03  0.15002893408E+04  0.14968707453E+04 0.  0.
        3    1    3    3  502    0 -0.41253131124E+02  0.13602767597E+03 -0.68587973195E+03  0.70045439992E+03  0.10100000352E+00 0. -1.
       -3    1    3    3    0  502  0.41253131124E+02 -0.13602767597E+03  0.78710264452E+03  0.79983494089E+03  0.10100000352E+00 0.  1.
</event>
<event>
 5   0  0.4070625E-04  0.1502590E+04  0.7818609E-02  0.8882733E-01
        4   -1    0    0  501    0  0.00000000000E+00  0.00000000000E+00  0.61523059011E+03  0.61523190092E+03  0.12699999809E+01 0.  1.
       -4   -1    0    0    0  501  0.00000000000E+00  0.00000000000E+00 -0.91744851752E+03  0.91744939653E+03  0.12699999809E+01 0. -1.
    10030    2    1    2    0    0  0.00000000000E+00  0.00000000000E+00 -0.30221792741E+03  0.15326812974E+04  0.15025898588E+04 0.  0.
        1    1    3    3  502    0  0.31367395634E+02  0.43517181189E+03 -0.77498302570E+03  0.88935769492E+03  0.50400001928E-02 0. -1.
       -1    1    3    3    0  502 -0.31367395634E+02 -0.43517181189E+03  0.47276509829E+03  0.64332360252E+03  0.50400001928E-02 0.  1.
</event>
<event>
 5   0  0.1126175E-03  0.1515274E+04  0.7818609E-02  0.8874359E-01
       -2   -1    0    0    0  501  0.00000000000E+00  0.00000000000E+00  0.98508915869E+03  0.98508915870E+03  0.25500000920E-02 0. -1.
        2   -1    0    0  501    0  0.00000000000E+00  0.00000000000E+00 -0.58270276086E+03  0.58270276086E+03  0.25500000920E-02 0.  1.
    10030    2    1    2    0    0  0.00000000000E+00  0.00000000000E+00  0.40238639783E+03  0.15677919196E+04  0.15152744602E+04 0.  0.
        3    1    3    3  502    0 -0.70169945342E+03 -0.12883359937E+03  0.46504931261E+03  0.85161675220E+03  0.10100000352E+00 0. -1.
       -3    1    3    3    0  502  0.70169945342E+03  0.12883359937E+03 -0.62662914775E+02  0.71617516737E+03  0.10100000352E+00 0.  1.
</event>
<event>
 5   0  0.5840834E-04  0.1923160E+04  0.7818609E-02  0.8643413E-01
        1   -1    0    0  501    0  0.00000000000E+00  0.00000000000E+00  0.11755830375E+04  0.11755830375E+04  0.50400001928E-02 0. -1.
       -1   -1    0    0    0  501  0.00000000000E+00  0.00000000000E+00 -0.78653429341E+03  0.78653429342E+03  0.50400001928E-02 0.  1.
    10030    2    1    2    0    0  0.00000000000E+00  0.00000000000E+00  0.38904874408E+03  0.19621173309E+04  0.19231602884E+04 0.  0.
        3    1    3    3  502    0  0.89156761136E+03  0.38600957657E+02 -0.17085510064E+03  0.90861120133E+03  0.10100000352E+00 0.  1.
       -3    1    3    3    0  502 -0.89156761136E+03 -0.38600957657E+02  0.55990384473E+03  0.10535061296E+04  0.10100000352E+00 0. -1.
</event>
<event>
 5   0  0.5840834E-04  0.1530054E+04  0.7818609E-02  0.8864710E-01
       -1   -1    0    0    0  501  0.00000000000E+00  0.00000000000E+00  0.11987597099E+04  0.11987597099E+04  0.50400001928E-02 0.  1.
        1   -1    0    0  501    0  0.00000000000E+00  0.00000000000E+00 -0.48822656536E+03  0.48822656539E+03  0.50400001928E-02 0. -1.
    10030    2    1    2    0    0  0.00000000000E+00  0.00000000000E+00  0.71053314454E+03  0.16869862753E+04  0.15300540329E+04 0.  0.
        3    1    3    3  502    0 -0.51992763266E+03 -0.40017953408E+03  0.78906437314E+03  0.10262022207E+04  0.10100000352E+00 0.  1.
       -3    1    3    3    0  502  0.51992763266E+03  0.40017953408E+03 -0.78531228598E+02  0.66078405456E+03  0.10100000352E+00 0. -1.
</event>
<event>
 5   0  0.1147755E-03  0.1564238E+04  0.7818609E-02  0.8842824E-01
        2   -1    0    0  501    0  0.00000000000E+00  0.00000000000E+00  0.11819368587E+04  0.11819368587E+04  0.25500000920E-02 0.  1.
       -2   -1    0    0    0  501  0.00000000000E+00  0.00000000000E+00 -0.51754886490E+03  0.51754886491E+03  0.25500000920E-02 0. -1.
    10030    2    1    2    0    0  0.00000000000E+00  0.00000000000E+00  0.66438799380E+03  0.16994857236E+04  0.15642379354E+04 0.  0.
        4    1    3    3  502    0 -0.40104853850E+03 -0.67146683011E+03  0.33318532679E+03  0.85013040709E+03  0.12699999809E+01 0.  1.
       -4    1    3    3    0  502  0.40104853850E+03  0.67146683011E+03  0.33120266701E+03  0.84935531652E+03  0.12699999809E+01 0. -1.
</event>
<event>
 5   0  0.6146552E-04  0.1511266E+04  0.7818609E-02  0.8876995E-01
        1   -1    0    0  501    0  0.00000000000E+00  0.00000000000E+00  0.60210084299E+03  0.60210084301E+03  0.50400001928E-02 0. -1.
       -1   -1    0    0    0  501  0.00000000000E+00  0.00000000000E+00 -0.94831525349E+03  0.94831525350E+03  0.50400001928E-02 0.  1.
    10030    2    1    2    0    0  0.00000000000E+00  0.00000000000E+00 -0.34621441050E+03  0.15504160965E+04  0.15112662420E+04 0.  0.
        5    1    3    3  502    0  0.40206220643E+03  0.40926239988E+03 -0.67758731857E+03  0.88786057130E+03  0.46999998093E+01 0.  1.
       -5    1    3    3    0  502 -0.40206220643E+03 -0.40926239988E+03  0.33137290806E+03  0.66255552521E+03  0.46999998093E+01 0. -1.
</event>
<event>
 5   0  0.5840834E-04  0.1497347E+04  0.7818609E-02  0.8886219E-01
       -1   -1    0    0    0  501  0.00000000000E+00  0.00000000000E+00  0.74904286665E+03  0.74904286667E+03  0.50400001928E-02 0.  1.
        1   -1    0    0  501    0  0.00000000000E+00  0.00000000000E+00 -0.74830478374E+03  0.74830478376E+03  0.50400001928E-02 0. -1.
    10030    2    1    2    0    0  0.00000000000E+00  0.00000000000E+00  0.73808290930E+00  0.14973476504E+04  0.14973474685E+04 0.  0.
        3    1    3    3  502    0  0.21038921093E+03 -0.63115618318E+03  0.34372109280E+03  0.74884307267E+03  0.10100000352E+00 0.  1.
       -3    1    3    3    0  502 -0.21038921093E+03  0.63115618318E+03 -0.34298300989E+03  0.74850457776E+03  0.10100000352E+00 0. -1.
</event>
<event>
 5   0  0.4070625E-04  0.1465317E+04  0.7818609E-02  0.8907850E-01
       -3   -1    0    0    0  501  0.00000000000E+00  0.00000000000E+00  0.71487985496E+03  0.71487986210E+03  0.10100000352E+00 0. -1.
        3   -1    0    0  501    0  0.00000000000E+00  0.00000000000E+00 -0.75087930600E+03  0.75087931279E+03  0.10100000352E+00 0.  1.
    10030    2    1    2    0    0  0.00000000000E+00  0.00000000000E+00 -0.35999451035E+02  0.14657591749E+04  0.14653170300E+04 0.  0.
        3    1    3    3  502    0  0.62235375817E+03  0.25908993312E+03 -0.30503002303E+03  0.73992913100E+03  0.10100000352E+00 0.  1.
       -3    1    3    3    0  502 -0.62235375817E+03 -0.25908993312E+03  0.26903057199E+03  0.72583004389E+03  0.10100000352E+00 0. -1.
</event>
<event>
 5   0  0.5840834E-04  0.1503247E+04  0.7818609E-02  0.8882297E-01
        1   -1    0    0  501    0  0.00000000000E+00  0.00000000000E+00  0.21525841659E+04  0.21525841659E+04  0.50400001928E-02 0.  1.
       -1   -1    0    0    0  501  0.00000000000E+00  0.00000000000E+00 -0.26244639683E+03  0.26244639688E+03  0.50400001928E-02 0. -1.
    10030    2    1    2    0    0  0.00000000000E+00  0.00000000000E+00  0.18901377690E+04  0.24150305628E+04  0.15032470965E+04 0.  0.
        3    1    3    3  502    0 -0.23474321436E+03 -0.14971087145E+03  0.20666844587E+04  0.20853542586E+04  0.10100000352E+00 0.  1.
       -3    1    3    3    0  502  0.23474321436E+03  0.14971087145E+03 -0.17654668966E+03  0.32967630419E+03  0.10100000352E+00 0. -1.
</event>
<event>
 5   0  0.1126175E-03  0.1496156E+04  0.7818609E-02  0.8887013E-01
        2   -1    0    0  501    0  0.00000000000E+00  0.00000000000E+00  0.12011466405E+04  0.12011466405E+04  0.25500000920E-02 0.  1.
       -2   -1    0    0    0  501  0.00000000000E+00  0.00000000000E+00 -0.46590564434E+03  0.46590564435E+03  0.25500000920E-02 0. -1.
    10030    2    1    2    0    0  0.00000000000E+00  0.00000000000E+00  0.73524099619E+03  0.16670522849E+04  0.14961564083E+04 0.  0.
        3    1    3    3  502    0 -0.19894110688E+03 -0.71402903650E+03  0.48018440601E+03  0.88317161580E+03  0.10100000352E+00 0.  1.
       -3    1    3    3    0  502  0.19894110688E+03  0.71402903650E+03  0.25505659018E+03  0.78388066909E+03  0.10100000352E+00 0. -1.
</event>
<event>
 5   0  0.5914645E-04  0.1494929E+04  0.7818609E-02  0.8887832E-01
        1   -1    0    0  501    0  0.00000000000E+00  0.00000000000E+00  0.64646870042E+03  0.64646870044E+03  0.50400001928E-02 0. -1.
       -1   -1    0    0    0  501  0.00000000000E+00  0.00000000000E+00 -0.86423910411E+03  0.86423910412E+03  0.50400001928E-02 0.  1.
    10030    2    1    2    0    0  0.00000000000E+00  0.00000000000E+00 -0.21777040368E+03  0.15107078046E+04  0.14949294706E+04 0.  0.
        2    1    3    3  502    0 -0.33522147478E+03 -0.66488384457E+03 -0.42930999112E+02  0.74584652216E+03  0.25500000920E-02 0.  1.
       -2    1    3    3    0  502  0.33522147478E+03  0.66488384457E+03 -0.17483940457E+03  0.76486128240E+03  0.25500000920E-02 0. -1.
</event>
<event>
 5   0  0.5840834E-04  0.1511973E+04  0.7818609E-02  0.8876530E-01
        1   -1    0    0  501    0  0.00000000000E+00  0.00000000000E+00  0.64151450403E+03  0.64151450405E+03  0.50400001928E-02 0.  1.
       -1   -1    0    0    0  501  0.00000000000E+00  0.00000000000E+00 -0.89088488060E+03  0.89088488061E+03  0.50400001928E-02 0. -1.
    10030    2    1    2    0    0  0.00000000000E+00  0.00000000000E+00 -0.24937037657E+03  0.15323993847E+04  0.15119729791E+04 0.  0.
        3    1    3    3  502    0  0.20048902420E+03  0.18581805255E+03 -0.83904161829E+03  0.88244832421E+03  0.10100000352E+00 0. -1.
       -3    1    3    3    0  502 -0.20048902420E+03 -0.18581805255E+03  0.58967124172E+03  0.64995106046E+03  0.10100000352E+00 0.  1.
</event>
<event>
 5   0  0.5914645E-04  0.1480527E+04  0.7818609E-02  0.8897506E-01
        1   -1    0    0  501    0  0.00000000000E+00  0.00000000000E+00  0.41349590710E+03  0.41349590713E+03  0.50400001928E-02 0. -1.
       -1   -1    0    0    0  501  0.00000000000E+00  0.00000000000E+00 -0.13252619830E+04  0.13252619830E+04  0.50400001928E-02 0.  1.
    10030    2    1    2    0    0  0.00000000000E+00  0.00000000000E+00 -0.91176607586E+03  0.17387578901E+04  0.14805274814E+04 0.  0.
        2    1    3    3  502    0 -0.18433716309E+03 -0.60039373944E+03 -0.91606540891E+03  0.11106883746E+04  0.25500000920E-02 0. -1.
       -2    1    3    3    0  502  0.18433716309E+03  0.60039373944E+03  0.42993330405E+01  0.62806951552E+03  0.25500000920E-02 0.  1.
</event>
<event>
 5   0  0.5840834E-04  0.1211777E+04  0.7818609E-02  0.9102610E-01
        1   -1    0    0  501    0  0.00000000000E+00  0.00000000000E+00  0.69113297646E+03  0.69113297648E+03  0.50400001928E-02 0. -1.
       -1   -1    0    0    0  501  0.00000000000E+00  0.00000000000E+00 -0.53115828735E+03  0.53115828738E+03  0.50400001928E-02 0.  1.
    10030    2    1    2    0    0  0.00000000000E+00  0.00000000000E+00  0.15997468910E+03  0.12222912639E+04  0.12117772207E+04 0.  0.
        3    1    3    3  502    0  0.48901333013E+03 -0.31395447767E+03  0.25293801169E+03  0.63378158624E+03  0.10100000352E+00 0. -1.
       -3    1    3    3    0  502 -0.48901333013E+03  0.31395447767E+03 -0.92963322586E+02  0.58850967761E+03  0.10100000352E+00 0.  1.
</event>
<event>
 5   0  0.1082667E-03  0.1485361E+04  0.7818609E-02  0.8894246E-01
       -2   -1    0    0    0  501  0.00000000000E+00  0.00000000000E+00  0.88348480273E+03  0.88348480273E+03  0.25500000920E-02 0. -1.
        2   -1    0    0  501    0  0.00000000000E+00  0.00000000000E+00 -0.62431665061E+03  0.62431665062E+03  0.25500000920E-02 0.  1.
    10030    2    1    2    0    0  0.00000000000E+00  0.00000000000E+00  0.25916815211E+03  0.15078014533E+04  0.14853609298E+04 0.  0.
        5    1    3    3  502    0  0.20051015341E+03 -0.23011139033E+03 -0.55769458450E+03  0.63576797116E+03  0.46999998093E+01 0.  1.
       -5    1    3    3    0  502 -0.20051015341E+03  0.23011139033E+03  0.81686273661E+03  0.87203348218E+03  0.46999998093E+01 0. -1.
</event>
<event>
 5   0  0.1149716E-03  0.1429747E+04  0.7818609E-02  0.8932563E-01
       -2   -1    0    0    0  501  0.00000000000E+00  0.00000000000E+00  0.50915463378E+03  0.50915463379E+03  0.25500000920E-02 0. -1.
        2   -1    0    0  501    0  0.00000000000E+00  0.00000000000E+00 -0.10037105286E+04  0.10037105286E+04  0.25500000920E-02 0.  1.
    10030    2    1    2    0    0  0.00000000000E+00  0.00000000000E+00 -0.49455589484E+03  0.15128651624E+04  0.14297466442E+04 0.  0.
        1    1    3    3  502    0  0.51283298572E+03  0.39815086875E+03  0.69318634051E+02  0.65293710154E+03  0.50400001928E-02 0. -1.
       -1    1    3    3    0  502 -0.51283298572E+03 -0.39815086875E+03 -0.56387452889E+03  0.85992806087E+03  0.50400001928E-02 0.  1.
</event>
<event>
 5   0  0.5924403E-04  0.1510126E+04  0.7818609E-02  0.8877747E-01
       -1   -1    0    0    0  501  0.00000000000E+00  0.00000000000E+00  0.69634055236E+03  0.69634055237E+03  0.50400001928E-02 0.  1.
        1   -1    0    0  501    0  0.00000000000E+00  0.00000000000E+00 -0.81873773095E+03  0.81873773097E+03  0.50400001928E-02 0. -1.
    10030    2    1    2    0    0  0.00000000000E+00  0.00000000000E+00 -0.12239717859E+03  0.15150782833E+04  0.15101261985E+04 0.  0.
        1    1    3    3  502    0  0.34865060643E+03 -0.49727836765E+02  0.60889145111E+03  0.70340521918E+03  0.50400001928E-02 0.  1.
       -1    1    3    3    0  502 -0.34865060643E+03  0.49727836765E+02 -0.73128862971E+03  0.81167306416E+03  0.50400001928E-02 0. -1.
</event>
<event>
 5   0  0.1097156E-03  0.1472233E+04  0.7818609E-02  0.8903130E-01
        2   -1    0    0  501    0  0.00000000000E+00  0.00000000000E+00  0.87056624288E+03  0.87056624289E+03  0.25500000920E-02 0. -1.
       -2   -1    0    0    0  501  0.00000000000E+00  0.00000000000E+00 -0.62243127450E+03  0.62243127450E+03  0.25500000920E-02 0.  1.
    10030    2    1    2    0    0  0.00000000000E+00  0.00000000000E+00  0.24813496839E+03  0.14929975174E+04  0.14722332099E+04 0.  0.
        2    1    3    3  502    0 -0.70666828183E+03 -0.65617999805E+02  0.32222524840E+03  0.77943241731E+03  0.25500000920E-02 0.  1.
       -2    1    3    3    0  502  0.70666828183E+03  0.65617999805E+02 -0.74090280015E+02  0.71356510008E+03  0.25500000920E-02 0. -1.
</event>
<event>
 5   0  0.1082667E-03  0.1445489E+04  0.7818609E-02  0.8921534E-01
        2   -1    0    0  501    0  0.00000000000E+00  0.00000000000E+00  0.67397039776E+03  0.67397039776E+03  0.25500000920E-02 0. -1.
       -2   -1    0    0    0  501  0.00000000000E+00  0.00000000000E+00 -0.77504790729E+03  0.77504790729E+03  0.25500000920E-02 0.  1.
    10030    2    1    2    0    0  0.00000000000E+00  0.00000000000E+00 -0.10107750953E+03  0.14490183051E+04  0.14454886321E+04 0.  0.
        5    1    3    3  502    0 -0.31031163513E+03  0.31709318742E+03 -0.62245432882E+03  0.76440361189E+03  0.46999998093E+01 0.  1.
       -5    1    3    3    0  502  0.31031163513E+03 -0.31709318742E+03  0.52137681929E+03  0.68461469317E+03  0.46999998093E+01 0. -1.
</event>
<event>
 5   0  0.5914645E-04  0.1074992E+04  0.7818609E-02  0.9229915E-01
       -1   -1    0    0    0  501  0.00000000000E+00  0.00000000000E+00  0.70719880912E+03  0.70719880914E+03  0.50400001928E-02 0.  1.
        1   -1    0    0  501    0  0.00000000000E+00  0.00000000000E+00 -0.40851556965E+03  0.40851556968E+03  0.50400001928E-02 0. -1.
    10030    2    1    2    0    0  0.00000000000E+00  0.00000000000E+00  0.29868323947E+03  0.11157143788E+04  0.10749915802E+04 0.  0.
        2    1    3    3  502    0  0.64786221308E+02  0.52604280367E+03  0.56606772077E+02  0.53303153041E+03  0.25500000920E-02 0. -1.
       -2    1    3    3    0  502 -0.64786221308E+02 -0.52604280367E+03  0.24207646739E+03  0.58268284841E+03  0.25500000920E-02 0.  1.
</event>
<event>
 5   0  0.1097156E-03  0.1499430E+04  0.7818609E-02  0.8884832E-01
       -2   -1    0    0    0  501  0.00000000000E+00  0.00000000000E+00  0.38597016034E+03  0.38597016035E+03  0.25500000920E-02 0.  1.
        2   -1    0    0  501    0  0.00000000000E+00  0.00000000000E+00 -0.14562587850E+04  0.14562587850E+04  0.25500000920E-02 0. -1.
    10030    2    1    2    0    0  0.00000000000E+00  0.00000000000E+00 -0.10702886247E+04  0.18422289454E+04  0.14994298073E+04 0.  0.
        2    1    3    3  502    0  0.42408376442E+03  0.42086294165E+03 -0.10915608903E+04  0.12443784923E+04  0.25500000920E-02 0. -1.
       -2    1    3    3    0  502 -0.42408376442E+03 -0.42086294165E+03  0.21272265644E+02  0.59785045304E+03  0.25500000920E-02 0.  1.
</event>
<event>
 5   0  0.1126175E-03  0.1304759E+04  0.7818609E-02  0.9025800E-01
       -2   -1    0    0    0  501  0.00000000000E+00  0.00000000000E+00  0.15085097296E+03  0.15085097298E+03  0.25500000920E-02 0.  1.
        2   -1    0    0  501    0  0.00000000000E+00  0.00000000000E+00 -0.28213207443E+04  0.28213207443E+04  0.25500000920E-02 0. -1.
    10030    2    1    2    0    0  0.00000000000E+00  0.00000000000E+00 -0.26704697714E+04  0.29721717173E+04  0.13047589499E+04 0.  0.
        3    1    3    3  502    0  0.56248101527E+03 -0.10202006969E+03 -0.20512715027E+04  0.21294383708E+04  0.10100000352E+00 0.  1.
       -3    1    3    3    0  502 -0.56248101527E+03  0.10202006969E+03 -0.61919826869E+03  0.84273334651E+03  0.10100000352E+00 0. -1.
</event>
<event>
 5   0  0.4070625E-04  0.1508534E+04  0.7818609E-02  0.8878798E-01
        3   -1    0    0  501    0  0.00000000000E+00  0.00000000000E+00  0.50514232045E+03  0.50514233055E+03  0.10100000352E+00 0. -1.
       -3   -1    0    0    0  501  0.00000000000E+00  0.00000000000E+00 -0.11262537046E+04  0.11262537091E+04  0.10100000352E+00 0.  1.
    10030    2    1    2    0    0  0.00000000000E+00  0.00000000000E+00 -0.62111138415E+03  0.16313960397E+04  0.15085336214E+04 0.  0.
        1    1    3    3  502    0 -0.56449899083E+03  0.42745473922E+03 -0.29501164055E+02  0.70869385735E+03  0.50400001928E-02 0. -1.
       -1    1    3    3    0  502  0.56449899083E+03 -0.42745473922E+03 -0.59161022010E+03  0.92270218234E+03  0.50400001928E-02 0.  1.
</event>
<event>
 5   0  0.6146552E-04  0.1505225E+04  0.7818609E-02  0.8880986E-01
        1   -1    0    0  501    0  0.00000000000E+00  0.00000000000E+00  0.12091212887E+04  0.12091212887E+04  0.50400001928E-02 0. -1.
       -1   -1    0    0    0  501  0.00000000000E+00  0.00000000000E+00 -0.46846024444E+03  0.46846024447E+03  0.50400001928E-02 0.  1.
    10030    2    1    2    0    0  0.00000000000E+00  0.00000000000E+00  0.74066104429E+03  0.16775815332E+04  0.15052245740E+04 0.  0.
        5    1    3    3  502    0  0.42479114475E+03  0.54352942949E+02  0.10600659291E+04  0.11433125658E+04  0.46999998093E+01 0. -1.
       -5    1    3    3    0  502 -0.42479114475E+03 -0.54352942949E+02 -0.31940488483E+03  0.53426896739E+03  0.46999998093E+01 0.  1.
</event>
<event>
 5   0  0.1149716E-03  0.1517254E+04  0.7818609E-02  0.8873060E-01
        2   -1    0    0  501    0  0.00000000000E+00  0.00000000000E+00  0.45049492946E+03  0.45049492947E+03  0.25500000920E-02 0. -1.
       -2   -1    0    0    0  501  0.00000000000E+00  0.00000000000E+00 -0.12775169615E+04  0.12775169615E+04  0.25500000920E-02 0.  1.
    10030    2    1    2    0    0  0.00000000000E+00  0.00000000000E+00 -0.82702203205E+03  0.17280118910E+04  0.15172539846E+04 0.  0.
        1    1    3    3  502    0 -0.32029925586E+03 -0.24348398108E+03 -0.11459966333E+04  0.12145716718E+04  0.50400001928E-02 0.  1.
       -1    1    3    3    0  502  0.32029925586E+03  0.24348398108E+03  0.31897460130E+03  0.51344021915E+03  0.50400001928E-02 0. -1.
</event>
<event>
 5   0  0.5606965E-04  0.1499116E+04  0.7818609E-02  0.8885041E-01
       -1   -1    0    0    0  501  0.00000000000E+00  0.00000000000E+00  0.12233046919E+04  0.12233046919E+04  0.50400001928E-02 0. -1.
        1   -1    0    0  501    0  0.00000000000E+00  0.00000000000E+00 -0.45927816249E+03  0.45927816251E+03  0.50400001928E-02 0.  1.
    10030    2    1    2    0    0  0.00000000000E+00  0.00000000000E+00  0.76402652943E+03  0.16825828544E+04  0.14991159143E+04 0.  0.
        4    1    3    3  502    0 -0.16462286358E+03 -0.47609887663E+03  0.10049761978E+04  0.11241661792E+04  0.12699999809E+01 0. -1.
       -4    1    3    3    0  502  0.16462286358E+03  0.47609887663E+03 -0.24094966836E+03  0.55841667519E+03  0.12699999809E+01 0.  1.
</event>
<event>
 5   0  0.5914645E-04  0.1506457E+04  0.7818609E-02  0.8880170E-01
        1   -1    0    0  501    0  0.00000000000E+00  0.00000000000E+00  0.42544812567E+03  0.42544812570E+03  0.50400001928E-02 0.  1.
       -1   -1    0    0    0  501  0.00000000000E+00  0.00000000000E+00 -0.13335423472E+04  0.13335423472E+04  0.50400001928E-02 0. -1.
    10030    2    1    2    0    0  0.00000000000E+00  0.00000000000E+00 -0.90809422156E+03  0.17589904729E+04  0.15064568924E+04 0.  0.
        2    1    3    3  502    0 -0.47946184438E+03  0.58085349784E+03 -0.46440199154E+03  0.88484103426E+03  0.25500000920E-02 0. -1.
       -2    1    3    3    0  502  0.47946184438E+03 -0.58085349784E+03 -0.44369223002E+03  0.87414943868E+03  0.25500000920E-02 0.  1.
</event>
<event>
 5   0  0.1147755E-03  0.1527307E+04  0.7818609E-02  0.8866495E-01
       -2   -1    0    0    0  501  0.00000000000E+00  0.00000000000E+00  0.42761852134E+03  0.42761852135E+03  0.25500000920E-02 0. -1.
        2   -1    0    0  501    0  0.00000000000E+00  0.00000000000E+00 -0.13637538772E+04  0.13637538772E+04  0.25500000920E-02 0.  1.
    10030    2    1    2    0    0  0.00000000000E+00  0.00000000000E+00 -0.93613535590E+03  0.17913723986E+04  0.15273066705E+04 0.  0.
        4    1    3    3  502    0 -0.64422894286E+03 -0.89086467690E+02 -0.93751564397E+03  0.11410103090E+04  0.12699999809E+01 0.  1.
       -4    1    3    3    0  502  0.64422894286E+03  0.89086467690E+02  0.13802880718E+01  0.65036208964E+03  0.12699999809E+01 0. -1.
</event>
<event>
 5   0  0.1097156E-03  0.1527060E+04  0.7818609E-02  0.8866655E-01
       -2   -1    0    0    0  501  0.00000000000E+00  0.00000000000E+00  0.27088054357E+03  0.27088054358E+03  0.25500000920E-02 0. -1.
        2   -1    0    0  501    0  0.00000000000E+00  0.00000000000E+00 -0.21521594708E+04  0.21521594708E+04  0.25500000920E-02 0.  1.
    10030    2    1    2    0    0  0.00000000000E+00  0.00000000000E+00 -0.18812789273E+04  0.24230400144E+04  0.15270600870E+04 0.  0.
        2    1    3    3  502    0  0.38977863766E+03 -0.53233557248E+03 -0.33089203323E+03  0.73810438677E+03  0.25500000920E-02 0.  1.
       -2    1    3    3    0  502 -0.38977863766E+03  0.53233557248E+03 -0.15503868940E+04  0.16849356276E+04  0.25500000920E-02 0. -1.
</event>
<event>
 5   0  0.1082667E-03  0.1495897E+04  0.7818609E-02  0.8887186E-01
       -2   -1    0    0    0  501  0.00000000000E+00  0.00000000000E+00  0.72698985000E+03  0.72698985000E+03  0.25500000920E-02 0.  1.
        2   -1    0    0  501    0  0.00000000000E+00  0.00000000000E+00 -0.76951172331E+03  0.76951172332E+03  0.25500000920E-02 0. -1.
    10030    2    1    2    0    0  0.00000000000E+00  0.00000000000E+00 -0.42521873315E+02  0.14965015733E+04  0.14958973391E+04 0.  0.
        5    1    3    3  502    0 -0.18766257740E+03  0.65558550824E+03 -0.32862357922E+03  0.75698424580E+03  0.46999998093E+01 0.  1.
       -5    1    3    3    0  502  0.18766257740E+03 -0.65558550824E+03  0.28610170590E+03  0.73951732752E+03  0.46999998093E+01 0. -1.
</event>
<event>
 5   0  0.5914645E-04  0.1519204E+04  0.7818609E-02  0.8871782E-01
       -1   -1    0    0    0  501  0.00000000000E+00  0.00000000000E+00  0.50608418970E+03  0.50608418973E+03  0.50400001928E-02 0.  1.
        1   -1    0    0  501    0  0.00000000000E+00  0.00000000000E+00 -0.11401176649E+04  0.11401176649E+04  0.50400001928E-02 0. -1.
    10030    2    1    2    0    0  0.00000000000E+00  0.00000000000E+00 -0.63403347518E+03  0.16462018546E+04  0.15192044295E+04 0.  0.
        2    1    3    3  502    0 -0.10882065432E+03  0.75041147006E+03 -0.26812012989E+03  0.80426843358E+03  0.25500000920E-02 0.  1.
       -2    1    3    3    0  502  0.10882065432E+03 -0.75041147006E+03 -0.36591334528E+03  0.84193342104E+03  0.25500000920E-02 0. -1.
</event>
<event>
 5   0  0.1147755E-03  0.1495492E+04  0.7818609E-02  0.8887456E-01
        2   -1    0    0  501    0  0.00000000000E+00  0.00000000000E+00  0.66456678962E+03  0.66456678963E+03  0.25500000920E-02 0. -1.
       -2   -1    0    0    0  501  0.00000000000E+00  0.00000000000E+00 -0.84133613454E+03  0.84133613454E+03  0.25500000920E-02 0.  1.
    10030    2    1    2    0    0  0.00000000000E+00  0.00000000000E+00 -0.17676934492E+03  0.15059029242E+04  0.14954919644E+04 0.  0.
        4    1    3    3  502    0 -0.76892591883E+02 -0.25044564164E+03 -0.79360792222E+03  0.83573359225E+03  0.12699999809E+01 0.  1.
       -4    1    3    3    0  502  0.76892591883E+02  0.25044564164E+03  0.61683857730E+03  0.67016933192E+03  0.12699999809E+01 0. -1.
</event>
<event>
 5   0  0.1126175E-03  0.1497609E+04  0.7818609E-02  0.8886044E-01
       -2   -1    0    0    0  501  0.00000000000E+00  0.00000000000E+00  0.53740045759E+03  0.53740045759E+03  0.25500000920E-02 0. -1.
        2   -1    0    0  501    0  0.00000000000E+00  0.00000000000E+00 -0.10433716040E+04  0.10433716040E+04  0.25500000920E-02 0.  1.
    10030    2    1    2    0    0  0.00000000000E+00  0.00000000000E+00 -0.50597114641E+03  0.15807720616E+04  0.14976092647E+04 0.  0.
        3    1    3    3  502    0 -0.57333821225E+03  0.20141786264E+01 -0.76138274266E+03  0.95311303294E+03  0.10100000352E+00 0.  1.
       -3    1    3    3    0  502  0.57333821225E+03 -0.20141786264E+01  0.25541159625E+03  0.62765902865E+03  0.10100000352E+00 0. -1.
</event>
<event>
 5   0  0.5840834E-04  0.1655957E+04  0.7818609E-02  0.8786890E-01
        1   -1    0    0  501    0  0.00000000000E+00  0.00000000000E+00  0.49650908022E+03  0.49650908024E+03  0.50400001928E-02 0.  1.
       -1   -1    0    0    0  501  0.00000000000E+00  0.00000000000E+00 -0.13807375953E+04  0.13807375953E+04  0.50400001928E-02 0. -1.
    10030    2    1    2    0    0  0.00000000000E+00  0.00000000000E+00 -0.88422851511E+03  0.18772466756E+04  0.16559574312E+04 0.  0.
        3    1    3    3  502    0  0.43823698956E+03 -0.66307735606E+03 -0.17910791087E+03  0.81474099754E+03  0.10100000352E+00 0.  1.
       -3    1    3    3    0  502 -0.43823698956E+03  0.66307735606E+03 -0.70512060424E+03  0.10625056780E+04  0.10100000352E+00 0. -1.
</event>
<event>
 5   0  0.1126175E-03  0.1499305E+04  0.7818609E-02  0.8884915E-01
        2   -1    0    0  501    0  0.00000000000E+00  0.00000000000E+00  0.11396190826E+04  0.11396190826E+04  0.25500000920E-02 0. -1.
       -2   -1    0    0    0  501  0.00000000000E+00  0.00000000000E+00 -0.49312859367E+03  0.49312859367E+03  0.25500000920E-02 0.  1.
    10030    2    1    2    0    0  0.00000000000E+00  0.00000000000E+00  0.64649048892E+03  0.16327476763E+04  0.14993048463E+04 0.  0.
        3    1    3    3  502    0  0.31921640748E+02  0.27943014119E+03  0.10799876771E+04  0.11160078798E+04  0.10100000352E+00 0. -1.
       -3    1    3    3    0  502 -0.31921640748E+02 -0.27943014119E+03 -0.43349718813E+03  0.51673979649E+03  0.10100000352E+00 0.  1.
</event>
<event>
 5   0  0.5914645E-04  0.1495441E+04  0.7818609E-02  0.8887490E-01
        1   -1    0    0  501    0  0.00000000000E+00  0.00000000000E+00  0.71483908124E+03  0.71483908126E+03  0.50400001928E-02 0.  1.
       -1   -1    0    0    0  501  0.00000000000E+00  0.00000000000E+00 -0.78211413934E+03  0.78211413935E+03  0.50400001928E-02 0. -1.
    10030    2    1    2    0    0  0.00000000000E+00  0.00000000000E+00 -0.67275058096E+02  0.14969532206E+04  0.14954407415E+04 0.  0.
        2    1    3    3  502    0 -0.76798597216E+01  0.12524424234E+03  0.70422442999E+03  0.71531611773E+03  0.25500000920E-02 0.  1.
       -2    1    3    3    0  502  0.76798597216E+01 -0.12524424234E+03 -0.77149948808E+03  0.78163710288E+03  0.25500000920E-02 0. -1.
</event>
<event>
 5   0  0.5924403E-04  0.1245094E+04  0.7818609E-02  0.9074276E-01
        1   -1    0    0  501    0  0.00000000000E+00  0.00000000000E+00  0.27210376248E+03  0.27210376252E+03  0.50400001928E-02 0.  1.
       -1   -1    0    0    0  501  0.00000000000E+00  0.00000000000E+00 -0.14243279610E+04  0.14243279611E+04  0.50400001928E-02 0. -1.
    10030    2    1    2    0    0  0.00000000000E+00  0.00000000000E+00 -0.11522241986E+04  0.16964317236E+04  0.12450943695E+04 0.  0.
        1    1    3    3  502    0  0.12834937164E+03  0.36651874443E+02  0.25237753206E+03  0.28550190860E+03  0.50400001928E-02 0.  1.
       -1    1    3    3    0  502 -0.12834937164E+03 -0.36651874443E+02 -0.14046017306E+04  0.14109298150E+04  0.50400001928E-02 0. -1.
</event>
<event>
 5   0  0.1147755E-03  0.1496883E+04  0.7818609E-02  0.8886528E-01
        2   -1    0    0  501    0  0.00000000000E+00  0.00000000000E+00  0.74248832995E+03  0.74248832996E+03  0.25500000920E-02 0. -1.
       -2   -1    0    0    0  501  0.00000000000E+00  0.00000000000E+00 -0.75444280033E+03  0.75444280033E+03  0.25500000920E-02 0.  1.
    10030    2    1    2    0    0  0.00000000000E+00  0.00000000000E+00 -0.11954470377E+02  0.14969311303E+04  0.14968833954E+04 0.  0.
        4    1    3    3  502    0  0.37790479584E+03 -0.25576957701E+03  0.58728130629E+03  0.74372781100E+03  0.12699999809E+01 0. -1.
       -4    1    3    3    0  502 -0.37790479584E+03  0.25576957701E+03 -0.59923577667E+03  0.75320331928E+03  0.12699999809E+01 0.  1.
</event>
<event>
 5   0  0.1147755E-03  0.1511521E+04  0.7818609E-02  0.8876828E-01
       -2   -1    0    0    0  501  0.00000000000E+00  0.00000000000E+00  0.29572317279E+03  0.29572317280E+03  0.25500000920E-02 0.  1.
        2   -1    0    0  501    0  0.00000000000E+00  0.00000000000E+00 -0.19314471406E+04  0.19314471406E+04  0.25500000920E-02 0. -1.
    10030    2    1    2    0    0  0.00000000000E+00  0.00000000000E+00 -0.16357239678E+04  0.22271703134E+04  0.15115206601E+04 0.  0.
        4    1    3    3  502    0  0.11605004908E+03 -0.42680628108E+03  0.85096811854E+02  0.45041569216E+03  0.12699999809E+01 0.  1.
       -4    1    3    3    0  502 -0.11605004908E+03  0.42680628108E+03 -0.17208207797E+04  0.17767546213E+04  0.12699999809E+01 0. -1.
</event>
<event>
 5   0  0.1147755E-03  0.1619622E+04  0.7818609E-02  0.8808584E-01
        2   -1    0    0  501    0  0.00000000000E+00  0.00000000000E+00  0.87786246182E+03  0.87786246183E+03  0.25500000920E-02 0.  1.
       -2   -1    0    0    0  501  0.00000000000E+00  0.00000000000E+00 -0.74703458290E+03  0.74703458290E+03  0.25500000920E-02 0. -1.
    10030    2    1    2    0    0  0.00000000000E+00  0.00000000000E+00  0.13082787892E+03  0.16248970447E+04  0.16196217065E+04 0.  0.
        4    1    3    3  502    0 -0.17270497914E+03 -0.78473244139E+03  0.16653902823E+03  0.82059056491E+03  0.12699999809E+01 0.  1.
       -4    1    3    3    0  502  0.17270497914E+03  0.78473244139E+03 -0.35711149307E+02  0.80430647982E+03  0.12699999809E+01 0. -1.
</event>
<event>
 5   0  0.5924403E-04  0.1490075E+04  0.7818609E-02  0.8891080E-01
       -1   -1    0    0    0  501  0.00000000000E+00  0.00000000000E+00  0.63858335788E+03  0.63858335790E+03  0.50400001928E-02 0.  1.
        1   -1    0    0  501    0  0.00000000000E+00  0.00000000000E+00 -0.86923756781E+03  0.86923756783E+03  0.50400001928E-02 0. -1.
    10030    2    1    2    0    0  0.00000000000E+00  0.00000000000E+00 -0.23065420994E+03  0.15078209257E+04  0.14900746892E+04 0.  0.
        1    1    3    3  502    0  0.14096013658E+03  0.62577967603E+03 -0.49880037819E+03  0.81257109249E+03  0.50400001928E-02 0. -1.
       -1    1    3    3    0  502 -0.14096013658E+03 -0.62577967603E+03  0.26814616825E+03  0.69524983323E+03  0.50400001928E-02 0.  1.
</event>
<event>
 5   0  0.1082667E-03  0.1542599E+04  0.7818609E-02  0.8856609E-01
        2   -1    0    0  501    0  0.00000000000E+00  0.00000000000E+00  0.69220836326E+03  0.69220836326E+03  0.25500000920E-02 0. -1.
       -2   -1    0    0    0  501  0.00000000000E+00  0.00000000000E+00 -0.85942764171E+03  0.85942764171E+03  0.25500000920E-02 0.  1.
    10030    2    1    2    0    0  0.00000000000E+00  0.00000000000E+00 -0.16721927845E+03  0.15516360050E+04  0.15425991070E+04 0.  0.
        5    1    3    3  502    0  0.51735868069E+02  0.31378196200E+03  0.62317680697E+03  0.69964787034E+03  0.46999998093E+01 0. -1.
       -5    1    3    3    0  502 -0.51735868069E+02 -0.31378196200E+03 -0.79039608542E+03  0.85198813464E+03  0.46999998093E+01 0.  1.
</event>
<event>
 5   0  0.1126175E-03  0.1529012E+04  0.7818609E-02  0.8865386E-01
        2   -1    0    0  501    0  0.00000000000E+00  0.00000000000E+00  0.86385067258E+03  0.86385067258E+03  0.25500000920E-02 0. -1.
       -2   -1    0    0    0  501  0.00000000000E+00  0.00000000000E+00 -0.67658617281E+03  0.67658617282E+03  0.25500000920E-02 0.  1.
    10030    2    1    2    0    0  0.00000000000E+00  0.00000000000E+00  0.18726449976E+03  0.15404368454E+04  0.15290119953E+04 0.  0.
        3    1    3    3  502    0  0.16999609285E+02 -0.23224113730E+03  0.82725211449E+03  0.85940153811E+03  0.10100000352E+00 0. -1.
       -3    1    3    3    0  502 -0.16999609285E+02  0.23224113730E+03 -0.63998761473E+03  0.68103530729E+03  0.10100000352E+00 0.  1.
</event>
<event>
 5   0  0.5914645E-04  0.1509545E+04  0.7818609E-02  0.8878130E-01
        1   -1    0    0  501    0  0.00000000000E+00  0.00000000000E+00  0.82858053364E+03  0.82858053365E+03  0.50400001928E-02 0. -1.
       -1   -1    0    0    0  501  0.00000000000E+00  0.00000000000E+00 -0.68753927480E+03  0.68753927482E+03  0.50400001928E-02 0.  1.
    10030    2    1    2    0    0  0.00000000000E+00  0.00000000000E+00  0.14104125884E+03  0.15161198085E+04  0.15095451755E+04 0.  0.
        2    1    3    3  502    0 -0.42700836811E+03 -0.42138010814E+03  0.53053766693E+03  0.80085426765E+03  0.25500000920E-02 0. -1.
       -2    1    3    3    0  502  0.42700836811E+03  0.42138010814E+03 -0.38949640809E+03  0.71526554082E+03  0.25500000920E-02 0.  1.
</event>
<event>
 5   0  0.5924403E-04  0.1530950E+04  0.7818609E-02  0.8864129E-01
        1   -1    0    0  501    0  0.00000000000E+00  0.00000000000E+00  0.17026372636E+04  0.17026372636E+04  0.50400001928E-02 0. -1.
       -1   -1    0    0    0  501  0.00000000000E+00  0.00000000000E+00 -0.34414364422E+03  0.34414364426E+03  0.50400001928E-02 0.  1.
    10030    2    1    2    0    0  0.00000000000E+00  0.00000000000E+00  0.13584936194E+04  0.20467809079E+04  0.15309497611E+04 0.  0.
        1    1    3    3  502    0  0.85679661495E+02 -0.31452893379E+03 -0.24670264865E+03  0.40881738156E+03  0.50400001928E-02 0.  1.
       -1    1    3    3    0  502 -0.85679661495E+02  0.31452893379E+03  0.16051962680E+04  0.16379635263E+04  0.50400001928E-02 0. -1.
</event>
<event>
 5   0  0.5914645E-04  0.1500724E+04  0.7818609E-02  0.8883972E-01
       -1   -1    0    0    0  501  0.00000000000E+00  0.00000000000E+00  0.52398242830E+03  0.52398242833E+03  0.50400001928E-02 0. -1.
        1   -1    0    0  501    0  0.00000000000E+00  0.00000000000E+00 -0.10745452439E+04  0.10745452440E+04  0.50400001928E-02 0.  1.
    10030    2    1    2    0    0  0.00000000000E+00  0.00000000000E+00 -0.55056281564E+03  0.15985276723E+04  0.15007235938E+04 0.  0.
        2    1    3    3  502    0  0.23844398534E+03 -0.65380645875E+03 -0.57414578050E+03  0.90219831352E+03  0.25500000920E-02 0. -1.
       -2    1    3    3    0  502 -0.23844398534E+03  0.65380645875E+03  0.23582964853E+02  0.69632935877E+03  0.25500000920E-02 0.  1.
</event>
<event>
 5   0  0.1126175E-03  0.1495204E+04  0.7818609E-02  0.8887648E-01
       -2   -1    0    0    0  501  0.00000000000E+00  0.00000000000E+00  0.40967389944E+03  0.40967389945E+03  0.25500000920E-02 0. -1.
        2   -1    0    0  501    0  0.00000000000E+00  0.00000000000E+00 -0.13642773346E+04  0.13642773346E+04  0.25500000920E-02 0.  1.
    10030    2    1    2    0    0  0.00000000000E+00  0.00000000000E+00 -0.95460343518E+03  0.17739512341E+04  0.14952040872E+04 0.  0.
        3    1    3    3  502    0  0.12042366541E+03  0.13215601988E+03  0.38393492434E+03  0.42352462633E+03  0.10100000352E+00 0. -1.
       -3    1    3    3    0  502 -0.12042366541E+03 -0.13215601988E+03 -0.13385383595E+04  0.13504266077E+04  0.10100000352E+00 0.  1.
</event>
<event>
 5   0  0.5914645E-04  0.1485698E+04  0.7818609E-02  0.8894020E-01
       -1   -1    0    0    0  501  0.00000000000E+00  0.00000000000E+00  0.33577787945E+03  0.33577787949E+03  0.50400001928E-02 0.  1.
        1   -1    0    0  501    0  0.00000000000E+00  0.00000000000E+00 -0.16434213961E+04  0.16434213961E+04  0.50400001928E-02 0. -1.
    10030    2    1    2    0    0  0.00000000000E+00  0.00000000000E+00 -0.13076435166E+04  0.19791992756E+04  0.14856978851E+04 0.  0.
        2    1    3    3  502    0  0.14808942050E+02 -0.37046187158E+03  0.20370885436E+03  0.42303498722E+03  0.25500000920E-02 0.  1.
       -2    1    3    3    0  502 -0.14808942050E+02  0.37046187158E+03 -0.15113523710E+04  0.15561642883E+04  0.25500000920E-02 0. -1.
</event>
<event>
 5   0  0.1147755E-03  0.1516497E+04  0.7818609E-02  0.8873556E-01
        2   -1    0    0  501    0  0.00000000000E+00  0.00000000000E+00  0.92260919829E+03  0.92260919829E+03  0.25500000920E-02 0. -1.
       -2   -1    0    0    0  501  0.00000000000E+00  0.00000000000E+00 -0.62316835566E+03  0.62316835567E+03  0.25500000920E-02 0.  1.
    10030    2    1    2    0    0  0.00000000000E+00  0.00000000000E+00  0.29944084263E+03  0.15457775540E+04  0.15164970914E+04 0.  0.
        4    1    3    3  502    0 -0.48832114595E+03  0.33472592794E+03 -0.33317800756E+03  0.67934393796E+03  0.12699999809E+01 0.  1.
       -4    1    3    3    0  502  0.48832114595E+03 -0.33472592794E+03  0.63261885019E+03  0.86643361600E+03  0.12699999809E+01 0. -1.
</event>
<event>
 5   0  0.5840834E-04  0.1472317E+04  0.7818609E-02  0.8903073E-01
       -1   -1    0    0    0  501  0.00000000000E+00  0.00000000000E+00  0.64315250623E+03  0.64315250625E+03  0.50400001928E-02 0.  1.
        1   -1    0    0  501    0  0.00000000000E+00  0.00000000000E+00 -0.84261448325E+03  0.84261448326E+03  0.50400001928E-02 0. -1.
    10030    2    1    2    0    0  0.00000000000E+00  0.00000000000E+00 -0.19946197702E+03  0.14857669895E+04  0.14723173798E+04 0.  0.
        3    1    3    3  502    0 -0.15087826382E+03 -0.55437876461E+03  0.36472282095E+03  0.68053127148E+03  0.10100000352E+00 0.  1.
       -3    1    3    3    0  502  0.15087826382E+03  0.55437876461E+03 -0.56418479796E+03  0.80523571803E+03  0.10100000352E+00 0. -1.
</event>
<event>
 5   0  0.5924403E-04  0.1450389E+04  0.7818609E-02  0.8918131E-01
       -1   -1    0    0    0  501  0.00000000000E+00  0.00000000000E+00  0.54274773516E+03  0.54274773518E+03  0.50400001928E-02 0. -1.
        1   -1    0    0  501    0  0.00000000000E+00  0.00000000000E+00 -0.96897099130E+03  0.96897099131E+03  0.50400001928E-02 0.  1.
    10030    2    1    2    0    0  0.00000000000E+00  0.00000000000E+00 -0.42622325614E+03  0.15117187265E+04  0.14503886527E+04 0.  0.
        1    1    3    3  502    0  0.39831085588E+03 -0.77775943373E+02 -0.83952956246E+03  0.93247548040E+03  0.50400001928E-02 0.  1.
       -1    1    3    3    0  502 -0.39831085588E+03  0.77775943373E+02  0.41330630631E+03  0.57924324609E+03  0.50400001928E-02 0. -1.
</event>
<event>
 5   0  0.1147755E-03  0.1494019E+04  0.7818609E-02  0.8888440E-01
       -2   -1    0    0    0  501  0.00000000000E+00  0.00000000000E+00  0.30371978394E+03  0.30371978395E+03  0.25500000920E-02 0.  1.
        2   -1    0    0  501    0  0.00000000000E+00  0.00000000000E+00 -0.18372950969E+04  0.18372950969E+04  0.25500000920E-02 0. -1.
    10030    2    1    2    0    0  0.00000000000E+00  0.00000000000E+00 -0.15335753129E+04  0.21410148808E+04  0.14940185673E+04 0.  0.
        4    1    3    3  502    0  0.45175240296E+03  0.59399914818E+03 -0.71912829776E+03  0.10363697907E+04  0.12699999809E+01 0.  1.
       -4    1    3    3    0  502 -0.45175240296E+03 -0.59399914818E+03 -0.81444701516E+03  0.11046450901E+04  0.12699999809E+01 0. -1.
</event>
<event>
 5   0  0.1082667E-03  0.1490232E+04  0.7818609E-02  0.8890975E-01
       -2   -1    0    0    0  501  0.00000000000E+00  0.00000000000E+00  0.38774522390E+03  0.38774522391E+03  0.25500000920E-02 0. -1.
        2   -1    0    0  501    0  0.00000000000E+00  0.00000000000E+00 -0.14318621028E+04  0.14318621028E+04  0.25500000920E-02 0.  1.
    10030    2    1    2    0    0  0.00000000000E+00  0.00000000000E+00 -0.10441168788E+04  0.18196073267E+04  0.14902317828E+04 0.  0.
        5    1    3    3  502    0 -0.58598825653E+03 -0.35380869115E+03 -0.16271077071E+03  0.70360479790E+03  0.46999998093E+01 0.  1.
       -5    1    3    3    0  502  0.58598825653E+03  0.35380869115E+03 -0.88140610814E+03  0.11160025288E+04  0.46999998093E+01 0. -1.
</event>
<event>
 5   0  0.5914645E-04  0.1078984E+04  0.7818609E-02  0.9225921E-01
        1   -1    0    0  501    0  0.00000000000E+00  0.00000000000E+00  0.47501125538E+03  0.47501125541E+03  0.50400001928E-02 0.  1.
       -1   -1    0    0    0  501  0.00000000000E+00  0.00000000000E+00 -0.61272553276E+03  0.61272553278E+03  0.50400001928E-02 0. -1.
    10030    2    1    2    0    0  0.00000000000E+00  0.00000000000E+00 -0.13771427738E+03  0.10877367882E+04  0.10789838267E+04 0.  0.
        2    1    3    3  502    0  0.48083022239E+02 -0.31233786450E+02 -0.60964522009E+03  0.61233554594E+03  0.25500000920E-02 0. -1.
       -2    1    3    3    0  502 -0.48083022239E+02  0.31233786450E+02  0.47193094270E+03  0.47540124225E+03  0.25500000920E-02 0.  1.
</event>
<event>
 5   0  0.5606965E-04  0.1498599E+04  0.7818609E-02  0.8885385E-01
        1   -1    0    0  501    0  0.00000000000E+00  0.00000000000E+00  0.61301416270E+03  0.61301416272E+03  0.50400001928E-02 0.  1.
       -1   -1    0    0    0  501  0.00000000000E+00  0.00000000000E+00 -0.91588360853E+03  0.91588360855E+03  0.50400001928E-02 0. -1.
    10030    2    1    2    0    0  0.00000000000E+00  0.00000000000E+00 -0.30286944583E+03  0.15288977713E+04  0.14985988435E+04 0.  0.
        4    1    3    3  502    0 -0.64122719645E+02  0.27209069893E+03 -0.86069032126E+03  0.90495000615E+03  0.12699999809E+01 0. -1.
       -4    1    3    3    0  502  0.64122719645E+02 -0.27209069893E+03  0.55782087544E+03  0.62394776512E+03  0.12699999809E+01 0.  1.
</event>
<event>
 5   0  0.5924403E-04  0.1489766E+04  0.7818609E-02  0.8891287E-01
        1   -1    0    0  501    0  0.00000000000E+00  0.00000000000E+00  0.10113831681E+04  0.10113831681E+04  0.50400001928E-02 0.  1.
       -1   -1    0    0    0  501  0.00000000000E+00  0.00000000000E+00 -0.54860610117E+03  0.54860610120E+03  0.50400001928E-02 0. -1.
    10030    2    1    2    0    0  0.00000000000E+00  0.00000000000E+00  0.46277706688E+03  0.15599892693E+04  0.14897663933E+04 0.  0.
        1    1    3    3  502    0 -0.31434016954E+03 -0.56087269002E+03  0.62523319398E+03  0.89683023113E+03  0.50400001928E-02 0.  1.
       -1    1    3    3    0  502  0.31434016954E+03  0.56087269002E+03 -0.16245612710E+03  0.66315903813E+03  0.50400001928E-02 0. -1.
</event>
<event>
 5   0  0.6146552E-04  0.1504677E+04  0.7818609E-02  0.8881349E-01
        1   -1    0    0  501    0  0.00000000000E+00  0.00000000000E+00  0.11135150443E+04  0.11135150443E+04  0.50400001928E-02 0. -1.
       -1   -1    0    0    0  501  0.00000000000E+00  0.00000000000E+00 -0.50831219030E+03  0.50831219032E+03  0.50400001928E-02 0.  1.
    10030    2    1    2    0    0  0.00000000000E+00  0.00000000000E+00  0.60520285397E+03  0.16218272346E+04  0.15046770698E+04 0.  0.
        5    1    3    3  502    0 -0.28594159741E+03 -0.58887335912E+03  0.70221876586E+03  0.96003526776E+03  0.46999998093E+01 0. -1.
       -5    1    3    3    0  502  0.28594159741E+03  0.58887335912E+03 -0.97015911891E+02  0.66179196684E+03  0.46999998093E+01 0.  1.
</event>
<event>
 5   0  0.5840834E-04  0.1458390E+04  0.7818609E-02  0.8912605E-01
        1   -1    0    0  501    0  0.00000000000E+00  0.00000000000E+00  0.17271372222E+04  0.17271372222E+04  0.50400001928E-02 0.  1.
       -1   -1    0    0    0  501  0.00000000000E+00  0.00000000000E+00 -0.30786500562E+03  0.30786500566E+03  0.50400001928E-02 0. -1.
    10030    2    1    2    0    0  0.00000000000E+00  0.00000000000E+00  0.14192722166E+04  0.20350022279E+04  0.14583896745E+04 0.  0.
        3    1    3    3  502    0 -0.64516346938E+03  0.29595646998E+03  0.94270556457E+03  0.11800508150E+04  0.10100000352E+00 0.  1.
       -3    1    3    3    0  502  0.64516346938E+03 -0.29595646998E+03  0.47656665204E+03  0.85495141288E+03  0.10100000352E+00 0. -1.
</event>
<event>
 5   0  0.1149716E-03  0.1491657E+04  0.7818609E-02  0.8890020E-01
        2   -1    0    0  501    0  0.00000000000E+00  0.00000000000E+00  0.12923485859E+04  0.12923485859E+04  0.25500000920E-02 0.  1.
       -2   -1    0    0    0  501  0.00000000000E+00  0.00000000000E+00 -0.43042588011E+03  0.43042588012E+03  0.25500000920E-02 0. -1.
    10030    2    1    2    0    0  0.00000000000E+00  0.00000000000E+00  0.86192270582E+03  0.17227744661E+04  0.14916571691E+04 0.  0.
        1    1    3    3  502    0  0.68631444416E+03 -0.85873141136E+02  0.10869675161E+03  0.70015476609E+03  0.50400001928E-02 0. -1.
       -1    1    3    3    0  502 -0.68631444416E+03  0.85873141136E+02  0.75322595421E+03  0.10226197000E+04  0.50400001928E-02 0.  1.
</event>
<event>
 5   0  0.6146552E-04  0.1495598E+04  0.7818609E-02  0.8887386E-01
       -1   -1    0    0    0  501  0.00000000000E+00  0.00000000000E+00  0.80560175077E+03  0.80560175079E+03  0.50400001928E-02 0.  1.
        1   -1    0    0  501    0  0.00000000000E+00  0.00000000000E+00 -0.69414330467E+03  0.69414330468E+03  0.50400001928E-02 0. -1.
    10030    2    1    2    0    0  0.00000000000E+00  0.00000000000E+00  0.11145844611E+03  0.14997450555E+04  0.14955976218E+04 0.  0.
        5    1    3    3  502    0 -0.56382263178E+03  0.47898862976E+03 -0.53452939929E+02  0.74175829913E+03  0.46999998093E+01 0. -1.
       -5    1    3    3    0  502  0.56382263178E+03 -0.47898862976E+03  0.16491138604E+03  0.75798675634E+03  0.46999998093E+01 0.  1.
</event>
<event>
 5   0  0.5924403E-04  0.1479204E+04  0.7818609E-02  0.8898401E-01
        1   -1    0    0  501    0  0.00000000000E+00  0.00000000000E+00  0.13541045075E+04  0.13541045075E+04  0.50400001928E-02 0.  1.
       -1   -1    0    0    0  501  0.00000000000E+00  0.00000000000E+00 -0.40396548438E+03  0.40396548441E+03  0.50400001928E-02 0. -1.
    10030    2    1    2    0    0  0.00000000000E+00  0.00000000000E+00  0.95013902309E+03  0.17580699919E+04  0.14792044934E+04 0.  0.
        1    1    3    3  502    0  0.18990635913E+03 -0.42869381553E+03 -0.20475027111E+03  0.51163022415E+03  0.50400001928E-02 0. -1.
       -1    1    3    3    0  502 -0.18990635913E+03  0.42869381553E+03  0.11548892942E+04  0.12464397677E+04  0.50400001928E-02 0.  1.
</event>
<event>
 5   0  0.5840834E-04  0.1530685E+04  0.7818609E-02  0.8864300E-01
       -1   -1    0    0    0  501  0.00000000000E+00  0.00000000000E+00  0.57428225147E+03  0.57428225149E+03  0.50400001928E-02 0.  1.
        1   -1    0    0  501    0  0.00000000000E+00  0.00000000000E+00 -0.10199671926E+04  0.10199671926E+04  0.50400001928E-02 0. -1.
    10030    2    1    2    0    0  0.00000000000E+00  0.00000000000E+00 -0.44568494117E+03  0.15942494441E+04  0.15306848870E+04 0.  0.
        3    1    3    3  502    0 -0.57705976135E+03  0.30285586487E+03  0.19510631803E+03  0.68028385884E+03  0.10100000352E+00 0.  1.
       -3    1    3    3    0  502  0.57705976135E+03 -0.30285586487E+03 -0.64079125919E+03  0.91396558530E+03  0.10100000352E+00 0. -1.
</event>
<event>
 5   0  0.5606965E-04  0.1469579E+04  0.7818609E-02  0.8904938E-01
       -1   -1    0    0    0  501  0.00000000000E+00  0.00000000000E+00  0.48519927488E+03  0.48519927490E+03  0.50400001928E-02 0. -1.
        1   -1    0    0  501    0  0.00000000000E+00  0.00000000000E+00 -0.11127714879E+04  0.11127714879E+04  0.50400001928E-02 0.  1.
    10030    2    1    2    0    0  0.00000000000E+00  0.00000000000E+00 -0.62757221303E+03  0.15979707628E+04  0.14695794216E+04 0.  0.
        4    1    3    3  502    0 -0.70802464153E+02  0.67073648520E+03  0.32587396729E+01  0.67447212974E+03  0.12699999809E+01 0. -1.
       -4    1    3    3    0  502  0.70802464153E+02 -0.67073648520E+03 -0.63083095270E+03  0.92349863308E+03  0.12699999809E+01 0.  1.
</event>
<event>
 5   0  0.5840834E-04  0.1487775E+04  0.7818609E-02  0.8892623E-01
       -1   -1    0    0    0  501  0.00000000000E+00  0.00000000000E+00  0.49604010140E+03  0.49604010143E+03  0.50400001928E-02 0.  1.
        1   -1    0    0  501    0  0.00000000000E+00  0.00000000000E+00 -0.11155724967E+04  0.11155724967E+04  0.50400001928E-02 0. -1.
    10030    2    1    2    0    0  0.00000000000E+00  0.00000000000E+00 -0.61953239533E+03  0.16116125982E+04  0.14877751099E+04 0.  0.
        3    1    3    3  502    0  0.44373369380E+03 -0.54946948531E+02 -0.95376834051E+03  0.10533721165E+04  0.10100000352E+00 0. -1.
       -3    1    3    3    0  502 -0.44373369380E+03  0.54946948531E+02  0.33423594518E+03  0.55824048171E+03  0.10100000352E+00 0.  1.
</event>
<event>
 5   0  0.1149716E-03  0.1473772E+04  0.7818609E-02  0.8902084E-01
        2   -1    0    0  501    0  0.00000000000E+00  0.00000000000E+00  0.88852382603E+03  0.88852382604E+03  0.25500000920E-02 0.  1.
       -2   -1    0    0    0  501  0.00000000000E+00  0.00000000000E+00 -0.61112726865E+03  0.61112726865E+03  0.25500000920E-02 0. -1.
    10030    2    1    2    0    0  0.00000000000E+00  0.00000000000E+00  0.27739655739E+03  0.14996510947E+04  0.14737722198E+04 0.  0.
        1    1    3    3  502    0  0.41683588453E+03 -0.17183582781E+03  0.73178928219E+03  0.85953200051E+03  0.50400001928E-02 0.  1.
       -1    1    3    3    0  502 -0.41683588453E+03  0.17183582781E+03 -0.45439272480E+03  0.64011909418E+03  0.50400001928E-02 0. -1.
</event>
<event>
 5   0  0.1082667E-03  0.1500630E+04  0.7818609E-02  0.8884034E-01
        2   -1    0    0  501    0  0.00000000000E+00  0.00000000000E+00  0.13186245088E+04  0.13186245088E+04  0.25500000920E-02 0.  1.
       -2   -1    0    0    0  501  0.00000000000E+00  0.00000000000E+00 -0.42693920002E+03  0.42693920002E+03  0.25500000920E-02 0. -1.
    10030    2    1    2    0    0  0.00000000000E+00  0.00000000000E+00  0.89168530883E+03  0.17455637089E+04  0.15006298583E+04 0.  0.
        5    1    3    3  502    0 -0.52212316298E+03 -0.42264169746E+03  0.83462957650E+03  0.10713856550E+04  0.46999998093E+01 0. -1.
       -5    1    3    3    0  502  0.52212316298E+03  0.42264169746E+03  0.57055732331E+02  0.67417805389E+03  0.46999998093E+01 0.  1.
</event>
<event>
 5   0  0.5840834E-04  0.1502505E+04  0.7818609E-02  0.8882789E-01
        1   -1    0    0  501    0  0.00000000000E+00  0.00000000000E+00  0.11698990769E+04  0.11698990769E+04  0.50400001928E-02 0. -1.
       -1   -1    0    0    0  501  0.00000000000E+00  0.00000000000E+00 -0.48241807053E+03  0.48241807056E+03  0.50400001928E-02 0.  1.
    10030    2    1    2    0    0  0.00000000000E+00  0.00000000000E+00  0.68748100632E+03  0.16523171474E+04  0.15025051819E+04 0.  0.
        3    1    3    3  502    0  0.68968570669E+03 -0.29638664310E+03  0.31132188028E+03  0.81267012961E+03  0.10100000352E+00 0.  1.
       -3    1    3    3    0  502 -0.68968570669E+03  0.29638664310E+03  0.37615912604E+03  0.83964701781E+03  0.10100000352E+00 0. -1.
</event>
<event>
 5   0  0.4070625E-04  0.1454732E+04  0.7818609E-02  0.8915127E-01
        4   -1    0    0  501    0  0.00000000000E+00  0.00000000000E+00  0.68891929271E+03  0.68892046331E+03  0.12699999809E+01 0. -1.
       -4   -1    0    0    0  501  0.00000000000E+00  0.00000000000E+00 -0.76795586413E+03  0.76795691425E+03  0.12699999809E+01 0.  1.
    10030    2    1    2    0    0  0.00000000000E+00  0.00000000000E+00 -0.79036571424E+02  0.14568773776E+04  0.14547319044E+04 0.  0.
        5    1    3    3  502    0  0.37777123082E+03 -0.52362788713E+03 -0.37488807312E+03  0.74663272389E+03  0.46999998093E+01 0.  1.
       -5    1    3    3    0  502 -0.37777123082E+03  0.52362788713E+03  0.29585150170E+03  0.71024465367E+03  0.46999998093E+01 0. -1.
</event>
<event>
 5   0  0.5606965E-04  0.1374700E+04  0.7818609E-02  0.8972338E-01
       -1   -1    0    0    0  501  0.00000000000E+00  0.00000000000E+00  0.48840963823E+03  0.48840963826E+03  0.50400001928E-02 0.  1.
        1   -1    0    0  501    0  0.00000000000E+00  0.00000000000E+00 -0.96732325310E+03  0.96732325312E+03  0.50400001928E-02 0. -1.
    10030    2    1    2    0    0  0.00000000000E+00  0.00000000000E+00 -0.47891361487E+03  0.14557328914E+04  0.13746999675E+04 0.  0.
        4    1    3    3  502    0 -0.32170108020E+03  0.15545910983E+03 -0.86125669856E+03  0.93242899651E+03  0.12699999809E+01 0. -1.
       -4    1    3    3    0  502  0.32170108020E+03 -0.15545910983E+03  0.38234308368E+03  0.52330389486E+03  0.12699999809E+01 0.  1.
</event>
<event>
 5   0  0.5914645E-04  0.1451414E+04  0.7818609E-02  0.8917421E-01
        1   -1    0    0  501    0  0.00000000000E+00  0.00000000000E+00  0.15982458548E+04  0.15982458548E+04  0.50400001928E-02 0.  1.
       -1   -1    0    0    0  501  0.00000000000E+00  0.00000000000E+00 -0.32951775467E+03  0.32951775471E+03  0.50400001928E-02 0. -1.
    10030    2    1    2    0    0  0.00000000000E+00  0.00000000000E+00  0.12687281001E+04  0.19277636095E+04  0.14514136358E+04 0.  0.
        2    1    3    3  502    0  0.43807858355E+03  0.29330013067E+03  0.12967505150E+04  0.13998213136E+04  0.25500000920E-02 0.  1.
       -2    1    3    3    0  502 -0.43807858355E+03 -0.29330013067E+03 -0.28022414874E+02  0.52794229586E+03  0.25500000920E-02 0. -1.
</event>
<event>
 5   0  0.5924403E-04  0.1529123E+04  0.7818609E-02  0.8865314E-01
        1   -1    0    0  501    0  0.00000000000E+00  0.00000000000E+00  0.38156232139E+03  0.38156232142E+03  0.50400001928E-02 0. -1.
       -1   -1    0    0    0  501  0.00000000000E+00  0.00000000000E+00 -0.15320021451E+04  0.15320021451E+04  0.50400001928E-02 0.  1.
    10030    2    1    2    0    0  0.00000000000E+00  0.00000000000E+00 -0.11504398237E+04  0.19135644665E+04  0.15291230099E+04 0.  0.
        1    1    3    3  502    0  0.27573834479E+03 -0.45655434705E+03  0.11029952066E+03  0.54464620707E+03  0.50400001928E-02 0. -1.
       -1    1    3    3    0  502 -0.27573834479E+03  0.45655434705E+03 -0.12607393443E+04  0.13689182594E+04  0.50400001928E-02 0.  1.
</event>
<event>
 5   0  0.6146552E-04  0.1477367E+04  0.7818609E-02  0.8899644E-01
        1   -1    0    0  501    0  0.00000000000E+00  0.00000000000E+00  0.12228850596E+04  0.12228850596E+04  0.50400001928E-02 0.  1.
       -1   -1    0    0    0  501  0.00000000000E+00  0.00000000000E+00 -0.44620185468E+03  0.44620185471E+03  0.50400001928E-02 0. -1.
    10030    2    1    2    0    0  0.00000000000E+00  0.00000000000E+00  0.77668320492E+03  0.16690869143E+04  0.14773673635E+04 0.  0.
        5    1    3    3  502    0 -0.18565619600E+03 -0.24522026539E+03  0.11470821715E+04  0.11876113842E+04  0.46999998093E+01 0.  1.
       -5    1    3    3    0  502  0.18565619600E+03  0.24522026539E+03 -0.37039896659E+03  0.48147553013E+03  0.46999998093E+01 0. -1.
</event>
<event>
 5   0  0.1082667E-03  0.1361558E+04  0.7818609E-02  0.8982125E-01
       -2   -1    0    0    0  501  0.00000000000E+00  0.00000000000E+00  0.68119192419E+03  0.68119192419E+03  0.25500000920E-02 0.  1.
        2   -1    0    0  501    0  0.00000000000E+00  0.00000000000E+00 -0.68036608127E+03  0.68036608128E+03  0.25500000920E-02 0. -1.
    10030    2    1    2    0    0  0.00000000000E+00  0.00000000000E+00  0.82584291775E+00  0.13615580055E+04  0.13615577550E+04 0.  0.
        5    1    3    3  502    0  0.38219116685E+03 -0.55363389435E+03 -0.10378504908E+03  0.68071580223E+03  0.46999998093E+01 0.  1.
       -5    1    3    3    0  502 -0.38219116685E+03  0.55363389435E+03  0.10461089199E+03  0.68084220324E+03  0.46999998093E+01 0. -1.
</event>
<event>
 5   0  0.1147755E-03  0.1506154E+04  0.7818609E-02  0.8880371E-01
       -2   -1    0    0    0  501  0.00000000000E+00  0.00000000000E+00  0.87144261307E+03  0.87144261308E+03  0.25500000920E-02 0. -1.
        2   -1    0    0  501    0  0.00000000000E+00  0.00000000000E+00 -0.65078860372E+03  0.65078860372E+03  0.25500000920E-02 0.  1.
    10030    2    1    2    0    0  0.00000000000E+00  0.00000000000E+00  0.22065400936E+03  0.15222312168E+04  0.15061539382E+04 0.  0.
        4    1    3    3  502    0  0.27775422464E+03  0.44240064120E+03 -0.43791850792E+03  0.68164504629E+03  0.12699999809E+01 0.  1.
       -4    1    3    3    0  502 -0.27775422464E+03 -0.44240064120E+03  0.65857251728E+03  0.84058617051E+03  0.12699999809E+01 0. -1.
</event>
<event>
 5   0  0.6146552E-04  0.1220292E+04  0.7818609E-02  0.9095278E-01
        1   -1    0    0  501    0  0.00000000000E+00  0.00000000000E+00  0.10764009190E+04  0.10764009190E+04  0.50400001928E-02 0. -1.
       -1   -1    0    0    0  501  0.00000000000E+00  0.00000000000E+00 -0.34585461211E+03  0.34585461215E+03  0.50400001928E-02 0.  1.
    10030    2    1    2    0    0  0.00000000000E+00  0.00000000000E+00  0.73054630685E+03  0.14222555311E+04  0.12202921328E+04 0.  0.
        5    1    3    3  502    0 -0.14279176705E+03  0.59167050602E+03  0.31592597923E+03  0.68578042461E+03  0.46999998093E+01 0.  1.
       -5    1    3    3    0  502  0.14279176705E+03 -0.59167050602E+03  0.41462032762E+03  0.73647510651E+03  0.46999998093E+01 0. -1.
</event>
<event>
 5   0  0.4070625E-04  0.1432771E+04  0.7818609E-02  0.8930433E-01
       -3   -1    0    0    0  501  0.00000000000E+00  0.00000000000E+00  0.97530546438E+03  0.97530546961E+03  0.10100000352E+00 0. -1.
        3   -1    0    0  501    0  0.00000000000E+00  0.00000000000E+00 -0.52620276022E+03  0.52620276992E+03  0.10100000352E+00 0.  1.
    10030    2    1    2    0    0  0.00000000000E+00  0.00000000000E+00  0.44910270416E+03  0.15015082395E+04  0.14327713546E+04 0.  0.
        1    1    3    3  502    0 -0.55144053814E+03 -0.36876373665E+03 -0.58857684807E+02  0.66598617677E+03  0.50400001928E-02 0.  1.
       -1    1    3    3    0  502  0.55144053814E+03  0.36876373665E+03  0.50796038896E+03  0.83552206275E+03  0.50400001928E-02 0. -1.
</event>
<event>
 5   0  0.1126175E-03  0.1524932E+04  0.7818609E-02  0.8868041E-01
        2   -1    0    0  501    0  0.00000000000E+00  0.00000000000E+00  0.11544252035E+04  0.11544252035E+04  0.25500000920E-02 0. -1.
       -2   -1    0    0    0  501  0.00000000000E+00  0.00000000000E+00 -0.50358764719E+03  0.50358764720E+03  0.25500000920E-02 0.  1.
    10030    2    1    2    0    0  0.00000000000E+00  0.00000000000E+00  0.65083755630E+03  0.16580128507E+04  0.15249318307E+04 0.  0.
        3    1    3    3  502    0 -0.22870399296E+03  0.51561449627E+03  0.88321107828E+03  0.10479626158E+04  0.10100000352E+00 0. -1.
       -3    1    3    3    0  502  0.22870399296E+03 -0.51561449627E+03 -0.23237352198E+03  0.61005023488E+03  0.10100000352E+00 0.  1.
</event>
<event>
 5   0  0.1147755E-03  0.1483112E+04  0.7818609E-02  0.8895762E-01
       -2   -1    0    0    0  501  0.00000000000E+00  0.00000000000E+00  0.42016944029E+03  0.42016944030E+03  0.25500000920E-02 0.  1.
        2   -1    0    0  501    0  0.00000000000E+00  0.00000000000E+00 -0.13087696714E+04  0.13087696714E+04  0.25500000920E-02 0. -1.
    10030    2    1    2    0    0  0.00000000000E+00  0.00000000000E+00 -0.88860023110E+03  0.17289391117E+04  0.14831116213E+04 0.  0.
        4    1    3    3  502    0  0.14053934648E+03  0.15149310288E+03  0.38592585334E+03  0.43776916898E+03  0.12699999809E+01 0.  1.
       -4    1    3    3    0  502 -0.14053934648E+03 -0.15149310288E+03 -0.12745260844E+04  0.12911699427E+04  0.12699999809E+01 0. -1.
</event>
<event>
 5   0  0.1147755E-03  0.1490624E+04  0.7818609E-02  0.8890712E-01
       -2   -1    0    0    0  501  0.00000000000E+00  0.00000000000E+00  0.52891898035E+03  0.52891898035E+03  0.25500000920E-02 0. -1.
        2   -1    0    0  501    0  0.00000000000E+00  0.00000000000E+00 -0.10502357411E+04  0.10502357411E+04  0.25500000920E-02 0.  1.
    10030    2    1    2    0    0  0.00000000000E+00  0.00000000000E+00 -0.52131676077E+03  0.15791547215E+04  0.14906235170E+04 0.  0.
        4    1    3    3  502    0  0.17489480084E+03 -0.10090488161E+03  0.49939028387E+03  0.53866710965E+03  0.12699999809E+01 0. -1.
       -4    1    3    3    0  502 -0.17489480084E+03  0.10090488161E+03 -0.10207070446E+04  0.10404876118E+04  0.12699999809E+01 0.  1.
</event>
<event>
 5   0  0.5924403E-04  0.1444031E+04  0.7818609E-02  0.8922549E-01
        1   -1    0    0  501    0  0.00000000000E+00  0.00000000000E+00  0.69696170770E+03  0.69696170772E+03  0.50400001928E-02 0.  1.
       -1   -1    0    0    0  501  0.00000000000E+00  0.00000000000E+00 -0.74797028033E+03  0.74797028035E+03  0.50400001928E-02 0. -1.
    10030    2    1    2    0    0  0.00000000000E+00  0.00000000000E+00 -0.51008572636E+02  0.14449319881E+04  0.14440313624E+04 0.  0.
        1    1    3    3  502    0 -0.46028095613E+03 -0.37241171241E+03 -0.43899028037E+03  0.73706275744E+03  0.50400001928E-02 0. -1.
       -1    1    3    3    0  502  0.46028095613E+03  0.37241171241E+03  0.38798170774E+03  0.70786923063E+03  0.50400001928E-02 0.  1.
</event>
<event>
 5   0  0.5840834E-04  0.1502643E+04  0.7818609E-02  0.8882697E-01
       -1   -1    0    0    0  501  0.00000000000E+00  0.00000000000E+00  0.54204009960E+03  0.54204009962E+03  0.50400001928E-02 0. -1.
        1   -1    0    0  501    0  0.00000000000E+00  0.00000000000E+00 -0.10414059285E+04  0.10414059285E+04  0.50400001928E-02 0.  1.
    10030    2    1    2    0    0  0.00000000000E+00  0.00000000000E+00 -0.49936582891E+03  0.15834460281E+04  0.15026427030E+04 0.  0.
        3    1    3    3  502    0 -0.15985048182E+03 -0.34266224154E+03 -0.93383653585E+03  0.10074821459E+04  0.10100000352E+00 0.  1.
       -3    1    3    3    0  502  0.15985048182E+03  0.34266224154E+03  0.43447070694E+03  0.57596388229E+03  0.10100000352E+00 0. -1.
</event>
<event>
 5   0  0.5840834E-04  0.1569404E+04  0.7818609E-02  0.8839568E-01
        1   -1    0    0  501    0  0.00000000000E+00  0.00000000000E+00  0.74204215659E+03  0.74204215660E+03  0.50400001928E-02 0.  1.
       -1   -1    0    0    0  501  0.00000000000E+00  0.00000000000E+00 -0.82981486419E+03  0.82981486421E+03  0.50400001928E-02 0. -1.
    10030    2    1    2    0    0  0.00000000000E+00  0.00000000000E+00 -0.87772707608E+02  0.15718570208E+04  0.15694044876E+04 0.  0.
        3    1    3    3  502    0  0.34464940921E+03 -0.10957296883E+03  0.65359846293E+03  0.74698086436E+03  0.10100000352E+00 0.  1.
       -3    1    3    3    0  502 -0.34464940921E+03  0.10957296883E+03 -0.74137117054E+03  0.82487615645E+03  0.10100000352E+00 0. -1.
</event>
<event>
 5   0  0.1149716E-03  0.1498124E+04  0.7818609E-02  0.8885701E-01
       -2   -1    0    0    0  501  0.00000000000E+00  0.00000000000E+00  0.75918608223E+03  0.75918608223E+03  0.25500000920E-02 0. -1.
        2   -1    0    0  501    0  0.00000000000E+00  0.00000000000E+00 -0.73907337981E+03  0.73907337981E+03  0.25500000920E-02 0.  1.
    10030    2    1    2    0    0  0.00000000000E+00  0.00000000000E+00  0.20112702416E+02  0.14982594620E+04  0.14981244591E+04 0.  0.
        1    1    3    3  502    0  0.74720030407E+03 -0.11158886655E+02  0.61649841242E+02  0.74982232435E+03  0.50400001928E-02 0.  1.
       -1    1    3    3    0  502 -0.74720030407E+03  0.11158886655E+02 -0.41537138825E+02  0.74843713769E+03  0.50400001928E-02 0. -1.
</event>
<event>
 5   0  0.5606965E-04  0.1478613E+04  0.7818609E-02  0.8898801E-01
       -1   -1    0    0    0  501  0.00000000000E+00  0.00000000000E+00  0.10678343576E+04  0.10678343576E+04  0.50400001928E-02 0.  1.
        1   -1    0    0  501    0  0.00000000000E+00  0.00000000000E+00 -0.51185296565E+03  0.51185296567E+03  0.50400001928E-02 0. -1.
    10030    2    1    2    0    0  0.00000000000E+00  0.00000000000E+00  0.55598139197E+03  0.15796873233E+04  0.14786131107E+04 0.  0.
        4    1    3    3  502    0  0.45245699368E+03  0.44117663981E+03 -0.13192792176E+03  0.64557009540E+03  0.12699999809E+01 0. -1.
       -4    1    3    3    0  502 -0.45245699368E+03 -0.44117663981E+03  0.68790931372E+03  0.93411722789E+03  0.12699999809E+01 0.  1.
</event>
<event>
 5   0  0.1126175E-03  0.1462475E+04  0.7818609E-02  0.8909797E-01
        2   -1    0    0  501    0  0.00000000000E+00  0.00000000000E+00  0.11081775878E+04  0.11081775878E+04  0.25500000920E-02 0. -1.
       -2   -1    0    0    0  501  0.00000000000E+00  0.00000000000E+00 -0.48251120083E+03  0.48251120084E+03  0.25500000920E-02 0.  1.
    10030    2    1    2    0    0  0.00000000000E+00  0.00000000000E+00  0.62566638693E+03  0.15906887886E+04  0.14624747500E+04 0.  0.
        3    1    3    3  502    0 -0.11294915198E+03 -0.64883839182E+03 -0.32763874472E+02  0.65941053321E+03  0.10100000352E+00 0. -1.
       -3    1    3    3    0  502  0.11294915198E+03  0.64883839182E+03  0.65843026140E+03  0.93127825539E+03  0.10100000352E+00 0.  1.
</event>
<event>
 5   0  0.6146552E-04  0.1512825E+04  0.7818609E-02  0.8875969E-01
       -1   -1    0    0    0  501  0.00000000000E+00  0.00000000000E+00  0.50318332778E+03  0.50318332780E+03  0.50400001928E-02 0.  1.
        1   -1    0    0  501    0  0.00000000000E+00  0.00000000000E+00 -0.11370805999E+04  0.11370805999E+04  0.50400001928E-02 0. -1.
    10030    2    1    2    0    0  0.00000000000E+00  0.00000000000E+00 -0.63389727212E+03  0.16402639277E+04  0.15128251720E+04 0.  0.
        5    1    3    3  502    0  0.10826459315E+03 -0.34019289479E+03  0.40607328985E+03  0.54071252484E+03  0.46999998093E+01 0.  1.
       -5    1    3    3    0  502 -0.10826459315E+03  0.34019289479E+03 -0.10399705620E+04  0.10995514029E+04  0.46999998093E+01 0. -1.
</event>
<event>
 5   0  0.1126175E-03  0.1458689E+04  0.7818609E-02  0.8912399E-01
       -2   -1    0    0    0  501  0.00000000000E+00  0.00000000000E+00  0.40880914896E+03  0.40880914897E+03  0.25500000920E-02 0. -1.
        2   -1    0    0  501    0  0.00000000000E+00  0.00000000000E+00 -0.13012019206E+04  0.13012019206E+04  0.25500000920E-02 0.  1.
    10030    2    1    2    0    0  0.00000000000E+00  0.00000000000E+00 -0.89239277165E+03  0.17100110696E+04  0.14586887945E+04 0.  0.
        3    1    3    3  502    0 -0.50187416997E+02 -0.26567974096E+03  0.34788737245E+03  0.44060201508E+03  0.10100000352E+00 0. -1.
       -3    1    3    3    0  502  0.50187416997E+02  0.26567974096E+03 -0.12402801441E+04  0.12694090545E+04  0.10100000352E+00 0.  1.
</event>
<event>
 5   0  0.1149716E-03  0.1393495E+04  0.7818609E-02  0.8958541E-01
        2   -1    0    0  501    0  0.00000000000E+00  0.00000000000E+00  0.16389925469E+04  0.16389925469E+04  0.25500000920E-02 0. -1.
       -2   -1    0    0    0  501  0.00000000000E+00  0.00000000000E+00 -0.29619245845E+03  0.29619245846E+03  0.25500000920E-02 0.  1.
    10030    2    1    2    0    0  0.00000000000E+00  0.00000000000E+00  0.13428000885E+04  0.19351850054E+04  0.13934952198E+04 0.  0.
        1    1    3    3  502    0  0.26292793301E+03  0.10272040671E+03  0.15560255644E+04  0.15814228204E+04  0.50400001928E-02 0. -1.
       -1    1    3    3    0  502 -0.26292793301E+03 -0.10272040671E+03 -0.21322547591E+03  0.35376218497E+03  0.50400001928E-02 0.  1.
</event>
<event>
 5   0  0.6146552E-04  0.1522108E+04  0.7818609E-02  0.8869883E-01
        1   -1    0    0  501    0  0.00000000000E+00  0.00000000000E+00  0.81834658945E+03  0.81834658946E+03  0.50400001928E-02 0.  1.
       -1   -1    0    0    0  501  0.00000000000E+00  0.00000000000E+00 -0.70777248809E+03  0.70777248811E+03  0.50400001928E-02 0. -1.
    10030    2    1    2    0    0  0.00000000000E+00  0.00000000000E+00  0.11057410135E+03  0.15261190776E+04  0.15221080142E+04 0.  0.
        5    1    3    3  502    0  0.25193841283E+03 -0.36914483060E+03 -0.56232340979E+03  0.71831091946E+03  0.46999998093E+01 0. -1.
       -5    1    3    3    0  502 -0.25193841283E+03  0.36914483060E+03  0.67289751114E+03  0.80780815812E+03  0.46999998093E+01 0.  1.
</event>
<event>
 5   0  0.5914645E-04  0.1501106E+04  0.7818609E-02  0.8883718E-01
       -1   -1    0    0    0  501  0.00000000000E+00  0.00000000000E+00  0.84479489502E+03  0.84479489504E+03  0.50400001928E-02 0. -1.
        1   -1    0    0  501    0  0.00000000000E+00  0.00000000000E+00 -0.66682405590E+03  0.66682405592E+03  0.50400001928E-02 0.  1.
    10030    2    1    2    0    0  0.00000000000E+00  0.00000000000E+00  0.17797083913E+03  0.15116189510E+04  0.15011056703E+04 0.  0.
        2    1    3    3  502    0  0.64044222415E+03 -0.25821614936E+03  0.38513309426E+03  0.79067649679E+03  0.25500000920E-02 0. -1.
       -2    1    3    3    0  502 -0.64044222415E+03  0.25821614936E+03 -0.20716225514E+03  0.72094245417E+03  0.25500000920E-02 0.  1.
</event>
<event>
 5   0  0.1097156E-03  0.1507907E+04  0.7818609E-02  0.8879212E-01
        2   -1    0    0  501    0  0.00000000000E+00  0.00000000000E+00  0.90902769022E+03  0.90902769022E+03  0.25500000920E-02 0. -1.
       -2   -1    0    0    0  501  0.00000000000E+00  0.00000000000E+00 -0.62533389128E+03  0.62533389129E+03  0.25500000920E-02 0.  1.
    10030    2    1    2    0    0  0.00000000000E+00  0.00000000000E+00  0.28369379894E+03  0.15343615815E+04  0.15079069239E+04 0.  0.
        2    1    3    3  502    0  0.11120519856E+03  0.54035591287E+03  0.66476422915E+03  0.86386491370E+03  0.25500000920E-02 0. -1.
       -2    1    3    3    0  502 -0.11120519856E+03 -0.54035591287E+03 -0.38107043021E+03  0.67049666781E+03  0.25500000920E-02 0.  1.
</event>
<event>
 5   0  0.1097156E-03  0.1245032E+04  0.7818609E-02  0.9074328E-01
        2   -1    0    0  501    0  0.00000000000E+00  0.00000000000E+00  0.57640957229E+03  0.57640957230E+03  0.25500000920E-02 0.  1.
       -2   -1    0    0    0  501  0.00000000000E+00  0.00000000000E+00 -0.67231028551E+03  0.67231028551E+03  0.25500000920E-02 0. -1.
    10030    2    1    2    0    0  0.00000000000E+00  0.00000000000E+00 -0.95900713214E+02  0.12487198578E+04  0.12450318616E+04 0.  0.
        2    1    3    3  502    0  0.53312408199E+02  0.25306223412E+02 -0.66949845630E+03  0.67209433922E+03  0.25500000920E-02 0. -1.
       -2    1    3    3    0  502 -0.53312408199E+02 -0.25306223412E+02  0.57359774309E+03  0.57662551859E+03  0.25500000920E-02 0.  1.
</event>
<event>
 5   0  0.5840834E-04  0.1415713E+04  0.7818609E-02  0.8942522E-01
       -1   -1    0    0    0  501  0.00000000000E+00  0.00000000000E+00  0.27944429774E+03  0.27944429779E+03  0.50400001928E-02 0. -1.
        1   -1    0    0  501    0  0.00000000000E+00  0.00000000000E+00 -0.17930621987E+04  0.17930621987E+04  0.50400001928E-02 0.  1.
    10030    2    1    2    0    0  0.00000000000E+00  0.00000000000E+00 -0.15136179009E+04  0.20725064965E+04  0.14157132576E+04 0.  0.
        3    1    3    3  502    0  0.30609286614E+03  0.62771739757E+03 -0.92588520158E+03  0.11597350519E+04  0.10100000352E+00 0.  1.
       -3    1    3    3    0  502 -0.30609286614E+03 -0.62771739757E+03 -0.58773269933E+03  0.91277144455E+03  0.10100000352E+00 0. -1.
</event>
<event>
 5   0  0.5914645E-04  0.1504675E+04  0.7818609E-02  0.8881350E-01
       -1   -1    0    0    0  501  0.00000000000E+00  0.00000000000E+00  0.61270333880E+03  0.61270333882E+03  0.50400001928E-02 0.  1.
        1   -1    0    0  501    0  0.00000000000E+00  0.00000000000E+00 -0.92379360129E+03  0.92379360130E+03  0.50400001928E-02 0. -1.
    10030    2    1    2    0    0  0.00000000000E+00  0.00000000000E+00 -0.31109026249E+03  0.15364969401E+04  0.15046746145E+04 0.  0.
        2    1    3    3  502    0  0.13977475267E+03  0.72528635689E+03 -0.30151637855E+03  0.79780286256E+03  0.25500000920E-02 0.  1.
       -2    1    3    3    0  502 -0.13977475267E+03 -0.72528635689E+03 -0.95738839349E+01  0.73869407756E+03  0.25500000920E-02 0. -1.
</event>
<event>
 5   0  0.1149716E-03  0.1493145E+04  0.7818609E-02  0.8889024E-01
        2   -1    0    0  501    0  0.00000000000E+00  0.00000000000E+00  0.13188678204E+04  0.13188678204E+04  0.25500000920E-02 0.  1.
       -2   -1    0    0    0  501  0.00000000000E+00  0.00000000000E+00 -0.42261304983E+03  0.42261304983E+03  0.25500000920E-02 0. -1.
    10030    2    1    2    0    0  0.00000000000E+00  0.00000000000E+00  0.89625477055E+03  0.17414808702E+04  0.14931453404E+04 0.  0.
        1    1    3    3  502    0  0.22618755474E+03 -0.63775298130E+03  0.81599102506E+03  0.10600618039E+04  0.50400001928E-02 0.  1.
       -1    1    3    3    0  502 -0.22618755474E+03  0.63775298130E+03  0.80263745485E+02  0.68141906632E+03  0.50400001928E-02 0. -1.
</event>
<event>
 5   0  0.5606965E-04  0.1454892E+04  0.7818609E-02  0.8915016E-01
       -1   -1    0    0    0  501  0.00000000000E+00  0.00000000000E+00  0.50560821755E+03  0.50560821757E+03  0.50400001928E-02 0.  1.
        1   -1    0    0  501    0  0.00000000000E+00  0.00000000000E+00 -0.10466165007E+04  0.10466165007E+04  0.50400001928E-02 0. -1.
    10030    2    1    2    0    0  0.00000000000E+00  0.00000000000E+00 -0.54100828316E+03  0.15522247183E+04  0.14548923031E+04 0.  0.
        4    1    3    3  502    0  0.20416215071E+02 -0.61870884831E+03 -0.67810860869E+03  0.91817773819E+03  0.12699999809E+01 0. -1.
       -4    1    3    3    0  502 -0.20416215071E+02  0.61870884831E+03  0.13710032553E+03  0.63404698010E+03  0.12699999809E+01 0.  1.
</event>
<event>
 5   0  0.1149716E-03  0.1494137E+04  0.7818609E-02  0.8888361E-01
        2   -1    0    0  501    0  0.00000000000E+00  0.00000000000E+00  0.16240471950E+04  0.16240471950E+04  0.25500000920E-02 0.  1.
       -2   -1    0    0    0  501  0.00000000000E+00  0.00000000000E+00 -0.34365478161E+03  0.34365478162E+03  0.25500000920E-02 0. -1.
    10030    2    1    2    0    0  0.00000000000E+00  0.00000000000E+00  0.12803924133E+04  0.19677019766E+04  0.14941373218E+04 0.  0.
        1    1    3    3  502    0  0.64513054135E+03  0.24153769961E+03  0.10209235228E+04  0.12315919434E+04  0.50400001928E-02 0. -1.
       -1    1    3    3    0  502 -0.64513054135E+03 -0.24153769961E+03  0.25946889056E+03  0.73611003316E+03  0.50400001928E-02 0.  1.
</event>
<event>
 5   0  0.5924403E-04  0.1509198E+04  0.7818609E-02  0.8878359E-01
        1   -1    0    0  501    0  0.00000000000E+00  0.00000000000E+00  0.21666149331E+04  0.21666149331E+04  0.50400001928E-02 0.  1.
       -1   -1    0    0    0  501  0.00000000000E+00  0.00000000000E+00 -0.26281542512E+03  0.26281542517E+03  0.50400001928E-02 0. -1.
    10030    2    1    2    0    0  0.00000000000E+00  0.00000000000E+00  0.19037995080E+04  0.24294303583E+04  0.15091982306E+04 0.  0.
        1    1    3    3  502    0  0.11859165070E+03 -0.16602918707E+03  0.21213690093E+04  0.21311584043E+04  0.50400001928E-02 0.  1.
       -1    1    3    3    0  502 -0.11859165070E+03  0.16602918707E+03 -0.21756950134E+03  0.29827195395E+03  0.50400001928E-02 0. -1.
</event>
<event>
 5   0  0.1147755E-03  0.1532560E+04  0.7818609E-02  0.8863085E-01
       -2   -1    0    0    0  501  0.00000000000E+00  0.00000000000E+00  0.53065562008E+03  0.53065562008E+03  0.25500000920E-02 0.  1.
        2   -1    0    0  501    0  0.00000000000E+00  0.00000000000E+00 -0.11065268068E+04  0.11065268068E+04  0.25500000920E-02 0. -1.
    10030    2    1    2    0    0  0.00000000000E+00  0.00000000000E+00 -0.57587118674E+03  0.16371824269E+04  0.15325595177E+04 0.  0.
        4    1    3    3  502    0 -0.58506691686E+03 -0.34699494162E+03  0.88958661524E+02  0.68602043925E+03  0.12699999809E+01 0.  1.
       -4    1    3    3    0  502  0.58506691686E+03  0.34699494162E+03 -0.66482984826E+03  0.95116198765E+03  0.12699999809E+01 0. -1.
</event>
<event>
 5   0  0.4070625E-04  0.1560653E+04  0.7818609E-02  0.8845092E-01
       -3   -1    0    0    0  501  0.00000000000E+00  0.00000000000E+00  0.20129306748E+04  0.20129306773E+04  0.10100000352E+00 0. -1.
        3   -1    0    0  501    0  0.00000000000E+00  0.00000000000E+00 -0.30249888772E+03  0.30249890458E+03  0.10100000352E+00 0.  1.
    10030    2    1    2    0    0  0.00000000000E+00  0.00000000000E+00  0.17104317871E+04  0.23154295819E+04  0.15606528283E+04 0.  0.
        1    1    3    3  502    0  0.27931845054E+03 -0.58908119762E+03  0.14914035939E+04  0.16276732271E+04  0.50400001928E-02 0. -1.
       -1    1    3    3    0  502 -0.27931845054E+03  0.58908119762E+03  0.21902819318E+03  0.68775635485E+03  0.50400001928E-02 0.  1.
</event>
<event>
 5   0  0.1126175E-03  0.1502605E+04  0.7818609E-02  0.8882722E-01
        2   -1    0    0  501    0  0.00000000000E+00  0.00000000000E+00  0.15676762337E+04  0.15676762337E+04  0.25500000920E-02 0. -1.
       -2   -1    0    0    0  501  0.00000000000E+00  0.00000000000E+00 -0.36005891871E+03  0.36005891872E+03  0.25500000920E-02 0.  1.
    10030    2    1    2    0    0  0.00000000000E+00  0.00000000000E+00  0.12076173150E+04  0.19277351525E+04  0.15026054833E+04 0.  0.
        3    1    3    3  502    0 -0.14223000430E+03  0.64899275600E+03  0.15380459897E+03  0.68196542165E+03  0.10100000352E+00 0.  1.
       -3    1    3    3    0  502  0.14223000430E+03 -0.64899275600E+03  0.10538127161E+04  0.12457697308E+04  0.10100000352E+00 0. -1.
</event>
<event>
 5   0  0.1097156E-03  0.1227283E+04  0.7818609E-02  0.9089306E-01
       -2   -1    0    0    0  501  0.00000000000E+00  0.00000000000E+00  0.30654098563E+03  0.30654098564E+03  0.25500000920E-02 0.  1.
        2   -1    0    0  501    0  0.00000000000E+00  0.00000000000E+00 -0.12284026809E+04  0.12284026809E+04  0.25500000920E-02 0. -1.
    10030    2    1    2    0    0  0.00000000000E+00  0.00000000000E+00 -0.92186169525E+03  0.15349436665E+04  0.12272828012E+04 0.  0.
        2    1    3    3  502    0 -0.56782162264E+03 -0.27005233712E+02 -0.74995831794E+03  0.94105693581E+03  0.25500000920E-02 0. -1.
       -2    1    3    3    0  502  0.56782162264E+03  0.27005233712E+02 -0.17190337731E+03  0.59388673072E+03  0.25500000920E-02 0.  1.
</event>
<event>
 5   0  0.1149716E-03  0.1490961E+04  0.7818609E-02  0.8890486E-01
        2   -1    0    0  501    0  0.00000000000E+00  0.00000000000E+00  0.83094443558E+03  0.83094443558E+03  0.25500000920E-02 0. -1.
       -2   -1    0    0    0  501  0.00000000000E+00  0.00000000000E+00 -0.66880654197E+03  0.66880654197E+03  0.25500000920E-02 0.  1.
    10030    2    1    2    0    0  0.00000000000E+00  0.00000000000E+00  0.16213789361E+03  0.14997509776E+04  0.14909608640E+04 0.  0.
        1    1    3    3  502    0  0.17215582608E+02 -0.74497991073E+03  0.10239846033E+03  0.75218141986E+03  0.50400001928E-02 0.  1.
       -1    1    3    3    0  502 -0.17215582608E+02  0.74497991073E+03  0.59739433285E+02  0.74756955769E+03  0.50400001928E-02 0. -1.
</event>
<event>
 5   0  0.5606965E-04  0.1526175E+04  0.7818609E-02  0.8867231E-01
        1   -1    0    0  501    0  0.00000000000E+00  0.00000000000E+00  0.91911494801E+03  0.91911494802E+03  0.50400001928E-02 0.  1.
       -1   -1    0    0    0  501  0.00000000000E+00  0.00000000000E+00 -0.63354713687E+03  0.63354713689E+03  0.50400001928E-02 0. -1.
    10030    2    1    2    0    0  0.00000000000E+00  0.00000000000E+00  0.28556781114E+03  0.15526620849E+04  0.15261751456E+04 0.  0.
        4    1    3    3  502    0  0.35523918968E+03  0.31753737659E+03  0.74917889831E+03  0.88786006892E+03  0.12699999809E+01 0.  1.
       -4    1    3    3    0  502 -0.35523918968E+03 -0.31753737659E+03 -0.46361108717E+03  0.66480201599E+03  0.12699999809E+01 0. -1.
</event>
<event>
 5   0  0.1097156E-03  0.1515085E+04  0.7818609E-02  0.8874483E-01
        2   -1    0    0  501    0  0.00000000000E+00  0.00000000000E+00  0.38587106455E+03  0.38587106456E+03  0.25500000920E-02 0. -1.
       -2   -1    0    0    0  501  0.00000000000E+00  0.00000000000E+00 -0.14872080386E+04  0.14872080386E+04  0.25500000920E-02 0.  1.
    10030    2    1    2    0    0  0.00000000000E+00  0.00000000000E+00 -0.11013369741E+04  0.18730791032E+04  0.15150848809E+04 0.  0.
        2    1    3    3  502    0  0.68076876503E+02  0.65730137639E+03 -0.10085804052E+04  0.12057835603E+04  0.25500000920E-02 0.  1.
       -2    1    3    3    0  502 -0.68076876503E+02 -0.65730137639E+03 -0.92756568922E+02  0.66729554293E+03  0.25500000920E-02 0. -1.
</event>
<event>
 5   0  0.6146552E-04  0.1497993E+04  0.7818609E-02  0.8885789E-01
        1   -1    0    0  501    0  0.00000000000E+00  0.00000000000E+00  0.14328806606E+04  0.14328806606E+04  0.50400001928E-02 0. -1.
       -1   -1    0    0    0  501  0.00000000000E+00  0.00000000000E+00 -0.39151609762E+03  0.39151609766E+03  0.50400001928E-02 0.  1.
    10030    2    1    2    0    0  0.00000000000E+00  0.00000000000E+00  0.10413645630E+04  0.18243967583E+04  0.14979931170E+04 0.  0.
        5    1    3    3  502    0 -0.33945643609E+03 -0.15346476711E+03  0.13120244209E+04  0.13638959923E+04  0.46999998093E+01 0. -1.
       -5    1    3    3    0  502  0.33945643609E+03  0.15346476711E+03 -0.27065985794E+03  0.46050076596E+03  0.46999998093E+01 0.  1.
</event>
<event>
 5   0  0.5606965E-04  0.1518293E+04  0.7818609E-02  0.8872378E-01
        1   -1    0    0  501    0  0.00000000000E+00  0.00000000000E+00  0.16486664362E+04  0.16486664362E+04  0.50400001928E-02 0. -1.
       -1   -1    0    0    0  501  0.00000000000E+00  0.00000000000E+00 -0.34955751075E+03  0.34955751079E+03  0.50400001928E-02 0.  1.
    10030    2    1    2    0    0  0.00000000000E+00  0.00000000000E+00  0.12991089255E+04  0.19982239470E+04  0.15182934309E+04 0.  0.
        4    1    3    3  502    0  0.64424226861E+03 -0.36612844429E+03  0.43248201482E+03  0.85798627287E+03  0.12699999809E+01 0.  1.
       -4    1    3    3    0  502 -0.64424226861E+03  0.36612844429E+03  0.86662691065E+03  0.11402376741E+04  0.12699999809E+01 0. -1.
</event>
<event>
 5   0  0.5914645E-04  0.1461112E+04  0.7818609E-02  0.8910733E-01
        1   -1    0    0  501    0  0.00000000000E+00  0.00000000000E+00  0.11572713555E+04  0.11572713555E+04  0.50400001928E-02 0. -1.
       -1   -1    0    0    0  501  0.00000000000E+00  0.00000000000E+00 -0.46118137587E+03  0.46118137589E+03  0.50400001928E-02 0.  1.
    10030    2    1    2    0    0  0.00000000000E+00  0.00000000000E+00  0.69608997967E+03  0.16184527314E+04  0.14611118999E+04 0.  0.
        2    1    3    3  502    0 -0.45254343170E+03 -0.29820431788E+02 -0.28636710997E+03  0.53636828524E+03  0.25500000920E-02 0.  1.
       -2    1    3    3    0  502  0.45254343170E+03  0.29820431788E+02  0.98245708964E+03  0.10820844462E+04  0.25500000920E-02 0. -1.
</event>
<event>
 5   0  0.6146552E-04  0.1354737E+04  0.7818609E-02  0.8987250E-01
        1   -1    0    0  501    0  0.00000000000E+00  0.00000000000E+00  0.91948128790E+03  0.91948128791E+03  0.50400001928E-02 0. -1.
       -1   -1    0    0    0  501  0.00000000000E+00  0.00000000000E+00 -0.49900785677E+03  0.49900785679E+03  0.50400001928E-02 0.  1.
    10030    2    1    2    0    0  0.00000000000E+00  0.00000000000E+00  0.42047343113E+03  0.14184891447E+04  0.13547374459E+04 0.  0.
        5    1    3    3  502    0 -0.70994590602E+02  0.66809451283E+03  0.30040410610E+03  0.73597230038E+03  0.46999998093E+01 0. -1.
       -5    1    3    3    0  502  0.70994590602E+02 -0.66809451283E+03  0.12006932504E+03  0.68251684432E+03  0.46999998093E+01 0.  1.
</event>
<event>
 5   0  0.1126175E-03  0.1464036E+04  0.7818609E-02  0.8908727E-01
       -2   -1    0    0    0  501  0.00000000000E+00  0.00000000000E+00  0.49351086411E+03  0.49351086412E+03  0.25500000920E-02 0. -1.
        2   -1    0    0  501    0  0.00000000000E+00  0.00000000000E+00 -0.10857925627E+04  0.10857925627E+04  0.25500000920E-02 0.  1.
    10030    2    1    2    0    0  0.00000000000E+00  0.00000000000E+00 -0.59228169862E+03  0.15793034268E+04  0.14640361005E+04 0.  0.
        3    1    3    3  502    0  0.20846881108E+03  0.35949299028E+02 -0.10520998401E+04  0.10731568762E+04  0.10100000352E+00 0.  1.
       -3    1    3    3    0  502 -0.20846881108E+03 -0.35949299028E+02  0.45981814146E+03  0.50614655062E+03  0.10100000352E+00 0. -1.
</event>
<event>
 5   0  0.1147755E-03  0.1505335E+04  0.7818609E-02  0.8880913E-01
       -2   -1    0    0    0  501  0.00000000000E+00  0.00000000000E+00  0.29033341575E+03  0.29033341576E+03  0.25500000920E-02 0.  1.
        2   -1    0    0  501    0  0.00000000000E+00  0.00000000000E+00 -0.19512342689E+04  0.19512342689E+04  0.25500000920E-02 0. -1.
    10030    2    1    2    0    0  0.00000000000E+00  0.00000000000E+00 -0.16609008532E+04  0.22415676847E+04  0.15053351922E+04 0.  0.
        4    1    3    3  502    0  0.15074648409E+03 -0.29463615073E+03 -0.18370654454E+04  0.18666403047E+04  0.12699999809E+01 0. -1.
       -4    1    3    3    0  502 -0.15074648409E+03  0.29463615073E+03  0.17616459220E+03  0.37492737994E+03  0.12699999809E+01 0.  1.
</event>
<event>
 5   0  0.1082667E-03  0.1341687E+04  0.7818609E-02  0.8997145E-01
        2   -1    0    0  501    0  0.00000000000E+00  0.00000000000E+00  0.97367564831E+03  0.97367564831E+03  0.25500000920E-02 0. -1.
       -2   -1    0    0    0  501  0.00000000000E+00  0.00000000000E+00 -0.46219792596E+03  0.46219792597E+03  0.25500000920E-02 0.  1.
    10030    2    1    2    0    0  0.00000000000E+00  0.00000000000E+00  0.51147772235E+03  0.14358735743E+04  0.13416867969E+04 0.  0.
        5    1    3    3  502    0  0.38307859619E+03 -0.47272371004E+03  0.55804317651E+03  0.82562170135E+03  0.46999998093E+01 0. -1.
       -5    1    3    3    0  502 -0.38307859619E+03  0.47272371004E+03 -0.46565454167E+02  0.61025187293E+03  0.46999998093E+01 0.  1.
</event>
<event>
 5   0  0.5914645E-04  0.1402802E+04  0.7818609E-02  0.8951793E-01
        1   -1    0    0  501    0  0.00000000000E+00  0.00000000000E+00  0.93788295597E+03  0.93788295598E+03  0.50400001928E-02 0. -1.
       -1   -1    0    0    0  501  0.00000000000E+00  0.00000000000E+00 -0.52454683016E+03  0.52454683018E+03  0.50400001928E-02 0.  1.
    10030    2    1    2    0    0  0.00000000000E+00  0.00000000000E+00  0.41333612581E+03  0.14624297862E+04  0.14028022407E+04 0.  0.
        2    1    3    3  502    0 -0.64419210194E+03 -0.59863939534E+02  0.48910135094E+03  0.81104086639E+03  0.25500000920E-02 0.  1.
       -2    1    3    3    0  502  0.64419210194E+03  0.59863939534E+02 -0.75765225132E+02  0.65138891977E+03  0.25500000920E-02 0. -1.
</event>
<event>
 5   0  0.5914645E-04  0.1514461E+04  0.7818609E-02  0.8874893E-01
        1   -1    0    0  501    0  0.00000000000E+00  0.00000000000E+00  0.68309300058E+03  0.68309300059E+03  0.50400001928E-02 0. -1.
       -1   -1    0    0    0  501  0.00000000000E+00  0.00000000000E+00 -0.83941374352E+03  0.83941374353E+03  0.50400001928E-02 0.  1.
    10030    2    1    2    0    0  0.00000000000E+00  0.00000000000E+00 -0.15632074294E+03  0.15225067441E+04  0.15144605017E+04 0.  0.
        2    1    3    3  502    0 -0.22860958694E+03 -0.19137569429E+03 -0.77792653576E+03  0.83310065097E+03  0.25500000920E-02 0.  1.
       -2    1    3    3    0  502  0.22860958694E+03  0.19137569429E+03  0.62160579282E+03  0.68940609315E+03  0.25500000920E-02 0. -1.
</event>
<event>
 5   0  0.4070625E-04  0.1521669E+04  0.7818609E-02  0.8870170E-01
       -3   -1    0    0    0  501  0.00000000000E+00  0.00000000000E+00  0.13352870940E+04  0.13352870978E+04  0.10100000352E+00 0. -1.
        3   -1    0    0  501    0  0.00000000000E+00  0.00000000000E+00 -0.43351672917E+03  0.43351674093E+03  0.10100000352E+00 0.  1.
    10030    2    1    2    0    0  0.00000000000E+00  0.00000000000E+00  0.90177036484E+03  0.17688038388E+04  0.15216692246E+04 0.  0.
        5    1    3    3  502    0  0.53802944343E+03  0.50022099682E+02  0.10734742216E+04  0.12018098380E+04  0.46999998093E+01 0. -1.
       -5    1    3    3    0  502 -0.53802944343E+03 -0.50022099682E+02 -0.17170385671E+03  0.56699400073E+03  0.46999998093E+01 0.  1.
</event>
<event>
 5   0  0.4070625E-04  0.1518543E+04  0.7818609E-02  0.8872215E-01
        3   -1    0    0  501    0  0.00000000000E+00  0.00000000000E+00  0.10691390915E+04  0.10691390962E+04  0.10100000352E+00 0. -1.
       -3   -1    0    0    0  501  0.00000000000E+00  0.00000000000E+00 -0.53921286718E+03  0.53921287664E+03  0.10100000352E+00 0.  1.
    10030    2    1    2    0    0  0.00000000000E+00  0.00000000000E+00  0.52992622427E+03  0.16083519729E+04  0.15185434684E+04 0.  0.
        1    1    3    3  502    0  0.41884670861E+03 -0.56775936216E+03  0.56210896479E+03  0.90208078738E+03  0.50400001928E-02 0. -1.
       -1    1    3    3    0  502 -0.41884670861E+03  0.56775936216E+03 -0.32182740516E+02  0.70627118548E+03  0.50400001928E-02 0.  1.
</event>
<event>
 5   0  0.5606965E-04  0.1461838E+04  0.7818609E-02  0.8910234E-01
        1   -1    0    0  501    0  0.00000000000E+00  0.00000000000E+00  0.15250674962E+04  0.15250674962E+04  0.50400001928E-02 0. -1.
       -1   -1    0    0    0  501  0.00000000000E+00  0.00000000000E+00 -0.35030745096E+03  0.35030745100E+03  0.50400001928E-02 0.  1.
    10030    2    1    2    0    0  0.00000000000E+00  0.00000000000E+00  0.11747600452E+04  0.18753749472E+04  0.14618378941E+04 0.  0.
        4    1    3    3  502    0  0.13596852078E+03 -0.69780115005E+02 -0.32957941868E+03  0.36329176871E+03  0.12699999809E+01 0.  1.
       -4    1    3    3    0  502 -0.13596852078E+03  0.69780115005E+02  0.15043394639E+04  0.15120831785E+04  0.12699999809E+01 0. -1.
</event>
<event>
 5   0  0.5840834E-04  0.1439456E+04  0.7818609E-02  0.8925743E-01
        1   -1    0    0  501    0  0.00000000000E+00  0.00000000000E+00  0.12475020057E+04  0.12475020057E+04  0.50400001928E-02 0. -1.
       -1   -1    0    0    0  501  0.00000000000E+00  0.00000000000E+00 -0.41523672374E+03  0.41523672377E+03  0.50400001928E-02 0.  1.
    10030    2    1    2    0    0  0.00000000000E+00  0.00000000000E+00  0.83226528193E+03  0.16627387294E+04  0.14394563498E+04 0.  0.
        3    1    3    3  502    0  0.13976825777E+03  0.63186869469E+03  0.77997654715E+03  0.10134873643E+04  0.10100000352E+00 0. -1.
       -3    1    3    3    0  502 -0.13976825777E+03 -0.63186869469E+03  0.52288734781E+02  0.64925136519E+03  0.10100000352E+00 0.  1.
</event>
<event>
 5   0  0.1147755E-03  0.1426897E+04  0.7818609E-02  0.8934576E-01
        2   -1    0    0  501    0  0.00000000000E+00  0.00000000000E+00  0.22307705038E+04  0.22307705038E+04  0.25500000920E-02 0.  1.
       -2   -1    0    0    0  501  0.00000000000E+00  0.00000000000E+00 -0.22817621846E+03  0.22817621847E+03  0.25500000920E-02 0. -1.
    10030    2    1    2    0    0  0.00000000000E+00  0.00000000000E+00  0.20025942854E+04  0.24589467223E+04  0.14268970220E+04 0.  0.
        4    1    3    3  502    0 -0.57665730996E+00  0.28776276718E+03 -0.12372978064E+03  0.31323858993E+03  0.12699999809E+01 0. -1.
       -4    1    3    3    0  502  0.57665730996E+00 -0.28776276718E+03  0.21263240660E+04  0.21457081324E+04  0.12699999809E+01 0.  1.
</event>
<event>
 5   0  0.1082667E-03  0.1499326E+04  0.7818609E-02  0.8884901E-01
        2   -1    0    0  501    0  0.00000000000E+00  0.00000000000E+00  0.54468557462E+03  0.54468557463E+03  0.25500000920E-02 0.  1.
       -2   -1    0    0    0  501  0.00000000000E+00  0.00000000000E+00 -0.10317780745E+04  0.10317780745E+04  0.25500000920E-02 0. -1.
    10030    2    1    2    0    0  0.00000000000E+00  0.00000000000E+00 -0.48709249992E+03  0.15764636492E+04  0.14993260265E+04 0.  0.
        5    1    3    3  502    0 -0.67403070514E+02  0.57276576144E+03  0.26001813537E+03  0.63264153524E+03  0.46999998093E+01 0.  1.
       -5    1    3    3    0  502  0.67403070514E+02 -0.57276576144E+03 -0.74711063529E+03  0.94382211393E+03  0.46999998093E+01 0. -1.
</event>
<event>
 5   0  0.6146552E-04  0.1392648E+04  0.7818609E-02  0.8959157E-01
        1   -1    0    0  501    0  0.00000000000E+00  0.00000000000E+00  0.21307633363E+04  0.21307633363E+04  0.50400001928E-02 0. -1.
       -1   -1    0    0    0  501  0.00000000000E+00  0.00000000000E+00 -0.22755567383E+03  0.22755567388E+03  0.50400001928E-02 0.  1.
    10030    2    1    2    0    0  0.00000000000E+00  0.00000000000E+00  0.19032076624E+04  0.23583190101E+04  0.13926482497E+04 0.  0.
        5    1    3    3  502    0 -0.99797863131E+02  0.10208753686E+03 -0.20247908274E+03  0.24779295311E+03  0.46999998093E+01 0.  1.
       -5    1    3    3    0  502  0.99797863131E+02 -0.10208753686E+03  0.21056867452E+04  0.21105260570E+04  0.46999998093E+01 0. -1.
</event>
<event>
 5   0  0.1149716E-03  0.1508568E+04  0.7818609E-02  0.8878775E-01
       -2   -1    0    0    0  501  0.00000000000E+00  0.00000000000E+00  0.90272726408E+03  0.90272726408E+03  0.25500000920E-02 0. -1.
        2   -1    0    0  501    0  0.00000000000E+00  0.00000000000E+00 -0.63025065267E+03  0.63025065268E+03  0.25500000920E-02 0.  1.
    10030    2    1    2    0    0  0.00000000000E+00  0.00000000000E+00  0.27247661140E+03  0.15329779168E+04  0.15085681256E+04 0.  0.
        1    1    3    3  502    0  0.12123054971E+03 -0.53234041037E+03  0.66510283682E+03  0.86049110528E+03  0.50400001928E-02 0. -1.
       -1    1    3    3    0  502 -0.12123054971E+03  0.53234041037E+03 -0.39262622542E+03  0.67248681148E+03  0.50400001928E-02 0.  1.
</event>
<event>
 5   0  0.1097156E-03  0.1329285E+04  0.7818609E-02  0.9006659E-01
        2   -1    0    0  501    0  0.00000000000E+00  0.00000000000E+00  0.17331212478E+04  0.17331212478E+04  0.25500000920E-02 0.  1.
       -2   -1    0    0    0  501  0.00000000000E+00  0.00000000000E+00 -0.25488673081E+03  0.25488673082E+03  0.25500000920E-02 0. -1.
    10030    2    1    2    0    0  0.00000000000E+00  0.00000000000E+00  0.14782345170E+04  0.19880079786E+04  0.13292849340E+04 0.  0.
        2    1    3    3  502    0 -0.64202457244E+03 -0.16673662821E+03  0.67650125880E+03  0.94744425059E+03  0.25500000920E-02 0.  1.
       -2    1    3    3    0  502  0.64202457244E+03  0.16673662821E+03  0.80173325818E+03  0.10405637280E+04  0.25500000920E-02 0. -1.
</event>
<event>
 5   0  0.1097156E-03  0.1515666E+04  0.7818609E-02  0.8874102E-01
       -2   -1    0    0    0  501  0.00000000000E+00  0.00000000000E+00  0.74130013637E+03  0.74130013637E+03  0.25500000920E-02 0.  1.
        2   -1    0    0  501    0  0.00000000000E+00  0.00000000000E+00 -0.77473413949E+03  0.77473413950E+03  0.25500000920E-02 0. -1.
    10030    2    1    2    0    0  0.00000000000E+00  0.00000000000E+00 -0.33434003124E+02  0.15160342759E+04  0.15156655611E+04 0.  0.
        2    1    3    3  502    0  0.75687992666E+02 -0.74453964436E+03  0.10265426550E+03  0.75538457258E+03  0.25500000920E-02 0.  1.
       -2    1    3    3    0  502 -0.75687992666E+02  0.74453964436E+03 -0.13608826863E+03  0.76064970329E+03  0.25500000920E-02 0. -1.
</event>
<event>
 5   0  0.5606965E-04  0.1367737E+04  0.7818609E-02  0.8977509E-01
        1   -1    0    0  501    0  0.00000000000E+00  0.00000000000E+00  0.11112265314E+04  0.11112265315E+04  0.50400001928E-02 0. -1.
       -1   -1    0    0    0  501  0.00000000000E+00  0.00000000000E+00 -0.42086465300E+03  0.42086465303E+03  0.50400001928E-02 0.  1.
    10030    2    1    2    0    0  0.00000000000E+00  0.00000000000E+00  0.69036187844E+03  0.15320911845E+04  0.13677367709E+04 0.  0.
        4    1    3    3  502    0  0.25681039050E+03  0.24835901076E+03  0.99838287858E+03  0.10603790643E+04  0.12699999809E+01 0. -1.
       -4    1    3    3    0  502 -0.25681039050E+03 -0.24835901076E+03 -0.30802100014E+03  0.47171212017E+03  0.12699999809E+01 0.  1.
</event>
<event>
 5   0  0.5924403E-04  0.1468122E+04  0.7818609E-02  0.8905933E-01
        1   -1    0    0  501    0  0.00000000000E+00  0.00000000000E+00  0.84314928056E+03  0.84314928058E+03  0.50400001928E-02 0. -1.
       -1   -1    0    0    0  501  0.00000000000E+00  0.00000000000E+00 -0.63908658209E+03  0.63908658211E+03  0.50400001928E-02 0.  1.
    10030    2    1    2    0    0  0.00000000000E+00  0.00000000000E+00  0.20406269847E+03  0.14822358627E+04  0.14681217823E+04 0.  0.
        1    1    3    3  502    0  0.23625753324E+03  0.56047948830E+03  0.51694513242E+03  0.79824003206E+03  0.50400001928E-02 0. -1.
       -1    1    3    3    0  502 -0.23625753324E+03 -0.56047948830E+03 -0.31288243395E+03  0.68399583063E+03  0.50400001928E-02 0.  1.
</event>
<event>
 5   0  0.1082667E-03  0.1463170E+04  0.7818609E-02  0.8909321E-01
       -2   -1    0    0    0  501  0.00000000000E+00  0.00000000000E+00  0.84108075423E+03  0.84108075423E+03  0.25500000920E-02 0. -1.
        2   -1    0    0  501    0  0.00000000000E+00  0.00000000000E+00 -0.63634407263E+03  0.63634407264E+03  0.25500000920E-02 0.  1.
    10030    2    1    2    0    0  0.00000000000E+00  0.00000000000E+00  0.20473668160E+03  0.14774248269E+04  0.14631701918E+04 0.  0.
        5    1    3    3  502    0 -0.48160877802E+03 -0.10923167048E+03  0.64736367424E+03  0.81423607733E+03  0.46999998093E+01 0. -1.
       -5    1    3    3    0  502  0.48160877802E+03  0.10923167048E+03 -0.44262699264E+03  0.66318874954E+03  0.46999998093E+01 0.  1.
</event>
<event>
 5   0  0.6146552E-04  0.1538487E+04  0.7818609E-02  0.8859255E-01
        1   -1    0    0  501    0  0.00000000000E+00  0.00000000000E+00  0.23090747267E+03  0.23090747273E+03  0.50400001928E-02 0. -1.
       -1   -1    0    0    0  501  0.00000000000E+00  0.00000000000E+00 -0.25626529833E+04  0.25626529833E+04  0.50400001928E-02 0.  1.
    10030    2    1    2    0    0  0.00000000000E+00  0.00000000000E+00 -0.23317455107E+04  0.27935604561E+04  0.15384872100E+04 0.  0.
        5    1    3    3  502    0  0.16938317606E+03 -0.37133949184E+02 -0.25266742039E+04  0.25326220036E+04  0.46999998093E+01 0.  1.
       -5    1    3    3    0  502 -0.16938317606E+03  0.37133949184E+02  0.19492869325E+03  0.26093845244E+03  0.46999998093E+01 0. -1.
</event>
<event>
 5   0  0.1097156E-03  0.1512470E+04  0.7818609E-02  0.8876203E-01
        2   -1    0    0  501    0  0.00000000000E+00  0.00000000000E+00  0.18157987361E+04  0.18157987361E+04  0.25500000920E-02 0.  1.
       -2   -1    0    0    0  501  0.00000000000E+00  0.00000000000E+00 -0.31495312374E+03  0.31495312375E+03  0.25500000920E-02 0. -1.
    10030    2    1    2    0    0  0.00000000000E+00  0.00000000000E+00  0.15008456124E+04  0.21307518599E+04  0.15124701439E+04 0.  0.
        2    1    3    3  502    0  0.73449354956E+03  0.46446347371E+02  0.50538477507E+03  0.89277758059E+03  0.25500000920E-02 0. -1.
       -2    1    3    3    0  502 -0.73449354956E+03 -0.46446347371E+02  0.99546083729E+03  0.12379742793E+04  0.25500000920E-02 0.  1.
</event>
<event>
 5   0  0.1147755E-03  0.1486022E+04  0.7818609E-02  0.8893802E-01
        2   -1    0    0  501    0  0.00000000000E+00  0.00000000000E+00  0.84165378792E+03  0.84165378793E+03  0.25500000920E-02 0.  1.
       -2   -1    0    0    0  501  0.00000000000E+00  0.00000000000E+00 -0.65592931873E+03  0.65592931873E+03  0.25500000920E-02 0. -1.
    10030    2    1    2    0    0  0.00000000000E+00  0.00000000000E+00  0.18572446919E+03  0.14975831067E+04  0.14860220668E+04 0.  0.
        4    1    3    3  502    0  0.89011056387E+02 -0.54291093308E+03 -0.41041109316E+03  0.68637754021E+03  0.12699999809E+01 0. -1.
       -4    1    3    3    0  502 -0.89011056387E+02  0.54291093308E+03  0.59613556236E+03  0.81120556644E+03  0.12699999809E+01 0.  1.
</event>
<event>
 5   0  0.5606965E-04  0.1431016E+04  0.7818609E-02  0.8931669E-01
       -1   -1    0    0    0  501  0.00000000000E+00  0.00000000000E+00  0.11400931892E+04  0.11400931892E+04  0.50400001928E-02 0. -1.
        1   -1    0    0  501    0  0.00000000000E+00  0.00000000000E+00 -0.44904359592E+03  0.44904359595E+03  0.50400001928E-02 0.  1.
    10030    2    1    2    0    0  0.00000000000E+00  0.00000000000E+00  0.69104959323E+03  0.15891367851E+04  0.14310157866E+04 0.  0.
        4    1    3    3  502    0 -0.27022694115E+03  0.56641013702E+03  0.72716531035E+03  0.96052800299E+03  0.12699999809E+01 0.  1.
       -4    1    3    3    0  502  0.27022694115E+03 -0.56641013702E+03 -0.36115717117E+02  0.62860878213E+03  0.12699999809E+01 0. -1.
</event>
<event>
 5   0  0.4070625E-04  0.1490415E+04  0.7818609E-02  0.8890852E-01
        4   -1    0    0  501    0  0.00000000000E+00  0.00000000000E+00  0.33230711738E+03  0.33230954419E+03  0.12699999809E+01 0.  1.
       -4   -1    0    0    0  501  0.00000000000E+00  0.00000000000E+00 -0.16711379221E+04  0.16711384047E+04  0.12699999809E+01 0. -1.
    10030    2    1    2    0    0  0.00000000000E+00  0.00000000000E+00 -0.13388308047E+04  0.20034479488E+04  0.14904146269E+04 0.  0.
        2    1    3    3  502    0 -0.47495608243E+03  0.34483561060E+03 -0.52186155306E+02  0.58925230029E+03  0.25500000920E-02 0.  1.
       -2    1    3    3    0  502  0.47495608243E+03 -0.34483561060E+03 -0.12866446494E+04  0.14141956486E+04  0.25500000920E-02 0. -1.
</event>
<event>
 5   0  0.1082667E-03  0.1423133E+04  0.7818609E-02  0.8937242E-01
       -2   -1    0    0    0  501  0.00000000000E+00  0.00000000000E+00  0.74616124547E+03  0.74616124548E+03  0.25500000920E-02 0. -1.
        2   -1    0    0  501    0  0.00000000000E+00  0.00000000000E+00 -0.67857581025E+03  0.67857581025E+03  0.25500000920E-02 0.  1.
    10030    2    1    2    0    0  0.00000000000E+00  0.00000000000E+00  0.67585435227E+02  0.14247370557E+04  0.14231331234E+04 0.  0.
        5    1    3    3  502    0 -0.11161658464E+02  0.22818498123E+03 -0.64084503529E+03  0.68036564988E+03  0.46999998093E+01 0.  1.
       -5    1    3    3    0  502  0.11161658464E+02 -0.22818498123E+03  0.70843047052E+03  0.74437140585E+03  0.46999998093E+01 0. -1.
</event>
<event>
 5   0  0.1147755E-03  0.1474918E+04  0.7818609E-02  0.8901306E-01
        2   -1    0    0  501    0  0.00000000000E+00  0.00000000000E+00  0.11641735080E+04  0.11641735080E+04  0.25500000920E-02 0. -1.
       -2   -1    0    0    0  501  0.00000000000E+00  0.00000000000E+00 -0.46715163174E+03  0.46715163174E+03  0.25500000920E-02 0.  1.
    10030    2    1    2    0    0  0.00000000000E+00  0.00000000000E+00  0.69702187624E+03  0.16313251397E+04  0.14749176979E+04 0.  0.
        4    1    3    3  502    0  0.67790198850E+02 -0.29653525693E+03  0.10915519013E+04  0.11331442255E+04  0.12699999809E+01 0. -1.
       -4    1    3    3    0  502 -0.67790198850E+02  0.29653525693E+03 -0.39453002509E+03  0.49818091419E+03  0.12699999809E+01 0.  1.
</event>
<event>
 5   0  0.5914645E-04  0.1541447E+04  0.7818609E-02  0.8857349E-01
        1   -1    0    0  501    0  0.00000000000E+00  0.00000000000E+00  0.19665762301E+04  0.19665762301E+04  0.50400001928E-02 0. -1.
       -1   -1    0    0    0  501  0.00000000000E+00  0.00000000000E+00 -0.30205526817E+03  0.30205526821E+03  0.50400001928E-02 0.  1.
    10030    2    1    2    0    0  0.00000000000E+00  0.00000000000E+00  0.16645209619E+04  0.22686314983E+04  0.15414469963E+04 0.  0.
        2    1    3    3  502    0 -0.34471855753E+03  0.59495918893E+03  0.13446496158E+04  0.15102615368E+04  0.25500000920E-02 0. -1.
       -2    1    3    3    0  502  0.34471855753E+03 -0.59495918893E+03  0.31987134613E+03  0.75836996148E+03  0.25500000920E-02 0.  1.
</event>
<event>
 5   0  0.1082667E-03  0.1483860E+04  0.7818609E-02  0.8895258E-01
       -2   -1    0    0    0  501  0.00000000000E+00  0.00000000000E+00  0.40242844426E+03  0.40242844426E+03  0.25500000920E-02 0. -1.
        2   -1    0    0  501    0  0.00000000000E+00  0.00000000000E+00 -0.13678453434E+04  0.13678453434E+04  0.25500000920E-02 0.  1.
    10030    2    1    2    0    0  0.00000000000E+00  0.00000000000E+00 -0.96541689916E+03  0.17702737877E+04  0.14838596612E+04 0.  0.
        5    1    3    3  502    0 -0.23438205617E+03  0.70385354093E+03 -0.49421525936E+03  0.89141212014E+03  0.46999998093E+01 0. -1.
       -5    1    3    3    0  502  0.23438205617E+03 -0.70385354093E+03 -0.47120163980E+03  0.87886166755E+03  0.46999998093E+01 0.  1.
</event>
<event>
 5   0  0.6146552E-04  0.1487560E+04  0.7818609E-02  0.8892768E-01
       -1   -1    0    0    0  501  0.00000000000E+00  0.00000000000E+00  0.25645981480E+03  0.25645981485E+03  0.50400001928E-02 0.  1.
        1   -1    0    0  501    0  0.00000000000E+00  0.00000000000E+00 -0.21570956851E+04  0.21570956851E+04  0.50400001928E-02 0. -1.
    10030    2    1    2    0    0  0.00000000000E+00  0.00000000000E+00 -0.19006358703E+04  0.24135555000E+04  0.14875595584E+04 0.  0.
        5    1    3    3  502    0 -0.30592514422E+03 -0.34801233928E+03 -0.63621102270E+01  0.46342782459E+03  0.46999998093E+01 0.  1.
       -5    1    3    3    0  502  0.30592514422E+03  0.34801233928E+03 -0.18942737601E+04  0.19501276754E+04  0.46999998093E+01 0. -1.
</event>
<event>
 5   0  0.1147755E-03  0.1496436E+04  0.7818609E-02  0.8886827E-01
       -2   -1    0    0    0  501  0.00000000000E+00  0.00000000000E+00  0.12580050919E+04  0.12580050919E+04  0.25500000920E-02 0. -1.
        2   -1    0    0  501    0  0.00000000000E+00  0.00000000000E+00 -0.44501410262E+03  0.44501410263E+03  0.25500000920E-02 0.  1.
    10030    2    1    2    0    0  0.00000000000E+00  0.00000000000E+00  0.81299098926E+03  0.17030191945E+04  0.14964357749E+04 0.  0.
        4    1    3    3  502    0 -0.56110415832E+03 -0.24732773241E+02  0.96908707897E+03  0.11200807855E+04  0.12699999809E+01 0. -1.
       -4    1    3    3    0  502  0.56110415832E+03  0.24732773241E+02 -0.15609608971E+03  0.58293840900E+03  0.12699999809E+01 0.  1.
</event>
<event>
 5   0  0.5924403E-04  0.1492468E+04  0.7818609E-02  0.8889477E-01
       -1   -1    0    0    0  501  0.00000000000E+00  0.00000000000E+00  0.84856732323E+03  0.84856732324E+03  0.50400001928E-02 0.  1.
        1   -1    0    0  501    0  0.00000000000E+00  0.00000000000E+00 -0.65624156722E+03  0.65624156724E+03  0.50400001928E-02 0. -1.
    10030    2    1    2    0    0  0.00000000000E+00  0.00000000000E+00  0.19232575601E+03  0.15048088905E+04  0.14924679563E+04 0.  0.
        1    1    3    3  502    0 -0.55627497366E+03 -0.45743419878E+03 -0.10084277889E+03  0.72722565866E+03  0.50400001928E-02 0. -1.
       -1    1    3    3    0  502  0.55627497366E+03  0.45743419878E+03  0.29316853490E+03  0.77758323182E+03  0.50400001928E-02 0.  1.
</event>
<event>
 5   0  0.1082667E-03  0.1442183E+04  0.7818609E-02  0.8923838E-01
       -2   -1    0    0    0  501  0.00000000000E+00  0.00000000000E+00  0.61464811046E+03  0.61464811046E+03  0.25500000920E-02 0.  1.
        2   -1    0    0  501    0  0.00000000000E+00  0.00000000000E+00 -0.84596814281E+03  0.84596814282E+03  0.25500000920E-02 0. -1.
    10030    2    1    2    0    0  0.00000000000E+00  0.00000000000E+00 -0.23132003236E+03  0.14606162533E+04  0.14421826798E+04 0.  0.
        5    1    3    3  502    0 -0.48392191156E+03 -0.53399172849E+03 -0.90380044815E+02  0.72630449887E+03  0.46999998093E+01 0.  1.
       -5    1    3    3    0  502  0.48392191156E+03  0.53399172849E+03 -0.14093998754E+03  0.73431175441E+03  0.46999998093E+01 0. -1.
</event>
<event>
 5   0  0.6146552E-04  0.1489288E+04  0.7818609E-02  0.8891608E-01
        1   -1    0    0  501    0  0.00000000000E+00  0.00000000000E+00  0.11131856830E+04  0.11131856830E+04  0.50400001928E-02 0. -1.
       -1   -1    0    0    0  501  0.00000000000E+00  0.00000000000E+00 -0.49811507449E+03  0.49811507452E+03  0.50400001928E-02 0.  1.
    10030    2    1    2    0    0  0.00000000000E+00  0.00000000000E+00  0.61507060847E+03  0.16113007575E+04  0.14892878425E+04 0.  0.
        5    1    3    3  502    0  0.55599673579E+03  0.36921649621E+03 -0.49696105956E+02  0.66928692220E+03  0.46999998093E+01 0.  1.
       -5    1    3    3    0  502 -0.55599673579E+03 -0.36921649621E+03  0.66476671442E+03  0.94201383529E+03  0.46999998093E+01 0. -1.
</event>
<event>
 5   0  0.6146552E-04  0.1496858E+04  0.7818609E-02  0.8886545E-01
        1   -1    0    0  501    0  0.00000000000E+00  0.00000000000E+00  0.10297504173E+04  0.10297504173E+04  0.50400001928E-02 0.  1.
       -1   -1    0    0    0  501  0.00000000000E+00  0.00000000000E+00 -0.54396275952E+03  0.54396275954E+03  0.50400001928E-02 0. -1.
    10030    2    1    2    0    0  0.00000000000E+00  0.00000000000E+00  0.48578765777E+03  0.15737131769E+04  0.14968578805E+04 0.  0.
        5    1    3    3  502    0  0.31724775502E+03 -0.21316326021E+03  0.91939052195E+03  0.99568355184E+03  0.46999998093E+01 0.  1.
       -5    1    3    3    0  502 -0.31724775502E+03  0.21316326021E+03 -0.43360286417E+03  0.57802962501E+03  0.46999998093E+01 0. -1.
</event>
<event>
 5   0  0.1082667E-03  0.1546898E+04  0.7818609E-02  0.8853852E-01
       -2   -1    0    0    0  501  0.00000000000E+00  0.00000000000E+00  0.33720863490E+03  0.33720863491E+03  0.25500000920E-02 0.  1.
        2   -1    0    0  501    0  0.00000000000E+00  0.00000000000E+00 -0.17740449284E+04  0.17740449284E+04  0.25500000920E-02 0. -1.
    10030    2    1    2    0    0  0.00000000000E+00  0.00000000000E+00 -0.14368362935E+04  0.21112535633E+04  0.15468978875E+04 0.  0.
        5    1    3    3  502    0 -0.80249884949E+02 -0.43987013369E+03  0.14291367106E+03  0.46943815985E+03  0.46999998093E+01 0.  1.
       -5    1    3    3    0  502  0.80249884949E+02  0.43987013369E+03 -0.15797499645E+04  0.16418154034E+04  0.46999998093E+01 0. -1.
</event>
<event>
 5   0  0.5606965E-04  0.1524315E+04  0.7818609E-02  0.8868443E-01
       -1   -1    0    0    0  501  0.00000000000E+00  0.00000000000E+00  0.16805612830E+04  0.16805612830E+04  0.50400001928E-02 0. -1.
        1   -1    0    0  501    0  0.00000000000E+00  0.00000000000E+00 -0.34564896666E+03  0.34564896670E+03  0.50400001928E-02 0.  1.
    10030    2    1    2    0    0  0.00000000000E+00  0.00000000000E+00  0.13349123164E+04  0.20262102497E+04  0.15243152836E+04 0.  0.
        4    1    3    3  502    0  0.52620118514E+03  0.30763381369E+03  0.59247172048E+02  0.61240353596E+03  0.12699999809E+01 0.  1.
       -4    1    3    3    0  502 -0.52620118514E+03 -0.30763381369E+03  0.12756651443E+04  0.14138067138E+04  0.12699999809E+01 0. -1.
</event>
<event>
 5   0  0.5606965E-04  0.1521275E+04  0.7818609E-02  0.8870427E-01
       -1   -1    0    0    0  501  0.00000000000E+00  0.00000000000E+00  0.37380112921E+03  0.37380112924E+03  0.50400001928E-02 0. -1.
        1   -1    0    0  501    0  0.00000000000E+00  0.00000000000E+00 -0.15477998589E+04  0.15477998589E+04  0.50400001928E-02 0.  1.
    10030    2    1    2    0    0  0.00000000000E+00  0.00000000000E+00 -0.11739987297E+04  0.19216009882E+04  0.15212749063E+04 0.  0.
        4    1    3    3  502    0  0.45319199386E+03 -0.16278713833E+03 -0.13307427082E+04  0.14151891761E+04  0.12699999809E+01 0.  1.
       -4    1    3    3    0  502 -0.45319199386E+03  0.16278713833E+03  0.15674397852E+03  0.50641181208E+03  0.12699999809E+01 0. -1.
</event>
<event>
 5   0  0.6146552E-04  0.1486919E+04  0.7818609E-02  0.8893198E-01
       -1   -1    0    0    0  501  0.00000000000E+00  0.00000000000E+00  0.85047299279E+03  0.85047299281E+03  0.50400001928E-02 0.  1.
        1   -1    0    0  501    0  0.00000000000E+00  0.00000000000E+00 -0.64991154132E+03  0.64991154134E+03  0.50400001928E-02 0. -1.
    10030    2    1    2    0    0  0.00000000000E+00  0.00000000000E+00  0.20056145147E+03  0.15003845341E+04  0.14869192495E+04 0.  0.
        5    1    3    3  502    0 -0.48149186080E+03  0.29825522627E+03  0.58622207771E+03  0.81514968343E+03  0.46999998093E+01 0.  1.
       -5    1    3    3    0  502  0.48149186080E+03 -0.29825522627E+03 -0.38566062624E+03  0.68523485071E+03  0.46999998093E+01 0. -1.
</event>
<event>
 5   0  0.5606965E-04  0.1489003E+04  0.7818609E-02  0.8891799E-01
        1   -1    0    0  501    0  0.00000000000E+00  0.00000000000E+00  0.53056133628E+03  0.53056133631E+03  0.50400001928E-02 0. -1.
       -1   -1    0    0    0  501  0.00000000000E+00  0.00000000000E+00 -0.10447099635E+04  0.10447099635E+04  0.50400001928E-02 0.  1.
    10030    2    1    2    0    0  0.00000000000E+00  0.00000000000E+00 -0.51414862720E+03  0.15752712998E+04  0.14890033100E+04 0.  0.
        4    1    3    3  502    0  0.19222674428E+03  0.70899343986E+03 -0.12898843857E+03  0.74583004041E+03  0.12699999809E+01 0.  1.
       -4    1    3    3    0  502 -0.19222674428E+03 -0.70899343986E+03 -0.38516018862E+03  0.82944125940E+03  0.12699999809E+01 0. -1.
</event>
<event>
 5   0  0.5606965E-04  0.1503654E+04  0.7818609E-02  0.8882027E-01
        1   -1    0    0  501    0  0.00000000000E+00  0.00000000000E+00  0.50798860332E+03  0.50798860335E+03  0.50400001928E-02 0. -1.
       -1   -1    0    0    0  501  0.00000000000E+00  0.00000000000E+00 -0.11127095425E+04  0.11127095425E+04  0.50400001928E-02 0.  1.
    10030    2    1    2    0    0  0.00000000000E+00  0.00000000000E+00 -0.60472093914E+03  0.16206981458E+04  0.15036539049E+04 0.  0.
        4    1    3    3  502    0 -0.32678263364E+03 -0.26244483996E+03 -0.97510696468E+03  0.10613667552E+04  0.12699999809E+01 0.  1.
       -4    1    3    3    0  502  0.32678263364E+03  0.26244483996E+03  0.37038602554E+03  0.55933139058E+03  0.12699999809E+01 0. -1.
</event>
<event>
 5   0  0.5606965E-04  0.1542982E+04  0.7818609E-02  0.8856363E-01
       -1   -1    0    0    0  501  0.00000000000E+00  0.00000000000E+00  0.68194724011E+03  0.68194724013E+03  0.50400001928E-02 0. -1.
        1   -1    0    0  501    0  0.00000000000E+00  0.00000000000E+00 -0.87279250411E+03  0.87279250413E+03  0.50400001928E-02 0.  1.
    10030    2    1    2    0    0  0.00000000000E+00  0.00000000000E+00 -0.19084526401E+03  0.15547397443E+04  0.15429820989E+04 0.  0.
        4    1    3    3  502    0  0.19098298369E+02  0.44886302954E+03 -0.72738123866E+03  0.85494318147E+03  0.12699999809E+01 0.  1.
       -4    1    3    3    0  502 -0.19098298369E+02 -0.44886302954E+03  0.53653597465E+03  0.69979656278E+03  0.12699999809E+01 0. -1.
</event>
<event>
 5   0  0.5924403E-04  0.1508380E+04  0.7818609E-02  0.8878899E-01
        1   -1    0    0  501    0  0.00000000000E+00  0.00000000000E+00  0.47640317789E+03  0.47640317791E+03  0.50400001928E-02 0.  1.
       -1   -1    0    0    0  501  0.00000000000E+00  0.00000000000E+00 -0.11939519694E+04  0.11939519694E+04  0.50400001928E-02 0. -1.
    10030    2    1    2    0    0  0.00000000000E+00  0.00000000000E+00 -0.71754879148E+03  0.16703551473E+04  0.15083799422E+04 0.  0.
        1    1    3    3  502    0 -0.14758942218E+03 -0.66455036922E+03  0.72924971991E+00  0.68074250829E+03  0.50400001928E-02 0.  1.
       -1    1    3    3    0  502  0.14758942218E+03  0.66455036922E+03 -0.71827804120E+03  0.98961263900E+03  0.50400001928E-02 0. -1.
</event>
<event>
 5   0  0.1097156E-03  0.1497330E+04  0.7818609E-02  0.8886230E-01
       -2   -1    0    0    0  501  0.00000000000E+00  0.00000000000E+00  0.12232893275E+04  0.12232893275E+04  0.25500000920E-02 0. -1.
        2   -1    0    0  501    0  0.00000000000E+00  0.00000000000E+00 -0.45819029445E+03  0.45819029445E+03  0.25500000920E-02 0.  1.
    10030    2    1    2    0    0  0.00000000000E+00  0.00000000000E+00  0.76509903310E+03  0.16814796220E+04  0.14973300200E+04 0.  0.
        2    1    3    3  502    0  0.60823240304E+03 -0.13861297480E+03 -0.82289204218E+02  0.62923105933E+03  0.25500000920E-02 0.  1.
       -2    1    3    3    0  502 -0.60823240304E+03  0.13861297480E+03  0.84738823731E+03  0.10522485627E+04  0.25500000920E-02 0. -1.
</event>
<event>
 5   0  0.5924403E-04  0.1481220E+04  0.7818609E-02  0.8897039E-01
       -1   -1    0    0    0  501  0.00000000000E+00  0.00000000000E+00  0.71371112527E+03  0.71371112529E+03  0.50400001928E-02 0.  1.
        1   -1    0    0  501    0  0.00000000000E+00  0.00000000000E+00 -0.76852234086E+03  0.76852234088E+03  0.50400001928E-02 0. -1.
    10030    2    1    2    0    0  0.00000000000E+00  0.00000000000E+00 -0.54811215590E+02  0.14822334662E+04  0.14812196930E+04 0.  0.
        1    1    3    3  502    0  0.59163346455E+03  0.37094778431E+03 -0.27429400344E+03  0.75024636981E+03  0.50400001928E-02 0.  1.
       -1    1    3    3    0  502 -0.59163346455E+03 -0.37094778431E+03  0.21948278785E+03  0.73198709637E+03  0.50400001928E-02 0. -1.
</event>
<event>
 5   0  0.5924403E-04  0.1500955E+04  0.7818609E-02  0.8883818E-01
        1   -1    0    0  501    0  0.00000000000E+00  0.00000000000E+00  0.95833310219E+03  0.95833310220E+03  0.50400001928E-02 0.  1.
       -1   -1    0    0    0  501  0.00000000000E+00  0.00000000000E+00 -0.58770453467E+03  0.58770453469E+03  0.50400001928E-02 0. -1.
    10030    2    1    2    0    0  0.00000000000E+00  0.00000000000E+00  0.37062856752E+03  0.15460376369E+04  0.15009553090E+04 0.  0.
        1    1    3    3  502    0 -0.58739993539E+03  0.34614683920E+03 -0.13773027121E+03  0.69557598148E+03  0.50400001928E-02 0. -1.
       -1    1    3    3    0  502  0.58739993539E+03 -0.34614683920E+03  0.50835883872E+03  0.85046165541E+03  0.50400001928E-02 0.  1.
</event>
<event>
 5   0  0.4070625E-04  0.1484524E+04  0.7818609E-02  0.8894810E-01
       -4   -1    0    0    0  501  0.00000000000E+00  0.00000000000E+00  0.68916631891E+03  0.68916748909E+03  0.12699999809E+01 0. -1.
        4   -1    0    0  501    0  0.00000000000E+00  0.00000000000E+00 -0.79944620408E+03  0.79944721284E+03  0.12699999809E+01 0.  1.
    10030    2    1    2    0    0  0.00000000000E+00  0.00000000000E+00 -0.11027988517E+03  0.14886147019E+04  0.14845241924E+04 0.  0.
        4    1    3    3  502    0  0.19920684339E+03 -0.29694235132E+03  0.59710855625E+03  0.69598733272E+03  0.12699999809E+01 0. -1.
       -4    1    3    3    0  502 -0.19920684339E+03  0.29694235132E+03 -0.70738844143E+03  0.79262736921E+03  0.12699999809E+01 0.  1.
</event>
<event>
 5   0  0.5914645E-04  0.1498282E+04  0.7818609E-02  0.8885596E-01
        1   -1    0    0  501    0  0.00000000000E+00  0.00000000000E+00  0.47794697806E+03  0.47794697809E+03  0.50400001928E-02 0.  1.
       -1   -1    0    0    0  501  0.00000000000E+00  0.00000000000E+00 -0.11742150669E+04  0.11742150669E+04  0.50400001928E-02 0. -1.
    10030    2    1    2    0    0  0.00000000000E+00  0.00000000000E+00 -0.69626808884E+03  0.16521620450E+04  0.14982824071E+04 0.  0.
        2    1    3    3  502    0 -0.18113309809E+03  0.32072172249E+03  0.37119836057E+03  0.52293388243E+03  0.25500000920E-02 0.  1.
       -2    1    3    3    0  502  0.18113309809E+03 -0.32072172249E+03 -0.10674664494E+04  0.11292281626E+04  0.25500000920E-02 0. -1.
</event>
<event>
 5   0  0.5840834E-04  0.1491165E+04  0.7818609E-02  0.8890350E-01
        1   -1    0    0  501    0  0.00000000000E+00  0.00000000000E+00  0.26993386619E+04  0.26993386619E+04  0.50400001928E-02 0. -1.
       -1   -1    0    0    0  501  0.00000000000E+00  0.00000000000E+00 -0.20593676075E+03  0.20593676081E+03  0.50400001928E-02 0.  1.
    10030    2    1    2    0    0  0.00000000000E+00  0.00000000000E+00  0.24934019012E+04  0.29052754228E+04  0.14911647264E+04 0.  0.
        3    1    3    3  502    0  0.36616778111E+03  0.50975182346E+01  0.25120458309E+04  0.25385978601E+04  0.10100000352E+00 0. -1.
       -3    1    3    3    0  502 -0.36616778111E+03 -0.50975182346E+01 -0.18643929738E+02  0.36667756262E+03  0.10100000352E+00 0.  1.
</event>
<event>
 5   0  0.5606965E-04  0.1464349E+04  0.7818609E-02  0.8908513E-01
       -1   -1    0    0    0  501  0.00000000000E+00  0.00000000000E+00  0.10699688593E+04  0.10699688593E+04  0.50400001928E-02 0.  1.
        1   -1    0    0  501    0  0.00000000000E+00  0.00000000000E+00 -0.50102340734E+03  0.50102340736E+03  0.50400001928E-02 0. -1.
    10030    2    1    2    0    0  0.00000000000E+00  0.00000000000E+00  0.56894545195E+03  0.15709922667E+04  0.14643489252E+04 0.  0.
        4    1    3    3  502    0  0.66251456722E+03 -0.28733930270E+03  0.15489410111E+03  0.73856835981E+03  0.12699999809E+01 0. -1.
       -4    1    3    3    0  502 -0.66251456722E+03  0.28733930270E+03  0.41405135084E+03  0.83242390685E+03  0.12699999809E+01 0.  1.
</event>
<event>
 5   0  0.5606965E-04  0.1541018E+04  0.7818609E-02  0.8857626E-01
        1   -1    0    0  501    0  0.00000000000E+00  0.00000000000E+00  0.63982608160E+03  0.63982608162E+03  0.50400001928E-02 0. -1.
       -1   -1    0    0    0  501  0.00000000000E+00  0.00000000000E+00 -0.92788331869E+03  0.92788331870E+03  0.50400001928E-02 0.  1.
    10030    2    1    2    0    0  0.00000000000E+00  0.00000000000E+00 -0.28805723709E+03  0.15677094003E+04  0.15410177780E+04 0.  0.
        4    1    3    3  502    0 -0.52373290126E+03 -0.27919074906E+03 -0.64390355678E+03  0.87570373389E+03  0.12699999809E+01 0.  1.
       -4    1    3    3    0  502  0.52373290126E+03  0.27919074906E+03  0.35584631969E+03  0.69200566642E+03  0.12699999809E+01 0. -1.
</event>
<event>
 5   0  0.1147755E-03  0.1501926E+04  0.7818609E-02  0.8883173E-01
       -2   -1    0    0    0  501  0.00000000000E+00  0.00000000000E+00  0.11218556184E+04  0.11218556184E+04  0.25500000920E-02 0.  1.
        2   -1    0    0  501    0  0.00000000000E+00  0.00000000000E+00 -0.50268989031E+03  0.50268989032E+03  0.25500000920E-02 0. -1.
    10030    2    1    2    0    0  0.00000000000E+00  0.00000000000E+00  0.61916572812E+03  0.16245455088E+04  0.15019260671E+04 0.  0.
        4    1    3    3  502    0 -0.42909921989E+03 -0.23669982655E+03  0.92506529081E+03  0.10468525940E+04  0.12699999809E+01 0.  1.
       -4    1    3    3    0  502  0.42909921989E+03  0.23669982655E+03 -0.30589956270E+03  0.57769291475E+03  0.12699999809E+01 0. -1.
</event>
<event>
 5   0  0.4070625E-04  0.1511054E+04  0.7818609E-02  0.8877135E-01
        3   -1    0    0  501    0  0.00000000000E+00  0.00000000000E+00  0.25849515186E+04  0.25849515206E+04  0.10100000352E+00 0.  1.
       -3   -1    0    0    0  501  0.00000000000E+00  0.00000000000E+00 -0.22082454432E+03  0.22082456741E+03  0.10100000352E+00 0. -1.
    10030    2    1    2    0    0  0.00000000000E+00  0.00000000000E+00  0.23641269743E+04  0.28057760880E+04  0.15110536408E+04 0.  0.
        3    1    3    3  502    0  0.44251496945E+03 -0.53890312231E+03  0.64203208277E+03  0.94786142390E+03  0.10100000352E+00 0. -1.
       -3    1    3    3    0  502 -0.44251496945E+03  0.53890312231E+03  0.17220948915E+04  0.18579146641E+04  0.10100000352E+00 0.  1.
</event>
<event>
 5   0  0.5840834E-04  0.1489719E+04  0.7818609E-02  0.8891319E-01
       -1   -1    0    0    0  501  0.00000000000E+00  0.00000000000E+00  0.54939444964E+03  0.54939444966E+03  0.50400001928E-02 0.  1.
        1   -1    0    0  501    0  0.00000000000E+00  0.00000000000E+00 -0.10098669602E+04  0.10098669602E+04  0.50400001928E-02 0. -1.
    10030    2    1    2    0    0  0.00000000000E+00  0.00000000000E+00 -0.46047251054E+03  0.15592614099E+04  0.14897185007E+04 0.  0.
        3    1    3    3  502    0 -0.62361349987E+03  0.42522533140E+02 -0.65425655407E+03  0.90485004934E+03  0.10100000352E+00 0.  1.
       -3    1    3    3    0  502  0.62361349987E+03 -0.42522533140E+02  0.19378404353E+03  0.65441136052E+03  0.10100000352E+00 0. -1.
</event>
<event>
 5   0  0.1097156E-03  0.1502066E+04  0.7818609E-02  0.8883081E-01
        2   -1    0    0  501    0  0.00000000000E+00  0.00000000000E+00  0.13263213643E+04  0.13263213643E+04  0.25500000920E-02 0.  1.
       -2   -1    0    0    0  501  0.00000000000E+00  0.00000000000E+00 -0.42527418112E+03  0.42527418112E+03  0.25500000920E-02 0. -1.
    10030    2    1    2    0    0  0.00000000000E+00  0.00000000000E+00  0.90104718320E+03  0.17515955454E+04  0.15020655540E+04 0.  0.
        2    1    3    3  502    0 -0.16242588473E+03 -0.42234698233E+02  0.13041748006E+04  0.13149288377E+04  0.25500000920E-02 0.  1.
       -2    1    3    3    0  502  0.16242588473E+03  0.42234698233E+02 -0.40312761736E+03  0.43666670775E+03  0.25500000920E-02 0. -1.
</event>
<event>
 5   0  0.1082667E-03  0.1525172E+04  0.7818609E-02  0.8867884E-01
       -2   -1    0    0    0  501  0.00000000000E+00  0.00000000000E+00  0.87364180195E+03  0.87364180195E+03  0.25500000920E-02 0. -1.
        2   -1    0    0  501    0  0.00000000000E+00  0.00000000000E+00 -0.66564714942E+03  0.66564714942E+03  0.25500000920E-02 0.  1.
    10030    2    1    2    0    0  0.00000000000E+00  0.00000000000E+00  0.20799465253E+03  0.15392889514E+04  0.15251716954E+04 0.  0.
        5    1    3    3  502    0  0.37742100730E+03 -0.26874951446E+03  0.71527852768E+03  0.85224314631E+03  0.46999998093E+01 0. -1.
       -5    1    3    3    0  502 -0.37742100730E+03  0.26874951446E+03 -0.50728387515E+03  0.68704580506E+03  0.46999998093E+01 0.  1.
</event>
<event>
 5   0  0.1126175E-03  0.1425224E+04  0.7818609E-02  0.8935760E-01
       -2   -1    0    0    0  501  0.00000000000E+00  0.00000000000E+00  0.24700839418E+03  0.24700839419E+03  0.25500000920E-02 0.  1.
        2   -1    0    0  501    0  0.00000000000E+00  0.00000000000E+00 -0.20558652143E+04  0.20558652143E+04  0.25500000920E-02 0. -1.
    10030    2    1    2    0    0  0.00000000000E+00  0.00000000000E+00 -0.18088568201E+04  0.23028736084E+04  0.14252241441E+04 0.  0.
        3    1    3    3  502    0 -0.38339944698E+03  0.12932247614E+03  0.43394211208E+02  0.40694287873E+03  0.10100000352E+00 0.  1.
       -3    1    3    3    0  502  0.38339944698E+03 -0.12932247614E+03 -0.18522510313E+04  0.18959307297E+04  0.10100000352E+00 0. -1.
</event>
<event>
 5   0  0.5914645E-04  0.1505221E+04  0.7818609E-02  0.8880988E-01
       -1   -1    0    0    0  501  0.00000000000E+00  0.00000000000E+00  0.67519151640E+03  0.67519151642E+03  0.50400001928E-02 0.  1.
        1   -1    0    0  501    0  0.00000000000E+00  0.00000000000E+00 -0.83890662164E+03  0.83890662165E+03  0.50400001928E-02 0. -1.
    10030    2    1    2    0    0  0.00000000000E+00  0.00000000000E+00 -0.16371510524E+03  0.15140981381E+04  0.15052210921E+04 0.  0.
        2    1    3    3  502    0 -0.66538860899E+03  0.59524167901E+02  0.26679515070E+03  0.71935024848E+03  0.25500000920E-02 0. -1.
       -2    1    3    3    0  502  0.66538860899E+03 -0.59524167901E+02 -0.43051025593E+03  0.79474788959E+03  0.25500000920E-02 0.  1.
</event>
<event>
 5   0  0.1126175E-03  0.1503471E+04  0.7818609E-02  0.8882148E-01
        2   -1    0    0  501    0  0.00000000000E+00  0.00000000000E+00  0.10141819193E+04  0.10141819193E+04  0.25500000920E-02 0.  1.
       -2   -1    0    0    0  501  0.00000000000E+00  0.00000000000E+00 -0.55720440456E+03  0.55720440456E+03  0.25500000920E-02 0. -1.
    10030    2    1    2    0    0  0.00000000000E+00  0.00000000000E+00  0.45697751472E+03  0.15713863238E+04  0.15034714928E+04 0.  0.
        3    1    3    3  502    0  0.50946642194E+03  0.17603416127E+02  0.80593159177E+03  0.95362028930E+03  0.10100000352E+00 0.  1.
       -3    1    3    3    0  502 -0.50946642194E+03 -0.17603416127E+02 -0.34895407705E+03  0.61776603454E+03  0.10100000352E+00 0. -1.
</event>
<event>
 5   0  0.6146552E-04  0.1526835E+04  0.7818609E-02  0.8866801E-01
       -1   -1    0    0    0  501  0.00000000000E+00  0.00000000000E+00  0.47442462695E+03  0.47442462698E+03  0.50400001928E-02 0. -1.
        1   -1    0    0  501    0  0.00000000000E+00  0.00000000000E+00 -0.12284492169E+04  0.12284492169E+04  0.50400001928E-02 0.  1.
    10030    2    1    2    0    0  0.00000000000E+00  0.00000000000E+00 -0.75402458991E+03  0.17028738439E+04  0.15268353696E+04 0.  0.
        5    1    3    3  502    0  0.51408035268E+03 -0.35304803810E+03  0.11405121765E+03  0.63399629058E+03  0.46999998093E+01 0. -1.
       -5    1    3    3    0  502 -0.51408035268E+03  0.35304803810E+03 -0.86807580756E+03  0.10688775533E+04  0.46999998093E+01 0.  1.
</event>
<event>
 5   0  0.5840834E-04  0.1491919E+04  0.7818609E-02  0.8889844E-01
       -1   -1    0    0    0  501  0.00000000000E+00  0.00000000000E+00  0.41165248183E+03  0.41165248186E+03  0.50400001928E-02 0.  1.
        1   -1    0    0  501    0  0.00000000000E+00  0.00000000000E+00 -0.13517610375E+04  0.13517610375E+04  0.50400001928E-02 0. -1.
    10030    2    1    2    0    0  0.00000000000E+00  0.00000000000E+00 -0.94010855571E+03  0.17634135194E+04  0.14919192820E+04 0.  0.
        3    1    3    3  502    0  0.19588454176E+03 -0.84574321191E+02 -0.13149254243E+04  0.13321232868E+04  0.10100000352E+00 0. -1.
       -3    1    3    3    0  502 -0.19588454176E+03  0.84574321191E+02  0.37481686864E+03  0.43129023258E+03  0.10100000352E+00 0.  1.
</event>
<event>
 5   0  0.5924403E-04  0.1501670E+04  0.7818609E-02  0.8883343E-01
        1   -1    0    0  501    0  0.00000000000E+00  0.00000000000E+00  0.17343743893E+04  0.17343743893E+04  0.50400001928E-02 0.  1.
       -1   -1    0    0    0  501  0.00000000000E+00  0.00000000000E+00 -0.32504688728E+03  0.32504688732E+03  0.50400001928E-02 0. -1.
    10030    2    1    2    0    0  0.00000000000E+00  0.00000000000E+00  0.14093275020E+04  0.20594212766E+04  0.15016697329E+04 0.  0.
        1    1    3    3  502    0 -0.58079877146E+03 -0.31382144653E+03  0.21412068893E+03  0.69401641385E+03  0.50400001928E-02 0. -1.
       -1    1    3    3    0  502  0.58079877146E+03  0.31382144653E+03  0.11952068130E+04  0.13654048627E+04  0.50400001928E-02 0.  1.
</event>
<event>
 5   0  0.1147755E-03  0.1496857E+04  0.7818609E-02  0.8886545E-01
        2   -1    0    0  501    0  0.00000000000E+00  0.00000000000E+00  0.24470242489E+04  0.24470242489E+04  0.25500000920E-02 0. -1.
       -2   -1    0    0    0  501  0.00000000000E+00  0.00000000000E+00 -0.22890884740E+03  0.22890884742E+03  0.25500000920E-02 0.  1.
    10030    2    1    2    0    0  0.00000000000E+00  0.00000000000E+00  0.22181154015E+04  0.26759330963E+04  0.14968573752E+04 0.  0.
        4    1    3    3  502    0  0.60202065291E+02  0.36602823392E+03  0.22711222424E+04  0.23012168106E+04  0.12699999809E+01 0. -1.
       -4    1    3    3    0  502 -0.60202065291E+02 -0.36602823392E+03 -0.53006840891E+02  0.37471628570E+03  0.12699999809E+01 0.  1.
</event>
<event>
 5   0  0.5606965E-04  0.1497792E+04  0.7818609E-02  0.8885922E-01
        1   -1    0    0  501    0  0.00000000000E+00  0.00000000000E+00  0.64652358949E+03  0.64652358951E+03  0.50400001928E-02 0.  1.
       -1   -1    0    0    0  501  0.00000000000E+00  0.00000000000E+00 -0.86747867623E+03  0.86747867624E+03  0.50400001928E-02 0. -1.
    10030    2    1    2    0    0  0.00000000000E+00  0.00000000000E+00 -0.22095508674E+03  0.15140022657E+04  0.14977922788E+04 0.  0.
        4    1    3    3  502    0 -0.13464731875E+02  0.63282153916E+02  0.64369222644E+03  0.64693680162E+03  0.12699999809E+01 0.  1.
       -4    1    3    3    0  502  0.13464731875E+02 -0.63282153916E+02 -0.86464731318E+03  0.86706546413E+03  0.12699999809E+01 0. -1.
</event>
<event>
 5   0  0.4070625E-04  0.1497841E+04  0.7818609E-02  0.8885890E-01
       -4   -1    0    0    0  501  0.00000000000E+00  0.00000000000E+00  0.10956763539E+04  0.10956770899E+04  0.12699999809E+01 0.  1.
        4   -1    0    0  501    0  0.00000000000E+00  0.00000000000E+00 -0.51190286252E+03  0.51190443791E+03  0.12699999809E+01 0. -1.
    10030    2    1    2    0    0  0.00000000000E+00  0.00000000000E+00  0.58377349140E+03  0.16075815279E+04  0.14978407390E+04 0.  0.
        3    1    3    3  502    0 -0.42852098669E+03  0.42617752552E+03  0.76658610701E+03  0.97617200788E+03  0.10100000352E+00 0.  1.
       -3    1    3    3    0  502  0.42852098669E+03 -0.42617752552E+03 -0.18281261561E+03  0.63140951998E+03  0.10100000352E+00 0. -1.
</event>
<event>
 5   0  0.5840834E-04  0.1478022E+04  0.7818609E-02  0.8899201E-01
        1   -1    0    0  501    0  0.00000000000E+00  0.00000000000E+00  0.39670034421E+03  0.39670034424E+03  0.50400001928E-02 0.  1.
       -1   -1    0    0    0  501  0.00000000000E+00  0.00000000000E+00 -0.13767001137E+04  0.13767001137E+04  0.50400001928E-02 0. -1.
    10030    2    1    2    0    0  0.00000000000E+00  0.00000000000E+00 -0.97999976951E+03  0.17734004580E+04  0.14780222042E+04 0.  0.
        3    1    3    3  502    0 -0.41806581403E+03  0.41933024288E+03  0.40544877213E+02  0.59351560613E+03  0.10100000352E+00 0.  1.
       -3    1    3    3    0  502  0.41806581403E+03 -0.41933024288E+03 -0.10205446467E+04  0.11798848518E+04  0.10100000352E+00 0. -1.
</event>
<event>
 5   0  0.1097156E-03  0.1397216E+04  0.7818609E-02  0.8955836E-01
       -2   -1    0    0    0  501  0.00000000000E+00  0.00000000000E+00  0.50688563172E+03  0.50688563173E+03  0.25500000920E-02 0.  1.
        2   -1    0    0  501    0  0.00000000000E+00  0.00000000000E+00 -0.96284626160E+03  0.96284626160E+03  0.25500000920E-02 0. -1.
    10030    2    1    2    0    0  0.00000000000E+00  0.00000000000E+00 -0.45596062988E+03  0.14697318933E+04  0.13972157107E+04 0.  0.
        2    1    3    3  502    0 -0.18881487527E+03  0.51573737490E+03  0.22618841315E+03  0.59396741935E+03  0.25500000920E-02 0.  1.
       -2    1    3    3    0  502  0.18881487527E+03 -0.51573737490E+03 -0.68214904302E+03  0.87576447399E+03  0.25500000920E-02 0. -1.
</event>
<event>
 5   0  0.1147755E-03  0.1494540E+04  0.7818609E-02  0.8888092E-01
       -2   -1    0    0    0  501  0.00000000000E+00  0.00000000000E+00  0.28028251195E+03  0.28028251196E+03  0.25500000920E-02 0. -1.
        2   -1    0    0  501    0  0.00000000000E+00  0.00000000000E+00 -0.19923198763E+04  0.19923198763E+04  0.25500000920E-02 0.  1.
    10030    2    1    2    0    0  0.00000000000E+00  0.00000000000E+00 -0.17120373644E+04  0.22726023883E+04  0.14945399554E+04 0.  0.
        4    1    3    3  502    0 -0.64441016117E+03 -0.25652987511E+03 -0.12788961744E+04  0.14548708088E+04  0.12699999809E+01 0.  1.
       -4    1    3    3    0  502  0.64441016117E+03  0.25652987511E+03 -0.43314118997E+03  0.81773157942E+03  0.12699999809E+01 0. -1.
</event>
<event>
 5   0  0.1097156E-03  0.1522164E+04  0.7818609E-02  0.8869847E-01
       -2   -1    0    0    0  501  0.00000000000E+00  0.00000000000E+00  0.95700984230E+03  0.95700984231E+03  0.25500000920E-02 0.  1.
        2   -1    0    0  501    0  0.00000000000E+00  0.00000000000E+00 -0.60526613215E+03  0.60526613215E+03  0.25500000920E-02 0. -1.
    10030    2    1    2    0    0  0.00000000000E+00  0.00000000000E+00  0.35174371016E+03  0.15622759745E+04  0.15221637832E+04 0.  0.
        2    1    3    3  502    0 -0.93431673810E+02  0.72565405333E+03 -0.39276521092E+02  0.73269770568E+03  0.25500000920E-02 0. -1.
       -2    1    3    3    0  502  0.93431673810E+02 -0.72565405333E+03  0.39102023125E+03  0.82957826878E+03  0.25500000920E-02 0.  1.
</event>
<event>
 5   0  0.5606965E-04  0.1451240E+04  0.7818609E-02  0.8917541E-01
       -1   -1    0    0    0  501  0.00000000000E+00  0.00000000000E+00  0.61748760622E+03  0.61748760624E+03  0.50400001928E-02 0. -1.
        1   -1    0    0  501    0  0.00000000000E+00  0.00000000000E+00 -0.85268857433E+03  0.85268857435E+03  0.50400001928E-02 0.  1.
    10030    2    1    2    0    0  0.00000000000E+00  0.00000000000E+00 -0.23520096811E+03  0.14701761806E+04  0.14512403338E+04 0.  0.
        4    1    3    3  502    0 -0.39436265558E+03 -0.40644721988E+03 -0.57717357494E+03  0.80861127569E+03  0.12699999809E+01 0.  1.
       -4    1    3    3    0  502  0.39436265558E+03  0.40644721988E+03  0.34197260684E+03  0.66156490490E+03  0.12699999809E+01 0. -1.
</event>
<event>
 5   0  0.1082667E-03  0.1505132E+04  0.7818609E-02  0.8881047E-01
       -2   -1    0    0    0  501  0.00000000000E+00  0.00000000000E+00  0.66579317772E+03  0.66579317773E+03  0.25500000920E-02 0. -1.
        2   -1    0    0  501    0  0.00000000000E+00  0.00000000000E+00 -0.85064786317E+03  0.85064786317E+03  0.25500000920E-02 0.  1.
    10030    2    1    2    0    0  0.00000000000E+00  0.00000000000E+00 -0.18485468545E+03  0.15164410409E+04  0.15051319463E+04 0.  0.
        5    1    3    3  502    0 -0.26387438064E+03  0.98729507222E+02 -0.79549307038E+03  0.84392447492E+03  0.46999998093E+01 0.  1.
       -5    1    3    3    0  502  0.26387438064E+03 -0.98729507222E+02  0.61063838493E+03  0.67251656597E+03  0.46999998093E+01 0. -1.
</event>
<event>
 5   0  0.5914645E-04  0.1504446E+04  0.7818609E-02  0.8881502E-01
       -1   -1    0    0    0  501  0.00000000000E+00  0.00000000000E+00  0.43708749704E+03  0.43708749707E+03  0.50400001928E-02 0.  1.
        1   -1    0    0  501    0  0.00000000000E+00  0.00000000000E+00 -0.12945677513E+04  0.12945677513E+04  0.50400001928E-02 0. -1.
    10030    2    1    2    0    0  0.00000000000E+00  0.00000000000E+00 -0.85748025426E+03  0.17316552484E+04  0.15044459155E+04 0.  0.
        2    1    3    3  502    0 -0.41364049353E+03 -0.13791888830E+03  0.27679169447E+03  0.51646269930E+03  0.25500000920E-02 0.  1.
       -2    1    3    3    0  502  0.41364049353E+03  0.13791888830E+03 -0.11342719487E+04  0.12151925491E+04  0.25500000920E-02 0. -1.
</event>
<event>
 5   0  0.5924403E-04  0.1215927E+04  0.7818609E-02  0.9099028E-01
        1   -1    0    0  501    0  0.00000000000E+00  0.00000000000E+00  0.10178372340E+04  0.10178372340E+04  0.50400001928E-02 0.  1.
       -1   -1    0    0    0  501  0.00000000000E+00  0.00000000000E+00 -0.36314239329E+03  0.36314239332E+03  0.50400001928E-02 0. -1.
    10030    2    1    2    0    0  0.00000000000E+00  0.00000000000E+00  0.65469484067E+03  0.13809796273E+04  0.12159273813E+04 0.  0.
        1    1    3    3  502    0  0.35553604019E+03  0.62364215535E+02  0.88296166930E+03  0.95389542443E+03  0.50400001928E-02 0.  1.
       -1    1    3    3    0  502 -0.35553604019E+03 -0.62364215535E+02 -0.22826682863E+03  0.42708420286E+03  0.50400001928E-02 0. -1.
</event>
<event>
 5   0  0.6146552E-04  0.1514613E+04  0.7818609E-02  0.8874793E-01
        1   -1    0    0  501    0  0.00000000000E+00  0.00000000000E+00  0.11104223587E+04  0.11104223587E+04  0.50400001928E-02 0.  1.
       -1   -1    0    0    0  501  0.00000000000E+00  0.00000000000E+00 -0.51648173129E+03  0.51648173132E+03  0.50400001928E-02 0. -1.
    10030    2    1    2    0    0  0.00000000000E+00  0.00000000000E+00  0.59394062737E+03  0.16269040900E+04  0.15146126400E+04 0.  0.
        5    1    3    3  502    0  0.39183905206E+03 -0.47534279506E+03 -0.17614134811E+03  0.64073120733E+03  0.46999998093E+01 0. -1.
       -5    1    3    3    0  502 -0.39183905206E+03  0.47534279506E+03  0.77008197547E+03  0.98617288265E+03  0.46999998093E+01 0.  1.
</event>
<event>
 5   0  0.5606965E-04  0.1497136E+04  0.7818609E-02  0.8886360E-01
        1   -1    0    0  501    0  0.00000000000E+00  0.00000000000E+00  0.81428280876E+03  0.81428280878E+03  0.50400001928E-02 0.  1.
       -1   -1    0    0    0  501  0.00000000000E+00  0.00000000000E+00 -0.68815642158E+03  0.68815642160E+03  0.50400001928E-02 0. -1.
    10030    2    1    2    0    0  0.00000000000E+00  0.00000000000E+00  0.12612638718E+03  0.15024392304E+04  0.14971358574E+04 0.  0.
        4    1    3    3  502    0 -0.42630848031E+03 -0.48506467477E+03  0.44298803950E+03  0.78311344973E+03  0.12699999809E+01 0.  1.
       -4    1    3    3    0  502  0.42630848031E+03  0.48506467477E+03 -0.31686165232E+03  0.71932578065E+03  0.12699999809E+01 0. -1.
</event>
<event>
 5   0  0.1149716E-03  0.1559816E+04  0.7818609E-02  0.8845622E-01
       -2   -1    0    0    0  501  0.00000000000E+00  0.00000000000E+00  0.32535423255E+03  0.32535423256E+03  0.25500000920E-02 0. -1.
        2   -1    0    0  501    0  0.00000000000E+00  0.00000000000E+00 -0.18695200681E+04  0.18695200681E+04  0.25500000920E-02 0.  1.
    10030    2    1    2    0    0  0.00000000000E+00  0.00000000000E+00 -0.15441658355E+04  0.21948743007E+04  0.15598157160E+04 0.  0.
        1    1    3    3  502    0 -0.54056471760E+03 -0.15468646120E+03 -0.11554171978E+02  0.56238031092E+03  0.50400001928E-02 0. -1.
       -1    1    3    3    0  502  0.54056471760E+03  0.15468646120E+03 -0.15326116636E+04  0.16324939897E+04  0.50400001928E-02 0.  1.
</event>
<event>
 5   0  0.5924403E-04  0.1494942E+04  0.7818609E-02  0.8887823E-01
        1   -1    0    0  501    0  0.00000000000E+00  0.00000000000E+00  0.91800165558E+03  0.91800165560E+03  0.50400001928E-02 0. -1.
       -1   -1    0    0    0  501  0.00000000000E+00  0.00000000000E+00 -0.60861897878E+03  0.60861897880E+03  0.50400001928E-02 0.  1.
    10030    2    1    2    0    0  0.00000000000E+00  0.00000000000E+00  0.30938267680E+03  0.15266206344E+04  0.14949424473E+04 0.  0.
        1    1    3    3  502    0 -0.81071739950E+01  0.32656812915E+03  0.84124776653E+03  0.90244682612E+03  0.50400001928E-02 0. -1.
       -1    1    3    3    0  502  0.81071739950E+01 -0.32656812915E+03 -0.53186508973E+03  0.62417380829E+03  0.50400001928E-02 0.  1.
</event>
<event>
 5   0  0.1126175E-03  0.1516875E+04  0.7818609E-02  0.8873308E-01
       -2   -1    0    0    0  501  0.00000000000E+00  0.00000000000E+00  0.50649433871E+03  0.50649433871E+03  0.25500000920E-02 0. -1.
        2   -1    0    0  501    0  0.00000000000E+00  0.00000000000E+00 -0.11357032378E+04  0.11357032378E+04  0.25500000920E-02 0.  1.
    10030    2    1    2    0    0  0.00000000000E+00  0.00000000000E+00 -0.62920889914E+03  0.16421975766E+04  0.15168747614E+04 0.  0.
        3    1    3    3  502    0  0.48997533645E+03 -0.49355449162E+02 -0.93907530154E+03  0.10603651366E+04  0.10100000352E+00 0.  1.
       -3    1    3    3    0  502 -0.48997533645E+03  0.49355449162E+02  0.30986640240E+03  0.58183243999E+03  0.10100000352E+00 0. -1.
</event>
<event>
 5   0  0.1126175E-03  0.1419238E+04  0.7818609E-02  0.8940010E-01
       -2   -1    0    0    0  501  0.00000000000E+00  0.00000000000E+00  0.64540308626E+03  0.64540308627E+03  0.25500000920E-02 0. -1.
        2   -1    0    0  501    0  0.00000000000E+00  0.00000000000E+00 -0.78022399671E+03  0.78022399671E+03  0.25500000920E-02 0.  1.
    10030    2    1    2    0    0  0.00000000000E+00  0.00000000000E+00 -0.13482091044E+03  0.14256270830E+04  0.14192377890E+04 0.  0.
        3    1    3    3  502    0 -0.15234865192E+03 -0.68860669070E+03  0.11490462851E+02  0.70535191724E+03  0.10100000352E+00 0. -1.
       -3    1    3    3    0  502  0.15234865192E+03  0.68860669070E+03 -0.14631137329E+03  0.72027516574E+03  0.10100000352E+00 0.  1.
</event>
<event>
 5   0  0.1149716E-03  0.1503013E+04  0.7818609E-02  0.8882452E-01
        2   -1    0    0  501    0  0.00000000000E+00  0.00000000000E+00  0.11613721025E+04  0.11613721025E+04  0.25500000920E-02 0. -1.
       -2   -1    0    0    0  501  0.00000000000E+00  0.00000000000E+00 -0.48628848589E+03  0.48628848589E+03  0.25500000920E-02 0.  1.
    10030    2    1    2    0    0  0.00000000000E+00  0.00000000000E+00  0.67508361664E+03  0.16476605884E+04  0.15030128160E+04 0.  0.
        1    1    3    3  502    0 -0.78894278472E+02 -0.47405829736E+03  0.97090429557E+03  0.10833331564E+04  0.50400001928E-02 0. -1.
       -1    1    3    3    0  502  0.78894278472E+02  0.47405829736E+03 -0.29582067893E+03  0.56432743207E+03  0.50400001928E-02 0.  1.
</event>
<event>
 5   0  0.1082667E-03  0.1471577E+04  0.7818609E-02  0.8903577E-01
       -2   -1    0    0    0  501  0.00000000000E+00  0.00000000000E+00  0.33806476495E+03  0.33806476496E+03  0.25500000920E-02 0.  1.
        2   -1    0    0  501    0  0.00000000000E+00  0.00000000000E+00 -0.16014224982E+04  0.16014224982E+04  0.25500000920E-02 0. -1.
    10030    2    1    2    0    0  0.00000000000E+00  0.00000000000E+00 -0.12633577332E+04  0.19394872631E+04  0.14715767332E+04 0.  0.
        5    1    3    3  502    0  0.36800558366E+03 -0.16555008970E+03 -0.14425516633E+04  0.14979360244E+04  0.46999998093E+01 0. -1.
       -5    1    3    3    0  502 -0.36800558366E+03  0.16555008970E+03  0.17919393014E+03  0.44155123870E+03  0.46999998093E+01 0.  1.
</event>
<event>
 5   0  0.6146552E-04  0.1524769E+04  0.7818609E-02  0.8868147E-01
       -1   -1    0    0    0  501  0.00000000000E+00  0.00000000000E+00  0.59765813783E+03  0.59765813785E+03  0.50400001928E-02 0.  1.
        1   -1    0    0  501    0  0.00000000000E+00  0.00000000000E+00 -0.97251282799E+03  0.97251282800E+03  0.50400001928E-02 0. -1.
    10030    2    1    2    0    0  0.00000000000E+00  0.00000000000E+00 -0.37485469016E+03  0.15701709659E+04  0.15247691049E+04 0.  0.
        5    1    3    3  502    0  0.43035110163E+03  0.53710590577E+03  0.15024394215E+03  0.70447154438E+03  0.46999998093E+01 0.  1.
       -5    1    3    3    0  502 -0.43035110163E+03 -0.53710590577E+03 -0.52509863232E+03  0.86569942148E+03  0.46999998093E+01 0. -1.
</event>
<event>
 5   0  0.1126175E-03  0.1483917E+04  0.7818609E-02  0.8895219E-01
        2   -1    0    0  501    0  0.00000000000E+00  0.00000000000E+00  0.10865703097E+04  0.10865703097E+04  0.25500000920E-02 0.  1.
       -2   -1    0    0    0  501  0.00000000000E+00  0.00000000000E+00 -0.50664220883E+03  0.50664220884E+03  0.25500000920E-02 0. -1.
    10030    2    1    2    0    0  0.00000000000E+00  0.00000000000E+00  0.57992810087E+03  0.15932125185E+04  0.14839169542E+04 0.  0.
        3    1    3    3  502    0  0.47665418276E+03  0.11726128792E+03  0.88731779208E+03  0.10140425504E+04  0.10100000352E+00 0.  1.
       -3    1    3    3    0  502 -0.47665418276E+03 -0.11726128792E+03 -0.30738969121E+03  0.57916996819E+03  0.10100000352E+00 0. -1.
</event>
<event>
 5   0  0.5606965E-04  0.1501092E+04  0.7818609E-02  0.8883727E-01
       -1   -1    0    0    0  501  0.00000000000E+00  0.00000000000E+00  0.12206712283E+04  0.12206712283E+04  0.50400001928E-02 0. -1.
        1   -1    0    0  501    0  0.00000000000E+00  0.00000000000E+00 -0.46148340741E+03  0.46148340743E+03  0.50400001928E-02 0.  1.
    10030    2    1    2    0    0  0.00000000000E+00  0.00000000000E+00  0.75918782090E+03  0.16821546358E+04  0.15010922927E+04 0.  0.
        4    1    3    3  502    0  0.58732775404E+03  0.24163976350E+03  0.82780598093E+03  0.10433638009E+04  0.12699999809E+01 0. -1.
       -4    1    3    3    0  502 -0.58732775404E+03 -0.24163976350E+03 -0.68618160027E+02  0.63879083490E+03  0.12699999809E+01 0.  1.
</event>
<event>
 5   0  0.5924403E-04  0.1484538E+04  0.7818609E-02  0.8894801E-01
       -1   -1    0    0    0  501  0.00000000000E+00  0.00000000000E+00  0.76282908311E+03  0.76282908313E+03  0.50400001928E-02 0. -1.
        1   -1    0    0  501    0  0.00000000000E+00  0.00000000000E+00 -0.72226286035E+03  0.72226286037E+03  0.50400001928E-02 0.  1.
    10030    2    1    2    0    0  0.00000000000E+00  0.00000000000E+00  0.40566222761E+02  0.14850919435E+04  0.14845377941E+04 0.  0.
        1    1    3    3  502    0  0.31707048946E+03  0.45249494933E+03 -0.47556080442E+03  0.72900168257E+03  0.50400001928E-02 0.  1.
       -1    1    3    3    0  502 -0.31707048946E+03 -0.45249494933E+03  0.51612702718E+03  0.75609026093E+03  0.50400001928E-02 0. -1.
</event>
<event>
 5   0  0.5840834E-04  0.1514530E+04  0.7818609E-02  0.8874848E-01
       -1   -1    0    0    0  501  0.00000000000E+00  0.00000000000E+00  0.41870985858E+03  0.41870985861E+03  0.50400001928E-02 0. -1.
        1   -1    0    0  501    0  0.00000000000E+00  0.00000000000E+00 -0.13695644813E+04  0.13695644813E+04  0.50400001928E-02 0.  1.
    10030    2    1    2    0    0  0.00000000000E+00  0.00000000000E+00 -0.95085462276E+03  0.17882743400E+04  0.15145298285E+04 0.  0.
        3    1    3    3  502    0 -0.13890813126E+03 -0.54697046790E+03  0.12079421293E+03  0.57711646464E+03  0.10100000352E+00 0. -1.
       -3    1    3    3    0  502  0.13890813126E+03  0.54697046790E+03 -0.10716488357E+04  0.12111578753E+04  0.10100000352E+00 0.  1.
</event>
<event>
 5   0  0.5840834E-04  0.1501584E+04  0.7818609E-02  0.8883400E-01
       -1   -1    0    0    0  501  0.00000000000E+00  0.00000000000E+00  0.41069945033E+03  0.41069945037E+03  0.50400001928E-02 0.  1.
        1   -1    0    0  501    0  0.00000000000E+00  0.00000000000E+00 -0.13725095790E+04  0.13725095790E+04  0.50400001928E-02 0. -1.
    10030    2    1    2    0    0  0.00000000000E+00  0.00000000000E+00 -0.96181012866E+03  0.17832090294E+04  0.15015844028E+04 0.  0.
        3    1    3    3  502    0 -0.41649542879E+03 -0.44257856248E+03 -0.10044317806E+04  0.11739793177E+04  0.10100000352E+00 0. -1.
       -3    1    3    3    0  502  0.41649542879E+03  0.44257856248E+03  0.42621651989E+02  0.60922971168E+03  0.10100000352E+00 0.  1.
</event>
<event>
 5   0  0.1097156E-03  0.1495194E+04  0.7818609E-02  0.8887655E-01
        2   -1    0    0  501    0  0.00000000000E+00  0.00000000000E+00  0.85068043414E+03  0.85068043415E+03  0.25500000920E-02 0. -1.
       -2   -1    0    0    0  501  0.00000000000E+00  0.00000000000E+00 -0.65700497704E+03  0.65700497704E+03  0.25500000920E-02 0.  1.
    10030    2    1    2    0    0  0.00000000000E+00  0.00000000000E+00  0.19367545710E+03  0.15076854112E+04  0.14951940063E+04 0.  0.
        2    1    3    3  502    0  0.57584518117E+03 -0.42366673221E+03  0.31731967808E+03  0.78216555202E+03  0.25500000920E-02 0. -1.
       -2    1    3    3    0  502 -0.57584518117E+03  0.42366673221E+03 -0.12364422098E+03  0.72551985917E+03  0.25500000920E-02 0.  1.
</event>
<event>
 5   0  0.6146552E-04  0.1530603E+04  0.7818609E-02  0.8864353E-01
        1   -1    0    0  501    0  0.00000000000E+00  0.00000000000E+00  0.13936954639E+04  0.13936954639E+04  0.50400001928E-02 0.  1.
       -1   -1    0    0    0  501  0.00000000000E+00  0.00000000000E+00 -0.42024004296E+03  0.42024004299E+03  0.50400001928E-02 0. -1.
    10030    2    1    2    0    0  0.00000000000E+00  0.00000000000E+00  0.97345542095E+03  0.18139355069E+04  0.15306033342E+04 0.  0.
        5    1    3    3  502    0 -0.19380580627E+03 -0.14038416911E+03 -0.37474000756E+03  0.44465781085E+03  0.46999998093E+01 0. -1.
       -5    1    3    3    0  502  0.19380580627E+03  0.14038416911E+03  0.13481954285E+04  0.13692776961E+04  0.46999998093E+01 0.  1.
</event>
<event>
 5   0  0.1082667E-03  0.1391627E+04  0.7818609E-02  0.8959901E-01
        2   -1    0    0  501    0  0.00000000000E+00  0.00000000000E+00  0.97398062881E+03  0.97398062881E+03  0.25500000920E-02 0.  1.
       -2   -1    0    0    0  501  0.00000000000E+00  0.00000000000E+00 -0.49709067568E+03  0.49709067569E+03  0.25500000920E-02 0. -1.
    10030    2    1    2    0    0  0.00000000000E+00  0.00000000000E+00  0.47688995313E+03  0.14710713045E+04  0.13916273767E+04 0.  0.
        5    1    3    3  502    0  0.43384748399E+03  0.99536289447E+02  0.80376767588E+03  0.91880121848E+03  0.46999998093E+01 0.  1.
       -5    1    3    3    0  502 -0.43384748399E+03 -0.99536289447E+02 -0.32687772275E+03  0.55227008602E+03  0.46999998093E+01 0. -1.
</event>
<event>
 5   0  0.5914645E-04  0.1515880E+04  0.7818609E-02  0.8873961E-01
       -1   -1    0    0    0  501  0.00000000000E+00  0.00000000000E+00  0.36609629221E+03  0.36609629224E+03  0.50400001928E-02 0.  1.
        1   -1    0    0  501    0  0.00000000000E+00  0.00000000000E+00 -0.15691858081E+04  0.15691858081E+04  0.50400001928E-02 0. -1.
    10030    2    1    2    0    0  0.00000000000E+00  0.00000000000E+00 -0.12030895159E+04  0.19352821003E+04  0.15158800825E+04 0.  0.
        2    1    3    3  502    0  0.24365411307E+03  0.71013499332E+03 -0.73430683347E+03  0.10501740624E+04  0.25500000920E-02 0. -1.
       -2    1    3    3    0  502 -0.24365411307E+03 -0.71013499332E+03 -0.46878268239E+03  0.88510803797E+03  0.25500000920E-02 0.  1.
</event>
<event>
 5   0  0.5914645E-04  0.1503967E+04  0.7818609E-02  0.8881819E-01
       -1   -1    0    0    0  501  0.00000000000E+00  0.00000000000E+00  0.31581928276E+03  0.31581928280E+03  0.50400001928E-02 0.  1.
        1   -1    0    0  501    0  0.00000000000E+00  0.00000000000E+00 -0.17905145720E+04  0.17905145720E+04  0.50400001928E-02 0. -1.
    10030    2    1    2    0    0  0.00000000000E+00  0.00000000000E+00 -0.14746952892E+04  0.21063338548E+04  0.15039667921E+04 0.  0.
        2    1    3    3  502    0  0.60865332014E+03  0.97992448235E+02 -0.13404131530E+04  0.14753876795E+04  0.25500000920E-02 0. -1.
       -2    1    3    3    0  502 -0.60865332014E+03 -0.97992448235E+02 -0.13428213624E+03  0.63094617532E+03  0.25500000920E-02 0.  1.
</event>
<event>
 5   0  0.5924403E-04  0.1498553E+04  0.7818609E-02  0.8885416E-01
        1   -1    0    0  501    0  0.00000000000E+00  0.00000000000E+00  0.42890777310E+03  0.42890777313E+03  0.50400001928E-02 0.  1.
       -1   -1    0    0    0  501  0.00000000000E+00  0.00000000000E+00 -0.13089409572E+04  0.13089409572E+04  0.50400001928E-02 0. -1.
    10030    2    1    2    0    0  0.00000000000E+00  0.00000000000E+00 -0.88003318410E+03  0.17378487303E+04  0.14985525698E+04 0.  0.
        1    1    3    3  502    0  0.82592711983E+02  0.19175268084E+03  0.39449275112E+03  0.44633527464E+03  0.50400001928E-02 0.  1.
       -1    1    3    3    0  502 -0.82592711983E+02 -0.19175268084E+03 -0.12745259352E+04  0.12915134557E+04  0.50400001928E-02 0. -1.
</event>
<event>
 5   0  0.5914645E-04  0.1503771E+04  0.7818609E-02  0.8881949E-01
       -1   -1    0    0    0  501  0.00000000000E+00  0.00000000000E+00  0.43302288581E+03  0.43302288584E+03  0.50400001928E-02 0.  1.
        1   -1    0    0  501    0  0.00000000000E+00  0.00000000000E+00 -0.13055467760E+04  0.13055467760E+04  0.50400001928E-02 0. -1.
    10030    2    1    2    0    0  0.00000000000E+00  0.00000000000E+00 -0.87252389015E+03  0.17385696618E+04  0.15037707704E+04 0.  0.
        2    1    3    3  502    0 -0.49937813378E+03 -0.17922796438E+03 -0.10522041308E+04  0.11784034609E+04  0.25500000920E-02 0. -1.
       -2    1    3    3    0  502  0.49937813378E+03  0.17922796438E+03  0.17968024069E+03  0.56016620089E+03  0.25500000920E-02 0.  1.
</event>
<event>
 5   0  0.1149716E-03  0.1525949E+04  0.7818609E-02  0.8867378E-01
        2   -1    0    0  501    0  0.00000000000E+00  0.00000000000E+00  0.48816665351E+03  0.48816665352E+03  0.25500000920E-02 0.  1.
       -2   -1    0    0    0  501  0.00000000000E+00  0.00000000000E+00 -0.11924829065E+04  0.11924829065E+04  0.25500000920E-02 0. -1.
    10030    2    1    2    0    0  0.00000000000E+00  0.00000000000E+00 -0.70431625300E+03  0.16806495600E+04  0.15259493961E+04 0.  0.
        1    1    3    3  502    0  0.47368321395E+03 -0.53101913183E+03 -0.48981936998E+02  0.71327157221E+03  0.50400001928E-02 0.  1.
       -1    1    3    3    0  502 -0.47368321395E+03  0.53101913183E+03 -0.65533431601E+03  0.96737798782E+03  0.50400001928E-02 0. -1.
</event>
<event>
 5   0  0.1149716E-03  0.1502631E+04  0.7818609E-02  0.8882705E-01
       -2   -1    0    0    0  501  0.00000000000E+00  0.00000000000E+00  0.45869328237E+03  0.45869328238E+03  0.25500000920E-02 0.  1.
        2   -1    0    0  501    0  0.00000000000E+00  0.00000000000E+00 -0.12306147266E+04  0.12306147266E+04  0.25500000920E-02 0. -1.
    10030    2    1    2    0    0  0.00000000000E+00  0.00000000000E+00 -0.77192144421E+03  0.16893080090E+04  0.15026306376E+04 0.  0.
        1    1    3    3  502    0 -0.59966807629E+03 -0.41081536932E+03 -0.17234555286E+03  0.74704354560E+03  0.50400001928E-02 0.  1.
       -1    1    3    3    0  502  0.59966807629E+03  0.41081536932E+03 -0.59957589134E+03  0.94226446336E+03  0.50400001928E-02 0. -1.
</event>
<event>
 5   0  0.4070625E-04  0.1457691E+04  0.7818609E-02  0.8913086E-01
        3   -1    0    0  501    0  0.00000000000E+00  0.00000000000E+00  0.36288798562E+03  0.36288799967E+03  0.10100000352E+00 0.  1.
       -3   -1    0    0    0  501  0.00000000000E+00  0.00000000000E+00 -0.14638555248E+04  0.14638555283E+04  0.10100000352E+00 0. -1.
    10030    2    1    2    0    0  0.00000000000E+00  0.00000000000E+00 -0.11009675392E+04  0.18267435280E+04  0.14576907747E+04 0.  0.
        5    1    3    3  502    0  0.90046422907E+02 -0.63172082928E+03 -0.10917004673E+03  0.64739458873E+03  0.46999998093E+01 0.  1.
       -5    1    3    3    0  502 -0.90046422907E+02  0.63172082928E+03 -0.99179749249E+03  0.11793489393E+04  0.46999998093E+01 0. -1.
</event>
<event>
 5   0  0.5606965E-04  0.1499359E+04  0.7818609E-02  0.8884879E-01
        1   -1    0    0  501    0  0.00000000000E+00  0.00000000000E+00  0.18529451713E+04  0.18529451713E+04  0.50400001928E-02 0.  1.
       -1   -1    0    0    0  501  0.00000000000E+00  0.00000000000E+00 -0.30331133508E+03  0.30331133512E+03  0.50400001928E-02 0. -1.
    10030    2    1    2    0    0  0.00000000000E+00  0.00000000000E+00  0.15496338363E+04  0.21562565065E+04  0.14993588947E+04 0.  0.
        4    1    3    3  502    0 -0.44113843531E+03 -0.30880962227E+03  0.15249185542E+04  0.16172027429E+04  0.12699999809E+01 0.  1.
       -4    1    3    3    0  502  0.44113843531E+03  0.30880962227E+03  0.24715282066E+02  0.53905376354E+03  0.12699999809E+01 0. -1.
</event>
<event>
 5   0  0.1082667E-03  0.1483369E+04  0.7818609E-02  0.8895589E-01
       -2   -1    0    0    0  501  0.00000000000E+00  0.00000000000E+00  0.35736761927E+03  0.35736761928E+03  0.25500000920E-02 0. -1.
        2   -1    0    0  501    0  0.00000000000E+00  0.00000000000E+00 -0.15392987960E+04  0.15392987960E+04  0.25500000920E-02 0.  1.
    10030    2    1    2    0    0  0.00000000000E+00  0.00000000000E+00 -0.11819311767E+04  0.18966664153E+04  0.14833685261E+04 0.  0.
        5    1    3    3  502    0  0.71442010172E+03  0.19543854350E+02 -0.33750361139E+03  0.79038523625E+03  0.46999998093E+01 0.  1.
       -5    1    3    3    0  502 -0.71442010172E+03 -0.19543854350E+02 -0.84442756535E+03  0.11062811790E+04  0.46999998093E+01 0. -1.
</event>
<event>
 5   0  0.6146552E-04  0.1473399E+04  0.7818609E-02  0.8902337E-01
        1   -1    0    0  501    0  0.00000000000E+00  0.00000000000E+00  0.41105942273E+03  0.41105942276E+03  0.50400001928E-02 0. -1.
       -1   -1    0    0    0  501  0.00000000000E+00  0.00000000000E+00 -0.13203111257E+04  0.13203111257E+04  0.50400001928E-02 0.  1.
    10030    2    1    2    0    0  0.00000000000E+00  0.00000000000E+00 -0.90925170301E+03  0.17313705485E+04  0.14733992388E+04 0.  0.
        5    1    3    3  502    0  0.25450988778E+03  0.37408043909E+03 -0.11377872155E+04  0.12244563266E+04  0.46999998093E+01 0.  1.
       -5    1    3    3    0  502 -0.25450988778E+03 -0.37408043909E+03  0.22853551254E+03  0.50691422191E+03  0.46999998093E+01 0. -1.
</event>
<event>
 5   0  0.5914645E-04  0.1412537E+04  0.7818609E-02  0.8944793E-01
       -1   -1    0    0    0  501  0.00000000000E+00  0.00000000000E+00  0.29352187140E+03  0.29352187145E+03  0.50400001928E-02 0.  1.
        1   -1    0    0  501    0  0.00000000000E+00  0.00000000000E+00 -0.16994152409E+04  0.16994152409E+04  0.50400001928E-02 0. -1.
    10030    2    1    2    0    0  0.00000000000E+00  0.00000000000E+00 -0.14058933695E+04  0.19929371123E+04  0.14125374924E+04 0.  0.
        2    1    3    3  502    0  0.51780645916E+03 -0.35387139043E+03 -0.24474992508E+03  0.67323919668E+03  0.25500000920E-02 0.  1.
       -2    1    3    3    0  502 -0.51780645916E+03  0.35387139043E+03 -0.11611434444E+04  0.13196979156E+04  0.25500000920E-02 0. -1.
</event>
<event>
 5   0  0.1082667E-03  0.1509223E+04  0.7818609E-02  0.8878343E-01
        2   -1    0    0  501    0  0.00000000000E+00  0.00000000000E+00  0.98035287931E+03  0.98035287931E+03  0.25500000920E-02 0. -1.
       -2   -1    0    0    0  501  0.00000000000E+00  0.00000000000E+00 -0.58085040720E+03  0.58085040721E+03  0.25500000920E-02 0.  1.
    10030    2    1    2    0    0  0.00000000000E+00  0.00000000000E+00  0.39950247211E+03  0.15612032865E+04  0.15092228055E+04 0.  0.
        5    1    3    3  502    0 -0.45031559618E+03 -0.28777184233E+03  0.75084718748E+03  0.92162376182E+03  0.46999998093E+01 0. -1.
       -5    1    3    3    0  502  0.45031559618E+03  0.28777184233E+03 -0.35134471537E+03  0.63957952470E+03  0.46999998093E+01 0.  1.
</event>
<event>
 5   0  0.1149716E-03  0.1503958E+04  0.7818609E-02  0.8881825E-01
       -2   -1    0    0    0  501  0.00000000000E+00  0.00000000000E+00  0.10061288711E+04  0.10061288711E+04  0.25500000920E-02 0. -1.
        2   -1    0    0  501    0  0.00000000000E+00  0.00000000000E+00 -0.56202751774E+03  0.56202751775E+03  0.25500000920E-02 0.  1.
    10030    2    1    2    0    0  0.00000000000E+00  0.00000000000E+00  0.44410135335E+03  0.15681563888E+04  0.15039575951E+04 0.  0.
        1    1    3    3  502    0 -0.33112446257E+03 -0.53740685055E+03  0.64817995389E+03  0.90475786009E+03  0.50400001928E-02 0. -1.
       -1    1    3    3    0  502  0.33112446257E+03  0.53740685055E+03 -0.20407860054E+03  0.66339852876E+03  0.50400001928E-02 0.  1.
</event>
<event>
 5   0  0.5606965E-04  0.1492866E+04  0.7818609E-02  0.8889211E-01
       -1   -1    0    0    0  501  0.00000000000E+00  0.00000000000E+00  0.17096478074E+04  0.17096478074E+04  0.50400001928E-02 0.  1.
        1   -1    0    0  501    0  0.00000000000E+00  0.00000000000E+00 -0.32589276461E+03  0.32589276465E+03  0.50400001928E-02 0. -1.
    10030    2    1    2    0    0  0.00000000000E+00  0.00000000000E+00  0.13837550428E+04  0.20355405721E+04  0.14928655003E+04 0.  0.
        4    1    3    3  502    0  0.42208260210E+03  0.39245117618E+03  0.13386318251E+04  0.14574321338E+04  0.12699999809E+01 0.  1.
       -4    1    3    3    0  502 -0.42208260210E+03 -0.39245117618E+03  0.45123217709E+02  0.57810843824E+03  0.12699999809E+01 0. -1.
</event>
<event>
 5   0  0.4070625E-04  0.1494546E+04  0.7818609E-02  0.8888088E-01
        3   -1    0    0  501    0  0.00000000000E+00  0.00000000000E+00  0.70664090084E+03  0.70664090805E+03  0.10100000352E+00 0. -1.
       -3   -1    0    0    0  501  0.00000000000E+00  0.00000000000E+00 -0.79024114812E+03  0.79024115457E+03  0.10100000352E+00 0.  1.
    10030    2    1    2    0    0  0.00000000000E+00  0.00000000000E+00 -0.83600247281E+02  0.14968820626E+04  0.14945457196E+04 0.  0.
        2    1    3    3  502    0  0.26173851514E+03 -0.48364580651E+03  0.46495169628E+03  0.72013915068E+03  0.25500000920E-02 0. -1.
       -2    1    3    3    0  502 -0.26173851514E+03  0.48364580651E+03 -0.54855194356E+03  0.77674291194E+03  0.25500000920E-02 0.  1.
</event>
<event>
 5   0  0.5840834E-04  0.1476889E+04  0.7818609E-02  0.8899968E-01
        1   -1    0    0  501    0  0.00000000000E+00  0.00000000000E+00  0.75412747833E+03  0.75412747834E+03  0.50400001928E-02 0. -1.
       -1   -1    0    0    0  501  0.00000000000E+00  0.00000000000E+00 -0.72308805941E+03  0.72308805943E+03  0.50400001928E-02 0.  1.
    10030    2    1    2    0    0  0.00000000000E+00  0.00000000000E+00  0.31039418917E+02  0.14772155378E+04  0.14768893999E+04 0.  0.
        3    1    3    3  502    0 -0.55656844817E+03  0.24224195618E+02 -0.46929890795E+03  0.72842070560E+03  0.10100000352E+00 0.  1.
       -3    1    3    3    0  502  0.55656844817E+03 -0.24224195618E+02  0.50033832686E+03  0.74879483217E+03  0.10100000352E+00 0. -1.
</event>
<event>
 5   0  0.5840834E-04  0.1524353E+04  0.7818609E-02  0.8868418E-01
       -1   -1    0    0    0  501  0.00000000000E+00  0.00000000000E+00  0.68532369336E+03  0.68532369337E+03  0.50400001928E-02 0. -1.
        1   -1    0    0  501    0  0.00000000000E+00  0.00000000000E+00 -0.84764758676E+03  0.84764758677E+03  0.50400001928E-02 0.  1.
    10030    2    1    2    0    0  0.00000000000E+00  0.00000000000E+00 -0.16232389340E+03  0.15329712801E+04  0.15243529445E+04 0.  0.
        3    1    3    3  502    0  0.29570310852E+03 -0.51201346285E+03  0.40250926851E+03  0.71527046351E+03  0.10100000352E+00 0. -1.
       -3    1    3    3    0  502 -0.29570310852E+03  0.51201346285E+03 -0.56483316191E+03  0.81770081664E+03  0.10100000352E+00 0.  1.
</event>
<event>
 5   0  0.6146552E-04  0.1497828E+04  0.7818609E-02  0.8885898E-01
        1   -1    0    0  501    0  0.00000000000E+00  0.00000000000E+00  0.10923904568E+04  0.10923904568E+04  0.50400001928E-02 0. -1.
       -1   -1    0    0    0  501  0.00000000000E+00  0.00000000000E+00 -0.51343595879E+03  0.51343595881E+03  0.50400001928E-02 0.  1.
    10030    2    1    2    0    0  0.00000000000E+00  0.00000000000E+00  0.57895449797E+03  0.16058264156E+04  0.14978284836E+04 0.  0.
        5    1    3    3  502    0 -0.73988851778E+03  0.10947836348E+03  0.24893643192E+03  0.78829687805E+03  0.46999998093E+01 0.  1.
       -5    1    3    3    0  502  0.73988851778E+03 -0.10947836348E+03  0.33001806606E+03  0.81752953753E+03  0.46999998093E+01 0. -1.
</event>
<event>
 5   0  0.5606965E-04  0.1502768E+04  0.7818609E-02  0.8882614E-01
        1   -1    0    0  501    0  0.00000000000E+00  0.00000000000E+00  0.48530291906E+03  0.48530291908E+03  0.50400001928E-02 0.  1.
       -1   -1    0    0    0  501  0.00000000000E+00  0.00000000000E+00 -0.11633515354E+04  0.11633515354E+04  0.50400001928E-02 0. -1.
    10030    2    1    2    0    0  0.00000000000E+00  0.00000000000E+00 -0.67804861633E+03  0.16486544545E+04  0.15027679742E+04 0.  0.
        4    1    3    3  502    0 -0.48506197753E+03 -0.57357621052E+03 -0.35807345298E+03  0.83216164412E+03  0.12699999809E+01 0. -1.
       -4    1    3    3    0  502  0.48506197753E+03  0.57357621052E+03 -0.31997516334E+03  0.81649281036E+03  0.12699999809E+01 0.  1.
</event>
<event>
 5   0  0.6146552E-04  0.1518705E+04  0.7818609E-02  0.8872109E-01
        1   -1    0    0  501    0  0.00000000000E+00  0.00000000000E+00  0.10134309547E+04  0.10134309547E+04  0.50400001928E-02 0.  1.
       -1   -1    0    0    0  501  0.00000000000E+00  0.00000000000E+00 -0.56897427789E+03  0.56897427791E+03  0.50400001928E-02 0. -1.
    10030    2    1    2    0    0  0.00000000000E+00  0.00000000000E+00  0.44445667681E+03  0.15824052326E+04  0.15187049031E+04 0.  0.
        5    1    3    3  502    0 -0.60108864288E+03 -0.45426104129E+03  0.12374725047E+03  0.76354182743E+03  0.46999998093E+01 0.  1.
       -5    1    3    3    0  502  0.60108864288E+03  0.45426104129E+03  0.32070942634E+03  0.81886340520E+03  0.46999998093E+01 0. -1.
</event>
<event>
 5   0  0.1147755E-03  0.1526739E+04  0.7818609E-02  0.8866864E-01
       -2   -1    0    0    0  501  0.00000000000E+00  0.00000000000E+00  0.22462653221E+04  0.22462653221E+04  0.25500000920E-02 0. -1.
        2   -1    0    0  501    0  0.00000000000E+00  0.00000000000E+00 -0.25942312065E+03  0.25942312066E+03  0.25500000920E-02 0.  1.
    10030    2    1    2    0    0  0.00000000000E+00  0.00000000000E+00  0.19868422015E+04  0.25056884428E+04  0.15267392177E+04 0.  0.
        4    1    3    3  502    0 -0.49887438883E+02 -0.42858185417E+03  0.20269363093E+04  0.20723521846E+04  0.12699999809E+01 0. -1.
       -4    1    3    3    0  502  0.49887438883E+02  0.42858185417E+03 -0.40094107791E+02  0.43333625819E+03  0.12699999809E+01 0.  1.
</event>
<event>
 5   0  0.6146552E-04  0.1518299E+04  0.7818609E-02  0.8872375E-01
        1   -1    0    0  501    0  0.00000000000E+00  0.00000000000E+00  0.13566984670E+04  0.13566984670E+04  0.50400001928E-02 0.  1.
       -1   -1    0    0    0  501  0.00000000000E+00  0.00000000000E+00 -0.42478712840E+03  0.42478712843E+03  0.50400001928E-02 0. -1.
    10030    2    1    2    0    0  0.00000000000E+00  0.00000000000E+00  0.93191133856E+03  0.17814855954E+04  0.15182991088E+04 0.  0.
        5    1    3    3  502    0 -0.26666467835E+03 -0.69556462839E+03  0.63746354957E+03  0.98046013176E+03  0.46999998093E+01 0.  1.
       -5    1    3    3    0  502  0.26666467835E+03  0.69556462839E+03  0.29444778899E+03  0.80102546363E+03  0.46999998093E+01 0. -1.
</event>
<event>
 5   0  0.1126175E-03  0.1644568E+04  0.7818609E-02  0.8793626E-01
        2   -1    0    0  501    0  0.00000000000E+00  0.00000000000E+00  0.17334806848E+04  0.17334806848E+04  0.25500000920E-02 0.  1.
       -2   -1    0    0    0  501  0.00000000000E+00  0.00000000000E+00 -0.39005405201E+03  0.39005405201E+03  0.25500000920E-02 0. -1.
    10030    2    1    2    0    0  0.00000000000E+00  0.00000000000E+00  0.13434266328E+04  0.21235347368E+04  0.16445682293E+04 0.  0.
        3    1    3    3  502    0  0.54547886848E+02 -0.78847139940E+03  0.96471002561E+03  0.12471279258E+04  0.10100000352E+00 0.  1.
       -3    1    3    3    0  502 -0.54547886848E+02  0.78847139940E+03  0.37871660719E+03  0.87640681102E+03  0.10100000352E+00 0. -1.
</event>
<event>
 5   0  0.1082667E-03  0.1545118E+04  0.7818609E-02  0.8854992E-01
       -2   -1    0    0    0  501  0.00000000000E+00  0.00000000000E+00  0.37822198324E+03  0.37822198324E+03  0.25500000920E-02 0. -1.
        2   -1    0    0  501    0  0.00000000000E+00  0.00000000000E+00 -0.15780337290E+04  0.15780337290E+04  0.25500000920E-02 0.  1.
    10030    2    1    2    0    0  0.00000000000E+00  0.00000000000E+00 -0.11998117457E+04  0.19562557122E+04  0.15451175316E+04 0.  0.
        5    1    3    3  502    0 -0.59410796899E+03 -0.37988839412E+02 -0.12232761774E+04  0.13604536475E+04  0.46999998093E+01 0.  1.
       -5    1    3    3    0  502  0.59410796899E+03  0.37988839412E+02  0.23464431718E+02  0.59580206469E+03  0.46999998093E+01 0. -1.
</event>
<event>
 5   0  0.5914645E-04  0.1488759E+04  0.7818609E-02  0.8891963E-01
        1   -1    0    0  501    0  0.00000000000E+00  0.00000000000E+00  0.10165382826E+04  0.10165382826E+04  0.50400001928E-02 0.  1.
       -1   -1    0    0    0  501  0.00000000000E+00  0.00000000000E+00 -0.54508571944E+03  0.54508571946E+03  0.50400001928E-02 0. -1.
    10030    2    1    2    0    0  0.00000000000E+00  0.00000000000E+00  0.47145256317E+03  0.15616240021E+04  0.14887585448E+04 0.  0.
        2    1    3    3  502    0  0.47383081909E+02  0.11676111619E+02  0.10148585361E+04  0.10160311690E+04  0.25500000920E-02 0.  1.
       -2    1    3    3    0  502 -0.47383081909E+02 -0.11676111619E+02 -0.54340597297E+03  0.54559283307E+03  0.25500000920E-02 0. -1.
</event>
<event>
 5   0  0.1082667E-03  0.1287976E+04  0.7818609E-02  0.9039155E-01
       -2   -1    0    0    0  501  0.00000000000E+00  0.00000000000E+00  0.52630309012E+03  0.52630309013E+03  0.25500000920E-02 0.  1.
        2   -1    0    0  501    0  0.00000000000E+00  0.00000000000E+00 -0.78798765084E+03  0.78798765084E+03  0.25500000920E-02 0. -1.
    10030    2    1    2    0    0  0.00000000000E+00  0.00000000000E+00 -0.26168456072E+03  0.13142907410E+04  0.12879756762E+04 0.  0.
        5    1    3    3  502    0 -0.13184172948E+03  0.62645172119E+03 -0.20208450375E+03  0.67133019988E+03  0.46999998093E+01 0. -1.
       -5    1    3    3    0  502  0.13184172948E+03 -0.62645172119E+03 -0.59600056973E+02  0.64296054109E+03  0.46999998093E+01 0.  1.
</event>
<event>
 5   0  0.6146552E-04  0.1479078E+04  0.7818609E-02  0.8898486E-01
        1   -1    0    0  501    0  0.00000000000E+00  0.00000000000E+00  0.18030915542E+04  0.18030915542E+04  0.50400001928E-02 0. -1.
       -1   -1    0    0    0  501  0.00000000000E+00  0.00000000000E+00 -0.30332234344E+03  0.30332234348E+03  0.50400001928E-02 0.  1.
    10030    2    1    2    0    0  0.00000000000E+00  0.00000000000E+00  0.14997692108E+04  0.21064138977E+04  0.14790780314E+04 0.  0.
        5    1    3    3  502    0 -0.53226772792E+03  0.15203036470E+02  0.19041645186E+02  0.53284588837E+03  0.46999998093E+01 0.  1.
       -5    1    3    3    0  502  0.53226772792E+03 -0.15203036470E+02  0.14807275656E+04  0.15735680094E+04  0.46999998093E+01 0. -1.
</event>
<event>
 5   0  0.5914645E-04  0.1482453E+04  0.7818609E-02  0.8896206E-01
       -1   -1    0    0    0  501  0.00000000000E+00  0.00000000000E+00  0.58856763859E+03  0.58856763861E+03  0.50400001928E-02 0. -1.
        1   -1    0    0  501    0  0.00000000000E+00  0.00000000000E+00 -0.93348096759E+03  0.93348096761E+03  0.50400001928E-02 0.  1.
    10030    2    1    2    0    0  0.00000000000E+00  0.00000000000E+00 -0.34491332900E+03  0.15220486062E+04  0.14824529521E+04 0.  0.
        2    1    3    3  502    0  0.24628347102E+03  0.66988255795E+03 -0.37784605278E+03  0.80756784802E+03  0.25500000920E-02 0. -1.
       -2    1    3    3    0  502 -0.24628347102E+03 -0.66988255795E+03  0.32932723781E+02  0.71448075820E+03  0.25500000920E-02 0.  1.
</event>
<event>
 5   0  0.1082667E-03  0.1428289E+04  0.7818609E-02  0.8933592E-01
        2   -1    0    0  501    0  0.00000000000E+00  0.00000000000E+00  0.81525093836E+03  0.81525093836E+03  0.25500000920E-02 0.  1.
       -2   -1    0    0    0  501  0.00000000000E+00  0.00000000000E+00 -0.62557738649E+03  0.62557738649E+03  0.25500000920E-02 0. -1.
    10030    2    1    2    0    0  0.00000000000E+00  0.00000000000E+00  0.18967355187E+03  0.14408283249E+04  0.14282892583E+04 0.  0.
        5    1    3    3  502    0  0.13390040914E+03 -0.47533490574E+03  0.61522196364E+03  0.78891871997E+03  0.46999998093E+01 0.  1.
       -5    1    3    3    0  502 -0.13390040914E+03  0.47533490574E+03 -0.42554841177E+03  0.65190960488E+03  0.46999998093E+01 0. -1.
</event>
<event>
 5   0  0.1149716E-03  0.1537904E+04  0.7818609E-02  0.8859631E-01
       -2   -1    0    0    0  501  0.00000000000E+00  0.00000000000E+00  0.95037210689E+03  0.95037210689E+03  0.25500000920E-02 0. -1.
        2   -1    0    0  501    0  0.00000000000E+00  0.00000000000E+00 -0.62216399764E+03  0.62216399765E+03  0.25500000920E-02 0.  1.
    10030    2    1    2    0    0  0.00000000000E+00  0.00000000000E+00  0.32820810924E+03  0.15725361045E+04  0.15379041703E+04 0.  0.
        1    1    3    3  502    0 -0.65855939499E+03  0.39599317148E+03  0.13561555706E+03  0.78032214369E+03  0.50400001928E-02 0. -1.
       -1    1    3    3    0  502  0.65855939499E+03 -0.39599317148E+03  0.19259255218E+03  0.79221396085E+03  0.50400001928E-02 0.  1.
</event>
<event>
 5   0  0.5914645E-04  0.1495580E+04  0.7818609E-02  0.8887397E-01
       -1   -1    0    0    0  501  0.00000000000E+00  0.00000000000E+00  0.38897423708E+03  0.38897423712E+03  0.50400001928E-02 0. -1.
        1   -1    0    0  501    0  0.00000000000E+00  0.00000000000E+00 -0.14376019709E+04  0.14376019709E+04  0.50400001928E-02 0.  1.
    10030    2    1    2    0    0  0.00000000000E+00  0.00000000000E+00 -0.10486277338E+04  0.18265762080E+04  0.14955803287E+04 0.  0.
        2    1    3    3  502    0  0.60567384945E+03 -0.37817409401E+03 -0.25304511089E+03  0.75755414687E+03  0.25500000920E-02 0. -1.
       -2    1    3    3    0  502 -0.60567384945E+03  0.37817409401E+03 -0.79558262288E+03  0.10690220611E+04  0.25500000920E-02 0.  1.
</event>
<event>
 5   0  0.1126175E-03  0.1488352E+04  0.7818609E-02  0.8892236E-01
        2   -1    0    0  501    0  0.00000000000E+00  0.00000000000E+00  0.11413327417E+04  0.11413327417E+04  0.25500000920E-02 0. -1.
       -2   -1    0    0    0  501  0.00000000000E+00  0.00000000000E+00 -0.48522034198E+03  0.48522034199E+03  0.25500000920E-02 0.  1.
    10030    2    1    2    0    0  0.00000000000E+00  0.00000000000E+00  0.65611239973E+03  0.16265530837E+04  0.14883519251E+04 0.  0.
        3    1    3    3  502    0 -0.39214690203E+03  0.47836757528E+03  0.78021717907E+03  0.99566740760E+03  0.10100000352E+00 0. -1.
       -3    1    3    3    0  502  0.39214690203E+03 -0.47836757528E+03 -0.12410477934E+03  0.63088567610E+03  0.10100000352E+00 0.  1.
</event>
<event>
 5   0  0.5606965E-04  0.1504520E+04  0.7818609E-02  0.8881453E-01
       -1   -1    0    0    0  501  0.00000000000E+00  0.00000000000E+00  0.64496163821E+03  0.64496163823E+03  0.50400001928E-02 0.  1.
        1   -1    0    0  501    0  0.00000000000E+00  0.00000000000E+00 -0.87740881334E+03  0.87740881336E+03  0.50400001928E-02 0. -1.
    10030    2    1    2    0    0  0.00000000000E+00  0.00000000000E+00 -0.23244717514E+03  0.15223704516E+04  0.15045198911E+04 0.  0.
        4    1    3    3  502    0 -0.16121342256E+01  0.57062108891E+03  0.37977835866E+03  0.68545185147E+03  0.12699999809E+01 0.  1.
       -4    1    3    3    0  502  0.16121342256E+01 -0.57062108891E+03 -0.61222553380E+03  0.83691860011E+03  0.12699999809E+01 0. -1.
</event>
<event>
 5   0  0.1126175E-03  0.1520584E+04  0.7818609E-02  0.8870879E-01
        2   -1    0    0  501    0  0.00000000000E+00  0.00000000000E+00  0.54930114402E+03  0.54930114402E+03  0.25500000920E-02 0. -1.
       -2   -1    0    0    0  501  0.00000000000E+00  0.00000000000E+00 -0.10523255149E+04  0.10523255150E+04  0.25500000920E-02 0.  1.
    10030    2    1    2    0    0  0.00000000000E+00  0.00000000000E+00 -0.50302437093E+03  0.16016266590E+04  0.15205835843E+04 0.  0.
        3    1    3    3  502    0  0.49793654548E+03 -0.46012151727E+03  0.11090627264E+03  0.68698822806E+03  0.10100000352E+00 0. -1.
       -3    1    3    3    0  502 -0.49793654548E+03  0.46012151727E+03 -0.61393064358E+03  0.91463843091E+03  0.10100000352E+00 0.  1.
</event>
<event>
 5   0  0.5606965E-04  0.1514056E+04  0.7818609E-02  0.8875159E-01
       -1   -1    0    0    0  501  0.00000000000E+00  0.00000000000E+00  0.71969178613E+03  0.71969178615E+03  0.50400001928E-02 0. -1.
        1   -1    0    0  501    0  0.00000000000E+00  0.00000000000E+00 -0.79630104109E+03  0.79630104110E+03  0.50400001928E-02 0.  1.
    10030    2    1    2    0    0  0.00000000000E+00  0.00000000000E+00 -0.76609254960E+02  0.15159928273E+04  0.15140559020E+04 0.  0.
        4    1    3    3  502    0  0.69991957410E+03 -0.25427650313E+03  0.98052392148E+02  0.75110574139E+03  0.12699999809E+01 0. -1.
       -4    1    3    3    0  502 -0.69991957410E+03  0.25427650313E+03 -0.17466164711E+03  0.76488708586E+03  0.12699999809E+01 0.  1.
</event>
<event>
 5   0  0.1082667E-03  0.1513493E+04  0.7818609E-02  0.8875530E-01
       -2   -1    0    0    0  501  0.00000000000E+00  0.00000000000E+00  0.58937557278E+03  0.58937557278E+03  0.25500000920E-02 0.  1.
        2   -1    0    0  501    0  0.00000000000E+00  0.00000000000E+00 -0.97164716406E+03  0.97164716406E+03  0.25500000920E-02 0. -1.
    10030    2    1    2    0    0  0.00000000000E+00  0.00000000000E+00 -0.38227159128E+03  0.15610227368E+04  0.15134927867E+04 0.  0.
        5    1    3    3  502    0 -0.13277922316E+03  0.21216408142E+03 -0.92770503137E+03  0.96088637974E+03  0.46999998093E+01 0. -1.
       -5    1    3    3    0  502  0.13277922316E+03 -0.21216408142E+03  0.54543344009E+03  0.60013635710E+03  0.46999998093E+01 0.  1.
</event>
<event>
 5   0  0.1147755E-03  0.1501790E+04  0.7818609E-02  0.8883263E-01
       -2   -1    0    0    0  501  0.00000000000E+00  0.00000000000E+00  0.32497484812E+03  0.32497484813E+03  0.25500000920E-02 0.  1.
        2   -1    0    0  501    0  0.00000000000E+00  0.00000000000E+00 -0.17350368538E+04  0.17350368538E+04  0.25500000920E-02 0. -1.
    10030    2    1    2    0    0  0.00000000000E+00  0.00000000000E+00 -0.14100620057E+04  0.20600117019E+04  0.15017900493E+04 0.  0.
        4    1    3    3  502    0 -0.35315416943E+03  0.70079264076E+02 -0.16089130345E+04  0.16487060793E+04  0.12699999809E+01 0. -1.
       -4    1    3    3    0  502  0.35315416943E+03 -0.70079264076E+02  0.19885102878E+03  0.41130562261E+03  0.12699999809E+01 0.  1.
</event>
<event>
 5   0  0.1097156E-03  0.1516686E+04  0.7818609E-02  0.8873432E-01
        2   -1    0    0  501    0  0.00000000000E+00  0.00000000000E+00  0.42071079602E+03  0.42071079603E+03  0.25500000920E-02 0.  1.
       -2   -1    0    0    0  501  0.00000000000E+00  0.00000000000E+00 -0.13669345385E+04  0.13669345385E+04  0.25500000920E-02 0. -1.
    10030    2    1    2    0    0  0.00000000000E+00  0.00000000000E+00 -0.94622374246E+03  0.17876453345E+04  0.15166860160E+04 0.  0.
        2    1    3    3  502    0 -0.48870479649E+03 -0.10476705305E+03 -0.11453318618E+04  0.12496373822E+04  0.25500000920E-02 0. -1.
       -2    1    3    3    0  502  0.48870479649E+03  0.10476705305E+03  0.19910811931E+03  0.53800795226E+03  0.25500000920E-02 0.  1.
</event>
<event>
 5   0  0.1097156E-03  0.1474505E+04  0.7818609E-02  0.8901586E-01
        2   -1    0    0  501    0  0.00000000000E+00  0.00000000000E+00  0.13316391704E+04  0.13316391704E+04  0.25500000920E-02 0. -1.
       -2   -1    0    0    0  501  0.00000000000E+00  0.00000000000E+00 -0.40817440923E+03  0.40817440924E+03  0.25500000920E-02 0.  1.
    10030    2    1    2    0    0  0.00000000000E+00  0.00000000000E+00  0.92346476114E+03  0.17398135796E+04  0.14745047056E+04 0.  0.
        2    1    3    3  502    0 -0.52042744499E+03  0.17782204317E+03  0.10410719684E+04  0.11774108238E+04  0.25500000920E-02 0. -1.
       -2    1    3    3    0  502  0.52042744499E+03 -0.17782204317E+03 -0.11760720729E+03  0.56240275582E+03  0.25500000920E-02 0.  1.
</event>
<event>
 5   0  0.5606965E-04  0.1491463E+04  0.7818609E-02  0.8890150E-01
        1   -1    0    0  501    0  0.00000000000E+00  0.00000000000E+00  0.39486240455E+03  0.39486240458E+03  0.50400001928E-02 0.  1.
       -1   -1    0    0    0  501  0.00000000000E+00  0.00000000000E+00 -0.14083785423E+04  0.14083785423E+04  0.50400001928E-02 0. -1.
    10030    2    1    2    0    0  0.00000000000E+00  0.00000000000E+00 -0.10135161378E+04  0.18032409469E+04  0.14914633590E+04 0.  0.
        4    1    3    3  502    0 -0.12523616530E+03  0.25318864431E+03  0.32767807123E+03  0.43262352915E+03  0.12699999809E+01 0.  1.
       -4    1    3    3    0  502  0.12523616530E+03 -0.25318864431E+03 -0.13411942090E+04  0.13706174178E+04  0.12699999809E+01 0. -1.
</event>
<event>
 5   0  0.1097156E-03  0.1502647E+04  0.7818609E-02  0.8882695E-01
       -2   -1    0    0    0  501  0.00000000000E+00  0.00000000000E+00  0.94878481409E+03  0.94878481409E+03  0.25500000920E-02 0.  1.
        2   -1    0    0  501    0  0.00000000000E+00  0.00000000000E+00 -0.59495749573E+03  0.59495749573E+03  0.25500000920E-02 0. -1.
    10030    2    1    2    0    0  0.00000000000E+00  0.00000000000E+00  0.35382731836E+03  0.15437423098E+04  0.15026465146E+04 0.  0.
        2    1    3    3  502    0 -0.51831411776E+03  0.54213287247E+03  0.22203592991E+03  0.78221322557E+03  0.25500000920E-02 0.  1.
       -2    1    3    3    0  502  0.51831411776E+03 -0.54213287247E+03  0.13179138845E+03  0.76152908425E+03  0.25500000920E-02 0. -1.
</event>
<event>
 5   0  0.4070625E-04  0.1532021E+04  0.7818609E-02  0.8863434E-01
        4   -1    0    0  501    0  0.00000000000E+00  0.00000000000E+00  0.72861223879E+03  0.72861334562E+03  0.12699999809E+01 0.  1.
       -4   -1    0    0    0  501  0.00000000000E+00  0.00000000000E+00 -0.80532568428E+03  0.80532668568E+03  0.12699999809E+01 0. -1.
    10030    2    1    2    0    0  0.00000000000E+00  0.00000000000E+00 -0.76713445487E+02  0.15339400313E+04  0.15320205831E+04 0.  0.
        4    1    3    3  502    0 -0.11481107597E+03  0.61575293425E+03  0.40314572871E+03  0.74489016015E+03  0.12699999809E+01 0.  1.
       -4    1    3    3    0  502  0.11481107597E+03 -0.61575293425E+03 -0.47985917420E+03  0.78904987115E+03  0.12699999809E+01 0. -1.
</event>
<event>
 5   0  0.1082667E-03  0.1481387E+04  0.7818609E-02  0.8896926E-01
       -2   -1    0    0    0  501  0.00000000000E+00  0.00000000000E+00  0.87244301098E+03  0.87244301098E+03  0.25500000920E-02 0.  1.
        2   -1    0    0  501    0  0.00000000000E+00  0.00000000000E+00 -0.62883960218E+03  0.62883960218E+03  0.25500000920E-02 0. -1.
    10030    2    1    2    0    0  0.00000000000E+00  0.00000000000E+00  0.24360340880E+03  0.15012826132E+04  0.14813868043E+04 0.  0.
        5    1    3    3  502    0  0.24350629349E+03 -0.40292011783E+03  0.70128965504E+03  0.84467106413E+03  0.46999998093E+01 0.  1.
       -5    1    3    3    0  502 -0.24350629349E+03  0.40292011783E+03 -0.45768624624E+03  0.65661154903E+03  0.46999998093E+01 0. -1.
</event>
<event>
 5   0  0.1126175E-03  0.1487575E+04  0.7818609E-02  0.8892758E-01
       -2   -1    0    0    0  501  0.00000000000E+00  0.00000000000E+00  0.73800334809E+03  0.73800334810E+03  0.25500000920E-02 0. -1.
        2   -1    0    0  501    0  0.00000000000E+00  0.00000000000E+00 -0.74961719632E+03  0.74961719632E+03  0.25500000920E-02 0.  1.
    10030    2    1    2    0    0  0.00000000000E+00  0.00000000000E+00 -0.11613848229E+02  0.14876205444E+04  0.14875752091E+04 0.  0.
        3    1    3    3  502    0 -0.10454141454E+03  0.19687382634E+03 -0.71542828185E+03  0.74935028359E+03  0.10100000352E+00 0.  1.
       -3    1    3    3    0  502  0.10454141454E+03 -0.19687382634E+03  0.70381443362E+03  0.73827026083E+03  0.10100000352E+00 0. -1.
</event>
<event>
 5   0  0.6146552E-04  0.1512053E+04  0.7818609E-02  0.8876477E-01
       -1   -1    0    0    0  501  0.00000000000E+00  0.00000000000E+00  0.42274087128E+03  0.42274087131E+03  0.50400001928E-02 0. -1.
        1   -1    0    0  501    0  0.00000000000E+00  0.00000000000E+00 -0.13520713782E+04  0.13520713783E+04  0.50400001928E-02 0.  1.
    10030    2    1    2    0    0  0.00000000000E+00  0.00000000000E+00 -0.92933050696E+03  0.17748122496E+04  0.15120526876E+04 0.  0.
        5    1    3    3  502    0 -0.43420273756E+03 -0.57034086975E+03 -0.18263375061E+03  0.73972826218E+03  0.46999998093E+01 0. -1.
       -5    1    3    3    0  502  0.43420273756E+03  0.57034086975E+03 -0.74669675635E+03  0.10350839874E+04  0.46999998093E+01 0.  1.
</event>
<event>
 5   0  0.5924403E-04  0.1514484E+04  0.7818609E-02  0.8874878E-01
       -1   -1    0    0    0  501  0.00000000000E+00  0.00000000000E+00  0.82708065084E+03  0.82708065086E+03  0.50400001928E-02 0. -1.
        1   -1    0    0  501    0  0.00000000000E+00  0.00000000000E+00 -0.69330087391E+03  0.69330087392E+03  0.50400001928E-02 0.  1.
    10030    2    1    2    0    0  0.00000000000E+00  0.00000000000E+00  0.13377977693E+03  0.15203815248E+04  0.15144843849E+04 0.  0.
        1    1    3    3  502    0  0.66883330368E+03 -0.48848128138E+02  0.41995752093E+03  0.79125751001E+03  0.50400001928E-02 0. -1.
       -1    1    3    3    0  502 -0.66883330368E+03  0.48848128138E+02 -0.28617774400E+03  0.72912401477E+03  0.50400001928E-02 0.  1.
</event>
<event>
 5   0  0.1126175E-03  0.1498235E+04  0.7818609E-02  0.8885627E-01
        2   -1    0    0  501    0  0.00000000000E+00  0.00000000000E+00  0.67271652452E+03  0.67271652452E+03  0.25500000920E-02 0. -1.
       -2   -1    0    0    0  501  0.00000000000E+00  0.00000000000E+00 -0.83419547576E+03  0.83419547577E+03  0.25500000920E-02 0.  1.
    10030    2    1    2    0    0  0.00000000000E+00  0.00000000000E+00 -0.16147895125E+03  0.15069120003E+04  0.14982350700E+04 0.  0.
        3    1    3    3  502    0 -0.14182867996E+03 -0.26865104298E+03 -0.76945938419E+03  0.82725843089E+03  0.10100000352E+00 0.  1.
       -3    1    3    3    0  502  0.14182867996E+03  0.26865104298E+03  0.60798043294E+03  0.67965356940E+03  0.10100000352E+00 0. -1.
</event>
<event>
 5   0  0.5914645E-04  0.1467889E+04  0.7818609E-02  0.8906091E-01
        1   -1    0    0  501    0  0.00000000000E+00  0.00000000000E+00  0.14648956516E+04  0.14648956516E+04  0.50400001928E-02 0. -1.
       -1   -1    0    0    0  501  0.00000000000E+00  0.00000000000E+00 -0.36772225953E+03  0.36772225957E+03  0.50400001928E-02 0.  1.
    10030    2    1    2    0    0  0.00000000000E+00  0.00000000000E+00  0.10971733920E+04  0.18326179111E+04  0.14678892860E+04 0.  0.
        2    1    3    3  502    0 -0.68899285337E+03 -0.12981249546E+03  0.27760135793E+03  0.75407224449E+03  0.25500000920E-02 0.  1.
       -2    1    3    3    0  502  0.68899285337E+03  0.12981249546E+03  0.81957203409E+03  0.10785456666E+04  0.25500000920E-02 0. -1.
</event>
<event>
 5   0  0.1147755E-03  0.1510820E+04  0.7818609E-02  0.8877289E-01
        2   -1    0    0  501    0  0.00000000000E+00  0.00000000000E+00  0.18669317217E+04  0.18669317217E+04  0.25500000920E-02 0. -1.
       -2   -1    0    0    0  501  0.00000000000E+00  0.00000000000E+00 -0.30565897039E+03  0.30565897040E+03  0.25500000920E-02 0.  1.
    10030    2    1    2    0    0  0.00000000000E+00  0.00000000000E+00  0.15612727514E+04  0.21725906921E+04  0.15108202115E+04 0.  0.
        4    1    3    3  502    0 -0.65589378161E+03  0.57777277925E+02  0.13131079701E+04  0.14689414627E+04  0.12699999809E+01 0. -1.
       -4    1    3    3    0  502  0.65589378161E+03 -0.57777277925E+02  0.24816478122E+03  0.70364922947E+03  0.12699999809E+01 0.  1.
</event>
<event>
 5   0  0.5606965E-04  0.1472362E+04  0.7818609E-02  0.8903043E-01
        1   -1    0    0  501    0  0.00000000000E+00  0.00000000000E+00  0.66116625486E+03  0.66116625488E+03  0.50400001928E-02 0.  1.
       -1   -1    0    0    0  501  0.00000000000E+00  0.00000000000E+00 -0.81970623399E+03  0.81970623401E+03  0.50400001928E-02 0. -1.
    10030    2    1    2    0    0  0.00000000000E+00  0.00000000000E+00 -0.15853997913E+03  0.14808724889E+04  0.14723615057E+04 0.  0.
        4    1    3    3  502    0  0.32588976815E+03 -0.42266484414E+03 -0.58926197426E+03  0.79503521850E+03  0.12699999809E+01 0. -1.
       -4    1    3    3    0  502 -0.32588976815E+03  0.42266484414E+03  0.43072199513E+03  0.68583727038E+03  0.12699999809E+01 0.  1.
</event>
<event>
 5   0  0.1147755E-03  0.1543922E+04  0.7818609E-02  0.8855760E-01
        2   -1    0    0  501    0  0.00000000000E+00  0.00000000000E+00  0.59085470858E+03  0.59085470858E+03  0.25500000920E-02 0.  1.
       -2   -1    0    0    0  501  0.00000000000E+00  0.00000000000E+00 -0.10085786372E+04  0.10085786372E+04  0.25500000920E-02 0. -1.
    10030    2    1    2    0    0  0.00000000000E+00  0.00000000000E+00 -0.41772392862E+03  0.15994333458E+04  0.15439215482E+04 0.  0.
        4    1    3    3  502    0 -0.64892201722E+03 -0.31514072904E+03 -0.49352982485E+03  0.87406336409E+03  0.12699999809E+01 0. -1.
       -4    1    3    3    0  502  0.64892201722E+03  0.31514072904E+03  0.75805896228E+02  0.72536998169E+03  0.12699999809E+01 0.  1.
</event>
<event>
 5   0  0.1149716E-03  0.1500673E+04  0.7818609E-02  0.8884005E-01
        2   -1    0    0  501    0  0.00000000000E+00  0.00000000000E+00  0.13216792702E+04  0.13216792702E+04  0.25500000920E-02 0. -1.
       -2   -1    0    0    0  501  0.00000000000E+00  0.00000000000E+00 -0.42597696009E+03  0.42597696009E+03  0.25500000920E-02 0.  1.
    10030    2    1    2    0    0  0.00000000000E+00  0.00000000000E+00  0.89570231007E+03  0.17476562303E+04  0.15006730726E+04 0.  0.
        1    1    3    3  502    0  0.34572114752E+03  0.53037308349E+03  0.91685550037E+03  0.11142004883E+04  0.50400001928E-02 0. -1.
       -1    1    3    3    0  502 -0.34572114752E+03 -0.53037308349E+03 -0.21153190299E+02  0.63345574196E+03  0.50400001928E-02 0.  1.
</event>
<event>
 5   0  0.1097156E-03  0.1527514E+04  0.7818609E-02  0.8866360E-01
        2   -1    0    0  501    0  0.00000000000E+00  0.00000000000E+00  0.12633923884E+04  0.12633923884E+04  0.25500000920E-02 0.  1.
       -2   -1    0    0    0  501  0.00000000000E+00  0.00000000000E+00 -0.46171326753E+03  0.46171326754E+03  0.25500000920E-02 0. -1.
    10030    2    1    2    0    0  0.00000000000E+00  0.00000000000E+00  0.80167912090E+03  0.17251056560E+04  0.15275143572E+04 0.  0.
        2    1    3    3  502    0  0.28546305633E+03  0.70403253788E+03  0.31210031892E+03  0.82131454389E+03  0.25500000920E-02 0. -1.
       -2    1    3    3    0  502 -0.28546305633E+03 -0.70403253788E+03  0.48957880198E+03  0.90379111208E+03  0.25500000920E-02 0.  1.
</event>
<event>
 5   0  0.5840834E-04  0.1476232E+04  0.7818609E-02  0.8900414E-01
       -1   -1    0    0    0  501  0.00000000000E+00  0.00000000000E+00  0.64143095382E+03  0.64143095384E+03  0.50400001928E-02 0.  1.
        1   -1    0    0  501    0  0.00000000000E+00  0.00000000000E+00 -0.84937482817E+03  0.84937482819E+03  0.50400001928E-02 0. -1.
    10030    2    1    2    0    0  0.00000000000E+00  0.00000000000E+00 -0.20794387435E+03  0.14908057820E+04  0.14762321040E+04 0.  0.
        3    1    3    3  502    0  0.59246848199E+03  0.14599459686E+03  0.31543757551E+03  0.68690188434E+03  0.10100000352E+00 0.  1.
       -3    1    3    3    0  502 -0.59246848199E+03 -0.14599459686E+03 -0.52338144986E+03  0.80390389769E+03  0.10100000352E+00 0. -1.
</event>
<event>
 5   0  0.5924403E-04  0.1484844E+04  0.7818609E-02  0.8894595E-01
       -1   -1    0    0    0  501  0.00000000000E+00  0.00000000000E+00  0.23021425346E+03  0.23021425352E+03  0.50400001928E-02 0.  1.
        1   -1    0    0  501    0  0.00000000000E+00  0.00000000000E+00 -0.23942489864E+04  0.23942489864E+04  0.50400001928E-02 0. -1.
    10030    2    1    2    0    0  0.00000000000E+00  0.00000000000E+00 -0.21640347329E+04  0.26244632399E+04  0.14848437535E+04 0.  0.
        1    1    3    3  502    0 -0.16791138602E+03 -0.13298824126E+03  0.17441392283E+03  0.27622512987E+03  0.50400001928E-02 0.  1.
       -1    1    3    3    0  502  0.16791138602E+03  0.13298824126E+03 -0.23384486557E+04  0.23482381100E+04  0.50400001928E-02 0. -1.
</event>
<event>
 5   0  0.5914645E-04  0.1512731E+04  0.7818609E-02  0.8876031E-01
       -1   -1    0    0    0  501  0.00000000000E+00  0.00000000000E+00  0.75543104285E+03  0.75543104287E+03  0.50400001928E-02 0. -1.
        1   -1    0    0  501    0  0.00000000000E+00  0.00000000000E+00 -0.75730156307E+03  0.75730156309E+03  0.50400001928E-02 0.  1.
    10030    2    1    2    0    0  0.00000000000E+00  0.00000000000E+00 -0.18705202172E+01  0.15127326060E+04  0.15127314495E+04 0.  0.
        2    1    3    3  502    0  0.32583041429E+03  0.34093347921E+03 -0.59227995494E+03  0.75709751100E+03  0.25500000920E-02 0.  1.
       -2    1    3    3    0  502 -0.32583041429E+03 -0.34093347921E+03  0.59040943472E+03  0.75563509496E+03  0.25500000920E-02 0. -1.
</event>
<event>
 5   0  0.1097156E-03  0.1491291E+04  0.7818609E-02  0.8890265E-01
        2   -1    0    0  501    0  0.00000000000E+00  0.00000000000E+00  0.13727704678E+04  0.13727704678E+04  0.25500000920E-02 0.  1.
       -2   -1    0    0    0  501  0.00000000000E+00  0.00000000000E+00 -0.40501120904E+03  0.40501120904E+03  0.25500000920E-02 0. -1.
    10030    2    1    2    0    0  0.00000000000E+00  0.00000000000E+00  0.96775925880E+03  0.17777816769E+04  0.14912912887E+04 0.  0.
        2    1    3    3  502    0 -0.10787137663E+03 -0.26409248283E+03  0.13051435021E+04  0.13359568236E+04  0.25500000920E-02 0.  1.
       -2    1    3    3    0  502  0.10787137663E+03  0.26409248283E+03 -0.33738424328E+03  0.44182485332E+03  0.25500000920E-02 0. -1.
</event>
<event>
 5   0  0.1082667E-03  0.1518352E+04  0.7818609E-02  0.8872340E-01
        2   -1    0    0  501    0  0.00000000000E+00  0.00000000000E+00  0.47368398003E+03  0.47368398004E+03  0.25500000920E-02 0. -1.
       -2   -1    0    0    0  501  0.00000000000E+00  0.00000000000E+00 -0.12167356466E+04  0.12167356466E+04  0.25500000920E-02 0.  1.
    10030    2    1    2    0    0  0.00000000000E+00  0.00000000000E+00 -0.74305166654E+03  0.16904196266E+04  0.15183519799E+04 0.  0.
        5    1    3    3  502    0  0.66095822478E+03  0.37318269900E+03 -0.35597941161E+03  0.83837612873E+03  0.46999998093E+01 0. -1.
       -5    1    3    3    0  502 -0.66095822478E+03 -0.37318269900E+03 -0.38707225493E+03  0.85204349788E+03  0.46999998093E+01 0.  1.
</event>
<event>
 5   0  0.5924403E-04  0.1535002E+04  0.7818609E-02  0.8861505E-01
        1   -1    0    0  501    0  0.00000000000E+00  0.00000000000E+00  0.49601976893E+03  0.49601976895E+03  0.50400001928E-02 0. -1.
       -1   -1    0    0    0  501  0.00000000000E+00  0.00000000000E+00 -0.11875695097E+04  0.11875695097E+04  0.50400001928E-02 0.  1.
    10030    2    1    2    0    0  0.00000000000E+00  0.00000000000E+00 -0.69154974073E+03  0.16835892786E+04  0.15350022199E+04 0.  0.
        1    1    3    3  502    0 -0.42094873428E+03  0.28641543523E+02 -0.10489590157E+04  0.11306339777E+04  0.50400001928E-02 0.  1.
       -1    1    3    3    0  502  0.42094873428E+03 -0.28641543523E+02  0.35740927499E+03  0.55295530089E+03  0.50400001928E-02 0. -1.
</event>
<event>
 5   0  0.1149716E-03  0.1507524E+04  0.7818609E-02  0.8879465E-01
       -2   -1    0    0    0  501  0.00000000000E+00  0.00000000000E+00  0.58006026344E+03  0.58006026344E+03  0.25500000920E-02 0.  1.
        2   -1    0    0  501    0  0.00000000000E+00  0.00000000000E+00 -0.97947903747E+03  0.97947903747E+03  0.25500000920E-02 0. -1.
    10030    2    1    2    0    0  0.00000000000E+00  0.00000000000E+00 -0.39941877403E+03  0.15595393009E+04  0.15075236230E+04 0.  0.
        1    1    3    3  502    0  0.62979973414E+03  0.34748697820E+03  0.33368677394E+02  0.72007525565E+03  0.50400001928E-02 0.  1.
       -1    1    3    3    0  502 -0.62979973414E+03 -0.34748697820E+03 -0.43278745142E+03  0.83946404526E+03  0.50400001928E-02 0. -1.
</event>
<event>
 5   0  0.5924403E-04  0.1507530E+04  0.7818609E-02  0.8879461E-01
        1   -1    0    0  501    0  0.00000000000E+00  0.00000000000E+00  0.13196365020E+04  0.13196365020E+04  0.50400001928E-02 0.  1.
       -1   -1    0    0    0  501  0.00000000000E+00  0.00000000000E+00 -0.43054385965E+03  0.43054385968E+03  0.50400001928E-02 0. -1.
    10030    2    1    2    0    0  0.00000000000E+00  0.00000000000E+00  0.88909264234E+03  0.17501803617E+04  0.15075296255E+04 0.  0.
        1    1    3    3  502    0  0.61046119008E+02 -0.32933039880E+03 -0.33940313554E+03  0.47684340056E+03  0.50400001928E-02 0. -1.
       -1    1    3    3    0  502 -0.61046119008E+02  0.32933039880E+03  0.12284957779E+04  0.12733369611E+04  0.50400001928E-02 0.  1.
</event>
<event>
 5   0  0.1082667E-03  0.1480686E+04  0.7818609E-02  0.8897399E-01
        2   -1    0    0  501    0  0.00000000000E+00  0.00000000000E+00  0.12796392265E+04  0.12796392265E+04  0.25500000920E-02 0.  1.
       -2   -1    0    0    0  501  0.00000000000E+00  0.00000000000E+00 -0.42833004643E+03  0.42833004644E+03  0.25500000920E-02 0. -1.
    10030    2    1    2    0    0  0.00000000000E+00  0.00000000000E+00  0.85130918004E+03  0.17079692729E+04  0.14806862319E+04 0.  0.
        5    1    3    3  502    0 -0.13200581514E+03  0.56998882940E+03  0.94890701577E+03  0.11147911981E+04  0.46999998093E+01 0.  1.
       -5    1    3    3    0  502  0.13200581514E+03 -0.56998882940E+03 -0.97597835723E+02  0.59317807478E+03  0.46999998093E+01 0. -1.
</event>
<event>
 5   0  0.1149716E-03  0.1467061E+04  0.7818609E-02  0.8906658E-01
       -2   -1    0    0    0  501  0.00000000000E+00  0.00000000000E+00  0.45418994638E+03  0.45418994639E+03  0.25500000920E-02 0. -1.
        2   -1    0    0  501    0  0.00000000000E+00  0.00000000000E+00 -0.11846731684E+04  0.11846731684E+04  0.25500000920E-02 0.  1.
    10030    2    1    2    0    0  0.00000000000E+00  0.00000000000E+00 -0.73048322205E+03  0.16388631148E+04  0.14670605207E+04 0.  0.
        1    1    3    3  502    0  0.30626300750E+03 -0.60746201445E+03 -0.67170271071E+03  0.95602911063E+03  0.50400001928E-02 0. -1.
       -1    1    3    3    0  502 -0.30626300750E+03  0.60746201445E+03 -0.58780511338E+02  0.68283400420E+03  0.50400001928E-02 0.  1.
</event>
<event>
 5   0  0.1082667E-03  0.1580710E+04  0.7818609E-02  0.8832487E-01
       -2   -1    0    0    0  501  0.00000000000E+00  0.00000000000E+00  0.32889415764E+03  0.32889415765E+03  0.25500000920E-02 0.  1.
        2   -1    0    0  501    0  0.00000000000E+00  0.00000000000E+00 -0.18992761192E+04  0.18992761192E+04  0.25500000920E-02 0. -1.
    10030    2    1    2    0    0  0.00000000000E+00  0.00000000000E+00 -0.15703819615E+04  0.22281702768E+04  0.15807097385E+04 0.  0.
        5    1    3    3  502    0  0.98955611663E+02  0.15870065112E+03  0.29723276202E+03  0.35120864819E+03  0.46999998093E+01 0.  1.
       -5    1    3    3    0  502 -0.98955611663E+02 -0.15870065112E+03 -0.18676147235E+04  0.18769616286E+04  0.46999998093E+01 0. -1.
</event>
<event>
 5   0  0.1082667E-03  0.1520059E+04  0.7818609E-02  0.8871222E-01
        2   -1    0    0  501    0  0.00000000000E+00  0.00000000000E+00  0.10680706331E+04  0.10680706331E+04  0.25500000920E-02 0.  1.
       -2   -1    0    0    0  501  0.00000000000E+00  0.00000000000E+00 -0.54083030877E+03  0.54083030878E+03  0.25500000920E-02 0. -1.
    10030    2    1    2    0    0  0.00000000000E+00  0.00000000000E+00  0.52724032435E+03  0.16089009419E+04  0.15200591703E+04 0.  0.
        5    1    3    3  502    0 -0.39089944992E+03  0.33711675196E+03  0.85405180330E+03  0.99793619892E+03  0.46999998093E+01 0.  1.
       -5    1    3    3    0  502  0.39089944992E+03 -0.33711675196E+03 -0.32681147895E+03  0.61096474298E+03  0.46999998093E+01 0. -1.
</event>
<event>
 5   0  0.5914645E-04  0.1502926E+04  0.7818609E-02  0.8882510E-01
        1   -1    0    0  501    0  0.00000000000E+00  0.00000000000E+00  0.81565445857E+03  0.81565445859E+03  0.50400001928E-02 0.  1.
       -1   -1    0    0    0  501  0.00000000000E+00  0.00000000000E+00 -0.69232326147E+03  0.69232326149E+03  0.50400001928E-02 0. -1.
    10030    2    1    2    0    0  0.00000000000E+00  0.00000000000E+00  0.12333119710E+03  0.15079777201E+04  0.15029258864E+04 0.  0.
        2    1    3    3  502    0 -0.20888624492E+03  0.32224647243E+02 -0.66188570645E+03  0.69481262194E+03  0.25500000920E-02 0. -1.
       -2    1    3    3    0  502  0.20888624492E+03 -0.32224647243E+02  0.78521690355E+03  0.81316509814E+03  0.25500000920E-02 0.  1.
</event>
<event>
 5   0  0.1126175E-03  0.1497953E+04  0.7818609E-02  0.8885815E-01
       -2   -1    0    0    0  501  0.00000000000E+00  0.00000000000E+00  0.55483023299E+03  0.55483023300E+03  0.25500000920E-02 0.  1.
        2   -1    0    0  501    0  0.00000000000E+00  0.00000000000E+00 -0.10110589303E+04  0.10110589303E+04  0.25500000920E-02 0. -1.
    10030    2    1    2    0    0  0.00000000000E+00  0.00000000000E+00 -0.45622869735E+03  0.15658891633E+04  0.14979533529E+04 0.  0.
        3    1    3    3  502    0 -0.36072626813E+03  0.42907234406E+03 -0.74737103788E+03  0.93423230270E+03  0.10100000352E+00 0. -1.
       -3    1    3    3    0  502  0.36072626813E+03 -0.42907234406E+03  0.29114234053E+03  0.63165686065E+03  0.10100000352E+00 0.  1.
</event>
<event>
 5   0  0.5914645E-04  0.1333141E+04  0.7818609E-02  0.9003689E-01
       -1   -1    0    0    0  501  0.00000000000E+00  0.00000000000E+00  0.26856915674E+03  0.26856915679E+03  0.50400001928E-02 0.  1.
        1   -1    0    0  501    0  0.00000000000E+00  0.00000000000E+00 -0.16543832794E+04  0.16543832794E+04  0.50400001928E-02 0. -1.
    10030    2    1    2    0    0  0.00000000000E+00  0.00000000000E+00 -0.13858141227E+04  0.19229524362E+04  0.13331411363E+04 0.  0.
        2    1    3    3  502    0  0.18098861157E+03  0.37625183532E+02  0.23085576806E+03  0.29574806442E+03  0.25500000920E-02 0.  1.
       -2    1    3    3    0  502 -0.18098861157E+03 -0.37625183532E+02 -0.16166698907E+04  0.16272043718E+04  0.25500000920E-02 0. -1.
</event>
<event>
 5   0  0.1147755E-03  0.1478541E+04  0.7818609E-02  0.8898850E-01
        2   -1    0    0  501    0  0.00000000000E+00  0.00000000000E+00  0.84958734347E+03  0.84958734348E+03  0.25500000920E-02 0. -1.
       -2   -1    0    0    0  501  0.00000000000E+00  0.00000000000E+00 -0.64327797329E+03  0.64327797330E+03  0.25500000920E-02 0.  1.
    10030    2    1    2    0    0  0.00000000000E+00  0.00000000000E+00  0.20630937018E+03  0.14928653168E+04  0.14785409355E+04 0.  0.
        4    1    3    3  502    0 -0.95877528138E+02  0.49915932943E+03 -0.43885762838E+03  0.67152823280E+03  0.12699999809E+01 0.  1.
       -4    1    3    3    0  502  0.95877528138E+02 -0.49915932943E+03  0.64516699857E+03  0.82133708397E+03  0.12699999809E+01 0. -1.
</event>
<event>
 5   0  0.5840834E-04  0.1491370E+04  0.7818609E-02  0.8890212E-01
       -1   -1    0    0    0  501  0.00000000000E+00  0.00000000000E+00  0.69359062509E+03  0.69359062511E+03  0.50400001928E-02 0. -1.
        1   -1    0    0  501    0  0.00000000000E+00  0.00000000000E+00 -0.80169253531E+03  0.80169253533E+03  0.50400001928E-02 0.  1.
    10030    2    1    2    0    0  0.00000000000E+00  0.00000000000E+00 -0.10810191021E+03  0.14952831604E+04  0.14913704124E+04 0.  0.
        3    1    3    3  502    0  0.69316487151E+03 -0.27436272804E+03 -0.71241517477E+02  0.74888437669E+03  0.10100000352E+00 0.  1.
       -3    1    3    3    0  502 -0.69316487151E+03  0.27436272804E+03 -0.36860392738E+02  0.74639878375E+03  0.10100000352E+00 0. -1.
</event>
<event>
 5   0  0.1126175E-03  0.1498957E+04  0.7818609E-02  0.8885146E-01
       -2   -1    0    0    0  501  0.00000000000E+00  0.00000000000E+00  0.29240980727E+03  0.29240980728E+03  0.25500000920E-02 0. -1.
        2   -1    0    0  501    0  0.00000000000E+00  0.00000000000E+00 -0.19209970168E+04  0.19209970168E+04  0.25500000920E-02 0.  1.
    10030    2    1    2    0    0  0.00000000000E+00  0.00000000000E+00 -0.16285872095E+04  0.22134068241E+04  0.14989574610E+04 0.  0.
        3    1    3    3  502    0 -0.64685924582E+03  0.99804630631E+02 -0.13534772432E+04  0.15034255905E+04  0.10100000352E+00 0.  1.
       -3    1    3    3    0  502  0.64685924582E+03 -0.99804630631E+02 -0.27510996632E+03  0.70998123353E+03  0.10100000352E+00 0. -1.
</event>
<event>
 5   0  0.5606965E-04  0.1442975E+04  0.7818609E-02  0.8923286E-01
       -1   -1    0    0    0  501  0.00000000000E+00  0.00000000000E+00  0.56324444418E+03  0.56324444420E+03  0.50400001928E-02 0. -1.
        1   -1    0    0  501    0  0.00000000000E+00  0.00000000000E+00 -0.92418837442E+03  0.92418837443E+03  0.50400001928E-02 0.  1.
    10030    2    1    2    0    0  0.00000000000E+00  0.00000000000E+00 -0.36094393023E+03  0.14874328186E+04  0.14429746599E+04 0.  0.
        4    1    3    3  502    0  0.42827923107E+03  0.45505613320E+03 -0.55219752924E+03  0.83392020501E+03  0.12699999809E+01 0.  1.
       -4    1    3    3    0  502 -0.42827923107E+03 -0.45505613320E+03  0.19125359901E+03  0.65351261362E+03  0.12699999809E+01 0. -1.
</event>
<event>
 5   0  0.1149716E-03  0.1497794E+04  0.7818609E-02  0.8885921E-01
       -2   -1    0    0    0  501  0.00000000000E+00  0.00000000000E+00  0.33223937013E+03  0.33223937014E+03  0.25500000920E-02 0.  1.
        2   -1    0    0  501    0  0.00000000000E+00  0.00000000000E+00 -0.16880792826E+04  0.16880792826E+04  0.25500000920E-02 0. -1.
    10030    2    1    2    0    0  0.00000000000E+00  0.00000000000E+00 -0.13558399125E+04  0.20203186528E+04  0.14977935740E+04 0.  0.
        1    1    3    3  502    0  0.78665599527E+02  0.72052134765E+03 -0.42374920955E+03  0.83958482691E+03  0.50400001928E-02 0.  1.
       -1    1    3    3    0  502 -0.78665599527E+02 -0.72052134765E+03 -0.93209070295E+03  0.11807338259E+04  0.50400001928E-02 0. -1.
</event>
<event>
 5   0  0.6146552E-04  0.1498419E+04  0.7818609E-02  0.8885505E-01
       -1   -1    0    0    0  501  0.00000000000E+00  0.00000000000E+00  0.26639000307E+03  0.26639000312E+03  0.50400001928E-02 0.  1.
        1   -1    0    0  501    0  0.00000000000E+00  0.00000000000E+00 -0.21071165024E+04  0.21071165024E+04  0.50400001928E-02 0. -1.
    10030    2    1    2    0    0  0.00000000000E+00  0.00000000000E+00 -0.18407264993E+04  0.23735065055E+04  0.14984188621E+04 0.  0.
        5    1    3    3  502    0  0.56034796576E+03 -0.13622143179E+03 -0.16277281732E+03  0.59921882586E+03  0.46999998093E+01 0.  1.
       -5    1    3    3    0  502 -0.56034796576E+03  0.13622143179E+03 -0.16779536820E+04  0.17742876797E+04  0.46999998093E+01 0. -1.
</event>
<event>
 5   0  0.5606965E-04  0.1497269E+04  0.7818609E-02  0.8886271E-01
       -1   -1    0    0    0  501  0.00000000000E+00  0.00000000000E+00  0.78746420401E+03  0.78746420403E+03  0.50400001928E-02 0.  1.
        1   -1    0    0  501    0  0.00000000000E+00  0.00000000000E+00 -0.71171910342E+03  0.71171910344E+03  0.50400001928E-02 0. -1.
    10030    2    1    2    0    0  0.00000000000E+00  0.00000000000E+00  0.75745100596E+02  0.14991833075E+04  0.14972686029E+04 0.  0.
        4    1    3    3  502    0  0.32156917021E+03  0.26555996398E+02  0.71426565457E+03  0.78376590279E+03  0.12699999809E+01 0.  1.
       -4    1    3    3    0  502 -0.32156917021E+03 -0.26555996398E+02 -0.63852055397E+03  0.71541740468E+03  0.12699999809E+01 0. -1.
</event>
<event>
 5   0  0.1126175E-03  0.1549346E+04  0.7818609E-02  0.8852286E-01
        2   -1    0    0  501    0  0.00000000000E+00  0.00000000000E+00  0.22147896309E+04  0.22147896309E+04  0.25500000920E-02 0.  1.
       -2   -1    0    0    0  501  0.00000000000E+00  0.00000000000E+00 -0.27095953013E+03  0.27095953014E+03  0.25500000920E-02 0. -1.
    10030    2    1    2    0    0  0.00000000000E+00  0.00000000000E+00  0.19438301008E+04  0.24857491611E+04  0.15493461301E+04 0.  0.
        3    1    3    3  502    0  0.17841054193E+03 -0.73660003497E+03  0.12291597866E+04  0.14440373002E+04  0.10100000352E+00 0.  1.
       -3    1    3    3    0  502 -0.17841054193E+03  0.73660003497E+03  0.71467031416E+03  0.10417118609E+04  0.10100000352E+00 0. -1.
</event>
<event>
 5   0  0.6146552E-04  0.1493263E+04  0.7818609E-02  0.8888946E-01
        1   -1    0    0  501    0  0.00000000000E+00  0.00000000000E+00  0.95651845535E+03  0.95651845536E+03  0.50400001928E-02 0.  1.
       -1   -1    0    0    0  501  0.00000000000E+00  0.00000000000E+00 -0.58279938792E+03  0.58279938794E+03  0.50400001928E-02 0. -1.
    10030    2    1    2    0    0  0.00000000000E+00  0.00000000000E+00  0.37371906744E+03  0.15393178433E+04  0.14932626967E+04 0.  0.
        5    1    3    3  502    0  0.35054708935E+03 -0.55258375785E+03  0.55739554180E+03  0.85961849173E+03  0.46999998093E+01 0.  1.
       -5    1    3    3    0  502 -0.35054708935E+03  0.55258375785E+03 -0.18367647437E+03  0.67969935158E+03  0.46999998093E+01 0. -1.
</event>
<event>
 5   0  0.5840834E-04  0.1500004E+04  0.7818609E-02  0.8884450E-01
        1   -1    0    0  501    0  0.00000000000E+00  0.00000000000E+00  0.14169232677E+04  0.14169232677E+04  0.50400001928E-02 0.  1.
       -1   -1    0    0    0  501  0.00000000000E+00  0.00000000000E+00 -0.39698887950E+03  0.39698887953E+03  0.50400001928E-02 0. -1.
    10030    2    1    2    0    0  0.00000000000E+00  0.00000000000E+00  0.10199343882E+04  0.18139121473E+04  0.15000037072E+04 0.  0.
        3    1    3    3  502    0  0.15754373604E+03  0.48719095765E+03  0.11726742898E+04  0.12795858933E+04  0.10100000352E+00 0.  1.
       -3    1    3    3    0  502 -0.15754373604E+03 -0.48719095765E+03 -0.15273990161E+03  0.53432625401E+03  0.10100000352E+00 0. -1.
</event>
<event>
 5   0  0.5914645E-04  0.1567773E+04  0.7818609E-02  0.8840595E-01
        1   -1    0    0  501    0  0.00000000000E+00  0.00000000000E+00  0.13704680727E+04  0.13704680727E+04  0.50400001928E-02 0. -1.
       -1   -1    0    0    0  501  0.00000000000E+00  0.00000000000E+00 -0.44837074245E+03  0.44837074248E+03  0.50400001928E-02 0.  1.
    10030    2    1    2    0    0  0.00000000000E+00  0.00000000000E+00  0.92209733023E+03  0.18188388152E+04  0.15677726714E+04 0.  0.
        2    1    3    3  502    0 -0.64018796133E+03  0.37218916734E+03  0.16274915730E+03  0.75819040506E+03  0.25500000920E-02 0. -1.
       -2    1    3    3    0  502  0.64018796133E+03 -0.37218916734E+03  0.75934817293E+03  0.10606484101E+04  0.25500000920E-02 0.  1.
</event>
<event>
 5   0  0.1097156E-03  0.1506148E+04  0.7818609E-02  0.8880375E-01
        2   -1    0    0  501    0  0.00000000000E+00  0.00000000000E+00  0.17648795998E+04  0.17648795998E+04  0.25500000920E-02 0. -1.
       -2   -1    0    0    0  501  0.00000000000E+00  0.00000000000E+00 -0.32133678218E+03  0.32133678220E+03  0.25500000920E-02 0.  1.
    10030    2    1    2    0    0  0.00000000000E+00  0.00000000000E+00  0.14435428176E+04  0.20862163820E+04  0.15061483746E+04 0.  0.
        2    1    3    3  502    0 -0.17726607954E+03  0.41913626132E+03  0.15528771314E+04  0.16181859762E+04  0.25500000920E-02 0. -1.
       -2    1    3    3    0  502  0.17726607954E+03 -0.41913626132E+03 -0.10933431380E+03  0.46803040573E+03  0.25500000920E-02 0.  1.
</event>
<event>
 5   0  0.5606965E-04  0.1499976E+04  0.7818609E-02  0.8884469E-01
        1   -1    0    0  501    0  0.00000000000E+00  0.00000000000E+00  0.89520808957E+03  0.89520808959E+03  0.50400001928E-02 0. -1.
       -1   -1    0    0    0  501  0.00000000000E+00  0.00000000000E+00 -0.62832581749E+03  0.62832581751E+03  0.50400001928E-02 0.  1.
    10030    2    1    2    0    0  0.00000000000E+00  0.00000000000E+00  0.26688227208E+03  0.15235339071E+04  0.14999764728E+04 0.  0.
        4    1    3    3  502    0 -0.60239495850E+03  0.18838471226E+03  0.54491114378E+03  0.83384546132E+03  0.12699999809E+01 0. -1.
       -4    1    3    3    0  502  0.60239495850E+03 -0.18838471226E+03 -0.27802887170E+03  0.68968844578E+03  0.12699999809E+01 0.  1.
</event>
<event>
 5   0  0.5914645E-04  0.1520099E+04  0.7818609E-02  0.8871196E-01
       -1   -1    0    0    0  501  0.00000000000E+00  0.00000000000E+00  0.33529887291E+03  0.33529887294E+03  0.50400001928E-02 0.  1.
        1   -1    0    0  501    0  0.00000000000E+00  0.00000000000E+00 -0.17228666040E+04  0.17228666040E+04  0.50400001928E-02 0. -1.
    10030    2    1    2    0    0  0.00000000000E+00  0.00000000000E+00 -0.13875677311E+04  0.20581654770E+04  0.15200989843E+04 0.  0.
        2    1    3    3  502    0 -0.47454064471E+01 -0.24030802996E+03 -0.16700547067E+04  0.16872620400E+04  0.25500000920E-02 0. -1.
       -2    1    3    3    0  502  0.47454064471E+01  0.24030802996E+03  0.28248697562E+03  0.37090343696E+03  0.25500000920E-02 0.  1.
</event>
<event>
 5   0  0.5840834E-04  0.1509760E+04  0.7818609E-02  0.8877989E-01
       -1   -1    0    0    0  501  0.00000000000E+00  0.00000000000E+00  0.25782823021E+03  0.25782823026E+03  0.50400001928E-02 0. -1.
        1   -1    0    0  501    0  0.00000000000E+00  0.00000000000E+00 -0.22101682552E+04  0.22101682553E+04  0.50400001928E-02 0.  1.
    10030    2    1    2    0    0  0.00000000000E+00  0.00000000000E+00 -0.19523400250E+04  0.24679964855E+04  0.15097599409E+04 0.  0.
        3    1    3    3  502    0 -0.24570291741E+03  0.64919064639E+03 -0.49117140006E+03  0.85033391878E+03  0.10100000352E+00 0. -1.
       -3    1    3    3    0  502  0.24570291741E+03 -0.64919064639E+03 -0.14611686250E+04  0.16176625667E+04  0.10100000352E+00 0.  1.
</event>
<event>
 5   0  0.1149716E-03  0.1504372E+04  0.7818609E-02  0.8881551E-01
        2   -1    0    0  501    0  0.00000000000E+00  0.00000000000E+00  0.14778285280E+04  0.14778285280E+04  0.25500000920E-02 0.  1.
       -2   -1    0    0    0  501  0.00000000000E+00  0.00000000000E+00 -0.38284802264E+03  0.38284802264E+03  0.25500000920E-02 0. -1.
    10030    2    1    2    0    0  0.00000000000E+00  0.00000000000E+00  0.10949805054E+04  0.18606765507E+04  0.15043719351E+04 0.  0.
        1    1    3    3  502    0 -0.52956835349E+03  0.18521963429E+03  0.11671918361E+04  0.12950234500E+04  0.50400001928E-02 0.  1.
       -1    1    3    3    0  502  0.52956835349E+03 -0.18521963429E+03 -0.72211330685E+02  0.56565310063E+03  0.50400001928E-02 0. -1.
</event>
<event>
 5   0  0.1147755E-03  0.1503222E+04  0.7818609E-02  0.8882313E-01
       -2   -1    0    0    0  501  0.00000000000E+00  0.00000000000E+00  0.50312563829E+03  0.50312563830E+03  0.25500000920E-02 0. -1.
        2   -1    0    0  501    0  0.00000000000E+00  0.00000000000E+00 -0.11228187732E+04  0.11228187732E+04  0.25500000920E-02 0.  1.
    10030    2    1    2    0    0  0.00000000000E+00  0.00000000000E+00 -0.61969313492E+03  0.16259444115E+04  0.15032217561E+04 0.  0.
        4    1    3    3  502    0  0.29902469736E+03 -0.67301914873E+03 -0.14743211860E+03  0.75107149239E+03  0.12699999809E+01 0. -1.
       -4    1    3    3    0  502 -0.29902469736E+03  0.67301914873E+03 -0.47226101632E+03  0.87487291913E+03  0.12699999809E+01 0.  1.
</event>
<event>
 5   0  0.5924403E-04  0.1531199E+04  0.7818609E-02  0.8863967E-01
       -1   -1    0    0    0  501  0.00000000000E+00  0.00000000000E+00  0.68351207519E+03  0.68351207521E+03  0.50400001928E-02 0. -1.
        1   -1    0    0  501    0  0.00000000000E+00  0.00000000000E+00 -0.85754580097E+03  0.85754580099E+03  0.50400001928E-02 0.  1.
    10030    2    1    2    0    0  0.00000000000E+00  0.00000000000E+00 -0.17403372578E+03  0.15410578762E+04  0.15311994123E+04 0.  0.
        1    1    3    3  502    0  0.19640967904E+03  0.75968170381E+02 -0.82782319546E+03  0.85418918742E+03  0.50400001928E-02 0.  1.
       -1    1    3    3    0  502 -0.19640967904E+03 -0.75968170381E+02  0.65378946968E+03  0.68686868878E+03  0.50400001928E-02 0. -1.
</event>
<event>
 5   0  0.1149716E-03  0.1511605E+04  0.7818609E-02  0.8876772E-01
        2   -1    0    0  501    0  0.00000000000E+00  0.00000000000E+00  0.82848776034E+03  0.82848776034E+03  0.25500000920E-02 0.  1.
       -2   -1    0    0    0  501  0.00000000000E+00  0.00000000000E+00 -0.68949374228E+03  0.68949374228E+03  0.25500000920E-02 0. -1.
    10030    2    1    2    0    0  0.00000000000E+00  0.00000000000E+00  0.13899401806E+03  0.15179815026E+04  0.15116046127E+04 0.  0.
        1    1    3    3  502    0 -0.73413704423E+03 -0.16264120660E+03 -0.71648360725E+01  0.75197120736E+03  0.50400001928E-02 0. -1.
       -1    1    3    3    0  502  0.73413704423E+03  0.16264120660E+03  0.14615885413E+03  0.76601029527E+03  0.50400001928E-02 0.  1.
</event>
<event>
 5   0  0.1147755E-03  0.1492722E+04  0.7818609E-02  0.8889307E-01
       -2   -1    0    0    0  501  0.00000000000E+00  0.00000000000E+00  0.52934805035E+03  0.52934805035E+03  0.25500000920E-02 0.  1.
        2   -1    0    0  501    0  0.00000000000E+00  0.00000000000E+00 -0.10523411042E+04  0.10523411042E+04  0.25500000920E-02 0. -1.
    10030    2    1    2    0    0  0.00000000000E+00  0.00000000000E+00 -0.52299305380E+03  0.15816891545E+04  0.14927219591E+04 0.  0.
        4    1    3    3  502    0  0.31826352670E+02  0.62292426190E+03  0.17281766851E+03  0.64723651955E+03  0.12699999809E+01 0.  1.
       -4    1    3    3    0  502 -0.31826352670E+02 -0.62292426190E+03 -0.69581072231E+03  0.93445263496E+03  0.12699999809E+01 0. -1.
</event>
<event>
 5   0  0.1082667E-03  0.1503550E+04  0.7818609E-02  0.8882096E-01
       -2   -1    0    0    0  501  0.00000000000E+00  0.00000000000E+00  0.62955211206E+03  0.62955211207E+03  0.25500000920E-02 0.  1.
        2   -1    0    0  501    0  0.00000000000E+00  0.00000000000E+00 -0.89772674250E+03  0.89772674250E+03  0.25500000920E-02 0. -1.
    10030    2    1    2    0    0  0.00000000000E+00  0.00000000000E+00 -0.26817463043E+03  0.15272788546E+04  0.15035501545E+04 0.  0.
        5    1    3    3  502    0  0.27678792832E+03  0.25290575860E+03  0.52778692470E+03  0.64742104375E+03  0.46999998093E+01 0.  1.
       -5    1    3    3    0  502 -0.27678792832E+03 -0.25290575860E+03 -0.79596155514E+03  0.87985781082E+03  0.46999998093E+01 0. -1.
</event>
<event>
 5   0  0.1149716E-03  0.1577336E+04  0.7818609E-02  0.8834594E-01
       -2   -1    0    0    0  501  0.00000000000E+00  0.00000000000E+00  0.42074569249E+03  0.42074569250E+03  0.25500000920E-02 0.  1.
        2   -1    0    0  501    0  0.00000000000E+00  0.00000000000E+00 -0.14783207931E+04  0.14783207931E+04  0.25500000920E-02 0. -1.
    10030    2    1    2    0    0  0.00000000000E+00  0.00000000000E+00 -0.10575751006E+04  0.18990664856E+04  0.15773358626E+04 0.  0.
        1    1    3    3  502    0  0.29164785017E+03 -0.67220063835E+03 -0.87997770962E+03  0.11451082639E+04  0.50400001928E-02 0.  1.
       -1    1    3    3    0  502 -0.29164785017E+03  0.67220063835E+03 -0.17759739100E+03  0.75395822167E+03  0.50400001928E-02 0. -1.
</event>
<event>
 5   0  0.1082667E-03  0.1496446E+04  0.7818609E-02  0.8886820E-01
       -2   -1    0    0    0  501  0.00000000000E+00  0.00000000000E+00  0.42023661427E+03  0.42023661428E+03  0.25500000920E-02 0. -1.
        2   -1    0    0  501    0  0.00000000000E+00  0.00000000000E+00 -0.13321961173E+04  0.13321961173E+04  0.25500000920E-02 0.  1.
    10030    2    1    2    0    0  0.00000000000E+00  0.00000000000E+00 -0.91195950307E+03  0.17524327316E+04  0.14964459040E+04 0.  0.
        5    1    3    3  502    0 -0.55661568811E+03 -0.27634162891E+03  0.31989477521E+02  0.62227898629E+03  0.46999998093E+01 0. -1.
       -5    1    3    3    0  502  0.55661568811E+03  0.27634162891E+03 -0.94394898059E+03  0.11301537453E+04  0.46999998093E+01 0.  1.
</event>
<event>
 5   0  0.1149716E-03  0.1498058E+04  0.7818609E-02  0.8885745E-01
       -2   -1    0    0    0  501  0.00000000000E+00  0.00000000000E+00  0.25689885606E+03  0.25689885607E+03  0.25500000920E-02 0.  1.
        2   -1    0    0  501    0  0.00000000000E+00  0.00000000000E+00 -0.21839132385E+04  0.21839132385E+04  0.25500000920E-02 0. -1.
    10030    2    1    2    0    0  0.00000000000E+00  0.00000000000E+00 -0.19270143824E+04  0.24408120946E+04  0.14980584938E+04 0.  0.
        1    1    3    3  502    0 -0.25125330765E+03 -0.45792608220E+03 -0.88789617898E+02  0.52981894798E+03  0.50400001928E-02 0.  1.
       -1    1    3    3    0  502  0.25125330765E+03  0.45792608220E+03 -0.18382247645E+04  0.19109931466E+04  0.50400001928E-02 0. -1.
</event>
<event>
 5   0  0.5606965E-04  0.1367784E+04  0.7818609E-02  0.8977474E-01
       -1   -1    0    0    0  501  0.00000000000E+00  0.00000000000E+00  0.60660501698E+03  0.60660501700E+03  0.50400001928E-02 0. -1.
        1   -1    0    0  501    0  0.00000000000E+00  0.00000000000E+00 -0.77102603180E+03  0.77102603181E+03  0.50400001928E-02 0.  1.
    10030    2    1    2    0    0  0.00000000000E+00  0.00000000000E+00 -0.16442101482E+03  0.13776310488E+04  0.13677839875E+04 0.  0.
        4    1    3    3  502    0 -0.42822366182E+03 -0.85343826102E+02 -0.61235295900E+03  0.75208831429E+03  0.12699999809E+01 0.  1.
       -4    1    3    3    0  502  0.42822366182E+03  0.85343826102E+02  0.44793194418E+03  0.62554273452E+03  0.12699999809E+01 0. -1.
</event>
<event>
 5   0  0.5840834E-04  0.1409009E+04  0.7818609E-02  0.8947323E-01
       -1   -1    0    0    0  501  0.00000000000E+00  0.00000000000E+00  0.43805789045E+03  0.43805789048E+03  0.50400001928E-02 0. -1.
        1   -1    0    0  501    0  0.00000000000E+00  0.00000000000E+00 -0.11330161271E+04  0.11330161271E+04  0.50400001928E-02 0.  1.
    10030    2    1    2    0    0  0.00000000000E+00  0.00000000000E+00 -0.69495823669E+03  0.15710740176E+04  0.14090090909E+04 0.  0.
        3    1    3    3  502    0  0.31198277257E+03 -0.17388049490E+03  0.32962295911E+03  0.48602364373E+03  0.10100000352E+00 0. -1.
       -3    1    3    3    0  502 -0.31198277257E+03  0.17388049490E+03 -0.10245811958E+04  0.10850503739E+04  0.10100000352E+00 0.  1.
</event>
<event>
 5   0  0.1149716E-03  0.1583106E+04  0.7818609E-02  0.8830995E-01
        2   -1    0    0  501    0  0.00000000000E+00  0.00000000000E+00  0.70032555958E+03  0.70032555959E+03  0.25500000920E-02 0.  1.
       -2   -1    0    0    0  501  0.00000000000E+00  0.00000000000E+00 -0.89466358692E+03  0.89466358692E+03  0.25500000920E-02 0. -1.
    10030    2    1    2    0    0  0.00000000000E+00  0.00000000000E+00 -0.19433802733E+03  0.15949891465E+04  0.15831055267E+04 0.  0.
        1    1    3    3  502    0 -0.42303163811E+03 -0.36932163765E+03  0.46487293985E+03  0.72901377841E+03  0.50400001928E-02 0.  1.
       -1    1    3    3    0  502  0.42303163811E+03  0.36932163765E+03 -0.65921096718E+03  0.86597536810E+03  0.50400001928E-02 0. -1.
</event>
<event>
 5   0  0.5914645E-04  0.1467719E+04  0.7818609E-02  0.8906208E-01
       -1   -1    0    0    0  501  0.00000000000E+00  0.00000000000E+00  0.13420429584E+04  0.13420429584E+04  0.50400001928E-02 0. -1.
        1   -1    0    0  501    0  0.00000000000E+00  0.00000000000E+00 -0.40129079813E+03  0.40129079817E+03  0.50400001928E-02 0.  1.
    10030    2    1    2    0    0  0.00000000000E+00  0.00000000000E+00  0.94075216022E+03  0.17433337565E+04  0.14677186242E+04 0.  0.
        2    1    3    3  502    0  0.46662335043E+03  0.47480649552E+03  0.83718994645E+03  0.10696100064E+04  0.25500000920E-02 0.  1.
       -2    1    3    3    0  502 -0.46662335043E+03 -0.47480649552E+03  0.10356221377E+03  0.67372375013E+03  0.25500000920E-02 0. -1.
</event>
<event>
 5   0  0.1097156E-03  0.1489789E+04  0.7818609E-02  0.8891272E-01
        2   -1    0    0  501    0  0.00000000000E+00  0.00000000000E+00  0.11195570013E+04  0.11195570013E+04  0.25500000920E-02 0.  1.
       -2   -1    0    0    0  501  0.00000000000E+00  0.00000000000E+00 -0.49561340504E+03  0.49561340504E+03  0.25500000920E-02 0. -1.
    10030    2    1    2    0    0  0.00000000000E+00  0.00000000000E+00  0.62394359624E+03  0.16151704063E+04  0.14897885186E+04 0.  0.
        2    1    3    3  502    0  0.34020542296E+03 -0.38908347671E+03 -0.26958908261E+03  0.58292705815E+03  0.25500000920E-02 0. -1.
       -2    1    3    3    0  502 -0.34020542296E+03  0.38908347671E+03  0.89353267885E+03  0.10322433482E+04  0.25500000920E-02 0.  1.
</event>
<event>
 5   0  0.5606965E-04  0.1532968E+04  0.7818609E-02  0.8862821E-01
       -1   -1    0    0    0  501  0.00000000000E+00  0.00000000000E+00  0.87390334980E+03  0.87390334982E+03  0.50400001928E-02 0. -1.
        1   -1    0    0  501    0  0.00000000000E+00  0.00000000000E+00 -0.67226817775E+03  0.67226817777E+03  0.50400001928E-02 0.  1.
    10030    2    1    2    0    0  0.00000000000E+00  0.00000000000E+00  0.20163517205E+03  0.15461715276E+04  0.15329675959E+04 0.  0.
        4    1    3    3  502    0 -0.16864703711E+03  0.62693219889E+03 -0.31013509148E+03  0.71949370602E+03  0.12699999809E+01 0.  1.
       -4    1    3    3    0  502  0.16864703711E+03 -0.62693219889E+03  0.51177026353E+03  0.82667782156E+03  0.12699999809E+01 0. -1.
</event>
<event>
 5   0  0.1082667E-03  0.1499113E+04  0.7818609E-02  0.8885043E-01
       -2   -1    0    0    0  501  0.00000000000E+00  0.00000000000E+00  0.38844757471E+03  0.38844757472E+03  0.25500000920E-02 0. -1.
        2   -1    0    0  501    0  0.00000000000E+00  0.00000000000E+00 -0.14463605263E+04  0.14463605263E+04  0.25500000920E-02 0.  1.
    10030    2    1    2    0    0  0.00000000000E+00  0.00000000000E+00 -0.10579129516E+04  0.18348081010E+04  0.14991133895E+04 0.  0.
        5    1    3    3  502    0 -0.48353581706E+03  0.32129007185E+03 -0.11092316449E+04  0.12519788851E+04  0.46999998093E+01 0.  1.
       -5    1    3    3    0  502  0.48353581706E+03 -0.32129007185E+03  0.51318693339E+02  0.58282921592E+03  0.46999998093E+01 0. -1.
</event>
<event>
 5   0  0.5924403E-04  0.1724653E+04  0.7818609E-02  0.8747427E-01
       -1   -1    0    0    0  501  0.00000000000E+00  0.00000000000E+00  0.36312258572E+03  0.36312258576E+03  0.50400001928E-02 0. -1.
        1   -1    0    0  501    0  0.00000000000E+00  0.00000000000E+00 -0.20478123829E+04  0.20478123829E+04  0.50400001928E-02 0.  1.
    10030    2    1    2    0    0  0.00000000000E+00  0.00000000000E+00 -0.16846897972E+04  0.24109349687E+04  0.17246529246E+04 0.  0.
        1    1    3    3  502    0 -0.25282073698E+02 -0.11335758531E+02 -0.20471899738E+04  0.20473774619E+04  0.50400001928E-02 0.  1.
       -1    1    3    3    0  502  0.25282073698E+02  0.11335758531E+02  0.36250017660E+03  0.36355750678E+03  0.50400001928E-02 0. -1.
</event>
<event>
 5   0  0.1149716E-03  0.1351237E+04  0.7818609E-02  0.8989893E-01
        2   -1    0    0  501    0  0.00000000000E+00  0.00000000000E+00  0.68838339301E+03  0.68838339302E+03  0.25500000920E-02 0. -1.
       -2   -1    0    0    0  501  0.00000000000E+00  0.00000000000E+00 -0.66308993413E+03  0.66308993414E+03  0.25500000920E-02 0.  1.
    10030    2    1    2    0    0  0.00000000000E+00  0.00000000000E+00  0.25293458883E+02  0.13514733272E+04  0.13512366169E+04 0.  0.
        1    1    3    3  502    0  0.22038572770E+03  0.58607151767E+03 -0.24118978247E+03  0.67098599388E+03  0.50400001928E-02 0. -1.
       -1    1    3    3    0  502 -0.22038572770E+03 -0.58607151767E+03  0.26648324136E+03  0.68048733327E+03  0.50400001928E-02 0.  1.
</event>
<event>
 5   0  0.5914645E-04  0.1492313E+04  0.7818609E-02  0.8889581E-01
        1   -1    0    0  501    0  0.00000000000E+00  0.00000000000E+00  0.12862344366E+04  0.12862344366E+04  0.50400001928E-02 0. -1.
       -1   -1    0    0    0  501  0.00000000000E+00  0.00000000000E+00 -0.43285218779E+03  0.43285218782E+03  0.50400001928E-02 0.  1.
    10030    2    1    2    0    0  0.00000000000E+00  0.00000000000E+00  0.85338224881E+03  0.17190866244E+04  0.14923128223E+04 0.  0.
        2    1    3    3  502    0 -0.68015366872E+03 -0.27991554614E+03  0.28194837211E+03  0.78769068204E+03  0.25500000920E-02 0. -1.
       -2    1    3    3    0  502  0.68015366872E+03  0.27991554614E+03  0.57143387670E+03  0.93139594238E+03  0.25500000920E-02 0.  1.
</event>
<event>
 5   0  0.5914645E-04  0.1459060E+04  0.7818609E-02  0.8912144E-01
        1   -1    0    0  501    0  0.00000000000E+00  0.00000000000E+00  0.16427320857E+04  0.16427320857E+04  0.50400001928E-02 0.  1.
       -1   -1    0    0    0  501  0.00000000000E+00  0.00000000000E+00 -0.32398095371E+03  0.32398095375E+03  0.50400001928E-02 0. -1.
    10030    2    1    2    0    0  0.00000000000E+00  0.00000000000E+00  0.13187511320E+04  0.19667130395E+04  0.14590598451E+04 0.  0.
        2    1    3    3  502    0 -0.48225026774E+03 -0.42210342866E+03  0.11291781770E+04  0.12983759011E+04  0.25500000920E-02 0.  1.
       -2    1    3    3    0  502  0.48225026774E+03  0.42210342866E+03  0.18957295503E+03  0.66833713836E+03  0.25500000920E-02 0. -1.
</event>
<event>
 5   0  0.6146552E-04  0.1514420E+04  0.7818609E-02  0.8874920E-01
       -1   -1    0    0    0  501  0.00000000000E+00  0.00000000000E+00  0.68568597596E+03  0.68568597597E+03  0.50400001928E-02 0. -1.
        1   -1    0    0  501    0  0.00000000000E+00  0.00000000000E+00 -0.83619421621E+03  0.83619421622E+03  0.50400001928E-02 0.  1.
    10030    2    1    2    0    0  0.00000000000E+00  0.00000000000E+00 -0.15050824025E+03  0.15218801922E+04  0.15144195551E+04 0.  0.
        5    1    3    3  502    0  0.14319042771E+03  0.46805404310E+03 -0.65582548203E+03  0.81835642523E+03  0.46999998093E+01 0.  1.
       -5    1    3    3    0  502 -0.14319042771E+03 -0.46805404310E+03  0.50531724178E+03  0.70352376696E+03  0.46999998093E+01 0. -1.
</event>
<event>
 5   0  0.6146552E-04  0.1511061E+04  0.7818609E-02  0.8877130E-01
       -1   -1    0    0    0  501  0.00000000000E+00  0.00000000000E+00  0.59458379763E+03  0.59458379765E+03  0.50400001928E-02 0.  1.
        1   -1    0    0  501    0  0.00000000000E+00  0.00000000000E+00 -0.96004399772E+03  0.96004399773E+03  0.50400001928E-02 0. -1.
    10030    2    1    2    0    0  0.00000000000E+00  0.00000000000E+00 -0.36546020009E+03  0.15546277954E+04  0.15110613569E+04 0.  0.
        5    1    3    3  502    0  0.48151772973E+03 -0.25936851047E+03 -0.71898059045E+03  0.90337507587E+03  0.46999998093E+01 0. -1.
       -5    1    3    3    0  502 -0.48151772973E+03  0.25936851047E+03  0.35352039036E+03  0.65125271951E+03  0.46999998093E+01 0.  1.
</event>
<event>
 5   0  0.5606965E-04  0.1500545E+04  0.7818609E-02  0.8884091E-01
       -1   -1    0    0    0  501  0.00000000000E+00  0.00000000000E+00  0.21438479528E+03  0.21438479534E+03  0.50400001928E-02 0.  1.
        1   -1    0    0  501    0  0.00000000000E+00  0.00000000000E+00 -0.26256925948E+04  0.26256925948E+04  0.50400001928E-02 0. -1.
    10030    2    1    2    0    0  0.00000000000E+00  0.00000000000E+00 -0.24113077996E+04  0.28400773902E+04  0.15005446605E+04 0.  0.
        4    1    3    3  502    0  0.37943514478E+03 -0.59735368287E+03 -0.16773288380E+04  0.18205043519E+04  0.12699999809E+01 0. -1.
       -4    1    3    3    0  502 -0.37943514478E+03  0.59735368287E+03 -0.73397896155E+03  0.10195730383E+04  0.12699999809E+01 0.  1.
</event>
<event>
 5   0  0.1147755E-03  0.1512899E+04  0.7818609E-02  0.8875921E-01
       -2   -1    0    0    0  501  0.00000000000E+00  0.00000000000E+00  0.72474320839E+03  0.72474320839E+03  0.25500000920E-02 0. -1.
        2   -1    0    0  501    0  0.00000000000E+00  0.00000000000E+00 -0.78954246404E+03  0.78954246404E+03  0.25500000920E-02 0.  1.
    10030    2    1    2    0    0  0.00000000000E+00  0.00000000000E+00 -0.64799255649E+02  0.15142856724E+04  0.15128985935E+04 0.  0.
        4    1    3    3  502    0 -0.28075067291E+03  0.62142301629E+03  0.29535504907E+03  0.74311757039E+03  0.12699999809E+01 0. -1.
       -4    1    3    3    0  502  0.28075067291E+03 -0.62142301629E+03 -0.36015430472E+03  0.77116810205E+03  0.12699999809E+01 0.  1.
</event>
<event>
 5   0  0.1149716E-03  0.1544640E+04  0.7818609E-02  0.8855299E-01
       -2   -1    0    0    0  501  0.00000000000E+00  0.00000000000E+00  0.82742670249E+03  0.82742670249E+03  0.25500000920E-02 0. -1.
        2   -1    0    0  501    0  0.00000000000E+00  0.00000000000E+00 -0.72088313929E+03  0.72088313929E+03  0.25500000920E-02 0.  1.
    10030    2    1    2    0    0  0.00000000000E+00  0.00000000000E+00  0.10654356320E+03  0.15483098418E+04  0.15446397105E+04 0.  0.
        1    1    3    3  502    0 -0.38957812635E+03 -0.36308271484E+03  0.61395562597E+03  0.81273715618E+03  0.50400001928E-02 0. -1.
       -1    1    3    3    0  502  0.38957812635E+03  0.36308271484E+03 -0.50741206277E+03  0.73557268561E+03  0.50400001928E-02 0.  1.
</event>
<event>
 5   0  0.1082667E-03  0.1505005E+04  0.7818609E-02  0.8881131E-01
        2   -1    0    0  501    0  0.00000000000E+00  0.00000000000E+00  0.12658420367E+04  0.12658420367E+04  0.25500000920E-02 0. -1.
       -2   -1    0    0    0  501  0.00000000000E+00  0.00000000000E+00 -0.44733877698E+03  0.44733877698E+03  0.25500000920E-02 0.  1.
    10030    2    1    2    0    0  0.00000000000E+00  0.00000000000E+00  0.81850325968E+03  0.17131808136E+04  0.15050052871E+04 0.  0.
        5    1    3    3  502    0  0.47605385595E+03 -0.49297407659E+03  0.76302526930E+03  0.10256121906E+04  0.46999998093E+01 0. -1.
       -5    1    3    3    0  502 -0.47605385595E+03  0.49297407659E+03  0.55477990376E+02  0.68756862302E+03  0.46999998093E+01 0.  1.
</event>
<event>
 5   0  0.1097156E-03  0.1515662E+04  0.7818609E-02  0.8874104E-01
        2   -1    0    0  501    0  0.00000000000E+00  0.00000000000E+00  0.41158829464E+03  0.41158829464E+03  0.25500000920E-02 0. -1.
       -2   -1    0    0    0  501  0.00000000000E+00  0.00000000000E+00 -0.13953448737E+04  0.13953448737E+04  0.25500000920E-02 0.  1.
    10030    2    1    2    0    0  0.00000000000E+00  0.00000000000E+00 -0.98375657907E+03  0.18069331683E+04  0.15156617261E+04 0.  0.
        2    1    3    3  502    0 -0.41880960220E+03  0.37270464151E+03  0.11601072555E+03  0.57251089173E+03  0.25500000920E-02 0. -1.
       -2    1    3    3    0  502  0.41880960220E+03 -0.37270464151E+03 -0.10997673046E+04  0.12344222766E+04  0.25500000920E-02 0.  1.
</event>
<event>
 5   0  0.5914645E-04  0.1490104E+04  0.7818609E-02  0.8891060E-01
       -1   -1    0    0    0  501  0.00000000000E+00  0.00000000000E+00  0.77463614777E+03  0.77463614778E+03  0.50400001928E-02 0. -1.
        1   -1    0    0  501    0  0.00000000000E+00  0.00000000000E+00 -0.71659788962E+03  0.71659788964E+03  0.50400001928E-02 0.  1.
    10030    2    1    2    0    0  0.00000000000E+00  0.00000000000E+00  0.58038258148E+02  0.14912340374E+04  0.14901041960E+04 0.  0.
        2    1    3    3  502    0 -0.60730944359E+03 -0.34800434142E+02  0.45953922263E+03  0.76237269602E+03  0.25500000920E-02 0. -1.
       -2    1    3    3    0  502  0.60730944359E+03  0.34800434142E+02 -0.40150096449E+03  0.72886134140E+03  0.25500000920E-02 0.  1.
</event>
<event>
 5   0  0.5924403E-04  0.1467741E+04  0.7818609E-02  0.8906192E-01
        1   -1    0    0  501    0  0.00000000000E+00  0.00000000000E+00  0.95939221060E+03  0.95939221061E+03  0.50400001928E-02 0. -1.
       -1   -1    0    0    0  501  0.00000000000E+00  0.00000000000E+00 -0.56136190190E+03  0.56136190192E+03  0.50400001928E-02 0.  1.
    10030    2    1    2    0    0  0.00000000000E+00  0.00000000000E+00  0.39803030870E+03  0.15207541125E+04  0.14677414432E+04 0.  0.
        1    1    3    3  502    0  0.43408546882E+03  0.25269911465E+03  0.75339105060E+03  0.90547507527E+03  0.50400001928E-02 0. -1.
       -1    1    3    3    0  502 -0.43408546882E+03 -0.25269911465E+03 -0.35536074190E+03  0.61527903726E+03  0.50400001928E-02 0.  1.
</event>
<event>
 5   0  0.1082667E-03  0.1496221E+04  0.7818609E-02  0.8886970E-01
        2   -1    0    0  501    0  0.00000000000E+00  0.00000000000E+00  0.94856656860E+03  0.94856656860E+03  0.25500000920E-02 0.  1.
       -2   -1    0    0    0  501  0.00000000000E+00  0.00000000000E+00 -0.59001610691E+03  0.59001610692E+03  0.25500000920E-02 0. -1.
    10030    2    1    2    0    0  0.00000000000E+00  0.00000000000E+00  0.35855046169E+03  0.15385826755E+04  0.14962213125E+04 0.  0.
        5    1    3    3  502    0  0.71560556263E+03  0.11818763362E+03  0.36773382556E+03  0.81320962517E+03  0.46999998093E+01 0. -1.
       -5    1    3    3    0  502 -0.71560556263E+03 -0.11818763362E+03 -0.91833638725E+01  0.72537305035E+03  0.46999998093E+01 0.  1.
</event>
<event>
 5   0  0.1149716E-03  0.1503826E+04  0.7818609E-02  0.8881913E-01
        2   -1    0    0  501    0  0.00000000000E+00  0.00000000000E+00  0.65513060711E+03  0.65513060712E+03  0.25500000920E-02 0. -1.
       -2   -1    0    0    0  501  0.00000000000E+00  0.00000000000E+00 -0.86299258703E+03  0.86299258703E+03  0.25500000920E-02 0.  1.
    10030    2    1    2    0    0  0.00000000000E+00  0.00000000000E+00 -0.20786197991E+03  0.15181231941E+04  0.15038255982E+04 0.  0.
        1    1    3    3  502    0  0.47976550130E+03 -0.95078627033E+02  0.47260117800E+03  0.68012260294E+03  0.50400001928E-02 0. -1.
       -1    1    3    3    0  502 -0.47976550130E+03  0.95078627033E+02 -0.68046315792E+03  0.83800059121E+03  0.50400001928E-02 0.  1.
</event>
<event>
 5   0  0.6146552E-04  0.1485498E+04  0.7818609E-02  0.8894154E-01
       -1   -1    0    0    0  501  0.00000000000E+00  0.00000000000E+00  0.12915710105E+04  0.12915710105E+04  0.50400001928E-02 0.  1.
        1   -1    0    0  501    0  0.00000000000E+00  0.00000000000E+00 -0.42713556471E+03  0.42713556474E+03  0.50400001928E-02 0. -1.
    10030    2    1    2    0    0  0.00000000000E+00  0.00000000000E+00  0.86443544583E+03  0.17187065753E+04  0.14854977792E+04 0.  0.
        5    1    3    3  502    0  0.62667147841E+03  0.11131115319E+03  0.87512974556E+03  0.10821189751E+04  0.46999998093E+01 0.  1.
       -5    1    3    3    0  502 -0.62667147841E+03 -0.11131115319E+03 -0.10694299735E+02  0.63658760020E+03  0.46999998093E+01 0. -1.
</event>
<event>
 5   0  0.5840834E-04  0.1409671E+04  0.7818609E-02  0.8946848E-01
       -1   -1    0    0    0  501  0.00000000000E+00  0.00000000000E+00  0.83573233911E+03  0.83573233912E+03  0.50400001928E-02 0.  1.
        1   -1    0    0  501    0  0.00000000000E+00  0.00000000000E+00 -0.59444006243E+03  0.59444006245E+03  0.50400001928E-02 0. -1.
    10030    2    1    2    0    0  0.00000000000E+00  0.00000000000E+00  0.24129227667E+03  0.14301724016E+04  0.14096705769E+04 0.  0.
        3    1    3    3  502    0 -0.68657604687E+03 -0.44153404240E+02  0.27602900384E+03  0.74130170133E+03  0.10100000352E+00 0.  1.
       -3    1    3    3    0  502  0.68657604687E+03  0.44153404240E+02 -0.34736727161E+02  0.68887070024E+03  0.10100000352E+00 0. -1.
</event>
<event>
 5   0  0.1082667E-03  0.1414800E+04  0.7818609E-02  0.8943174E-01
        2   -1    0    0  501    0  0.00000000000E+00  0.00000000000E+00  0.11972537572E+04  0.11972537572E+04  0.25500000920E-02 0.  1.
       -2   -1    0    0    0  501  0.00000000000E+00  0.00000000000E+00 -0.41796903120E+03  0.41796903120E+03  0.25500000920E-02 0. -1.
    10030    2    1    2    0    0  0.00000000000E+00  0.00000000000E+00  0.77928472602E+03  0.16152227884E+04  0.14148003294E+04 0.  0.
        5    1    3    3  502    0 -0.23122565612E+03 -0.24432619956E+03  0.11000752754E+04  0.11503687658E+04  0.46999998093E+01 0.  1.
       -5    1    3    3    0  502  0.23122565612E+03  0.24432619956E+03 -0.32079054933E+03  0.46485402265E+03  0.46999998093E+01 0. -1.
</event>
<event>
 5   0  0.5840834E-04  0.1477055E+04  0.7818609E-02  0.8899856E-01
       -1   -1    0    0    0  501  0.00000000000E+00  0.00000000000E+00  0.35124553177E+03  0.35124553181E+03  0.50400001928E-02 0.  1.
        1   -1    0    0  501    0  0.00000000000E+00  0.00000000000E+00 -0.15528256211E+04  0.15528256211E+04  0.50400001928E-02 0. -1.
    10030    2    1    2    0    0  0.00000000000E+00  0.00000000000E+00 -0.12015800893E+04  0.19040711529E+04  0.14770552611E+04 0.  0.
        3    1    3    3  502    0 -0.44862514801E+03 -0.58442472463E+03 -0.53497941857E+03  0.91050522825E+03  0.10100000352E+00 0. -1.
       -3    1    3    3    0  502  0.44862514801E+03  0.58442472463E+03 -0.66660067075E+03  0.99356592465E+03  0.10100000352E+00 0.  1.
</event>
<event>
 5   0  0.1082667E-03  0.1507258E+04  0.7818609E-02  0.8879641E-01
        2   -1    0    0  501    0  0.00000000000E+00  0.00000000000E+00  0.10200261963E+04  0.10200261963E+04  0.25500000920E-02 0. -1.
       -2   -1    0    0    0  501  0.00000000000E+00  0.00000000000E+00 -0.55680591947E+03  0.55680591947E+03  0.25500000920E-02 0.  1.
    10030    2    1    2    0    0  0.00000000000E+00  0.00000000000E+00  0.46322027687E+03  0.15768321158E+04  0.15072579396E+04 0.  0.
        5    1    3    3  502    0  0.42748656065E+03 -0.37088876690E+03  0.75220591786E+03  0.94134960021E+03  0.46999998093E+01 0. -1.
       -5    1    3    3    0  502 -0.42748656065E+03  0.37088876690E+03 -0.28898564099E+03  0.63548251561E+03  0.46999998093E+01 0.  1.
</event>
<event>
 5   0  0.5914645E-04  0.1491701E+04  0.7818609E-02  0.8889990E-01
       -1   -1    0    0    0  501  0.00000000000E+00  0.00000000000E+00  0.80298329024E+03  0.80298329025E+03  0.50400001928E-02 0. -1.
        1   -1    0    0  501    0  0.00000000000E+00  0.00000000000E+00 -0.69278279967E+03  0.69278279969E+03  0.50400001928E-02 0.  1.
    10030    2    1    2    0    0  0.00000000000E+00  0.00000000000E+00  0.11020049057E+03  0.14957660899E+04  0.14917010584E+04 0.  0.
        2    1    3    3  502    0 -0.80373210411E+02  0.20217292926E+03  0.77045817875E+03  0.80058700432E+03  0.25500000920E-02 0. -1.
       -2    1    3    3    0  502  0.80373210411E+02 -0.20217292926E+03 -0.66025768818E+03  0.69517908562E+03  0.25500000920E-02 0.  1.
</event>
<event>
 5   0  0.1149716E-03  0.1502656E+04  0.7818609E-02  0.8882689E-01
        2   -1    0    0  501    0  0.00000000000E+00  0.00000000000E+00  0.17559770257E+04  0.17559770257E+04  0.25500000920E-02 0. -1.
       -2   -1    0    0    0  501  0.00000000000E+00  0.00000000000E+00 -0.32146992561E+03  0.32146992562E+03  0.25500000920E-02 0.  1.
    10030    2    1    2    0    0  0.00000000000E+00  0.00000000000E+00  0.14345071001E+04  0.20774469514E+04  0.15026560536E+04 0.  0.
        1    1    3    3  502    0  0.62397921333E+03 -0.22633591585E+03  0.12039225654E+04  0.13747754540E+04  0.50400001928E-02 0. -1.
       -1    1    3    3    0  502 -0.62397921333E+03  0.22633591585E+03  0.23058453470E+03  0.70267149732E+03  0.50400001928E-02 0.  1.
</event>
<event>
 5   0  0.5914645E-04  0.1511551E+04  0.7818609E-02  0.8876808E-01
        1   -1    0    0  501    0  0.00000000000E+00  0.00000000000E+00  0.70143312583E+03  0.70143312585E+03  0.50400001928E-02 0. -1.
       -1   -1    0    0    0  501  0.00000000000E+00  0.00000000000E+00 -0.81432811465E+03  0.81432811467E+03  0.50400001928E-02 0.  1.
    10030    2    1    2    0    0  0.00000000000E+00  0.00000000000E+00 -0.11289498882E+03  0.15157612405E+04  0.15115511436E+04 0.  0.
        2    1    3    3  502    0 -0.14392089627E+03  0.53321023884E+03 -0.57380145038E+03  0.79641351549E+03  0.25500000920E-02 0.  1.
       -2    1    3    3    0  502  0.14392089627E+03 -0.53321023884E+03  0.46090646156E+03  0.71934772503E+03  0.25500000920E-02 0. -1.
</event>
<event>
 5   0  0.1147755E-03  0.1508470E+04  0.7818609E-02  0.8878840E-01
       -2   -1    0    0    0  501  0.00000000000E+00  0.00000000000E+00  0.25440225400E+03  0.25440225401E+03  0.25500000920E-02 0.  1.
        2   -1    0    0  501    0  0.00000000000E+00  0.00000000000E+00 -0.22361065969E+04  0.22361065969E+04  0.25500000920E-02 0. -1.
    10030    2    1    2    0    0  0.00000000000E+00  0.00000000000E+00 -0.19817043429E+04  0.24905088509E+04  0.15084701634E+04 0.  0.
        4    1    3    3  502    0  0.51784661475E+03 -0.10558000224E+03 -0.10243249542E+03  0.53833658830E+03  0.12699999809E+01 0.  1.
       -4    1    3    3    0  502 -0.51784661475E+03  0.10558000224E+03 -0.18792718475E+04  0.19521722626E+04  0.12699999809E+01 0. -1.
</event>
<event>
 5   0  0.5606965E-04  0.1487569E+04  0.7818609E-02  0.8892762E-01
        1   -1    0    0  501    0  0.00000000000E+00  0.00000000000E+00  0.16798116701E+04  0.16798116701E+04  0.50400001928E-02 0. -1.
       -1   -1    0    0    0  501  0.00000000000E+00  0.00000000000E+00 -0.32933187326E+03  0.32933187330E+03  0.50400001928E-02 0.  1.
    10030    2    1    2    0    0  0.00000000000E+00  0.00000000000E+00  0.13504797968E+04  0.20091435434E+04  0.14875691904E+04 0.  0.
        4    1    3    3  502    0 -0.50917469702E+03 -0.22577036919E+03  0.13410057857E+04  0.14520775675E+04  0.12699999809E+01 0. -1.
       -4    1    3    3    0  502  0.50917469702E+03  0.22577036919E+03  0.94740110450E+01  0.55706597587E+03  0.12699999809E+01 0.  1.
</event>
<event>
 5   0  0.5914645E-04  0.1501543E+04  0.7818609E-02  0.8883428E-01
        1   -1    0    0  501    0  0.00000000000E+00  0.00000000000E+00  0.13865096930E+04  0.13865096930E+04  0.50400001928E-02 0. -1.
       -1   -1    0    0    0  501  0.00000000000E+00  0.00000000000E+00 -0.40653001181E+03  0.40653001184E+03  0.50400001928E-02 0.  1.
    10030    2    1    2    0    0  0.00000000000E+00  0.00000000000E+00  0.97997968121E+03  0.17930397049E+04  0.15015429423E+04 0.  0.
        2    1    3    3  502    0 -0.92489400163E+02  0.67142617310E+03  0.10435671675E+03  0.68575339548E+03  0.25500000920E-02 0. -1.
       -2    1    3    3    0  502  0.92489400163E+02 -0.67142617310E+03  0.87562296446E+03  0.11072863094E+04  0.25500000920E-02 0.  1.
</event>
<event>
 5   0  0.6146552E-04  0.1502542E+04  0.7818609E-02  0.8882764E-01
       -1   -1    0    0    0  501  0.00000000000E+00  0.00000000000E+00  0.74788573229E+03  0.74788573230E+03  0.50400001928E-02 0. -1.
        1   -1    0    0  501    0  0.00000000000E+00  0.00000000000E+00 -0.75467151727E+03  0.75467151729E+03  0.50400001928E-02 0.  1.
    10030    2    1    2    0    0  0.00000000000E+00  0.00000000000E+00 -0.67857849859E+01  0.15025572496E+04  0.15025419267E+04 0.  0.
        5    1    3    3  502    0 -0.37391251393E+03 -0.58524172308E+03  0.28308433471E+03  0.74998484856E+03  0.46999998093E+01 0. -1.
       -5    1    3    3    0  502  0.37391251393E+03  0.58524172308E+03 -0.28987011969E+03  0.75257240103E+03  0.46999998093E+01 0.  1.
</event>
<event>
 5   0  0.5914645E-04  0.1499903E+04  0.7818609E-02  0.8884517E-01
        1   -1    0    0  501    0  0.00000000000E+00  0.00000000000E+00  0.67480299744E+03  0.67480299746E+03  0.50400001928E-02 0. -1.
       -1   -1    0    0    0  501  0.00000000000E+00  0.00000000000E+00 -0.83346893098E+03  0.83346893099E+03  0.50400001928E-02 0.  1.
    10030    2    1    2    0    0  0.00000000000E+00  0.00000000000E+00 -0.15866593354E+03  0.15082719284E+04  0.14999031074E+04 0.  0.
        2    1    3    3  502    0 -0.16312702906E+03 -0.25135450787E+03 -0.77065544320E+03  0.82686113004E+03  0.25500000920E-02 0.  1.
       -2    1    3    3    0  502  0.16312702906E+03  0.25135450787E+03  0.61198950966E+03  0.68141079840E+03  0.25500000920E-02 0. -1.
</event>
<event>
 5   0  0.5840834E-04  0.1507815E+04  0.7818609E-02  0.8879272E-01
        1   -1    0    0  501    0  0.00000000000E+00  0.00000000000E+00  0.74269024902E+03  0.74269024904E+03  0.50400001928E-02 0. -1.
       -1   -1    0    0    0  501  0.00000000000E+00  0.00000000000E+00 -0.76529449991E+03  0.76529449993E+03  0.50400001928E-02 0.  1.
    10030    2    1    2    0    0  0.00000000000E+00  0.00000000000E+00 -0.22604250893E+02  0.15079847490E+04  0.15078153239E+04 0.  0.
        3    1    3    3  502    0 -0.11003545576E+03  0.58623000357E+03  0.44983897530E+03  0.74708000409E+03  0.10100000352E+00 0. -1.
       -3    1    3    3    0  502  0.11003545576E+03 -0.58623000357E+03 -0.47244322619E+03  0.76090474488E+03  0.10100000352E+00 0.  1.
</event>
<event>
 5   0  0.6146552E-04  0.1497079E+04  0.7818609E-02  0.8886397E-01
       -1   -1    0    0    0  501  0.00000000000E+00  0.00000000000E+00  0.10088750065E+04  0.10088750065E+04  0.50400001928E-02 0. -1.
        1   -1    0    0  501    0  0.00000000000E+00  0.00000000000E+00 -0.55538257764E+03  0.55538257767E+03  0.50400001928E-02 0.  1.
    10030    2    1    2    0    0  0.00000000000E+00  0.00000000000E+00  0.45349242882E+03  0.15642575841E+04  0.14970792920E+04 0.  0.
        5    1    3    3  502    0  0.50930553865E+03  0.51362124898E+03  0.25514998267E+02  0.72379004154E+03  0.46999998093E+01 0.  1.
       -5    1    3    3    0  502 -0.50930553865E+03 -0.51362124898E+03  0.42797743055E+03  0.84046754260E+03  0.46999998093E+01 0. -1.
</event>
<event>
 5   0  0.6146552E-04  0.1494619E+04  0.7818609E-02  0.8888039E-01
        1   -1    0    0  501    0  0.00000000000E+00  0.00000000000E+00  0.10193834963E+04  0.10193834963E+04  0.50400001928E-02 0. -1.
       -1   -1    0    0    0  501  0.00000000000E+00  0.00000000000E+00 -0.54785250241E+03  0.54785250243E+03  0.50400001928E-02 0.  1.
    10030    2    1    2    0    0  0.00000000000E+00  0.00000000000E+00  0.47153099386E+03  0.15672359987E+04  0.14946194156E+04 0.  0.
        5    1    3    3  502    0  0.40553617952E+03 -0.11676181284E+03 -0.41092930329E+03  0.58904829695E+03  0.46999998093E+01 0.  1.
       -5    1    3    3    0  502 -0.40553617952E+03  0.11676181284E+03  0.88246029716E+03  0.97818770177E+03  0.46999998093E+01 0. -1.
</event>
<event>
 5   0  0.6146552E-04  0.1514893E+04  0.7818609E-02  0.8874610E-01
        1   -1    0    0  501    0  0.00000000000E+00  0.00000000000E+00  0.60509733976E+03  0.60509733978E+03  0.50400001928E-02 0.  1.
       -1   -1    0    0    0  501  0.00000000000E+00  0.00000000000E+00 -0.94815294001E+03  0.94815294002E+03  0.50400001928E-02 0. -1.
    10030    2    1    2    0    0  0.00000000000E+00  0.00000000000E+00 -0.34305560025E+03  0.15532502798E+04  0.15148925001E+04 0.  0.
        5    1    3    3  502    0  0.16133025371E+03 -0.41418643745E+03 -0.80034679751E+03  0.91550802401E+03  0.46999998093E+01 0. -1.
       -5    1    3    3    0  502 -0.16133025371E+03  0.41418643745E+03  0.45729119726E+03  0.63774225579E+03  0.46999998093E+01 0.  1.
</event>
<event>
 5   0  0.1147755E-03  0.1512315E+04  0.7818609E-02  0.8876305E-01
        2   -1    0    0  501    0  0.00000000000E+00  0.00000000000E+00  0.56184620543E+03  0.56184620543E+03  0.25500000920E-02 0.  1.
       -2   -1    0    0    0  501  0.00000000000E+00  0.00000000000E+00 -0.10176699318E+04  0.10176699318E+04  0.25500000920E-02 0. -1.
    10030    2    1    2    0    0  0.00000000000E+00  0.00000000000E+00 -0.45582372633E+03  0.15795161372E+04  0.15123147682E+04 0.  0.
        4    1    3    3  502    0  0.16375748038E+03 -0.26238748668E+03 -0.94857933416E+03  0.99773146269E+03  0.12699999809E+01 0. -1.
       -4    1    3    3    0  502 -0.16375748038E+03  0.26238748668E+03  0.49275560783E+03  0.58178467451E+03  0.12699999809E+01 0.  1.
</event>
<event>
 5   0  0.5606965E-04  0.1508419E+04  0.7818609E-02  0.8878873E-01
        1   -1    0    0  501    0  0.00000000000E+00  0.00000000000E+00  0.11657282443E+04  0.11657282443E+04  0.50400001928E-02 0. -1.
       -1   -1    0    0    0  501  0.00000000000E+00  0.00000000000E+00 -0.48796304047E+03  0.48796304050E+03  0.50400001928E-02 0.  1.
    10030    2    1    2    0    0  0.00000000000E+00  0.00000000000E+00  0.67776520379E+03  0.16536912848E+04  0.15084194357E+04 0.  0.
        4    1    3    3  502    0  0.41429018373E+03  0.59643380231E+03  0.56211255058E+03  0.91833641401E+03  0.12699999809E+01 0. -1.
       -4    1    3    3    0  502 -0.41429018373E+03 -0.59643380231E+03  0.11565265321E+03  0.73535487077E+03  0.12699999809E+01 0.  1.
</event>
<event>
 5   0  0.1126175E-03  0.1496590E+04  0.7818609E-02  0.8886724E-01
        2   -1    0    0  501    0  0.00000000000E+00  0.00000000000E+00  0.94343435293E+03  0.94343435294E+03  0.25500000920E-02 0. -1.
       -2   -1    0    0    0  501  0.00000000000E+00  0.00000000000E+00 -0.59351795439E+03  0.59351795440E+03  0.25500000920E-02 0.  1.
    10030    2    1    2    0    0  0.00000000000E+00  0.00000000000E+00  0.34991639854E+03  0.15369523073E+04  0.14965897598E+04 0.  0.
        3    1    3    3  502    0 -0.21521130996E+03 -0.45406438513E+03 -0.39448222124E+03  0.63883222121E+03  0.10100000352E+00 0.  1.
       -3    1    3    3    0  502  0.21521130996E+03  0.45406438513E+03  0.74439861978E+03  0.89812008613E+03  0.10100000352E+00 0. -1.
</event>
<event>
 5   0  0.1149716E-03  0.1495979E+04  0.7818609E-02  0.8887131E-01
        2   -1    0    0  501    0  0.00000000000E+00  0.00000000000E+00  0.13678306448E+04  0.13678306448E+04  0.25500000920E-02 0. -1.
       -2   -1    0    0    0  501  0.00000000000E+00  0.00000000000E+00 -0.40903314788E+03  0.40903314789E+03  0.25500000920E-02 0.  1.
    10030    2    1    2    0    0  0.00000000000E+00  0.00000000000E+00  0.95879749693E+03  0.17768637927E+04  0.14959787090E+04 0.  0.
        1    1    3    3  502    0 -0.23229507937E+03 -0.61745676116E+03  0.89811444882E+03  0.11143713111E+04  0.50400001928E-02 0. -1.
       -1    1    3    3    0  502  0.23229507937E+03  0.61745676116E+03  0.60683048108E+02  0.66249248159E+03  0.50400001928E-02 0.  1.
</event>
<event>
 5   0  0.5606965E-04  0.1511091E+04  0.7818609E-02  0.8877111E-01
        1   -1    0    0  501    0  0.00000000000E+00  0.00000000000E+00  0.12950709795E+04  0.12950709795E+04  0.50400001928E-02 0.  1.
       -1   -1    0    0    0  501  0.00000000000E+00  0.00000000000E+00 -0.44078615965E+03  0.44078615968E+03  0.50400001928E-02 0. -1.
    10030    2    1    2    0    0  0.00000000000E+00  0.00000000000E+00  0.85428481981E+03  0.17358571392E+04  0.15110914778E+04 0.  0.
        4    1    3    3  502    0  0.60173657057E+03  0.30875810175E+03  0.40253909975E+02  0.67752524376E+03  0.12699999809E+01 0. -1.
       -4    1    3    3    0  502 -0.60173657057E+03 -0.30875810175E+03  0.81403090984E+03  0.10583318954E+04  0.12699999809E+01 0.  1.
</event>
<event>
 5   0  0.1149716E-03  0.1523895E+04  0.7818609E-02  0.8868717E-01
       -2   -1    0    0    0  501  0.00000000000E+00  0.00000000000E+00  0.83527676314E+03  0.83527676314E+03  0.25500000920E-02 0.  1.
        2   -1    0    0  501    0  0.00000000000E+00  0.00000000000E+00 -0.69505587359E+03  0.69505587359E+03  0.25500000920E-02 0. -1.
    10030    2    1    2    0    0  0.00000000000E+00  0.00000000000E+00  0.14022088955E+03  0.15303326367E+04  0.15238950361E+04 0.  0.
        1    1    3    3  502    0  0.10005359247E+03  0.74012532636E+03  0.22163789717E+03  0.77905043327E+03  0.50400001928E-02 0.  1.
       -1    1    3    3    0  502 -0.10005359247E+03 -0.74012532636E+03 -0.81417007619E+02  0.75128220347E+03  0.50400001928E-02 0. -1.
</event>
<event>
 5   0  0.1126175E-03  0.1500307E+04  0.7818609E-02  0.8884249E-01
        2   -1    0    0  501    0  0.00000000000E+00  0.00000000000E+00  0.19453986460E+04  0.19453986460E+04  0.25500000920E-02 0.  1.
       -2   -1    0    0    0  501  0.00000000000E+00  0.00000000000E+00 -0.28926200063E+03  0.28926200064E+03  0.25500000920E-02 0. -1.
    10030    2    1    2    0    0  0.00000000000E+00  0.00000000000E+00  0.16561366454E+04  0.22346606466E+04  0.15003065079E+04 0.  0.
        3    1    3    3  502    0 -0.14516606490E+03 -0.59436134734E+03  0.18157803413E+03  0.63820779554E+03  0.10100000352E+00 0. -1.
       -3    1    3    3    0  502  0.14516606490E+03  0.59436134734E+03  0.14745586112E+04  0.15964528511E+04  0.10100000352E+00 0.  1.
</event>
<event>
 5   0  0.5914645E-04  0.1580992E+04  0.7818609E-02  0.8832311E-01
       -1   -1    0    0    0  501  0.00000000000E+00  0.00000000000E+00  0.31823059689E+03  0.31823059693E+03  0.50400001928E-02 0. -1.
        1   -1    0    0  501    0  0.00000000000E+00  0.00000000000E+00 -0.19636201058E+04  0.19636201058E+04  0.50400001928E-02 0.  1.
    10030    2    1    2    0    0  0.00000000000E+00  0.00000000000E+00 -0.16453895089E+04  0.22818507028E+04  0.15809920916E+04 0.  0.
        2    1    3    3  502    0 -0.17054499538E+03 -0.27331625174E+03  0.21918274842E+03  0.38965169848E+03  0.25500000920E-02 0. -1.
       -2    1    3    3    0  502  0.17054499538E+03  0.27331625174E+03 -0.18645722573E+04  0.18921990043E+04  0.25500000920E-02 0.  1.
</event>
<event>
 5   0  0.1126175E-03  0.1494986E+04  0.7818609E-02  0.8887794E-01
        2   -1    0    0  501    0  0.00000000000E+00  0.00000000000E+00  0.86421924476E+03  0.86421924476E+03  0.25500000920E-02 0. -1.
       -2   -1    0    0    0  501  0.00000000000E+00  0.00000000000E+00 -0.64653212729E+03  0.64653212729E+03  0.25500000920E-02 0.  1.
    10030    2    1    2    0    0  0.00000000000E+00  0.00000000000E+00  0.21768711747E+03  0.15107513721E+04  0.14949856277E+04 0.  0.
        3    1    3    3  502    0 -0.38772798301E+03  0.63470577031E+03  0.33484397775E+02  0.74451703726E+03  0.10100000352E+00 0. -1.
       -3    1    3    3    0  502  0.38772798301E+03 -0.63470577031E+03  0.18420271970E+03  0.76623433480E+03  0.10100000352E+00 0.  1.
</event>
<event>
 5   0  0.5924403E-04  0.1525939E+04  0.7818609E-02  0.8867385E-01
       -1   -1    0    0    0  501  0.00000000000E+00  0.00000000000E+00  0.39643727540E+03  0.39643727543E+03  0.50400001928E-02 0.  1.
        1   -1    0    0  501    0  0.00000000000E+00  0.00000000000E+00 -0.14683851719E+04  0.14683851719E+04  0.50400001928E-02 0. -1.
    10030    2    1    2    0    0  0.00000000000E+00  0.00000000000E+00 -0.10719478965E+04  0.18648224473E+04  0.15259392083E+04 0.  0.
        1    1    3    3  502    0 -0.20192525350E+03  0.12875947967E+03  0.34931425101E+03  0.42352480162E+03  0.50400001928E-02 0.  1.
       -1    1    3    3    0  502  0.20192525350E+03 -0.12875947967E+03 -0.14212621475E+04  0.14412976457E+04  0.50400001928E-02 0. -1.
</event>
<event>
 5   0  0.5914645E-04  0.1505712E+04  0.7818609E-02  0.8880663E-01
       -1   -1    0    0    0  501  0.00000000000E+00  0.00000000000E+00  0.11477471806E+04  0.11477471806E+04  0.50400001928E-02 0.  1.
        1   -1    0    0  501    0  0.00000000000E+00  0.00000000000E+00 -0.49383021242E+03  0.49383021245E+03  0.50400001928E-02 0. -1.
    10030    2    1    2    0    0  0.00000000000E+00  0.00000000000E+00  0.65391696821E+03  0.16415773931E+04  0.15057121027E+04 0.  0.
        2    1    3    3  502    0 -0.51851508456E+02  0.65350372640E+03 -0.76628921707E+02  0.66002097769E+03  0.25500000920E-02 0. -1.
       -2    1    3    3    0  502  0.51851508456E+02 -0.65350372640E+03  0.73054588991E+03  0.98155641540E+03  0.25500000920E-02 0.  1.
</event>
<event>
 5   0  0.5924403E-04  0.1367262E+04  0.7818609E-02  0.8977863E-01
       -1   -1    0    0    0  501  0.00000000000E+00  0.00000000000E+00  0.47312727647E+03  0.47312727650E+03  0.50400001928E-02 0. -1.
        1   -1    0    0  501    0  0.00000000000E+00  0.00000000000E+00 -0.98779258502E+03  0.98779258503E+03  0.50400001928E-02 0.  1.
    10030    2    1    2    0    0  0.00000000000E+00  0.00000000000E+00 -0.51466530855E+03  0.14609198615E+04  0.13672623969E+04 0.  0.
        1    1    3    3  502    0  0.17249549503E+03  0.59147911724E+03  0.59183977822E+02  0.61895475214E+03  0.50400001928E-02 0. -1.
       -1    1    3    3    0  502 -0.17249549503E+03 -0.59147911724E+03 -0.57384928637E+03  0.84196510939E+03  0.50400001928E-02 0.  1.
</event>
<event>
 5   0  0.1149716E-03  0.1477958E+04  0.7818609E-02  0.8899244E-01
       -2   -1    0    0    0  501  0.00000000000E+00  0.00000000000E+00  0.50274626932E+03  0.50274626933E+03  0.25500000920E-02 0. -1.
        2   -1    0    0  501    0  0.00000000000E+00  0.00000000000E+00 -0.10862136937E+04  0.10862136937E+04  0.25500000920E-02 0.  1.
    10030    2    1    2    0    0  0.00000000000E+00  0.00000000000E+00 -0.58346742440E+03  0.15889599630E+04  0.14779578914E+04 0.  0.
        1    1    3    3  502    0 -0.21883618576E+03 -0.22808587081E+03  0.42639898029E+03  0.53078105757E+03  0.50400001928E-02 0. -1.
       -1    1    3    3    0  502  0.21883618576E+03  0.22808587081E+03 -0.10098664047E+04  0.10581789055E+04  0.50400001928E-02 0.  1.
</event>
<event>
 5   0  0.5924403E-04  0.1494232E+04  0.7818609E-02  0.8888297E-01
       -1   -1    0    0    0  501  0.00000000000E+00  0.00000000000E+00  0.77171837316E+03  0.77171837318E+03  0.50400001928E-02 0. -1.
        1   -1    0    0  501    0  0.00000000000E+00  0.00000000000E+00 -0.72329825044E+03  0.72329825045E+03  0.50400001928E-02 0.  1.
    10030    2    1    2    0    0  0.00000000000E+00  0.00000000000E+00  0.48420122729E+02  0.14950166236E+04  0.14942323101E+04 0.  0.
        1    1    3    3  502    0  0.49369841134E+03 -0.40305220460E+03  0.41427794110E+03  0.76014170620E+03  0.50400001928E-02 0. -1.
       -1    1    3    3    0  502 -0.49369841134E+03  0.40305220460E+03 -0.36585781837E+03  0.73487491744E+03  0.50400001928E-02 0.  1.
</event>
<event>
 5   0  0.5606965E-04  0.1490475E+04  0.7818609E-02  0.8890812E-01
        1   -1    0    0  501    0  0.00000000000E+00  0.00000000000E+00  0.95826361809E+03  0.95826361811E+03  0.50400001928E-02 0. -1.
       -1   -1    0    0    0  501  0.00000000000E+00  0.00000000000E+00 -0.57956820706E+03  0.57956820708E+03  0.50400001928E-02 0.  1.
    10030    2    1    2    0    0  0.00000000000E+00  0.00000000000E+00  0.37869541103E+03  0.15378318252E+04  0.14904752625E+04 0.  0.
        4    1    3    3  502    0 -0.49115149078E+03 -0.52583431742E+03 -0.10842801097E+02  0.71961843745E+03  0.12699999809E+01 0.  1.
       -4    1    3    3    0  502  0.49115149078E+03  0.52583431742E+03  0.38953821213E+03  0.81821338774E+03  0.12699999809E+01 0. -1.
</event>
<event>
 5   0  0.1097156E-03  0.1505092E+04  0.7818609E-02  0.8881074E-01
        2   -1    0    0  501    0  0.00000000000E+00  0.00000000000E+00  0.68983704592E+03  0.68983704593E+03  0.25500000920E-02 0. -1.
       -2   -1    0    0    0  501  0.00000000000E+00  0.00000000000E+00 -0.82095558948E+03  0.82095558948E+03  0.25500000920E-02 0.  1.
    10030    2    1    2    0    0  0.00000000000E+00  0.00000000000E+00 -0.13111854356E+03  0.15107926354E+04  0.15050921283E+04 0.  0.
        2    1    3    3  502    0  0.18003864795E+03  0.63015589735E+03 -0.43684560528E+03  0.78761948464E+03  0.25500000920E-02 0.  1.
       -2    1    3    3    0  502 -0.18003864795E+03 -0.63015589735E+03  0.30572706173E+03  0.72317315077E+03  0.25500000920E-02 0. -1.
</event>
<event>
 5   0  0.1097156E-03  0.1547230E+04  0.7818609E-02  0.8853639E-01
        2   -1    0    0  501    0  0.00000000000E+00  0.00000000000E+00  0.15918576236E+04  0.15918576236E+04  0.25500000920E-02 0.  1.
       -2   -1    0    0    0  501  0.00000000000E+00  0.00000000000E+00 -0.37596348193E+03  0.37596348194E+03  0.25500000920E-02 0. -1.
    10030    2    1    2    0    0  0.00000000000E+00  0.00000000000E+00  0.12158941417E+04  0.19678211056E+04  0.15472302155E+04 0.  0.
        2    1    3    3  502    0  0.20030131464E+03  0.33902879203E+03  0.14548583590E+04  0.15072073458E+04  0.25500000920E-02 0.  1.
       -2    1    3    3    0  502 -0.20030131464E+03 -0.33902879203E+03 -0.23896421735E+03  0.46061375973E+03  0.25500000920E-02 0. -1.
</event>
<event>
 5   0  0.4070625E-04  0.1500661E+04  0.7818609E-02  0.8884014E-01
        4   -1    0    0  501    0  0.00000000000E+00  0.00000000000E+00  0.10308554292E+04  0.10308562115E+04  0.12699999809E+01 0. -1.
       -4   -1    0    0    0  501  0.00000000000E+00  0.00000000000E+00 -0.54614252437E+03  0.54614400100E+03  0.12699999809E+01 0.  1.
    10030    2    1    2    0    0  0.00000000000E+00  0.00000000000E+00  0.48471290485E+03  0.15770002125E+04  0.15006608778E+04 0.  0.
        5    1    3    3  502    0 -0.70238342218E+03  0.25253531517E+03  0.32278148890E+03  0.81321985757E+03  0.46999998093E+01 0. -1.
       -5    1    3    3    0  502  0.70238342218E+03 -0.25253531517E+03  0.16193141595E+03  0.76378035497E+03  0.46999998093E+01 0.  1.
</event>
<event>
 5   0  0.1149716E-03  0.1505158E+04  0.7818609E-02  0.8881030E-01
        2   -1    0    0  501    0  0.00000000000E+00  0.00000000000E+00  0.84302858759E+03  0.84302858759E+03  0.25500000920E-02 0.  1.
       -2   -1    0    0    0  501  0.00000000000E+00  0.00000000000E+00 -0.67183377494E+03  0.67183377495E+03  0.25500000920E-02 0. -1.
    10030    2    1    2    0    0  0.00000000000E+00  0.00000000000E+00  0.17119481265E+03  0.15148623625E+04  0.15051579032E+04 0.  0.
        1    1    3    3  502    0  0.13287318947E+03 -0.67997730324E+03  0.38134685605E+03  0.79085386896E+03  0.50400001928E-02 0.  1.
       -1    1    3    3    0  502 -0.13287318947E+03  0.67997730324E+03 -0.21015204340E+03  0.72400849358E+03  0.50400001928E-02 0. -1.
</event>
<event>
 5   0  0.5840834E-04  0.1469039E+04  0.7818609E-02  0.8905307E-01
        1   -1    0    0  501    0  0.00000000000E+00  0.00000000000E+00  0.67941071245E+03  0.67941071247E+03  0.50400001928E-02 0. -1.
       -1   -1    0    0    0  501  0.00000000000E+00  0.00000000000E+00 -0.79409844842E+03  0.79409844843E+03  0.50400001928E-02 0.  1.
    10030    2    1    2    0    0  0.00000000000E+00  0.00000000000E+00 -0.11468773597E+03  0.14735091609E+04  0.14690391317E+04 0.  0.
        3    1    3    3  502    0 -0.10559180772E+03 -0.36595592928E+03 -0.68730396236E+03  0.78578630614E+03  0.10100000352E+00 0.  1.
       -3    1    3    3    0  502  0.10559180772E+03  0.36595592928E+03  0.57261622640E+03  0.68772285476E+03  0.10100000352E+00 0. -1.
</event>
<event>
 5   0  0.1147755E-03  0.1515984E+04  0.7818609E-02  0.8873893E-01
        2   -1    0    0  501    0  0.00000000000E+00  0.00000000000E+00  0.11398499676E+04  0.11398499676E+04  0.25500000920E-02 0.  1.
       -2   -1    0    0    0  501  0.00000000000E+00  0.00000000000E+00 -0.50405945446E+03  0.50405945446E+03  0.25500000920E-02 0. -1.
    10030    2    1    2    0    0  0.00000000000E+00  0.00000000000E+00  0.63579051315E+03  0.16439094221E+04  0.15159843704E+04 0.  0.
        4    1    3    3  502    0 -0.30780175407E+03  0.28731128565E+03 -0.36557723852E+03  0.55761817123E+03  0.12699999809E+01 0. -1.
       -4    1    3    3    0  502  0.30780175407E+03 -0.28731128565E+03  0.10013677517E+04  0.10862912508E+04  0.12699999809E+01 0.  1.
</event>
<event>
 5   0  0.4070625E-04  0.1478749E+04  0.7818609E-02  0.8898709E-01
        4   -1    0    0  501    0  0.00000000000E+00  0.00000000000E+00  0.52988838212E+03  0.52988990405E+03  0.12699999809E+01 0.  1.
       -4   -1    0    0    0  501  0.00000000000E+00  0.00000000000E+00 -0.10316754438E+04  0.10316762255E+04  0.12699999809E+01 0. -1.
    10030    2    1    2    0    0  0.00000000000E+00  0.00000000000E+00 -0.50178706170E+03  0.15615661296E+04  0.14787489718E+04 0.  0.
        4    1    3    3  502    0 -0.73806546170E+03 -0.37354236615E+02 -0.22642125223E+03  0.77291924618E+03  0.12699999809E+01 0. -1.
       -4    1    3    3    0  502  0.73806546170E+03  0.37354236615E+02 -0.27536580947E+03  0.78864688339E+03  0.12699999809E+01 0.  1.
</event>
<event>
 5   0  0.1126175E-03  0.1541186E+04  0.7818609E-02  0.8857518E-01
        2   -1    0    0  501    0  0.00000000000E+00  0.00000000000E+00  0.19047721965E+04  0.19047721965E+04  0.25500000920E-02 0. -1.
       -2   -1    0    0    0  501  0.00000000000E+00  0.00000000000E+00 -0.31175025499E+03  0.31175025500E+03  0.25500000920E-02 0.  1.
    10030    2    1    2    0    0  0.00000000000E+00  0.00000000000E+00  0.15930219415E+04  0.22165224515E+04  0.15411855411E+04 0.  0.
        3    1    3    3  502    0 -0.65700901568E+03  0.40004614759E+03  0.86265911394E+03  0.11558021128E+04  0.10100000352E+00 0. -1.
       -3    1    3    3    0  502  0.65700901568E+03 -0.40004614759E+03  0.73036282760E+03  0.10607203387E+04  0.10100000352E+00 0.  1.
</event>
<event>
 5   0  0.5924403E-04  0.1498045E+04  0.7818609E-02  0.8885754E-01
        1   -1    0    0  501    0  0.00000000000E+00  0.00000000000E+00  0.51604274716E+03  0.51604274718E+03  0.50400001928E-02 0. -1.
       -1   -1    0    0    0  501  0.00000000000E+00  0.00000000000E+00 -0.10871864314E+04  0.10871864314E+04  0.50400001928E-02 0.  1.
    10030    2    1    2    0    0  0.00000000000E+00  0.00000000000E+00 -0.57114368422E+03  0.16032291786E+04  0.14980449563E+04 0.  0.
        1    1    3    3  502    0  0.29443264930E+03 -0.23208725110E+03  0.40840219758E+03  0.55438924242E+03  0.50400001928E-02 0. -1.
       -1    1    3    3    0  502 -0.29443264930E+03  0.23208725110E+03 -0.97954588180E+03  0.10488399362E+04  0.50400001928E-02 0.  1.
</event>
<event>
 5   0  0.5914645E-04  0.1512180E+04  0.7818609E-02  0.8876394E-01
        1   -1    0    0  501    0  0.00000000000E+00  0.00000000000E+00  0.83407462425E+03  0.83407462426E+03  0.50400001928E-02 0.  1.
       -1   -1    0    0    0  501  0.00000000000E+00  0.00000000000E+00 -0.68539666117E+03  0.68539666119E+03  0.50400001928E-02 0. -1.
    10030    2    1    2    0    0  0.00000000000E+00  0.00000000000E+00  0.14867796307E+03  0.15194712855E+04  0.15121798341E+04 0.  0.
        2    1    3    3  502    0  0.19154530120E+03  0.65423756908E+02  0.80634466842E+03  0.83136129010E+03  0.25500000920E-02 0.  1.
       -2    1    3    3    0  502 -0.19154530120E+03 -0.65423756908E+02 -0.65766670535E+03  0.68810999536E+03  0.25500000920E-02 0. -1.
</event>
<event>
 5   0  0.5914645E-04  0.1484043E+04  0.7818609E-02  0.8895134E-01
        1   -1    0    0  501    0  0.00000000000E+00  0.00000000000E+00  0.10245447081E+04  0.10245447081E+04  0.50400001928E-02 0. -1.
       -1   -1    0    0    0  501  0.00000000000E+00  0.00000000000E+00 -0.53740511011E+03  0.53740511013E+03  0.50400001928E-02 0.  1.
    10030    2    1    2    0    0  0.00000000000E+00  0.00000000000E+00  0.48713959795E+03  0.15619498182E+04  0.14840425353E+04 0.  0.
        2    1    3    3  502    0 -0.52157088892E+02  0.37788816652E+03 -0.42629759917E+03  0.57205722736E+03  0.25500000920E-02 0.  1.
       -2    1    3    3    0  502  0.52157088892E+02 -0.37788816652E+03  0.91343719711E+03  0.98989259084E+03  0.25500000920E-02 0. -1.
</event>
<event>
 5   0  0.1097156E-03  0.1564725E+04  0.7818609E-02  0.8842517E-01
       -2   -1    0    0    0  501  0.00000000000E+00  0.00000000000E+00  0.62718530279E+03  0.62718530280E+03  0.25500000920E-02 0. -1.
        2   -1    0    0  501    0  0.00000000000E+00  0.00000000000E+00 -0.97593313128E+03  0.97593313129E+03  0.25500000920E-02 0.  1.
    10030    2    1    2    0    0  0.00000000000E+00  0.00000000000E+00 -0.34874782849E+03  0.16031184341E+04  0.15647247892E+04 0.  0.
        2    1    3    3  502    0 -0.42155586099E+03 -0.46917875173E+03 -0.64860603973E+03  0.90472528416E+03  0.25500000920E-02 0.  1.
       -2    1    3    3    0  502  0.42155586099E+03  0.46917875173E+03  0.29985821124E+03  0.69839314993E+03  0.25500000920E-02 0. -1.
</event>
<event>
 5   0  0.1147755E-03  0.1385202E+04  0.7818609E-02  0.8964600E-01
       -2   -1    0    0    0  501  0.00000000000E+00  0.00000000000E+00  0.45678104482E+03  0.45678104483E+03  0.25500000920E-02 0.  1.
        2   -1    0    0  501    0  0.00000000000E+00  0.00000000000E+00 -0.10501671521E+04  0.10501671521E+04  0.25500000920E-02 0. -1.
    10030    2    1    2    0    0  0.00000000000E+00  0.00000000000E+00 -0.59338610724E+03  0.15069481969E+04  0.13852024386E+04 0.  0.
        4    1    3    3  502    0 -0.40009442842E+03  0.56410358892E+03 -0.25589462624E+03  0.73740903393E+03  0.12699999809E+01 0. -1.
       -4    1    3    3    0  502  0.40009442842E+03 -0.56410358892E+03 -0.33749148100E+03  0.76953916296E+03  0.12699999809E+01 0.  1.
</event>
<event>
 5   0  0.1082667E-03  0.1575147E+04  0.7818609E-02  0.8835963E-01
       -2   -1    0    0    0  501  0.00000000000E+00  0.00000000000E+00  0.34002159632E+03  0.34002159633E+03  0.25500000920E-02 0. -1.
        2   -1    0    0  501    0  0.00000000000E+00  0.00000000000E+00 -0.18242133215E+04  0.18242133215E+04  0.25500000920E-02 0.  1.
    10030    2    1    2    0    0  0.00000000000E+00  0.00000000000E+00 -0.14841917252E+04  0.21642349179E+04  0.15751468828E+04 0.  0.
        5    1    3    3  502    0  0.12787010154E+02 -0.28726360300E+03 -0.17494895332E+04  0.17729691486E+04  0.46999998093E+01 0.  1.
       -5    1    3    3    0  502 -0.12787010154E+02  0.28726360300E+03  0.26529780800E+03  0.39126576922E+03  0.46999998093E+01 0. -1.
</event>
<event>
 5   0  0.5924403E-04  0.1485612E+04  0.7818609E-02  0.8894078E-01
       -1   -1    0    0    0  501  0.00000000000E+00  0.00000000000E+00  0.37203908962E+03  0.37203908966E+03  0.50400001928E-02 0.  1.
        1   -1    0    0  501    0  0.00000000000E+00  0.00000000000E+00 -0.14830714794E+04  0.14830714794E+04  0.50400001928E-02 0. -1.
    10030    2    1    2    0    0  0.00000000000E+00  0.00000000000E+00 -0.11110323898E+04  0.18551105691E+04  0.14856117435E+04 0.  0.
        1    1    3    3  502    0  0.16772069857E+03  0.70202552419E+03 -0.77463154470E+03  0.10587842554E+04  0.50400001928E-02 0.  1.
       -1    1    3    3    0  502 -0.16772069857E+03 -0.70202552419E+03 -0.33640084512E+03  0.79632631374E+03  0.50400001928E-02 0. -1.
</event>
<event>
 5   0  0.5606965E-04  0.1476965E+04  0.7818609E-02  0.8899917E-01
        1   -1    0    0  501    0  0.00000000000E+00  0.00000000000E+00  0.11245192797E+04  0.11245192797E+04  0.50400001928E-02 0.  1.
       -1   -1    0    0    0  501  0.00000000000E+00  0.00000000000E+00 -0.48496830390E+03  0.48496830393E+03  0.50400001928E-02 0. -1.
    10030    2    1    2    0    0  0.00000000000E+00  0.00000000000E+00  0.63955097582E+03  0.16094875837E+04  0.14769647360E+04 0.  0.
        4    1    3    3  502    0 -0.20762891606E+03 -0.30241555798E+03 -0.37866153960E+03  0.52721068935E+03  0.12699999809E+01 0. -1.
       -4    1    3    3    0  502  0.20762891606E+03  0.30241555798E+03  0.10182125154E+04  0.10822768943E+04  0.12699999809E+01 0.  1.
</event>
<event>
 5   0  0.1097156E-03  0.1492392E+04  0.7818609E-02  0.8889528E-01
        2   -1    0    0  501    0  0.00000000000E+00  0.00000000000E+00  0.17053263866E+04  0.17053263866E+04  0.25500000920E-02 0. -1.
       -2   -1    0    0    0  501  0.00000000000E+00  0.00000000000E+00 -0.32651129327E+03  0.32651129328E+03  0.25500000920E-02 0.  1.
    10030    2    1    2    0    0  0.00000000000E+00  0.00000000000E+00  0.13788150933E+04  0.20318376799E+04  0.14923918037E+04 0.  0.
        2    1    3    3  502    0  0.22601897193E+03 -0.57334542269E+03  0.12621920828E+04  0.14046132575E+04  0.25500000920E-02 0. -1.
       -2    1    3    3    0  502 -0.22601897193E+03  0.57334542269E+03  0.11662301053E+03  0.62722442234E+03  0.25500000920E-02 0.  1.
</event>
<event>
 5   0  0.1149716E-03  0.1478419E+04  0.7818609E-02  0.8898932E-01
       -2   -1    0    0    0  501  0.00000000000E+00  0.00000000000E+00  0.30438252922E+03  0.30438252923E+03  0.25500000920E-02 0. -1.
        2   -1    0    0  501    0  0.00000000000E+00  0.00000000000E+00 -0.17952097012E+04  0.17952097012E+04  0.25500000920E-02 0.  1.
    10030    2    1    2    0    0  0.00000000000E+00  0.00000000000E+00 -0.14908271720E+04  0.20995922304E+04  0.14784187084E+04 0.  0.
        1    1    3    3  502    0 -0.14225208200E+03 -0.33813385942E+03 -0.16568208322E+04  0.16969459130E+04  0.50400001928E-02 0.  1.
       -1    1    3    3    0  502  0.14225208200E+03  0.33813385942E+03  0.16599366016E+03  0.40264631745E+03  0.50400001928E-02 0. -1.
</event>
<event>
 5   0  0.1149716E-03  0.1493819E+04  0.7818609E-02  0.8888574E-01
        2   -1    0    0  501    0  0.00000000000E+00  0.00000000000E+00  0.10285470812E+04  0.10285470812E+04  0.25500000920E-02 0.  1.
       -2   -1    0    0    0  501  0.00000000000E+00  0.00000000000E+00 -0.54238999185E+03  0.54238999186E+03  0.25500000920E-02 0. -1.
    10030    2    1    2    0    0  0.00000000000E+00  0.00000000000E+00  0.48615708937E+03  0.15709370731E+04  0.14938187882E+04 0.  0.
        1    1    3    3  502    0  0.27714083611E+03  0.15032710725E+03  0.95513685031E+03  0.10058288548E+04  0.50400001928E-02 0.  1.
       -1    1    3    3    0  502 -0.27714083611E+03 -0.15032710725E+03 -0.46897976094E+03  0.56510821832E+03  0.50400001928E-02 0. -1.
</event>
<event>
 5   0  0.5914645E-04  0.1500075E+04  0.7818609E-02  0.8884403E-01
        1   -1    0    0  501    0  0.00000000000E+00  0.00000000000E+00  0.77055635648E+03  0.77055635650E+03  0.50400001928E-02 0. -1.
       -1   -1    0    0    0  501  0.00000000000E+00  0.00000000000E+00 -0.73006531714E+03  0.73006531716E+03  0.50400001928E-02 0.  1.
    10030    2    1    2    0    0  0.00000000000E+00  0.00000000000E+00  0.40491039345E+02  0.15006216737E+04  0.15000752925E+04 0.  0.
        2    1    3    3  502    0  0.22602380490E+03 -0.46513768349E+03 -0.52319874524E+03  0.73564716543E+03  0.25500000920E-02 0.  1.
       -2    1    3    3    0  502 -0.22602380490E+03  0.46513768349E+03  0.56368978458E+03  0.76497450822E+03  0.25500000920E-02 0. -1.
</event>
<event>
 5   0  0.1082667E-03  0.1497291E+04  0.7818609E-02  0.8886256E-01
       -2   -1    0    0    0  501  0.00000000000E+00  0.00000000000E+00  0.67630229515E+03  0.67630229516E+03  0.25500000920E-02 0.  1.
        2   -1    0    0  501    0  0.00000000000E+00  0.00000000000E+00 -0.82872747298E+03  0.82872747299E+03  0.25500000920E-02 0. -1.
    10030    2    1    2    0    0  0.00000000000E+00  0.00000000000E+00 -0.15242517783E+03  0.15050297681E+04  0.14972912770E+04 0.  0.
        5    1    3    3  502    0  0.36201906950E+03 -0.39264350834E+03  0.45111434148E+03  0.69910869714E+03  0.46999998093E+01 0.  1.
       -5    1    3    3    0  502 -0.36201906950E+03  0.39264350834E+03 -0.60353951931E+03  0.80592107101E+03  0.46999998093E+01 0. -1.
</event>
<event>
 5   0  0.5606965E-04  0.1502378E+04  0.7818609E-02  0.8882873E-01
        1   -1    0    0  501    0  0.00000000000E+00  0.00000000000E+00  0.14221790054E+04  0.14221790054E+04  0.50400001928E-02 0.  1.
       -1   -1    0    0    0  501  0.00000000000E+00  0.00000000000E+00 -0.39677509907E+03  0.39677509911E+03  0.50400001928E-02 0. -1.
    10030    2    1    2    0    0  0.00000000000E+00  0.00000000000E+00  0.10254039063E+04  0.18189541045E+04  0.15023784021E+04 0.  0.
        4    1    3    3  502    0  0.40963109865E+03 -0.62903900314E+03  0.54685828611E+03  0.92873209401E+03  0.12699999809E+01 0.  1.
       -4    1    3    3    0  502 -0.40963109865E+03  0.62903900314E+03  0.47854562021E+03  0.89022201050E+03  0.12699999809E+01 0. -1.
</event>
<event>
 5   0  0.5924403E-04  0.1471875E+04  0.7818609E-02  0.8903374E-01
       -1   -1    0    0    0  501  0.00000000000E+00  0.00000000000E+00  0.43117573884E+03  0.43117573887E+03  0.50400001928E-02 0. -1.
        1   -1    0    0  501    0  0.00000000000E+00  0.00000000000E+00 -0.12561098660E+04  0.12561098660E+04  0.50400001928E-02 0.  1.
    10030    2    1    2    0    0  0.00000000000E+00  0.00000000000E+00 -0.82493412718E+03  0.16872856049E+04  0.14718751300E+04 0.  0.
        1    1    3    3  502    0  0.70279028006E+03  0.12058399678E+03 -0.20375112693E+03  0.74159908291E+03  0.50400001928E-02 0. -1.
       -1    1    3    3    0  502 -0.70279028006E+03 -0.12058399678E+03 -0.62118300025E+03  0.94568652198E+03  0.50400001928E-02 0.  1.
</event>
<event>
 5   0  0.5924403E-04  0.1475804E+04  0.7818609E-02  0.8900705E-01
       -1   -1    0    0    0  501  0.00000000000E+00  0.00000000000E+00  0.70693534767E+03  0.70693534769E+03  0.50400001928E-02 0.  1.
        1   -1    0    0  501    0  0.00000000000E+00  0.00000000000E+00 -0.77022473671E+03  0.77022473673E+03  0.50400001928E-02 0. -1.
    10030    2    1    2    0    0  0.00000000000E+00  0.00000000000E+00 -0.63289389041E+02  0.14771600844E+04  0.14758036347E+04 0.  0.
        1    1    3    3  502    0 -0.69389488498E+03 -0.14873672198E+03 -0.23403432411E+03  0.74725148963E+03  0.50400001928E-02 0. -1.
       -1    1    3    3    0  502  0.69389488498E+03  0.14873672198E+03  0.17074493507E+03  0.72990859479E+03  0.50400001928E-02 0.  1.
</event>
<event>
 5   0  0.5914645E-04  0.1495113E+04  0.7818609E-02  0.8887709E-01
       -1   -1    0    0    0  501  0.00000000000E+00  0.00000000000E+00  0.81166843445E+03  0.81166843447E+03  0.50400001928E-02 0. -1.
        1   -1    0    0  501    0  0.00000000000E+00  0.00000000000E+00 -0.68850862885E+03  0.68850862887E+03  0.50400001928E-02 0.  1.
    10030    2    1    2    0    0  0.00000000000E+00  0.00000000000E+00  0.12315980560E+03  0.15001770633E+04  0.14951130003E+04 0.  0.
        2    1    3    3  502    0 -0.52515357047E+03  0.15908104245E+03  0.57098803947E+03  0.79190933311E+03  0.25500000920E-02 0. -1.
       -2    1    3    3    0  502  0.52515357047E+03 -0.15908104245E+03 -0.44782823386E+03  0.70826773024E+03  0.25500000920E-02 0.  1.
</event>
<event>
 5   0  0.5840834E-04  0.1483328E+04  0.7818609E-02  0.8895616E-01
       -1   -1    0    0    0  501  0.00000000000E+00  0.00000000000E+00  0.56364424190E+03  0.56364424192E+03  0.50400001928E-02 0. -1.
        1   -1    0    0  501    0  0.00000000000E+00  0.00000000000E+00 -0.97590908914E+03  0.97590908915E+03  0.50400001928E-02 0.  1.
    10030    2    1    2    0    0  0.00000000000E+00  0.00000000000E+00 -0.41226484724E+03  0.15395533311E+04  0.14833280672E+04 0.  0.
        3    1    3    3  502    0  0.38043988594E+03  0.32797929529E+03 -0.77249055654E+03  0.92143724425E+03  0.10100000352E+00 0.  1.
       -3    1    3    3    0  502 -0.38043988594E+03 -0.32797929529E+03  0.36022570930E+03  0.61811608683E+03  0.10100000352E+00 0. -1.
</event>
<event>
 5   0  0.1126175E-03  0.1480693E+04  0.7818609E-02  0.8897394E-01
       -2   -1    0    0    0  501  0.00000000000E+00  0.00000000000E+00  0.60410929838E+03  0.60410929839E+03  0.25500000920E-02 0. -1.
        2   -1    0    0  501    0  0.00000000000E+00  0.00000000000E+00 -0.90730810906E+03  0.90730810907E+03  0.25500000920E-02 0.  1.
    10030    2    1    2    0    0  0.00000000000E+00  0.00000000000E+00 -0.30319881068E+03  0.15114174075E+04  0.14806934392E+04 0.  0.
        3    1    3    3  502    0 -0.66326257714E+03 -0.19946281871E+03  0.11538195671E+03  0.70215074479E+03  0.10100000352E+00 0. -1.
       -3    1    3    3    0  502  0.66326257714E+03  0.19946281871E+03 -0.41858076738E+03  0.80926666266E+03  0.10100000352E+00 0.  1.
</event>
<event>
 5   0  0.5840834E-04  0.1509269E+04  0.7818609E-02  0.8878313E-01
        1   -1    0    0  501    0  0.00000000000E+00  0.00000000000E+00  0.26726056244E+04  0.26726056244E+04  0.50400001928E-02 0.  1.
       -1   -1    0    0    0  501  0.00000000000E+00  0.00000000000E+00 -0.21307780829E+03  0.21307780835E+03  0.50400001928E-02 0. -1.
    10030    2    1    2    0    0  0.00000000000E+00  0.00000000000E+00  0.24595278161E+04  0.28856834328E+04  0.15092686295E+04 0.  0.
        3    1    3    3  502    0  0.53285366317E+03 -0.15784134755E+03  0.22058565255E+04  0.22747856907E+04  0.10100000352E+00 0.  1.
       -3    1    3    3    0  502 -0.53285366317E+03  0.15784134755E+03  0.25367129059E+03  0.61089774203E+03  0.10100000352E+00 0. -1.
</event>
<event>
 5   0  0.1147755E-03  0.1503993E+04  0.7818609E-02  0.8881802E-01
        2   -1    0    0  501    0  0.00000000000E+00  0.00000000000E+00  0.11103218643E+04  0.11103218643E+04  0.25500000920E-02 0.  1.
       -2   -1    0    0    0  501  0.00000000000E+00  0.00000000000E+00 -0.50931039030E+03  0.50931039031E+03  0.25500000920E-02 0. -1.
    10030    2    1    2    0    0  0.00000000000E+00  0.00000000000E+00  0.60101147396E+03  0.16196322546E+04  0.15039926357E+04 0.  0.
        4    1    3    3  502    0 -0.43412118176E+03 -0.53694348981E+03  0.62127993805E+03  0.92884868844E+03  0.12699999809E+01 0.  1.
       -4    1    3    3    0  502  0.43412118176E+03  0.53694348981E+03 -0.20268464093E+02  0.69078356613E+03  0.12699999809E+01 0. -1.
</event>
<event>
 5   0  0.1126175E-03  0.1503122E+04  0.7818609E-02  0.8882379E-01
        2   -1    0    0  501    0  0.00000000000E+00  0.00000000000E+00  0.54529785654E+03  0.54529785655E+03  0.25500000920E-02 0. -1.
       -2   -1    0    0    0  501  0.00000000000E+00  0.00000000000E+00 -0.10358448893E+04  0.10358448893E+04  0.25500000920E-02 0.  1.
    10030    2    1    2    0    0  0.00000000000E+00  0.00000000000E+00 -0.49054703278E+03  0.15811427459E+04  0.15031220814E+04 0.  0.
        3    1    3    3  502    0  0.15174416469E+03 -0.53134017005E+03 -0.78112148649E+03  0.95681735701E+03  0.10100000352E+00 0.  1.
       -3    1    3    3    0  502 -0.15174416469E+03  0.53134017005E+03  0.29057445371E+03  0.62432538886E+03  0.10100000352E+00 0. -1.
</event>
<event>
 5   0  0.1097156E-03  0.1492004E+04  0.7818609E-02  0.8889788E-01
        2   -1    0    0  501    0  0.00000000000E+00  0.00000000000E+00  0.12600088375E+04  0.12600088375E+04  0.25500000920E-02 0.  1.
       -2   -1    0    0    0  501  0.00000000000E+00  0.00000000000E+00 -0.44167848748E+03  0.44167848749E+03  0.25500000920E-02 0. -1.
    10030    2    1    2    0    0  0.00000000000E+00  0.00000000000E+00  0.81833035004E+03  0.17016873250E+04  0.14920037501E+04 0.  0.
        2    1    3    3  502    0  0.38207730091E+03 -0.51258747834E+03  0.84762731163E+03  0.10616972479E+04  0.25500000920E-02 0.  1.
       -2    1    3    3    0  502 -0.38207730091E+03  0.51258747834E+03 -0.29296961591E+02  0.63999007710E+03  0.25500000920E-02 0. -1.
</event>
<event>
 5   0  0.6146552E-04  0.1388895E+04  0.7818609E-02  0.8961896E-01
       -1   -1    0    0    0  501  0.00000000000E+00  0.00000000000E+00  0.43304286929E+03  0.43304286932E+03  0.50400001928E-02 0. -1.
        1   -1    0    0  501    0  0.00000000000E+00  0.00000000000E+00 -0.11136485370E+04  0.11136485370E+04  0.50400001928E-02 0.  1.
    10030    2    1    2    0    0  0.00000000000E+00  0.00000000000E+00 -0.68060566770E+03  0.15466914063E+04  0.13888953278E+04 0.  0.
        5    1    3    3  502    0  0.71527797809E+02 -0.39949940650E+03 -0.96781092999E+03  0.10494741959E+04  0.46999998093E+01 0.  1.
       -5    1    3    3    0  502 -0.71527797809E+02  0.39949940650E+03  0.28720526228E+03  0.49721721042E+03  0.46999998093E+01 0. -1.
</event>
<event>
 5   0  0.5924403E-04  0.1490671E+04  0.7818609E-02  0.8890681E-01
       -1   -1    0    0    0  501  0.00000000000E+00  0.00000000000E+00  0.12862132124E+04  0.12862132124E+04  0.50400001928E-02 0. -1.
        1   -1    0    0  501    0  0.00000000000E+00  0.00000000000E+00 -0.43190727168E+03  0.43190727171E+03  0.50400001928E-02 0.  1.
    10030    2    1    2    0    0  0.00000000000E+00  0.00000000000E+00  0.85430594071E+03  0.17181204841E+04  0.14906707744E+04 0.  0.
        1    1    3    3  502    0  0.68930460818E+03 -0.21811219653E+03  0.21837625984E+03  0.75524960379E+03  0.50400001928E-02 0.  1.
       -1    1    3    3    0  502 -0.68930460818E+03  0.21811219653E+03  0.63592968088E+03  0.96287088033E+03  0.50400001928E-02 0. -1.
</event>
<event>
 5   0  0.1149716E-03  0.1501307E+04  0.7818609E-02  0.8883584E-01
        2   -1    0    0  501    0  0.00000000000E+00  0.00000000000E+00  0.16295782661E+04  0.16295782661E+04  0.25500000920E-02 0. -1.
       -2   -1    0    0    0  501  0.00000000000E+00  0.00000000000E+00 -0.34578302614E+03  0.34578302615E+03  0.25500000920E-02 0.  1.
    10030    2    1    2    0    0  0.00000000000E+00  0.00000000000E+00  0.12837952400E+04  0.19753612923E+04  0.15013067697E+04 0.  0.
        1    1    3    3  502    0 -0.25035080271E+03 -0.40116344521E+03 -0.12517299468E+03  0.48915837191E+03  0.50400001928E-02 0.  1.
       -1    1    3    3    0  502  0.25035080271E+03  0.40116344521E+03  0.14089682347E+04  0.14862029204E+04  0.50400001928E-02 0. -1.
</event>
<event>
 5   0  0.1147755E-03  0.1507979E+04  0.7818609E-02  0.8879165E-01
        2   -1    0    0  501    0  0.00000000000E+00  0.00000000000E+00  0.10385657715E+04  0.10385657715E+04  0.25500000920E-02 0. -1.
       -2   -1    0    0    0  501  0.00000000000E+00  0.00000000000E+00 -0.54738936016E+03  0.54738936017E+03  0.25500000920E-02 0.  1.
    10030    2    1    2    0    0  0.00000000000E+00  0.00000000000E+00  0.49117641138E+03  0.15859551317E+04  0.15079785850E+04 0.  0.
        4    1    3    3  502    0  0.50655308173E+03 -0.12564777954E+03 -0.32671452362E+03  0.61573320681E+03  0.12699999809E+01 0.  1.
       -4    1    3    3    0  502 -0.50655308173E+03  0.12564777954E+03  0.81789093500E+03  0.97022192491E+03  0.12699999809E+01 0. -1.
</event>
<event>
 5   0  0.4070625E-04  0.1475129E+04  0.7818609E-02  0.8901162E-01
        4   -1    0    0  501    0  0.00000000000E+00  0.00000000000E+00  0.10261149768E+04  0.10261157627E+04  0.12699999809E+01 0. -1.
       -4   -1    0    0    0  501  0.00000000000E+00  0.00000000000E+00 -0.53015486275E+03  0.53015638391E+03  0.12699999809E+01 0.  1.
    10030    2    1    2    0    0  0.00000000000E+00  0.00000000000E+00  0.49596011405E+03  0.15562721466E+04  0.14751293366E+04 0.  0.
        1    1    3    3  502    0  0.52009399948E+03 -0.45334747427E+03  0.52305170569E+03  0.86579719772E+03  0.50400001928E-02 0. -1.
       -1    1    3    3    0  502 -0.52009399948E+03  0.45334747427E+03 -0.27091591645E+02  0.69047494892E+03  0.50400001928E-02 0.  1.
</event>
<event>
 5   0  0.1126175E-03  0.1533549E+04  0.7818609E-02  0.8862445E-01
       -2   -1    0    0    0  501  0.00000000000E+00  0.00000000000E+00  0.94347146015E+03  0.94347146016E+03  0.25500000920E-02 0. -1.
        2   -1    0    0  501    0  0.00000000000E+00  0.00000000000E+00 -0.62316964289E+03  0.62316964290E+03  0.25500000920E-02 0.  1.
    10030    2    1    2    0    0  0.00000000000E+00  0.00000000000E+00  0.32030181726E+03  0.15666411031E+04  0.15335485293E+04 0.  0.
        3    1    3    3  502    0  0.44620914372E+03 -0.46553872068E+03 -0.26366759922E+03  0.69667030471E+03  0.10100000352E+00 0.  1.
       -3    1    3    3    0  502 -0.44620914372E+03  0.46553872068E+03  0.58396941648E+03  0.86997079834E+03  0.10100000352E+00 0. -1.
</event>
<event>
 5   0  0.1147755E-03  0.1531611E+04  0.7818609E-02  0.8863700E-01
        2   -1    0    0  501    0  0.00000000000E+00  0.00000000000E+00  0.23726060223E+04  0.23726060223E+04  0.25500000920E-02 0.  1.
       -2   -1    0    0    0  501  0.00000000000E+00  0.00000000000E+00 -0.24717880642E+03  0.24717880644E+03  0.25500000920E-02 0. -1.
    10030    2    1    2    0    0  0.00000000000E+00  0.00000000000E+00  0.21254272159E+04  0.26197848288E+04  0.15316108184E+04 0.  0.
        4    1    3    3  502    0 -0.38467472637E+03  0.29054945918E+03  0.20805014829E+04  0.21356220796E+04  0.12699999809E+01 0.  1.
       -4    1    3    3    0  502  0.38467472637E+03 -0.29054945918E+03  0.44925732981E+02  0.48416274921E+03  0.12699999809E+01 0. -1.
</event>
<event>
 5   0  0.6146552E-04  0.1412623E+04  0.7818609E-02  0.8944732E-01
       -1   -1    0    0    0  501  0.00000000000E+00  0.00000000000E+00  0.39248412692E+03  0.39248412695E+03  0.50400001928E-02 0.  1.
        1   -1    0    0  501    0  0.00000000000E+00  0.00000000000E+00 -0.12710724950E+04  0.12710724950E+04  0.50400001928E-02 0. -1.
    10030    2    1    2    0    0  0.00000000000E+00  0.00000000000E+00 -0.87858836805E+03  0.16635566219E+04  0.14126227783E+04 0.  0.
        5    1    3    3  502    0  0.39573010909E+03 -0.29700280923E+03 -0.10328520071E+04  0.11452590739E+04  0.46999998093E+01 0. -1.
       -5    1    3    3    0  502 -0.39573010909E+03  0.29700280923E+03  0.15426363902E+03  0.51829754799E+03  0.46999998093E+01 0.  1.
</event>
<event>
 5   0  0.5914645E-04  0.1587128E+04  0.7818609E-02  0.8828495E-01
        1   -1    0    0  501    0  0.00000000000E+00  0.00000000000E+00  0.74511637496E+03  0.74511637498E+03  0.50400001928E-02 0. -1.
       -1   -1    0    0    0  501  0.00000000000E+00  0.00000000000E+00 -0.84516162980E+03  0.84516162981E+03  0.50400001928E-02 0.  1.
    10030    2    1    2    0    0  0.00000000000E+00  0.00000000000E+00 -0.10004525484E+03  0.15902780048E+04  0.15871279342E+04 0.  0.
        2    1    3    3  502    0 -0.15672241612E+03  0.10291413221E+03  0.72260478521E+03  0.74653259134E+03  0.25500000920E-02 0. -1.
       -2    1    3    3    0  502  0.15672241612E+03 -0.10291413221E+03 -0.82265004005E+03  0.84374541345E+03  0.25500000920E-02 0.  1.
</event>
<event>
 5   0  0.1147755E-03  0.1502196E+04  0.7818609E-02  0.8882994E-01
       -2   -1    0    0    0  501  0.00000000000E+00  0.00000000000E+00  0.81573275993E+03  0.81573275994E+03  0.25500000920E-02 0. -1.
        2   -1    0    0  501    0  0.00000000000E+00  0.00000000000E+00 -0.69158470913E+03  0.69158470914E+03  0.25500000920E-02 0.  1.
    10030    2    1    2    0    0  0.00000000000E+00  0.00000000000E+00  0.12414805080E+03  0.15073174691E+04  0.15021961304E+04 0.  0.
        4    1    3    3  502    0 -0.22520839040E+03  0.34438881700E+03  0.69256661046E+03  0.80558835592E+03  0.12699999809E+01 0. -1.
       -4    1    3    3    0  502  0.22520839040E+03 -0.34438881700E+03 -0.56841855965E+03  0.70172911315E+03  0.12699999809E+01 0.  1.
</event>
<event>
 5   0  0.1126175E-03  0.1500356E+04  0.7818609E-02  0.8884216E-01
        2   -1    0    0  501    0  0.00000000000E+00  0.00000000000E+00  0.86829903724E+03  0.86829903724E+03  0.25500000920E-02 0.  1.
       -2   -1    0    0    0  501  0.00000000000E+00  0.00000000000E+00 -0.64812593025E+03  0.64812593026E+03  0.25500000920E-02 0. -1.
    10030    2    1    2    0    0  0.00000000000E+00  0.00000000000E+00  0.22017310699E+03  0.15164249675E+04  0.15003561194E+04 0.  0.
        3    1    3    3  502    0 -0.11410162572E+03 -0.69009579776E+03 -0.16395516345E+03  0.71842375858E+03  0.10100000352E+00 0. -1.
       -3    1    3    3    0  502  0.11410162572E+03  0.69009579776E+03  0.38412827044E+03  0.79800120892E+03  0.10100000352E+00 0.  1.
</event>
<event>
 5   0  0.4070625E-04  0.1494115E+04  0.7818609E-02  0.8888376E-01
        3   -1    0    0  501    0  0.00000000000E+00  0.00000000000E+00  0.42736522725E+03  0.42736523919E+03  0.10100000352E+00 0.  1.
       -3   -1    0    0    0  501  0.00000000000E+00  0.00000000000E+00 -0.13058961934E+04  0.13058961973E+04  0.10100000352E+00 0. -1.
    10030    2    1    2    0    0  0.00000000000E+00  0.00000000000E+00 -0.87853096619E+03  0.17332614365E+04  0.14941146371E+04 0.  0.
        3    1    3    3  502    0  0.25343941151E+03 -0.53821859334E+03  0.84927055708E+02  0.60093544122E+03  0.10100000352E+00 0.  1.
       -3    1    3    3    0  502 -0.25343941151E+03  0.53821859334E+03 -0.96345802190E+03  0.11323259953E+04  0.10100000352E+00 0. -1.
</event>
<event>
 5   0  0.1097156E-03  0.1498624E+04  0.7818609E-02  0.8885368E-01
       -2   -1    0    0    0  501  0.00000000000E+00  0.00000000000E+00  0.65324168254E+03  0.65324168255E+03  0.25500000920E-02 0.  1.
        2   -1    0    0  501    0  0.00000000000E+00  0.00000000000E+00 -0.85951104301E+03  0.85951104301E+03  0.25500000920E-02 0. -1.
    10030    2    1    2    0    0  0.00000000000E+00  0.00000000000E+00 -0.20626936046E+03  0.15127527256E+04  0.14986239554E+04 0.  0.
        2    1    3    3  502    0 -0.24657908838E+03  0.26989778937E+03 -0.76338256944E+03  0.84640357447E+03  0.25500000920E-02 0. -1.
       -2    1    3    3    0  502  0.24657908838E+03 -0.26989778937E+03  0.55711320898E+03  0.66634915109E+03  0.25500000920E-02 0.  1.
</event>
<event>
 5   0  0.1147755E-03  0.1497448E+04  0.7818609E-02  0.8886151E-01
       -2   -1    0    0    0  501  0.00000000000E+00  0.00000000000E+00  0.10092771273E+04  0.10092771273E+04  0.25500000920E-02 0.  1.
        2   -1    0    0  501    0  0.00000000000E+00  0.00000000000E+00 -0.55543513975E+03  0.55543513976E+03  0.25500000920E-02 0. -1.
    10030    2    1    2    0    0  0.00000000000E+00  0.00000000000E+00  0.45384198758E+03  0.15647122671E+04  0.14974484729E+04 0.  0.
        4    1    3    3  502    0  0.70761118350E+03 -0.14815907641E+03  0.43040314949E+03  0.84137576797E+03  0.12699999809E+01 0. -1.
       -4    1    3    3    0  502 -0.70761118350E+03  0.14815907641E+03  0.23438838091E+02  0.72333649913E+03  0.12699999809E+01 0.  1.
</event>
<event>
 5   0  0.5924403E-04  0.1481810E+04  0.7818609E-02  0.8896640E-01
       -1   -1    0    0    0  501  0.00000000000E+00  0.00000000000E+00  0.52975155249E+03  0.52975155251E+03  0.50400001928E-02 0. -1.
        1   -1    0    0  501    0  0.00000000000E+00  0.00000000000E+00 -0.10362213545E+04  0.10362213545E+04  0.50400001928E-02 0.  1.
    10030    2    1    2    0    0  0.00000000000E+00  0.00000000000E+00 -0.50646980202E+03  0.15659729070E+04  0.14818095307E+04 0.  0.
        1    1    3    3  502    0  0.66106589974E+02  0.16622606482E+01  0.52662668946E+03  0.53076220139E+03  0.50400001928E-02 0. -1.
       -1    1    3    3    0  502 -0.66106589974E+02 -0.16622606482E+01 -0.10330964915E+04  0.10352107056E+04  0.50400001928E-02 0.  1.
</event>
<event>
 5   0  0.1097156E-03  0.1480650E+04  0.7818609E-02  0.8897423E-01
        2   -1    0    0  501    0  0.00000000000E+00  0.00000000000E+00  0.63473712179E+03  0.63473712179E+03  0.25500000920E-02 0.  1.
       -2   -1    0    0    0  501  0.00000000000E+00  0.00000000000E+00 -0.86347785925E+03  0.86347785926E+03  0.25500000920E-02 0. -1.
    10030    2    1    2    0    0  0.00000000000E+00  0.00000000000E+00 -0.22874073746E+03  0.14982149811E+04  0.14806504667E+04 0.  0.
        2    1    3    3  502    0 -0.14023336213E+03 -0.18869659535E+03  0.59596131971E+03  0.64065723718E+03  0.25500000920E-02 0.  1.
       -2    1    3    3    0  502  0.14023336213E+03  0.18869659535E+03 -0.82470205718E+03  0.85755774387E+03  0.25500000920E-02 0. -1.
</event>
<event>
 5   0  0.6146552E-04  0.1492298E+04  0.7818609E-02  0.8889591E-01
        1   -1    0    0  501    0  0.00000000000E+00  0.00000000000E+00  0.38408258197E+03  0.38408258201E+03  0.50400001928E-02 0. -1.
       -1   -1    0    0    0  501  0.00000000000E+00  0.00000000000E+00 -0.14495270361E+04  0.14495270361E+04  0.50400001928E-02 0.  1.
    10030    2    1    2    0    0  0.00000000000E+00  0.00000000000E+00 -0.10654444541E+04  0.18336096181E+04  0.14922976737E+04 0.  0.
        5    1    3    3  502    0 -0.48998344554E+03  0.23184072932E+03  0.97265256123E+02  0.55074179134E+03  0.46999998093E+01 0. -1.
       -5    1    3    3    0  502  0.48998344554E+03 -0.23184072932E+03 -0.11627097102E+04  0.12828678268E+04  0.46999998093E+01 0.  1.
</event>
<event>
 5   0  0.5840834E-04  0.1531636E+04  0.7818609E-02  0.8863683E-01
        1   -1    0    0  501    0  0.00000000000E+00  0.00000000000E+00  0.12712380470E+04  0.12712380470E+04  0.50400001928E-02 0.  1.
       -1   -1    0    0    0  501  0.00000000000E+00  0.00000000000E+00 -0.46134354897E+03  0.46134354899E+03  0.50400001928E-02 0. -1.
    10030    2    1    2    0    0  0.00000000000E+00  0.00000000000E+00  0.80989449807E+03  0.17325815960E+04  0.15316363436E+04 0.  0.
        3    1    3    3  502    0 -0.68525408675E+03 -0.10083522201E+03  0.77451547735E+03  0.10390453023E+04  0.10100000352E+00 0.  1.
       -3    1    3    3    0  502  0.68525408675E+03  0.10083522201E+03  0.35379020720E+02  0.69353629373E+03  0.10100000352E+00 0. -1.
</event>
<event>
 5   0  0.4070625E-04  0.1485083E+04  0.7818609E-02  0.8894434E-01
        4   -1    0    0  501    0  0.00000000000E+00  0.00000000000E+00  0.75458461194E+03  0.75458568067E+03  0.12699999809E+01 0. -1.
       -4   -1    0    0    0  501  0.00000000000E+00  0.00000000000E+00 -0.73068801943E+03  0.73068912311E+03  0.12699999809E+01 0.  1.
    10030    2    1    2    0    0  0.00000000000E+00  0.00000000000E+00  0.23896592511E+02  0.14852748038E+04  0.14850825552E+04 0.  0.
        2    1    3    3  502    0 -0.72457277392E+03  0.38929505871E+02  0.16959591298E+03  0.74517379505E+03  0.25500000920E-02 0. -1.
       -2    1    3    3    0  502  0.72457277392E+03 -0.38929505871E+02 -0.14569932047E+03  0.74010100873E+03  0.25500000920E-02 0.  1.
</event>
<event>
 5   0  0.6146552E-04  0.1512825E+04  0.7818609E-02  0.8875969E-01
        1   -1    0    0  501    0  0.00000000000E+00  0.00000000000E+00  0.50548528210E+03  0.50548528213E+03  0.50400001928E-02 0. -1.
       -1   -1    0    0    0  501  0.00000000000E+00  0.00000000000E+00 -0.11319019621E+04  0.11319019621E+04  0.50400001928E-02 0.  1.
    10030    2    1    2    0    0  0.00000000000E+00  0.00000000000E+00 -0.62641668001E+03  0.16373872443E+04  0.15128248843E+04 0.  0.
        5    1    3    3  502    0  0.40418431396E+03 -0.44434175115E+03 -0.81076958676E+03  0.10090460665E+04  0.46999998093E+01 0.  1.
       -5    1    3    3    0  502 -0.40418431396E+03  0.44434175115E+03  0.18435290675E+03  0.62834117778E+03  0.46999998093E+01 0. -1.
</event>
<event>
 5   0  0.1126175E-03  0.1498828E+04  0.7818609E-02  0.8885232E-01
       -2   -1    0    0    0  501  0.00000000000E+00  0.00000000000E+00  0.44511031758E+03  0.44511031759E+03  0.25500000920E-02 0.  1.
        2   -1    0    0  501    0  0.00000000000E+00  0.00000000000E+00 -0.12617583787E+04  0.12617583787E+04  0.25500000920E-02 0. -1.
    10030    2    1    2    0    0  0.00000000000E+00  0.00000000000E+00 -0.81664806113E+03  0.17068686963E+04  0.14988284394E+04 0.  0.
        3    1    3    3  502    0  0.22732042463E+03  0.65018127557E+03 -0.72017881911E+02  0.69252931496E+03  0.10100000352E+00 0. -1.
       -3    1    3    3    0  502 -0.22732042463E+03 -0.65018127557E+03 -0.74463017922E+03  0.10143393814E+04  0.10100000352E+00 0.  1.
</event>
<event>
 5   0  0.5924403E-04  0.1501362E+04  0.7818609E-02  0.8883548E-01
       -1   -1    0    0    0  501  0.00000000000E+00  0.00000000000E+00  0.30841336086E+03  0.30841336090E+03  0.50400001928E-02 0.  1.
        1   -1    0    0  501    0  0.00000000000E+00  0.00000000000E+00 -0.18271641056E+04  0.18271641056E+04  0.50400001928E-02 0. -1.
    10030    2    1    2    0    0  0.00000000000E+00  0.00000000000E+00 -0.15187507448E+04  0.21355774665E+04  0.15013618121E+04 0.  0.
        1    1    3    3  502    0  0.42598101856E+03  0.56769623807E+03 -0.41158406026E+03  0.82045126948E+03  0.50400001928E-02 0.  1.
       -1    1    3    3    0  502 -0.42598101856E+03 -0.56769623807E+03 -0.11071666845E+04  0.13151261971E+04  0.50400001928E-02 0. -1.
</event>
<event>
 5   0  0.6146552E-04  0.1491336E+04  0.7818609E-02  0.8890235E-01
        1   -1    0    0  501    0  0.00000000000E+00  0.00000000000E+00  0.20737528083E+04  0.20737528083E+04  0.50400001928E-02 0. -1.
       -1   -1    0    0    0  501  0.00000000000E+00  0.00000000000E+00 -0.26812282040E+03  0.26812282045E+03  0.50400001928E-02 0.  1.
    10030    2    1    2    0    0  0.00000000000E+00  0.00000000000E+00  0.18056299879E+04  0.23418756287E+04  0.14913355784E+04 0.  0.
        5    1    3    3  502    0 -0.63879718000E+03  0.38120434641E+03  0.98318983144E+03  0.12329083200E+04  0.46999998093E+01 0. -1.
       -5    1    3    3    0  502  0.63879718000E+03 -0.38120434641E+03  0.82244015642E+03  0.11089673087E+04  0.46999998093E+01 0.  1.
</event>
<event>
 5   0  0.1126175E-03  0.1417622E+04  0.7818609E-02  0.8941161E-01
        2   -1    0    0  501    0  0.00000000000E+00  0.00000000000E+00  0.15002277862E+04  0.15002277862E+04  0.25500000920E-02 0. -1.
       -2   -1    0    0    0  501  0.00000000000E+00  0.00000000000E+00 -0.33489100595E+03  0.33489100596E+03  0.25500000920E-02 0.  1.
    10030    2    1    2    0    0  0.00000000000E+00  0.00000000000E+00  0.11653367802E+04  0.18351187922E+04  0.14176216597E+04 0.  0.
        3    1    3    3  502    0  0.16134372994E+03 -0.61011670726E+03  0.10004118717E+04  0.11828347809E+04  0.10100000352E+00 0. -1.
       -3    1    3    3    0  502 -0.16134372994E+03  0.61011670726E+03  0.16492490855E+03  0.65228401125E+03  0.10100000352E+00 0.  1.
</event>
<event>
 5   0  0.1082667E-03  0.1360046E+04  0.7818609E-02  0.8983258E-01
       -2   -1    0    0    0  501  0.00000000000E+00  0.00000000000E+00  0.32441798198E+03  0.32441798199E+03  0.25500000920E-02 0. -1.
        2   -1    0    0  501    0  0.00000000000E+00  0.00000000000E+00 -0.14254180524E+04  0.14254180524E+04  0.25500000920E-02 0.  1.
    10030    2    1    2    0    0  0.00000000000E+00  0.00000000000E+00 -0.11010000704E+04  0.17498360344E+04  0.13600459522E+04 0.  0.
        5    1    3    3  502    0  0.16801750686E+03 -0.58000904923E+03 -0.14820574602E+03  0.62179370611E+03  0.46999998093E+01 0. -1.
       -5    1    3    3    0  502 -0.16801750686E+03  0.58000904923E+03 -0.95279432440E+03  0.11280423283E+04  0.46999998093E+01 0.  1.
</event>
<event>
 5   0  0.1082667E-03  0.1433822E+04  0.7818609E-02  0.8929694E-01
       -2   -1    0    0    0  501  0.00000000000E+00  0.00000000000E+00  0.47042028747E+03  0.47042028747E+03  0.25500000920E-02 0. -1.
        2   -1    0    0  501    0  0.00000000000E+00  0.00000000000E+00 -0.10925574196E+04  0.10925574196E+04  0.25500000920E-02 0.  1.
    10030    2    1    2    0    0  0.00000000000E+00  0.00000000000E+00 -0.62213713213E+03  0.15629777071E+04  0.14338217119E+04 0.  0.
        5    1    3    3  502    0  0.17747436465E+03  0.75002046493E+02  0.44165121185E+03  0.48187170493E+03  0.46999998093E+01 0. -1.
       -5    1    3    3    0  502 -0.17747436465E+03 -0.75002046493E+02 -0.10637883440E+04  0.10811060021E+04  0.46999998093E+01 0.  1.
</event>
<event>
 5   0  0.5606965E-04  0.1489259E+04  0.7818609E-02  0.8891627E-01
        1   -1    0    0  501    0  0.00000000000E+00  0.00000000000E+00  0.11741310649E+04  0.11741310649E+04  0.50400001928E-02 0. -1.
       -1   -1    0    0    0  501  0.00000000000E+00  0.00000000000E+00 -0.47224144515E+03  0.47224144518E+03  0.50400001928E-02 0.  1.
    10030    2    1    2    0    0  0.00000000000E+00  0.00000000000E+00  0.70188961977E+03  0.16463725101E+04  0.14892593474E+04 0.  0.
        4    1    3    3  502    0  0.24531542393E+03 -0.64494790294E+02 -0.42300807436E+03  0.49323085778E+03  0.12699999809E+01 0.  1.
       -4    1    3    3    0  502 -0.24531542393E+03  0.64494790294E+02  0.11248976941E+04  0.11531416523E+04  0.12699999809E+01 0. -1.
</event>
<event>
 5   0  0.4070625E-04  0.1455450E+04  0.7818609E-02  0.8914631E-01
        3   -1    0    0  501    0  0.00000000000E+00  0.00000000000E+00  0.55002501717E+03  0.55002502645E+03  0.10100000352E+00 0.  1.
       -3   -1    0    0    0  501  0.00000000000E+00  0.00000000000E+00 -0.96283525064E+03  0.96283525594E+03  0.10100000352E+00 0. -1.
    10030    2    1    2    0    0  0.00000000000E+00  0.00000000000E+00 -0.41281023347E+03  0.15128602824E+04  0.14554497398E+04 0.  0.
        4    1    3    3  502    0 -0.30496300904E+03 -0.11712878552E+03 -0.88233252518E+03  0.94086868753E+03  0.12699999809E+01 0. -1.
       -4    1    3    3    0  502  0.30496300904E+03  0.11712878552E+03  0.46952229171E+03  0.57199159486E+03  0.12699999809E+01 0.  1.
</event>
<event>
 5   0  0.5606965E-04  0.1491369E+04  0.7818609E-02  0.8890213E-01
        1   -1    0    0  501    0  0.00000000000E+00  0.00000000000E+00  0.12486929202E+04  0.12486929202E+04  0.50400001928E-02 0.  1.
       -1   -1    0    0    0  501  0.00000000000E+00  0.00000000000E+00 -0.44530182733E+03  0.44530182736E+03  0.50400001928E-02 0. -1.
    10030    2    1    2    0    0  0.00000000000E+00  0.00000000000E+00  0.80339109285E+03  0.16939947476E+04  0.14913688198E+04 0.  0.
        4    1    3    3  502    0 -0.65071800357E+03  0.54860620332E+02  0.81060724177E+03  0.10409271450E+04  0.12699999809E+01 0.  1.
       -4    1    3    3    0  502  0.65071800357E+03 -0.54860620332E+02 -0.72161489158E+01  0.65306760258E+03  0.12699999809E+01 0. -1.
</event>
<event>
 5   0  0.5840834E-04  0.1570395E+04  0.7818609E-02  0.8838945E-01
        1   -1    0    0  501    0  0.00000000000E+00  0.00000000000E+00  0.72708181990E+03  0.72708181991E+03  0.50400001928E-02 0.  1.
       -1   -1    0    0    0  501  0.00000000000E+00  0.00000000000E+00 -0.84795859217E+03  0.84795859218E+03  0.50400001928E-02 0. -1.
    10030    2    1    2    0    0  0.00000000000E+00  0.00000000000E+00 -0.12087677227E+03  0.15750404121E+04  0.15703952068E+04 0.  0.
        3    1    3    3  502    0 -0.29622280837E+03 -0.72437598374E+03 -0.12439808071E+03  0.79242880482E+03  0.10100000352E+00 0. -1.
       -3    1    3    3    0  502  0.29622280837E+03  0.72437598374E+03  0.35213084399E+01  0.78261160727E+03  0.10100000352E+00 0.  1.
</event>
<event>
 5   0  0.5924403E-04  0.1493954E+04  0.7818609E-02  0.8888483E-01
       -1   -1    0    0    0  501  0.00000000000E+00  0.00000000000E+00  0.31683611515E+03  0.31683611519E+03  0.50400001928E-02 0. -1.
        1   -1    0    0  501    0  0.00000000000E+00  0.00000000000E+00 -0.17610828822E+04  0.17610828822E+04  0.50400001928E-02 0.  1.
    10030    2    1    2    0    0  0.00000000000E+00  0.00000000000E+00 -0.14442467671E+04  0.20779189974E+04  0.14939540273E+04 0.  0.
        1    1    3    3  502    0  0.17126799865E+03 -0.19586915298E+03  0.25177183075E+03  0.36205870688E+03  0.50400001928E-02 0. -1.
       -1    1    3    3    0  502 -0.17126799865E+03  0.19586915298E+03 -0.16960185978E+04  0.17158602905E+04  0.50400001928E-02 0.  1.
</event>
<event>
 5   0  0.1082667E-03  0.1516610E+04  0.7818609E-02  0.8873482E-01
        2   -1    0    0  501    0  0.00000000000E+00  0.00000000000E+00  0.72403175141E+03  0.72403175142E+03  0.25500000920E-02 0.  1.
       -2   -1    0    0    0  501  0.00000000000E+00  0.00000000000E+00 -0.79420035966E+03  0.79420035966E+03  0.25500000920E-02 0. -1.
    10030    2    1    2    0    0  0.00000000000E+00  0.00000000000E+00 -0.70168608245E+02  0.15182321111E+04  0.15166097420E+04 0.  0.
        5    1    3    3  502    0 -0.51599033957E+03  0.31310565459E+03  0.42445250856E+03  0.73787749897E+03  0.46999998093E+01 0.  1.
       -5    1    3    3    0  502  0.51599033957E+03 -0.31310565459E+03 -0.49462111680E+03  0.78035461211E+03  0.46999998093E+01 0. -1.
</event>
<event>
 5   0  0.1082667E-03  0.1495187E+04  0.7818609E-02  0.8887660E-01
       -2   -1    0    0    0  501  0.00000000000E+00  0.00000000000E+00  0.39896627753E+03  0.39896627754E+03  0.25500000920E-02 0.  1.
        2   -1    0    0  501    0  0.00000000000E+00  0.00000000000E+00 -0.14008605301E+04  0.14008605301E+04  0.25500000920E-02 0. -1.
    10030    2    1    2    0    0  0.00000000000E+00  0.00000000000E+00 -0.10018942526E+04  0.17998268077E+04  0.14951870934E+04 0.  0.
        5    1    3    3  502    0 -0.28029768583E+03  0.58424956419E+03 -0.52222843928E+02  0.65012588117E+03  0.46999998093E+01 0.  1.
       -5    1    3    3    0  502  0.28029768583E+03 -0.58424956419E+03 -0.94967140867E+03  0.11497009265E+04  0.46999998093E+01 0. -1.
</event>
<event>
 5   0  0.4070625E-04  0.1556737E+04  0.7818609E-02  0.8847576E-01
       -4   -1    0    0    0  501  0.00000000000E+00  0.00000000000E+00  0.37748972926E+03  0.37749186561E+03  0.12699999809E+01 0.  1.
        4   -1    0    0  501    0  0.00000000000E+00  0.00000000000E+00 -0.16049571117E+04  0.16049576142E+04  0.12699999809E+01 0. -1.
    10030    2    1    2    0    0  0.00000000000E+00  0.00000000000E+00 -0.12274673825E+04  0.19824494798E+04  0.15567368965E+04 0.  0.
        4    1    3    3  502    0 -0.16484400376E+02  0.15086562598E+03  0.35846603672E+03  0.38927070907E+03  0.12699999809E+01 0.  1.
       -4    1    3    3    0  502  0.16484400376E+02 -0.15086562598E+03 -0.15859334192E+04  0.15931787707E+04  0.12699999809E+01 0. -1.
</event>
<event>
 5   0  0.5924403E-04  0.1476258E+04  0.7818609E-02  0.8900397E-01
       -1   -1    0    0    0  501  0.00000000000E+00  0.00000000000E+00  0.28127691377E+03  0.28127691381E+03  0.50400001928E-02 0.  1.
        1   -1    0    0  501    0  0.00000000000E+00  0.00000000000E+00 -0.19370023938E+04  0.19370023938E+04  0.50400001928E-02 0. -1.
    10030    2    1    2    0    0  0.00000000000E+00  0.00000000000E+00 -0.16557254801E+04  0.22182793077E+04  0.14762575051E+04 0.  0.
        1    1    3    3  502    0 -0.61223317145E+03 -0.37882518973E+03 -0.58326925809E+03  0.92657487990E+03  0.50400001928E-02 0.  1.
       -1    1    3    3    0  502  0.61223317145E+03  0.37882518973E+03 -0.10724562220E+04  0.12917044278E+04  0.50400001928E-02 0. -1.
</event>
<event>
 5   0  0.1149716E-03  0.1496572E+04  0.7818609E-02  0.8886736E-01
        2   -1    0    0  501    0  0.00000000000E+00  0.00000000000E+00  0.10023551506E+04  0.10023551506E+04  0.25500000920E-02 0. -1.
       -2   -1    0    0    0  501  0.00000000000E+00  0.00000000000E+00 -0.55861645624E+03  0.55861645624E+03  0.25500000920E-02 0.  1.
    10030    2    1    2    0    0  0.00000000000E+00  0.00000000000E+00  0.44373869435E+03  0.15609716068E+04  0.14965721929E+04 0.  0.
        1    1    3    3  502    0  0.33344355738E+03 -0.66976901547E+03  0.23493607953E+03  0.78420029427E+03  0.50400001928E-02 0.  1.
       -1    1    3    3    0  502 -0.33344355738E+03  0.66976901547E+03  0.20880261481E+03  0.77677131256E+03  0.50400001928E-02 0. -1.
</event>
<event>
 5   0  0.1149716E-03  0.1502552E+04  0.7818609E-02  0.8882758E-01
        2   -1    0    0  501    0  0.00000000000E+00  0.00000000000E+00  0.11755266543E+04  0.11755266543E+04  0.25500000920E-02 0.  1.
       -2   -1    0    0    0  501  0.00000000000E+00  0.00000000000E+00 -0.48013820745E+03  0.48013820745E+03  0.25500000920E-02 0. -1.
    10030    2    1    2    0    0  0.00000000000E+00  0.00000000000E+00  0.69538844685E+03  0.16556648617E+04  0.15025515107E+04 0.  0.
        1    1    3    3  502    0  0.50895968615E+02 -0.57355470698E+03  0.87942326076E+03  0.10511615828E+04  0.50400001928E-02 0.  1.
       -1    1    3    3    0  502 -0.50895968615E+02  0.57355470698E+03 -0.18403481392E+03  0.60450327896E+03  0.50400001928E-02 0. -1.
</event>
<event>
 5   0  0.5840834E-04  0.1512497E+04  0.7818609E-02  0.8876185E-01
        1   -1    0    0  501    0  0.00000000000E+00  0.00000000000E+00  0.18225762890E+04  0.18225762890E+04  0.50400001928E-02 0. -1.
       -1   -1    0    0    0  501  0.00000000000E+00  0.00000000000E+00 -0.31379317326E+03  0.31379317330E+03  0.50400001928E-02 0.  1.
    10030    2    1    2    0    0  0.00000000000E+00  0.00000000000E+00  0.15087831158E+04  0.21363694623E+04  0.15124972691E+04 0.  0.
        3    1    3    3  502    0  0.58274937023E+03 -0.86358460461E+02  0.14241764240E+04  0.15412115718E+04  0.10100000352E+00 0. -1.
       -3    1    3    3    0  502 -0.58274937023E+03  0.86358460461E+02  0.84606691804E+02  0.59515789056E+03  0.10100000352E+00 0.  1.
</event>
<event>
 5   0  0.1147755E-03  0.1521045E+04  0.7818609E-02  0.8870578E-01
       -2   -1    0    0    0  501  0.00000000000E+00  0.00000000000E+00  0.66911978244E+03  0.66911978244E+03  0.25500000920E-02 0.  1.
        2   -1    0    0  501    0  0.00000000000E+00  0.00000000000E+00 -0.86441065896E+03  0.86441065897E+03  0.25500000920E-02 0. -1.
    10030    2    1    2    0    0  0.00000000000E+00  0.00000000000E+00 -0.19529087652E+03  0.15335304414E+04  0.15210447358E+04 0.  0.
        4    1    3    3  502    0 -0.71995443605E+03 -0.21323087767E+03 -0.21942962179E+03  0.78227410094E+03  0.12699999809E+01 0. -1.
       -4    1    3    3    0  502  0.71995443605E+03  0.21323087767E+03  0.24138745261E+02  0.75125634047E+03  0.12699999809E+01 0.  1.
</event>
<event>
 5   0  0.5914645E-04  0.1510702E+04  0.7818609E-02  0.8877367E-01
       -1   -1    0    0    0  501  0.00000000000E+00  0.00000000000E+00  0.96025293329E+03  0.96025293330E+03  0.50400001928E-02 0.  1.
        1   -1    0    0  501    0  0.00000000000E+00  0.00000000000E+00 -0.59417157168E+03  0.59417157170E+03  0.50400001928E-02 0. -1.
    10030    2    1    2    0    0  0.00000000000E+00  0.00000000000E+00  0.36608136161E+03  0.15544245050E+04  0.15107018165E+04 0.  0.
        2    1    3    3  502    0  0.60733100596E+03 -0.38241691399E+03 -0.59277551397E+02  0.72014406546E+03  0.25500000920E-02 0. -1.
       -2    1    3    3    0  502 -0.60733100596E+03  0.38241691399E+03  0.42535891301E+03  0.83428043954E+03  0.25500000920E-02 0.  1.
</event>
<event>
 5   0  0.1097156E-03  0.1463074E+04  0.7818609E-02  0.8909387E-01
        2   -1    0    0  501    0  0.00000000000E+00  0.00000000000E+00  0.53786189598E+03  0.53786189599E+03  0.25500000920E-02 0.  1.
       -2   -1    0    0    0  501  0.00000000000E+00  0.00000000000E+00 -0.99495093014E+03  0.99495093015E+03  0.25500000920E-02 0. -1.
    10030    2    1    2    0    0  0.00000000000E+00  0.00000000000E+00 -0.45708903416E+03  0.15328128261E+04  0.14630737421E+04 0.  0.
        2    1    3    3  502    0  0.60080992953E+03 -0.31738653926E+03  0.55369928746E+02  0.68174233823E+03  0.25500000920E-02 0.  1.
       -2    1    3    3    0  502 -0.60080992953E+03  0.31738653926E+03 -0.51245896290E+03  0.85107048791E+03  0.25500000920E-02 0. -1.
</event>
<event>
 5   0  0.5924403E-04  0.1481953E+04  0.7818609E-02  0.8896544E-01
       -1   -1    0    0    0  501  0.00000000000E+00  0.00000000000E+00  0.77959016000E+03  0.77959016002E+03  0.50400001928E-02 0.  1.
        1   -1    0    0  501    0  0.00000000000E+00  0.00000000000E+00 -0.70427522213E+03  0.70427522214E+03  0.50400001928E-02 0. -1.
    10030    2    1    2    0    0  0.00000000000E+00  0.00000000000E+00  0.75314937878E+02  0.14838653822E+04  0.14819528105E+04 0.  0.
        1    1    3    3  502    0  0.80601128201E+02 -0.65098066414E+03 -0.30742286475E+03  0.72441782470E+03  0.50400001928E-02 0. -1.
       -1    1    3    3    0  502 -0.80601128201E+02  0.65098066414E+03  0.38273780263E+03  0.75944755746E+03  0.50400001928E-02 0.  1.
</event>
<event>
 5   0  0.1097156E-03  0.1479598E+04  0.7818609E-02  0.8898134E-01
       -2   -1    0    0    0  501  0.00000000000E+00  0.00000000000E+00  0.26322334352E+03  0.26322334353E+03  0.25500000920E-02 0.  1.
        2   -1    0    0  501    0  0.00000000000E+00  0.00000000000E+00 -0.20792339581E+04  0.20792339581E+04  0.25500000920E-02 0. -1.
    10030    2    1    2    0    0  0.00000000000E+00  0.00000000000E+00 -0.18160106146E+04  0.23424573016E+04  0.14795984785E+04 0.  0.
        2    1    3    3  502    0 -0.24745282256E+03 -0.11335644408E+03 -0.19970846110E+04  0.20155469546E+04  0.25500000920E-02 0. -1.
       -2    1    3    3    0  502  0.24745282256E+03  0.11335644408E+03  0.18107399641E+03  0.32691034702E+03  0.25500000920E-02 0.  1.
</event>
<event>
 5   0  0.1082667E-03  0.1514083E+04  0.7818609E-02  0.8875141E-01
        2   -1    0    0  501    0  0.00000000000E+00  0.00000000000E+00  0.27175873317E+04  0.27175873317E+04  0.25500000920E-02 0. -1.
       -2   -1    0    0    0  501  0.00000000000E+00  0.00000000000E+00 -0.21089006271E+03  0.21089006273E+03  0.25500000920E-02 0.  1.
    10030    2    1    2    0    0  0.00000000000E+00  0.00000000000E+00  0.25066972690E+04  0.29284773944E+04  0.15140834360E+04 0.  0.
        5    1    3    3  502    0  0.26310116263E+03 -0.70819803875E+03  0.13465780644E+04  0.15440405621E+04  0.46999998093E+01 0. -1.
       -5    1    3    3    0  502 -0.26310116263E+03  0.70819803875E+03  0.11601192045E+04  0.13844368323E+04  0.46999998093E+01 0.  1.
</event>
<event>
 5   0  0.1082667E-03  0.1446810E+04  0.7818609E-02  0.8920615E-01
        2   -1    0    0  501    0  0.00000000000E+00  0.00000000000E+00  0.50233278142E+03  0.50233278142E+03  0.25500000920E-02 0. -1.
       -2   -1    0    0    0  501  0.00000000000E+00  0.00000000000E+00 -0.10417686561E+04  0.10417686561E+04  0.25500000920E-02 0.  1.
    10030    2    1    2    0    0  0.00000000000E+00  0.00000000000E+00 -0.53943587472E+03  0.15441014376E+04  0.14468096580E+04 0.  0.
        5    1    3    3  502    0 -0.23379903381E+03  0.19177789504E+03 -0.97106300750E+03  0.10170674529E+04  0.46999998093E+01 0.  1.
       -5    1    3    3    0  502  0.23379903381E+03 -0.19177789504E+03  0.43162713277E+03  0.52703398466E+03  0.46999998093E+01 0. -1.
</event>
<event>
 5   0  0.4070625E-04  0.1393168E+04  0.7818609E-02  0.8958779E-01
       -4   -1    0    0    0  501  0.00000000000E+00  0.00000000000E+00  0.35554704414E+03  0.35554931232E+03  0.12699999809E+01 0.  1.
        4   -1    0    0  501    0  0.00000000000E+00  0.00000000000E+00 -0.13647327233E+04  0.13647333142E+04  0.12699999809E+01 0. -1.
    10030    2    1    2    0    0  0.00000000000E+00  0.00000000000E+00 -0.10091856792E+04  0.17202826266E+04  0.13931678220E+04 0.  0.
        5    1    3    3  502    0 -0.26259045677E+03 -0.39090488522E+03 -0.11383789707E+04  0.12319452700E+04  0.46999998093E+01 0. -1.
       -5    1    3    3    0  502  0.26259045677E+03  0.39090488522E+03  0.12919329152E+03  0.48833735659E+03  0.46999998093E+01 0.  1.
</event>
<event>
 5   0  0.5840834E-04  0.1504376E+04  0.7818609E-02  0.8881548E-01
        1   -1    0    0  501    0  0.00000000000E+00  0.00000000000E+00  0.25787161280E+04  0.25787161280E+04  0.50400001928E-02 0.  1.
       -1   -1    0    0    0  501  0.00000000000E+00  0.00000000000E+00 -0.21940651382E+03  0.21940651388E+03  0.50400001928E-02 0. -1.
    10030    2    1    2    0    0  0.00000000000E+00  0.00000000000E+00  0.23593096141E+04  0.27981226418E+04  0.15043764367E+04 0.  0.
        3    1    3    3  502    0 -0.65374408583E+03  0.38789278427E+02  0.18678534307E+04  0.19793338239E+04  0.10100000352E+00 0.  1.
       -3    1    3    3    0  502  0.65374408583E+03 -0.38789278427E+02  0.49145618348E+03  0.81878881792E+03  0.10100000352E+00 0. -1.
</event>
<event>
 5   0  0.5840834E-04  0.1517510E+04  0.7818609E-02  0.8872892E-01
        1   -1    0    0  501    0  0.00000000000E+00  0.00000000000E+00  0.18277757514E+04  0.18277757514E+04  0.50400001928E-02 0. -1.
       -1   -1    0    0    0  501  0.00000000000E+00  0.00000000000E+00 -0.31497784349E+03  0.31497784353E+03  0.50400001928E-02 0.  1.
    10030    2    1    2    0    0  0.00000000000E+00  0.00000000000E+00  0.15127979079E+04  0.21427535949E+04  0.15175096238E+04 0.  0.
        3    1    3    3  502    0  0.64043464481E+03  0.38496132310E+03  0.94242740047E+03  0.12027140849E+04  0.10100000352E+00 0. -1.
       -3    1    3    3    0  502 -0.64043464481E+03 -0.38496132310E+03  0.57037050743E+03  0.94003951008E+03  0.10100000352E+00 0.  1.
</event>
<event>
 5   0  0.5840834E-04  0.1471909E+04  0.7818609E-02  0.8903351E-01
       -1   -1    0    0    0  501  0.00000000000E+00  0.00000000000E+00  0.40796882050E+03  0.40796882053E+03  0.50400001928E-02 0. -1.
        1   -1    0    0  501    0  0.00000000000E+00  0.00000000000E+00 -0.13276237020E+04  0.13276237020E+04  0.50400001928E-02 0.  1.
    10030    2    1    2    0    0  0.00000000000E+00  0.00000000000E+00 -0.91965488148E+03  0.17355925225E+04  0.14719090676E+04 0.  0.
        3    1    3    3  502    0 -0.49051852103E+03 -0.16484410773E+03  0.15722324030E+03  0.54083376080E+03  0.10100000352E+00 0. -1.
       -3    1    3    3    0  502  0.49051852103E+03  0.16484410773E+03 -0.10768781218E+04  0.11947587617E+04  0.10100000352E+00 0.  1.
</event>
<event>
 5   0  0.1149716E-03  0.1479913E+04  0.7818609E-02  0.8897922E-01
       -2   -1    0    0    0  501  0.00000000000E+00  0.00000000000E+00  0.32798323542E+03  0.32798323543E+03  0.25500000920E-02 0.  1.
        2   -1    0    0  501    0  0.00000000000E+00  0.00000000000E+00 -0.16694008994E+04  0.16694008994E+04  0.25500000920E-02 0. -1.
    10030    2    1    2    0    0  0.00000000000E+00  0.00000000000E+00 -0.13414176640E+04  0.19973841348E+04  0.14799128464E+04 0.  0.
        1    1    3    3  502    0 -0.39248272473E+02  0.64152868502E+03 -0.17584776017E+03  0.66634969451E+03  0.50400001928E-02 0.  1.
       -1    1    3    3    0  502  0.39248272473E+02 -0.64152868502E+03 -0.11655699038E+04  0.13310344403E+04  0.50400001928E-02 0. -1.
</event>
<event>
 5   0  0.6146552E-04  0.1535135E+04  0.7818609E-02  0.8861419E-01
       -1   -1    0    0    0  501  0.00000000000E+00  0.00000000000E+00  0.73517464163E+03  0.73517464165E+03  0.50400001928E-02 0. -1.
        1   -1    0    0  501    0  0.00000000000E+00  0.00000000000E+00 -0.80138792338E+03  0.80138792340E+03  0.50400001928E-02 0.  1.
    10030    2    1    2    0    0  0.00000000000E+00  0.00000000000E+00 -0.66213281750E+02  0.15365625651E+04  0.15351352767E+04 0.  0.
        5    1    3    3  502    0  0.66688754721E+03 -0.37695988990E+03 -0.81111947313E+02  0.77034991868E+03  0.46999998093E+01 0.  1.
       -5    1    3    3    0  502 -0.66688754721E+03  0.37695988990E+03  0.14898665562E+02  0.76621264637E+03  0.46999998093E+01 0. -1.
</event>
<event>
 5   0  0.1126175E-03  0.1080606E+04  0.7818609E-02  0.9224304E-01
        2   -1    0    0  501    0  0.00000000000E+00  0.00000000000E+00  0.11499715430E+04  0.11499715430E+04  0.25500000920E-02 0.  1.
       -2   -1    0    0    0  501  0.00000000000E+00  0.00000000000E+00 -0.25385595815E+03  0.25385595816E+03  0.25500000920E-02 0. -1.
    10030    2    1    2    0    0  0.00000000000E+00  0.00000000000E+00  0.89611558483E+03  0.14038275011E+04  0.10806056226E+04 0.  0.
        3    1    3    3  502    0  0.53078562843E+03  0.66143201227E+02  0.34896007321E+03  0.63865597101E+03  0.10100000352E+00 0. -1.
       -3    1    3    3    0  502 -0.53078562843E+03 -0.66143201227E+02  0.54715551162E+03  0.76517153012E+03  0.10100000352E+00 0.  1.
</event>
<event>
 5   0  0.1126175E-03  0.1493625E+04  0.7818609E-02  0.8888704E-01
        2   -1    0    0  501    0  0.00000000000E+00  0.00000000000E+00  0.55921242734E+03  0.55921242734E+03  0.25500000920E-02 0. -1.
       -2   -1    0    0    0  501  0.00000000000E+00  0.00000000000E+00 -0.99734654976E+03  0.99734654976E+03  0.25500000920E-02 0.  1.
    10030    2    1    2    0    0  0.00000000000E+00  0.00000000000E+00 -0.43813412242E+03  0.15565589771E+04  0.14936245646E+04 0.  0.
        3    1    3    3  502    0  0.54378661873E+03 -0.45908964156E+03  0.16882578381E+02  0.71186530843E+03  0.10100000352E+00 0. -1.
       -3    1    3    3    0  502 -0.54378661873E+03  0.45908964156E+03 -0.45501670080E+03  0.84469366867E+03  0.10100000352E+00 0.  1.
</event>
<event>
 5   0  0.1097156E-03  0.1557761E+04  0.7818609E-02  0.8846926E-01
        2   -1    0    0  501    0  0.00000000000E+00  0.00000000000E+00  0.22281040018E+04  0.22281040018E+04  0.25500000920E-02 0. -1.
       -2   -1    0    0    0  501  0.00000000000E+00  0.00000000000E+00 -0.27227391481E+03  0.27227391482E+03  0.25500000920E-02 0.  1.
    10030    2    1    2    0    0  0.00000000000E+00  0.00000000000E+00  0.19558300870E+04  0.25003779166E+04  0.15577606994E+04 0.  0.
        2    1    3    3  502    0 -0.54901993184E+03 -0.86886658139E+02  0.18536677882E+04  0.19352148320E+04  0.25500000920E-02 0. -1.
       -2    1    3    3    0  502  0.54901993184E+03  0.86886658139E+02  0.10216229879E+03  0.56516308462E+03  0.25500000920E-02 0.  1.
</event>
<event>
 5   0  0.5914645E-04  0.1085191E+04  0.7818609E-02  0.9219747E-01
       -1   -1    0    0    0  501  0.00000000000E+00  0.00000000000E+00  0.39640401767E+03  0.39640401770E+03  0.50400001928E-02 0.  1.
        1   -1    0    0  501    0  0.00000000000E+00  0.00000000000E+00 -0.74270129641E+03  0.74270129643E+03  0.50400001928E-02 0. -1.
    10030    2    1    2    0    0  0.00000000000E+00  0.00000000000E+00 -0.34629727874E+03  0.11391053141E+04  0.10851908180E+04 0.  0.
        2    1    3    3  502    0 -0.35920737042E+02  0.73121791687E+01  0.39510273354E+03  0.39679961866E+03  0.25500000920E-02 0.  1.
       -2    1    3    3    0  502  0.35920737042E+02 -0.73121791687E+01 -0.74140001228E+03  0.74230569547E+03  0.25500000920E-02 0. -1.
</event>
<event>
 5   0  0.1082667E-03  0.1501924E+04  0.7818609E-02  0.8883175E-01
        2   -1    0    0  501    0  0.00000000000E+00  0.00000000000E+00  0.12002875437E+04  0.12002875437E+04  0.25500000920E-02 0. -1.
       -2   -1    0    0    0  501  0.00000000000E+00  0.00000000000E+00 -0.46984053857E+03  0.46984053857E+03  0.25500000920E-02 0.  1.
    10030    2    1    2    0    0  0.00000000000E+00  0.00000000000E+00  0.73044700509E+03  0.16701280822E+04  0.15019237610E+04 0.  0.
        5    1    3    3  502    0 -0.40946758989E+03  0.53163653435E+03  0.74005003293E+03  0.99899812465E+03  0.46999998093E+01 0. -1.
       -5    1    3    3    0  502  0.40946758989E+03 -0.53163653435E+03 -0.96030278318E+01  0.67112995759E+03  0.46999998093E+01 0.  1.
</event>
<event>
 5   0  0.4070625E-04  0.1493268E+04  0.7818609E-02  0.8888942E-01
       -3   -1    0    0    0  501  0.00000000000E+00  0.00000000000E+00  0.17072484683E+04  0.17072484713E+04  0.10100000352E+00 0.  1.
        3   -1    0    0  501    0  0.00000000000E+00  0.00000000000E+00 -0.32652665896E+03  0.32652667458E+03  0.10100000352E+00 0. -1.
    10030    2    1    2    0    0  0.00000000000E+00  0.00000000000E+00  0.13807218093E+04  0.20337751459E+04  0.14932677687E+04 0.  0.
        5    1    3    3  502    0 -0.25006545884E+03 -0.69402759217E+03  0.53368761104E+03  0.91052270075E+03  0.46999998093E+01 0. -1.
       -5    1    3    3    0  502  0.25006545884E+03  0.69402759217E+03  0.84703419828E+03  0.11232524451E+04  0.46999998093E+01 0.  1.
</event>
<event>
 5   0  0.1082667E-03  0.1888548E+04  0.7818609E-02  0.8660578E-01
        2   -1    0    0  501    0  0.00000000000E+00  0.00000000000E+00  0.10988381086E+04  0.10988381086E+04  0.25500000920E-02 0. -1.
       -2   -1    0    0    0  501  0.00000000000E+00  0.00000000000E+00 -0.81145110978E+03  0.81145110978E+03  0.25500000920E-02 0.  1.
    10030    2    1    2    0    0  0.00000000000E+00  0.00000000000E+00  0.28738699878E+03  0.19102892183E+04  0.18885480165E+04 0.  0.
        5    1    3    3  502    0 -0.76102566010E+03  0.50986531233E+03 -0.88092072194E+02  0.92027441300E+03  0.46999998093E+01 0.  1.
       -5    1    3    3    0  502  0.76102566010E+03 -0.50986531233E+03  0.37547907098E+03  0.99001480534E+03  0.46999998093E+01 0. -1.
</event>
<event>
 5   0  0.1149716E-03  0.1501507E+04  0.7818609E-02  0.8883451E-01
       -2   -1    0    0    0  501  0.00000000000E+00  0.00000000000E+00  0.70059230912E+03  0.70059230913E+03  0.25500000920E-02 0.  1.
        2   -1    0    0  501    0  0.00000000000E+00  0.00000000000E+00 -0.80450665581E+03  0.80450665581E+03  0.25500000920E-02 0. -1.
    10030    2    1    2    0    0  0.00000000000E+00  0.00000000000E+00 -0.10391434669E+03  0.15050989649E+04  0.15015074768E+04 0.  0.
        1    1    3    3  502    0  0.44905078230E+03  0.50469740305E+03  0.27633972745E+03  0.72988335967E+03  0.50400001928E-02 0.  1.
       -1    1    3    3    0  502 -0.44905078230E+03 -0.50469740305E+03 -0.38025407413E+03  0.77521560527E+03  0.50400001928E-02 0. -1.
</event>
<event>
 5   0  0.1147755E-03  0.1493447E+04  0.7818609E-02  0.8888823E-01
        2   -1    0    0  501    0  0.00000000000E+00  0.00000000000E+00  0.99802721484E+03  0.99802721484E+03  0.25500000920E-02 0.  1.
       -2   -1    0    0    0  501  0.00000000000E+00  0.00000000000E+00 -0.55869783627E+03  0.55869783628E+03  0.25500000920E-02 0. -1.
    10030    2    1    2    0    0  0.00000000000E+00  0.00000000000E+00  0.43932937856E+03  0.15567250511E+04  0.14934465447E+04 0.  0.
        4    1    3    3  502    0  0.61963230656E+03 -0.40398228424E+03  0.32621186878E+03  0.80843161587E+03  0.12699999809E+01 0.  1.
       -4    1    3    3    0  502 -0.61963230656E+03  0.40398228424E+03  0.11311750979E+03  0.74829343525E+03  0.12699999809E+01 0. -1.
</event>
<event>
 5   0  0.5914645E-04  0.1481969E+04  0.7818609E-02  0.8896532E-01
       -1   -1    0    0    0  501  0.00000000000E+00  0.00000000000E+00  0.55065490547E+03  0.55065490549E+03  0.50400001928E-02 0. -1.
        1   -1    0    0  501    0  0.00000000000E+00  0.00000000000E+00 -0.99710047335E+03  0.99710047336E+03  0.50400001928E-02 0.  1.
    10030    2    1    2    0    0  0.00000000000E+00  0.00000000000E+00 -0.44644556788E+03  0.15477553789E+04  0.14819693208E+04 0.  0.
        2    1    3    3  502    0 -0.29877255390E+03 -0.22928325656E+03 -0.88969023942E+03  0.96611830167E+03  0.25500000920E-02 0.  1.
       -2    1    3    3    0  502  0.29877255390E+03  0.22928325656E+03  0.44324467153E+03  0.58163707718E+03  0.25500000920E-02 0. -1.
</event>
<event>
 5   0  0.5914645E-04  0.1467127E+04  0.7818609E-02  0.8906612E-01
       -1   -1    0    0    0  501  0.00000000000E+00  0.00000000000E+00  0.38740866069E+03  0.38740866072E+03  0.50400001928E-02 0. -1.
        1   -1    0    0  501    0  0.00000000000E+00  0.00000000000E+00 -0.13890131325E+04  0.13890131325E+04  0.50400001928E-02 0.  1.
    10030    2    1    2    0    0  0.00000000000E+00  0.00000000000E+00 -0.10016044718E+04  0.17764217932E+04  0.14671274210E+04 0.  0.
        2    1    3    3  502    0 -0.19442102531E+03 -0.70595378390E+03 -0.55420784513E+03  0.91832271871E+03  0.25500000920E-02 0.  1.
       -2    1    3    3    0  502  0.19442102531E+03  0.70595378390E+03 -0.44739662663E+03  0.85809907448E+03  0.25500000920E-02 0. -1.
</event>
<event>
 5   0  0.1082667E-03  0.1497867E+04  0.7818609E-02  0.8885873E-01
       -2   -1    0    0    0  501  0.00000000000E+00  0.00000000000E+00  0.44924273334E+03  0.44924273335E+03  0.25500000920E-02 0.  1.
        2   -1    0    0  501    0  0.00000000000E+00  0.00000000000E+00 -0.12485479652E+04  0.12485479652E+04  0.25500000920E-02 0. -1.
    10030    2    1    2    0    0  0.00000000000E+00  0.00000000000E+00 -0.79930523182E+03  0.16977906985E+04  0.14978666170E+04 0.  0.
        5    1    3    3  502    0 -0.40354477830E+03  0.52758042048E+03 -0.79179074750E+03  0.10335106027E+04  0.46999998093E+01 0. -1.
       -5    1    3    3    0  502  0.40354477830E+03 -0.52758042048E+03 -0.75144843255E+01  0.66428009577E+03  0.46999998093E+01 0.  1.
</event>
<event>
 5   0  0.1126175E-03  0.1479092E+04  0.7818609E-02  0.8898477E-01
        2   -1    0    0  501    0  0.00000000000E+00  0.00000000000E+00  0.89362050934E+03  0.89362050934E+03  0.25500000920E-02 0.  1.
       -2   -1    0    0    0  501  0.00000000000E+00  0.00000000000E+00 -0.61203608702E+03  0.61203608703E+03  0.25500000920E-02 0. -1.
    10030    2    1    2    0    0  0.00000000000E+00  0.00000000000E+00  0.28158442232E+03  0.15056565964E+04  0.14790916129E+04 0.  0.
        3    1    3    3  502    0  0.71637901155E+03  0.74769000155E+02  0.31155091765E+03  0.78476319744E+03  0.10100000352E+00 0. -1.
       -3    1    3    3    0  502 -0.71637901155E+03 -0.74769000155E+02 -0.29966495331E+02  0.72089339893E+03  0.10100000352E+00 0.  1.
</event>
<event>
 5   0  0.5914645E-04  0.1452990E+04  0.7818609E-02  0.8916330E-01
        1   -1    0    0  501    0  0.00000000000E+00  0.00000000000E+00  0.20795530320E+04  0.20795530320E+04  0.50400001928E-02 0. -1.
       -1   -1    0    0    0  501  0.00000000000E+00  0.00000000000E+00 -0.25380211521E+03  0.25380211526E+03  0.50400001928E-02 0.  1.
    10030    2    1    2    0    0  0.00000000000E+00  0.00000000000E+00  0.18257509167E+04  0.23333551472E+04  0.14529899632E+04 0.  0.
        2    1    3    3  502    0  0.25331301596E+03  0.61812089828E+03  0.45426818042E+03  0.80783693199E+03  0.25500000920E-02 0. -1.
       -2    1    3    3    0  502 -0.25331301596E+03 -0.61812089828E+03  0.13714827363E+04  0.15255182152E+04  0.25500000920E-02 0.  1.
</event>
<event>
 5   0  0.1147755E-03  0.1333963E+04  0.7818609E-02  0.9003057E-01
       -2   -1    0    0    0  501  0.00000000000E+00  0.00000000000E+00  0.33111060098E+03  0.33111060099E+03  0.25500000920E-02 0. -1.
        2   -1    0    0  501    0  0.00000000000E+00  0.00000000000E+00 -0.13435528156E+04  0.13435528156E+04  0.25500000920E-02 0.  1.
    10030    2    1    2    0    0  0.00000000000E+00  0.00000000000E+00 -0.10124422147E+04  0.16746634166E+04  0.13339633882E+04 0.  0.
        4    1    3    3  502    0 -0.38963079744E+03 -0.27366055540E+03 -0.10925913084E+04  0.11918303730E+04  0.12699999809E+01 0.  1.
       -4    1    3    3    0  502  0.38963079744E+03  0.27366055540E+03  0.80149093737E+02  0.48283304364E+03  0.12699999809E+01 0. -1.
</event>
<event>
 5   0  0.5606965E-04  0.1507778E+04  0.7818609E-02  0.8879297E-01
        1   -1    0    0  501    0  0.00000000000E+00  0.00000000000E+00  0.57296275754E+03  0.57296275756E+03  0.50400001928E-02 0. -1.
       -1   -1    0    0    0  501  0.00000000000E+00  0.00000000000E+00 -0.99194734762E+03  0.99194734763E+03  0.50400001928E-02 0.  1.
    10030    2    1    2    0    0  0.00000000000E+00  0.00000000000E+00 -0.41898459008E+03  0.15649101052E+04  0.15077783493E+04 0.  0.
        4    1    3    3  502    0 -0.11991990100E+03 -0.72941394379E+03 -0.55822006897E+02  0.74131180579E+03  0.12699999809E+01 0.  1.
       -4    1    3    3    0  502  0.11991990100E+03  0.72941394379E+03 -0.36316258318E+03  0.82359829940E+03  0.12699999809E+01 0. -1.
</event>
<event>
 5   0  0.5840834E-04  0.1377831E+04  0.7818609E-02  0.8970024E-01
        1   -1    0    0  501    0  0.00000000000E+00  0.00000000000E+00  0.12173859612E+04  0.12173859612E+04  0.50400001928E-02 0.  1.
       -1   -1    0    0    0  501  0.00000000000E+00  0.00000000000E+00 -0.38985530107E+03  0.38985530110E+03  0.50400001928E-02 0. -1.
    10030    2    1    2    0    0  0.00000000000E+00  0.00000000000E+00  0.82753066008E+03  0.16072412623E+04  0.13778307159E+04 0.  0.
        3    1    3    3  502    0  0.66946568816E+03  0.13248732338E+03  0.30392102979E+03  0.74706438882E+03  0.10100000352E+00 0. -1.
       -3    1    3    3    0  502 -0.66946568816E+03 -0.13248732338E+03  0.52360963029E+03  0.86017687345E+03  0.10100000352E+00 0.  1.
</event>
<event>
 5   0  0.1126175E-03  0.1501518E+04  0.7818609E-02  0.8883444E-01
        2   -1    0    0  501    0  0.00000000000E+00  0.00000000000E+00  0.10778348862E+04  0.10778348862E+04  0.25500000920E-02 0.  1.
       -2   -1    0    0    0  501  0.00000000000E+00  0.00000000000E+00 -0.52293645594E+03  0.52293645595E+03  0.25500000920E-02 0. -1.
    10030    2    1    2    0    0  0.00000000000E+00  0.00000000000E+00  0.55489843027E+03  0.16007713422E+04  0.15015181058E+04 0.  0.
        3    1    3    3  502    0  0.12015099524E+03  0.63107356432E+03  0.69165284935E+03  0.94396704363E+03  0.10100000352E+00 0. -1.
       -3    1    3    3    0  502 -0.12015099524E+03 -0.63107356432E+03 -0.13675441909E+03  0.65680429854E+03  0.10100000352E+00 0.  1.
</event>
<event>
 5   0  0.5914645E-04  0.1483184E+04  0.7818609E-02  0.8895713E-01
        1   -1    0    0  501    0  0.00000000000E+00  0.00000000000E+00  0.10903219934E+04  0.10903219934E+04  0.50400001928E-02 0.  1.
       -1   -1    0    0    0  501  0.00000000000E+00  0.00000000000E+00 -0.50440007914E+03  0.50440007917E+03  0.50400001928E-02 0. -1.
    10030    2    1    2    0    0  0.00000000000E+00  0.00000000000E+00  0.58592191425E+03  0.15947220726E+04  0.14831837375E+04 0.  0.
        2    1    3    3  502    0 -0.69855260226E+02 -0.72490187500E+03  0.44347392558E+03  0.85266148526E+03  0.25500000920E-02 0.  1.
       -2    1    3    3    0  502  0.69855260226E+02  0.72490187500E+03  0.14244798866E+03  0.74206058731E+03  0.25500000920E-02 0. -1.
</event>
<event>
 5   0  0.1149716E-03  0.1498950E+04  0.7818609E-02  0.8885152E-01
        2   -1    0    0  501    0  0.00000000000E+00  0.00000000000E+00  0.10206102242E+04  0.10206102242E+04  0.25500000920E-02 0.  1.
       -2   -1    0    0    0  501  0.00000000000E+00  0.00000000000E+00 -0.55036935990E+03  0.55036935990E+03  0.25500000920E-02 0. -1.
    10030    2    1    2    0    0  0.00000000000E+00  0.00000000000E+00  0.47024086428E+03  0.15709795841E+04  0.14989497601E+04 0.  0.
        1    1    3    3  502    0 -0.69730583352E+03 -0.10721097039E+03  0.50022407136E+03  0.86484318765E+03  0.50400001928E-02 0. -1.
       -1    1    3    3    0  502  0.69730583352E+03  0.10721097039E+03 -0.29983207078E+02  0.70613639643E+03  0.50400001928E-02 0.  1.
</event>
<event>
 5   0  0.1126175E-03  0.1495422E+04  0.7818609E-02  0.8887503E-01
       -2   -1    0    0    0  501  0.00000000000E+00  0.00000000000E+00  0.10159060678E+04  0.10159060678E+04  0.25500000920E-02 0.  1.
        2   -1    0    0  501    0  0.00000000000E+00  0.00000000000E+00 -0.55031816052E+03  0.55031816053E+03  0.25500000920E-02 0. -1.
    10030    2    1    2    0    0  0.00000000000E+00  0.00000000000E+00  0.46558790731E+03  0.15662242284E+04  0.14954217579E+04 0.  0.
        3    1    3    3  502    0  0.38193318556E+03  0.64064136269E+03  0.28798854461E+03  0.79951968446E+03  0.10100000352E+00 0. -1.
       -3    1    3    3    0  502 -0.38193318556E+03 -0.64064136269E+03  0.17759936270E+03  0.76670454391E+03  0.10100000352E+00 0.  1.
</event>
<event>
 5   0  0.5924403E-04  0.1536262E+04  0.7818609E-02  0.8860691E-01
        1   -1    0    0  501    0  0.00000000000E+00  0.00000000000E+00  0.71731703445E+03  0.71731703447E+03  0.50400001928E-02 0. -1.
       -1   -1    0    0    0  501  0.00000000000E+00  0.00000000000E+00 -0.82254417573E+03  0.82254417574E+03  0.50400001928E-02 0.  1.
    10030    2    1    2    0    0  0.00000000000E+00  0.00000000000E+00 -0.10522714128E+03  0.15398612102E+04  0.15362616299E+04 0.  0.
        1    1    3    3  502    0  0.11280811183E+03 -0.74990282920E+03 -0.17514986023E+03  0.77830418019E+03  0.50400001928E-02 0.  1.
       -1    1    3    3    0  502 -0.11280811183E+03  0.74990282920E+03  0.69922718949E+02  0.76155703003E+03  0.50400001928E-02 0. -1.
</event>
<event>
 5   0  0.5924403E-04  0.1489573E+04  0.7818609E-02  0.8891416E-01
        1   -1    0    0  501    0  0.00000000000E+00  0.00000000000E+00  0.17757761115E+04  0.17757761115E+04  0.50400001928E-02 0. -1.
       -1   -1    0    0    0  501  0.00000000000E+00  0.00000000000E+00 -0.31237440235E+03  0.31237440239E+03  0.50400001928E-02 0.  1.
    10030    2    1    2    0    0  0.00000000000E+00  0.00000000000E+00  0.14634017092E+04  0.20881505139E+04  0.14895730953E+04 0.  0.
        1    1    3    3  502    0 -0.19973825639E+03 -0.71134749717E+03  0.86317843218E+03  0.11362163696E+04  0.50400001928E-02 0. -1.
       -1    1    3    3    0  502  0.19973825639E+03  0.71134749717E+03  0.60022327699E+03  0.95193414429E+03  0.50400001928E-02 0.  1.
</event>
<event>
 5   0  0.1149716E-03  0.1277252E+04  0.7818609E-02  0.9047801E-01
       -2   -1    0    0    0  501  0.00000000000E+00  0.00000000000E+00  0.71172957587E+03  0.71172957587E+03  0.25500000920E-02 0.  1.
        2   -1    0    0  501    0  0.00000000000E+00  0.00000000000E+00 -0.57303149272E+03  0.57303149272E+03  0.25500000920E-02 0. -1.
    10030    2    1    2    0    0  0.00000000000E+00  0.00000000000E+00  0.13869808315E+03  0.12847610686E+04  0.12772524594E+04 0.  0.
        1    1    3    3  502    0 -0.14078103936E+03  0.62227023327E+03  0.97869153618E+02  0.64545946078E+03  0.50400001928E-02 0. -1.
       -1    1    3    3    0  502  0.14078103936E+03 -0.62227023327E+03  0.40828929532E+02  0.63930160782E+03  0.50400001928E-02 0.  1.
</event>
<event>
 5   0  0.5914645E-04  0.1529786E+04  0.7818609E-02  0.8864884E-01
       -1   -1    0    0    0  501  0.00000000000E+00  0.00000000000E+00  0.15600844852E+04  0.15600844852E+04  0.50400001928E-02 0.  1.
        1   -1    0    0  501    0  0.00000000000E+00  0.00000000000E+00 -0.37501908230E+03  0.37501908233E+03  0.50400001928E-02 0. -1.
    10030    2    1    2    0    0  0.00000000000E+00  0.00000000000E+00  0.11850654029E+04  0.19351035675E+04  0.15297861968E+04 0.  0.
        2    1    3    3  502    0 -0.26543511099E+03 -0.48157663585E+02  0.14979106830E+04  0.15220089924E+04  0.25500000920E-02 0.  1.
       -2    1    3    3    0  502  0.26543511099E+03  0.48157663585E+02 -0.31284528011E+03  0.41309457513E+03  0.25500000920E-02 0. -1.
</event>
<event>
 5   0  0.5924403E-04  0.1612070E+04  0.7818609E-02  0.8813167E-01
        1   -1    0    0  501    0  0.00000000000E+00  0.00000000000E+00  0.20325431644E+04  0.20325431644E+04  0.50400001928E-02 0. -1.
       -1   -1    0    0    0  501  0.00000000000E+00  0.00000000000E+00 -0.31964490834E+03  0.31964490838E+03  0.50400001928E-02 0.  1.
    10030    2    1    2    0    0  0.00000000000E+00  0.00000000000E+00  0.17128982561E+04  0.23521880728E+04  0.16120695686E+04 0.  0.
        1    1    3    3  502    0  0.60977149652E+03 -0.23088295768E+03  0.15478950054E+04  0.16796151839E+04  0.50400001928E-02 0. -1.
       -1    1    3    3    0  502 -0.60977149652E+03  0.23088295768E+03  0.16500325062E+03  0.67257288888E+03  0.50400001928E-02 0.  1.
</event>
<event>
 5   0  0.1126175E-03  0.1507855E+04  0.7818609E-02  0.8879246E-01
       -2   -1    0    0    0  501  0.00000000000E+00  0.00000000000E+00  0.26058338637E+03  0.26058338638E+03  0.25500000920E-02 0.  1.
        2   -1    0    0  501    0  0.00000000000E+00  0.00000000000E+00 -0.21812846813E+04  0.21812846813E+04  0.25500000920E-02 0. -1.
    10030    2    1    2    0    0  0.00000000000E+00  0.00000000000E+00 -0.19207012949E+04  0.24418680677E+04  0.15078548324E+04 0.  0.
        3    1    3    3  502    0  0.75994755969E+02 -0.71570225244E+03 -0.13239180340E+04  0.15069054012E+04  0.10100000352E+00 0. -1.
       -3    1    3    3    0  502 -0.75994755969E+02  0.71570225244E+03 -0.59678326091E+03  0.93496266651E+03  0.10100000352E+00 0.  1.
</event>
<event>
 5   0  0.5606965E-04  0.1511917E+04  0.7818609E-02  0.8876566E-01
       -1   -1    0    0    0  501  0.00000000000E+00  0.00000000000E+00  0.15191570663E+04  0.15191570663E+04  0.50400001928E-02 0. -1.
        1   -1    0    0  501    0  0.00000000000E+00  0.00000000000E+00 -0.37617810496E+03  0.37617810499E+03  0.50400001928E-02 0.  1.
    10030    2    1    2    0    0  0.00000000000E+00  0.00000000000E+00  0.11429789613E+04  0.18953351713E+04  0.15119174929E+04 0.  0.
        4    1    3    3  502    0  0.54550783780E+03 -0.52275077054E+03  0.54015346170E+03  0.92877044757E+03  0.12699999809E+01 0.  1.
       -4    1    3    3    0  502 -0.54550783780E+03  0.52275077054E+03  0.60282549963E+03  0.96656472370E+03  0.12699999809E+01 0. -1.
</event>
<event>
 5   0  0.5924403E-04  0.1497144E+04  0.7818609E-02  0.8886354E-01
       -1   -1    0    0    0  501  0.00000000000E+00  0.00000000000E+00  0.26719125729E+03  0.26719125734E+03  0.50400001928E-02 0. -1.
        1   -1    0    0  501    0  0.00000000000E+00  0.00000000000E+00 -0.20972244159E+04  0.20972244159E+04  0.50400001928E-02 0.  1.
    10030    2    1    2    0    0  0.00000000000E+00  0.00000000000E+00 -0.18300331586E+04  0.23644156732E+04  0.14971439858E+04 0.  0.
        1    1    3    3  502    0  0.33352385299E+03 -0.65743794539E+03 -0.11203065994E+04  0.13411001787E+04  0.50400001928E-02 0. -1.
       -1    1    3    3    0  502 -0.33352385299E+03  0.65743794539E+03 -0.70972655914E+03  0.10233154945E+04  0.50400001928E-02 0.  1.
</event>
<event>
 5   0  0.5924403E-04  0.1495834E+04  0.7818609E-02  0.8887228E-01
       -1   -1    0    0    0  501  0.00000000000E+00  0.00000000000E+00  0.54463738058E+03  0.54463738061E+03  0.50400001928E-02 0.  1.
        1   -1    0    0  501    0  0.00000000000E+00  0.00000000000E+00 -0.10270677787E+04  0.10270677787E+04  0.50400001928E-02 0. -1.
    10030    2    1    2    0    0  0.00000000000E+00  0.00000000000E+00 -0.48243039815E+03  0.15717051594E+04  0.14958335532E+04 0.  0.
        1    1    3    3  502    0 -0.13099128255E+03  0.68171399942E+03 -0.53369892302E+03  0.87562962122E+03  0.50400001928E-02 0. -1.
       -1    1    3    3    0  502  0.13099128255E+03 -0.68171399942E+03  0.51268524871E+02  0.69607553813E+03  0.50400001928E-02 0.  1.
</event>
<event>
 5   0  0.1097156E-03  0.1609639E+04  0.7818609E-02  0.8814648E-01
       -2   -1    0    0    0  501  0.00000000000E+00  0.00000000000E+00  0.58741242952E+03  0.58741242952E+03  0.25500000920E-02 0. -1.
        2   -1    0    0  501    0  0.00000000000E+00  0.00000000000E+00 -0.11026906540E+04  0.11026906540E+04  0.25500000920E-02 0.  1.
    10030    2    1    2    0    0  0.00000000000E+00  0.00000000000E+00 -0.51527822445E+03  0.16901030835E+04  0.16096387123E+04 0.  0.
        2    1    3    3  502    0 -0.79588837678E+03 -0.11803241692E+03 -0.27767812893E+03  0.85116103237E+03  0.25500000920E-02 0. -1.
       -2    1    3    3    0  502  0.79588837678E+03  0.11803241692E+03 -0.23760009552E+03  0.83894205112E+03  0.25500000920E-02 0.  1.
</event>
<event>
 5   0  0.1147755E-03  0.1498545E+04  0.7818609E-02  0.8885421E-01
        2   -1    0    0  501    0  0.00000000000E+00  0.00000000000E+00  0.86851183176E+03  0.86851183177E+03  0.25500000920E-02 0.  1.
       -2   -1    0    0    0  501  0.00000000000E+00  0.00000000000E+00 -0.64640385286E+03  0.64640385286E+03  0.25500000920E-02 0. -1.
    10030    2    1    2    0    0  0.00000000000E+00  0.00000000000E+00  0.22210797890E+03  0.15149156846E+04  0.14985451536E+04 0.  0.
        4    1    3    3  502    0 -0.62719551487E+02  0.16666344096E+02 -0.64355631220E+03  0.64682134244E+03  0.12699999809E+01 0. -1.
       -4    1    3    3    0  502  0.62719551487E+02 -0.16666344096E+02  0.86566429110E+03  0.86809434219E+03  0.12699999809E+01 0.  1.
</event>
<event>
 5   0  0.1126175E-03  0.1486049E+04  0.7818609E-02  0.8893783E-01
        2   -1    0    0  501    0  0.00000000000E+00  0.00000000000E+00  0.47556619255E+03  0.47556619255E+03  0.25500000920E-02 0.  1.
       -2   -1    0    0    0  501  0.00000000000E+00  0.00000000000E+00 -0.11609016846E+04  0.11609016846E+04  0.25500000920E-02 0. -1.
    10030    2    1    2    0    0  0.00000000000E+00  0.00000000000E+00 -0.68533549208E+03  0.16364678772E+04  0.14860492510E+04 0.  0.
        3    1    3    3  502    0 -0.36499680323E+03 -0.32650261921E+03  0.27269575602E+03  0.56052619231E+03  0.10100000352E+00 0.  1.
       -3    1    3    3    0  502  0.36499680323E+03  0.32650261921E+03 -0.95803124810E+03  0.10759416849E+04  0.10100000352E+00 0. -1.
</event>
<event>
 5   0  0.5840834E-04  0.1484998E+04  0.7818609E-02  0.8894491E-01
       -1   -1    0    0    0  501  0.00000000000E+00  0.00000000000E+00  0.34771599489E+03  0.34771599492E+03  0.50400001928E-02 0. -1.
        1   -1    0    0  501    0  0.00000000000E+00  0.00000000000E+00 -0.15855029440E+04  0.15855029440E+04  0.50400001928E-02 0.  1.
    10030    2    1    2    0    0  0.00000000000E+00  0.00000000000E+00 -0.12377869491E+04  0.19332189389E+04  0.14849979577E+04 0.  0.
        3    1    3    3  502    0  0.98004860879E+02 -0.64319007200E+03 -0.15312417399E+03  0.66839018869E+03  0.10100000352E+00 0. -1.
       -3    1    3    3    0  502 -0.98004860879E+02  0.64319007200E+03 -0.10846627751E+04  0.12648287502E+04  0.10100000352E+00 0.  1.
</event>
<event>
 5   0  0.1082667E-03  0.1495677E+04  0.7818609E-02  0.8887333E-01
       -2   -1    0    0    0  501  0.00000000000E+00  0.00000000000E+00  0.59359929887E+03  0.59359929887E+03  0.25500000920E-02 0.  1.
        2   -1    0    0  501    0  0.00000000000E+00  0.00000000000E+00 -0.94215437640E+03  0.94215437641E+03  0.25500000920E-02 0. -1.
    10030    2    1    2    0    0  0.00000000000E+00  0.00000000000E+00 -0.34855507754E+03  0.15357536753E+04  0.14956766726E+04 0.  0.
        5    1    3    3  502    0 -0.25868075028E+03 -0.40156648819E+03 -0.76508083937E+03  0.90196571762E+03  0.46999998093E+01 0. -1.
       -5    1    3    3    0  502  0.25868075028E+03  0.40156648819E+03  0.41652576183E+03  0.63378795766E+03  0.46999998093E+01 0.  1.
</event>
<event>
 5   0  0.1097156E-03  0.1455678E+04  0.7818609E-02  0.8914473E-01
       -2   -1    0    0    0  501  0.00000000000E+00  0.00000000000E+00  0.27205491457E+03  0.27205491458E+03  0.25500000920E-02 0. -1.
        2   -1    0    0  501    0  0.00000000000E+00  0.00000000000E+00 -0.19472167170E+04  0.19472167170E+04  0.25500000920E-02 0.  1.
    10030    2    1    2    0    0  0.00000000000E+00  0.00000000000E+00 -0.16751618024E+04  0.22192716316E+04  0.14556783678E+04 0.  0.
        2    1    3    3  502    0  0.64937239425E+03 -0.19754529731E+03 -0.43699165815E+03  0.80726102358E+03  0.25500000920E-02 0. -1.
       -2    1    3    3    0  502 -0.64937239425E+03  0.19754529731E+03 -0.12381701443E+04  0.14120106080E+04  0.25500000920E-02 0.  1.
</event>
<event>
 5   0  0.5840834E-04  0.1494067E+04  0.7818609E-02  0.8888408E-01
       -1   -1    0    0    0  501  0.00000000000E+00  0.00000000000E+00  0.10210426302E+04  0.10210426302E+04  0.50400001928E-02 0.  1.
        1   -1    0    0  501    0  0.00000000000E+00  0.00000000000E+00 -0.54655793737E+03  0.54655793739E+03  0.50400001928E-02 0. -1.
    10030    2    1    2    0    0  0.00000000000E+00  0.00000000000E+00  0.47448469283E+03  0.15676005676E+04  0.14940668713E+04 0.  0.
        3    1    3    3  502    0  0.26667281078E+03  0.44109194401E+03 -0.33009454990E+03  0.61207753852E+03  0.10100000352E+00 0. -1.
       -3    1    3    3    0  502 -0.26667281078E+03 -0.44109194401E+03  0.80457924273E+03  0.95552302909E+03  0.10100000352E+00 0.  1.
</event>
<event>
 5   0  0.1082667E-03  0.1118594E+04  0.7818609E-02  0.9187256E-01
       -2   -1    0    0    0  501  0.00000000000E+00  0.00000000000E+00  0.60501077717E+03  0.60501077718E+03  0.25500000920E-02 0.  1.
        2   -1    0    0  501    0  0.00000000000E+00  0.00000000000E+00 -0.51703769102E+03  0.51703769103E+03  0.25500000920E-02 0. -1.
    10030    2    1    2    0    0  0.00000000000E+00  0.00000000000E+00  0.87973086152E+02  0.11220484682E+04  0.11185944310E+04 0.  0.
        5    1    3    3  502    0 -0.15528968415E+03 -0.53673369039E+03  0.19552655960E+02  0.55910851966E+03  0.46999998093E+01 0.  1.
       -5    1    3    3    0  502  0.15528968415E+03  0.53673369039E+03  0.68420430192E+02  0.56293994855E+03  0.46999998093E+01 0. -1.
</event>
<event>
 5   0  0.4070625E-04  0.1457566E+04  0.7818609E-02  0.8913172E-01
       -3   -1    0    0    0  501  0.00000000000E+00  0.00000000000E+00  0.14279152488E+04  0.14279152524E+04  0.10100000352E+00 0.  1.
        3   -1    0    0  501    0  0.00000000000E+00  0.00000000000E+00 -0.37195790777E+03  0.37195792148E+03  0.10100000352E+00 0. -1.
    10030    2    1    2    0    0  0.00000000000E+00  0.00000000000E+00  0.10559573410E+04  0.17998731738E+04  0.14575656197E+04 0.  0.
        1    1    3    3  502    0  0.35022903598E+02  0.45792108221E+02 -0.36913781258E+03  0.37361242706E+03  0.50400001928E-02 0. -1.
       -1    1    3    3    0  502 -0.35022903598E+02 -0.45792108221E+02  0.14250951536E+04  0.14262607468E+04  0.50400001928E-02 0.  1.
</event>
<event>
 5   0  0.1082667E-03  0.1501527E+04  0.7818609E-02  0.8883438E-01
        2   -1    0    0  501    0  0.00000000000E+00  0.00000000000E+00  0.68317980921E+03  0.68317980921E+03  0.25500000920E-02 0.  1.
       -2   -1    0    0    0  501  0.00000000000E+00  0.00000000000E+00 -0.82503307504E+03  0.82503307504E+03  0.25500000920E-02 0. -1.
    10030    2    1    2    0    0  0.00000000000E+00  0.00000000000E+00 -0.14185326583E+03  0.15082128843E+04  0.15015271410E+04 0.  0.
        5    1    3    3  502    0  0.62307236053E+03  0.37940905035E+03 -0.24906753101E+03  0.77086128386E+03  0.46999998093E+01 0. -1.
       -5    1    3    3    0  502 -0.62307236053E+03 -0.37940905035E+03  0.10721426519E+03  0.73735160039E+03  0.46999998093E+01 0.  1.
</event>
<event>
 5   0  0.1149716E-03  0.1490147E+04  0.7818609E-02  0.8891032E-01
       -2   -1    0    0    0  501  0.00000000000E+00  0.00000000000E+00  0.77632930486E+03  0.77632930486E+03  0.25500000920E-02 0.  1.
        2   -1    0    0  501    0  0.00000000000E+00  0.00000000000E+00 -0.71507570199E+03  0.71507570199E+03  0.25500000920E-02 0. -1.
    10030    2    1    2    0    0  0.00000000000E+00  0.00000000000E+00  0.61253602873E+02  0.14914050069E+04  0.14901466004E+04 0.  0.
        1    1    3    3  502    0 -0.57604595976E+03  0.36454161458E+03  0.33157107916E+03  0.75806260762E+03  0.50400001928E-02 0.  1.
       -1    1    3    3    0  502  0.57604595976E+03 -0.36454161458E+03 -0.27031747628E+03  0.73334239924E+03  0.50400001928E-02 0. -1.
</event>
<event>
 5   0  0.1147755E-03  0.1729000E+04  0.7818609E-02  0.8744995E-01
       -2   -1    0    0    0  501  0.00000000000E+00  0.00000000000E+00  0.46726306966E+03  0.46726306966E+03  0.25500000920E-02 0.  1.
        2   -1    0    0  501    0  0.00000000000E+00  0.00000000000E+00 -0.15994421680E+04  0.15994421680E+04  0.25500000920E-02 0. -1.
    10030    2    1    2    0    0  0.00000000000E+00  0.00000000000E+00 -0.11321790984E+04  0.20667052377E+04  0.17290000083E+04 0.  0.
        4    1    3    3  502    0  0.49821804442E+03 -0.15569107362E+03  0.25763798731E+03  0.58209954097E+03  0.12699999809E+01 0.  1.
       -4    1    3    3    0  502 -0.49821804442E+03  0.15569107362E+03 -0.13898170857E+04  0.14846056967E+04  0.12699999809E+01 0. -1.
</event>
<event>
 5   0  0.5840834E-04  0.1516430E+04  0.7818609E-02  0.8873600E-01
        1   -1    0    0  501    0  0.00000000000E+00  0.00000000000E+00  0.10922268876E+04  0.10922268876E+04  0.50400001928E-02 0.  1.
       -1   -1    0    0    0  501  0.00000000000E+00  0.00000000000E+00 -0.52634645968E+03  0.52634645971E+03  0.50400001928E-02 0. -1.
    10030    2    1    2    0    0  0.00000000000E+00  0.00000000000E+00  0.56588042790E+03  0.16185733473E+04  0.15164296957E+04 0.  0.
        3    1    3    3  502    0 -0.40347592257E+03  0.40792602049E+03 -0.24612200549E+03  0.62431763556E+03  0.10100000352E+00 0.  1.
       -3    1    3    3    0  502  0.40347592257E+03 -0.40792602049E+03  0.81200243340E+03  0.99425571174E+03  0.10100000352E+00 0. -1.
</event>
<event>
 5   0  0.5606965E-04  0.1421514E+04  0.7818609E-02  0.8938391E-01
       -1   -1    0    0    0  501  0.00000000000E+00  0.00000000000E+00  0.22084769301E+03  0.22084769307E+03  0.50400001928E-02 0. -1.
        1   -1    0    0  501    0  0.00000000000E+00  0.00000000000E+00 -0.22874398023E+04  0.22874398024E+04  0.50400001928E-02 0.  1.
    10030    2    1    2    0    0  0.00000000000E+00  0.00000000000E+00 -0.20665921093E+04  0.25082874954E+04  0.14215144084E+04 0.  0.
        4    1    3    3  502    0 -0.51747010968E+03  0.20042888072E+03 -0.18169230439E+04  0.18997784111E+04  0.12699999809E+01 0.  1.
       -4    1    3    3    0  502  0.51747010968E+03 -0.20042888072E+03 -0.24966906540E+03  0.60850908437E+03  0.12699999809E+01 0. -1.
</event>
<event>
 5   0  0.1149716E-03  0.1509808E+04  0.7818609E-02  0.8877956E-01
        2   -1    0    0  501    0  0.00000000000E+00  0.00000000000E+00  0.87147294111E+03  0.87147294111E+03  0.25500000920E-02 0.  1.
       -2   -1    0    0    0  501  0.00000000000E+00  0.00000000000E+00 -0.65392782910E+03  0.65392782911E+03  0.25500000920E-02 0. -1.
    10030    2    1    2    0    0  0.00000000000E+00  0.00000000000E+00  0.21754511200E+03  0.15254007702E+04  0.15098084759E+04 0.  0.
        1    1    3    3  502    0  0.18856995622E+02  0.57018489506E+03  0.60826065878E+03  0.83393490746E+03  0.50400001928E-02 0.  1.
       -1    1    3    3    0  502 -0.18856995622E+02 -0.57018489506E+03 -0.39071554678E+03  0.69146586276E+03  0.50400001928E-02 0. -1.
</event>
<event>
 5   0  0.5924403E-04  0.1501417E+04  0.7818609E-02  0.8883511E-01
       -1   -1    0    0    0  501  0.00000000000E+00  0.00000000000E+00  0.47765803443E+03  0.47765803446E+03  0.50400001928E-02 0.  1.
        1   -1    0    0  501    0  0.00000000000E+00  0.00000000000E+00 -0.11798460917E+04  0.11798460917E+04  0.50400001928E-02 0. -1.
    10030    2    1    2    0    0  0.00000000000E+00  0.00000000000E+00 -0.70218805727E+03  0.16575041262E+04  0.15014166179E+04 0.  0.
        1    1    3    3  502    0 -0.12469427254E+02 -0.40021549460E+03 -0.10521174529E+04  0.11257348993E+04  0.50400001928E-02 0. -1.
       -1    1    3    3    0  502  0.12469427254E+02  0.40021549460E+03  0.34992939563E+03  0.53176922690E+03  0.50400001928E-02 0.  1.
</event>
<event>
 5   0  0.1147755E-03  0.1496704E+04  0.7818609E-02  0.8886648E-01
        2   -1    0    0  501    0  0.00000000000E+00  0.00000000000E+00  0.13624926446E+04  0.13624926446E+04  0.25500000920E-02 0. -1.
       -2   -1    0    0    0  501  0.00000000000E+00  0.00000000000E+00 -0.41103369572E+03  0.41103369573E+03  0.25500000920E-02 0.  1.
    10030    2    1    2    0    0  0.00000000000E+00  0.00000000000E+00  0.95145894884E+03  0.17735263403E+04  0.14967035606E+04 0.  0.
        4    1    3    3  502    0  0.35377047250E+03 -0.60918262591E+03  0.17649196150E+03  0.72622864464E+03  0.12699999809E+01 0.  1.
       -4    1    3    3    0  502 -0.35377047250E+03  0.60918262591E+03  0.77496698734E+03  0.10472976956E+04  0.12699999809E+01 0. -1.
</event>
<event>
 5   0  0.1082667E-03  0.1508226E+04  0.7818609E-02  0.8879001E-01
       -2   -1    0    0    0  501  0.00000000000E+00  0.00000000000E+00  0.52167415533E+03  0.52167415534E+03  0.25500000920E-02 0. -1.
        2   -1    0    0  501    0  0.00000000000E+00  0.00000000000E+00 -0.10901180057E+04  0.10901180057E+04  0.25500000920E-02 0.  1.
    10030    2    1    2    0    0  0.00000000000E+00  0.00000000000E+00 -0.56844385040E+03  0.16117921611E+04  0.15082259643E+04 0.  0.
        5    1    3    3  502    0  0.58876746107E+03  0.30600737725E+03 -0.66712218885E+03  0.94093663071E+03  0.46999998093E+01 0.  1.
       -5    1    3    3    0  502 -0.58876746107E+03 -0.30600737725E+03  0.98678338450E+02  0.67085553037E+03  0.46999998093E+01 0. -1.
</event>
<event>
 5   0  0.4070625E-04  0.1476784E+04  0.7818609E-02  0.8900040E-01
       -4   -1    0    0    0  501  0.00000000000E+00  0.00000000000E+00  0.48260175452E+03  0.48260342556E+03  0.12699999809E+01 0. -1.
        4   -1    0    0  501    0  0.00000000000E+00  0.00000000000E+00 -0.11297523918E+04  0.11297531056E+04  0.12699999809E+01 0.  1.
    10030    2    1    2    0    0  0.00000000000E+00  0.00000000000E+00 -0.64715063725E+03  0.16123565312E+04  0.14767835441E+04 0.  0.
        2    1    3    3  502    0  0.48595656558E+03 -0.19860068584E+03  0.24334945814E+03  0.57863198567E+03  0.25500000920E-02 0. -1.
       -2    1    3    3    0  502 -0.48595656558E+03  0.19860068584E+03 -0.89050009539E+03  0.10337245455E+04  0.25500000920E-02 0.  1.
</event>
<event>
 5   0  0.5606965E-04  0.1491718E+04  0.7818609E-02  0.8889979E-01
        1   -1    0    0  501    0  0.00000000000E+00  0.00000000000E+00  0.76288413204E+03  0.76288413206E+03  0.50400001928E-02 0.  1.
       -1   -1    0    0    0  501  0.00000000000E+00  0.00000000000E+00 -0.72921332695E+03  0.72921332697E+03  0.50400001928E-02 0. -1.
    10030    2    1    2    0    0  0.00000000000E+00  0.00000000000E+00  0.33670805089E+02  0.14920974590E+04  0.14917175014E+04 0.  0.
        4    1    3    3  502    0  0.34019948467E+03  0.62739280122E+03  0.23356141684E+03  0.75093938819E+03  0.12699999809E+01 0.  1.
       -4    1    3    3    0  502 -0.34019948467E+03 -0.62739280122E+03 -0.19989061176E+03  0.74115807084E+03  0.12699999809E+01 0. -1.
</event>
<event>
 5   0  0.5606965E-04  0.1499843E+04  0.7818609E-02  0.8884557E-01
        1   -1    0    0  501    0  0.00000000000E+00  0.00000000000E+00  0.13347497844E+04  0.13347497844E+04  0.50400001928E-02 0.  1.
       -1   -1    0    0    0  501  0.00000000000E+00  0.00000000000E+00 -0.42133933342E+03  0.42133933345E+03  0.50400001928E-02 0. -1.
    10030    2    1    2    0    0  0.00000000000E+00  0.00000000000E+00  0.91341045102E+03  0.17560891179E+04  0.14998434378E+04 0.  0.
        4    1    3    3  502    0  0.36386937179E+03  0.13342856529E+03 -0.29499110946E+03  0.48705797327E+03  0.12699999809E+01 0. -1.
       -4    1    3    3    0  502 -0.36386937179E+03 -0.13342856529E+03  0.12084015605E+04  0.12690311446E+04  0.12699999809E+01 0.  1.
</event>
<event>
 5   0  0.5924403E-04  0.1529825E+04  0.7818609E-02  0.8864858E-01
       -1   -1    0    0    0  501  0.00000000000E+00  0.00000000000E+00  0.64846259921E+03  0.64846259923E+03  0.50400001928E-02 0.  1.
        1   -1    0    0  501    0  0.00000000000E+00  0.00000000000E+00 -0.90227469907E+03  0.90227469909E+03  0.50400001928E-02 0. -1.
    10030    2    1    2    0    0  0.00000000000E+00  0.00000000000E+00 -0.25381209986E+03  0.15507372983E+04  0.15298253450E+04 0.  0.
        1    1    3    3  502    0 -0.41882292194E+03 -0.16809266292E+03  0.49913119125E+03  0.67290395256E+03  0.50400001928E-02 0.  1.
       -1    1    3    3    0  502  0.41882292194E+03  0.16809266292E+03 -0.75294329111E+03  0.87783334576E+03  0.50400001928E-02 0. -1.
</event>
<event>
 5   0  0.4070625E-04  0.1490045E+04  0.7818609E-02  0.8891100E-01
        4   -1    0    0  501    0  0.00000000000E+00  0.00000000000E+00  0.11586235433E+04  0.11586242394E+04  0.12699999809E+01 0. -1.
       -4   -1    0    0    0  501  0.00000000000E+00  0.00000000000E+00 -0.47906545486E+03  0.47906713824E+03  0.12699999809E+01 0.  1.
    10030    2    1    2    0    0  0.00000000000E+00  0.00000000000E+00  0.67955808845E+03  0.16376913776E+04  0.14900449163E+04 0.  0.
        2    1    3    3  502    0  0.26951508966E+02 -0.69833839584E+03  0.56019219721E+02  0.70109988726E+03  0.25500000920E-02 0.  1.
       -2    1    3    3    0  502 -0.26951508966E+02  0.69833839584E+03  0.62353886873E+03  0.93659149033E+03  0.25500000920E-02 0. -1.
</event>
<event>
 5   0  0.1149716E-03  0.1491205E+04  0.7818609E-02  0.8890323E-01
       -2   -1    0    0    0  501  0.00000000000E+00  0.00000000000E+00  0.29826282229E+03  0.29826282230E+03  0.25500000920E-02 0. -1.
        2   -1    0    0  501    0  0.00000000000E+00  0.00000000000E+00 -0.18638703101E+04  0.18638703101E+04  0.25500000920E-02 0.  1.
    10030    2    1    2    0    0  0.00000000000E+00  0.00000000000E+00 -0.15656074878E+04  0.21621331324E+04  0.14912051758E+04 0.  0.
        1    1    3    3  502    0  0.21430801810E+03  0.32952158885E+03 -0.17014315016E+04  0.17462478515E+04  0.50400001928E-02 0.  1.
       -1    1    3    3    0  502 -0.21430801810E+03 -0.32952158885E+03  0.13582401380E+03  0.41588528092E+03  0.50400001928E-02 0. -1.
</event>
<event>
 5   0  0.1149716E-03  0.1506945E+04  0.7818609E-02  0.8879848E-01
        2   -1    0    0  501    0  0.00000000000E+00  0.00000000000E+00  0.40697271931E+03  0.40697271932E+03  0.25500000920E-02 0. -1.
       -2   -1    0    0    0  501  0.00000000000E+00  0.00000000000E+00 -0.13949849741E+04  0.13949849741E+04  0.25500000920E-02 0.  1.
    10030    2    1    2    0    0  0.00000000000E+00  0.00000000000E+00 -0.98801225478E+03  0.18019576934E+04  0.15069450266E+04 0.  0.
        1    1    3    3  502    0 -0.51439700524E+03  0.64764656959E+01  0.16429099170E+03  0.54003495590E+03  0.50400001928E-02 0. -1.
       -1    1    3    3    0  502  0.51439700524E+03 -0.64764656959E+01 -0.11523032465E+04  0.12619227375E+04  0.50400001928E-02 0.  1.
</event>
<event>
 5   0  0.1149716E-03  0.1520654E+04  0.7818609E-02  0.8870834E-01
        2   -1    0    0  501    0  0.00000000000E+00  0.00000000000E+00  0.14234782278E+04  0.14234782278E+04  0.25500000920E-02 0. -1.
       -2   -1    0    0    0  501  0.00000000000E+00  0.00000000000E+00 -0.40611564987E+03  0.40611564988E+03  0.25500000920E-02 0.  1.
    10030    2    1    2    0    0  0.00000000000E+00  0.00000000000E+00  0.10173625779E+04  0.18295938777E+04  0.15206535247E+04 0.  0.
        1    1    3    3  502    0 -0.34333194757E+03  0.79734976848E+02  0.13192437314E+04  0.13655176731E+04  0.50400001928E-02 0. -1.
       -1    1    3    3    0  502  0.34333194757E+03 -0.79734976848E+02 -0.30188115350E+03  0.46407620454E+03  0.50400001928E-02 0.  1.
</event>
<event>
 5   0  0.5914645E-04  0.1490977E+04  0.7818609E-02  0.8890475E-01
        1   -1    0    0  501    0  0.00000000000E+00  0.00000000000E+00  0.81816681683E+03  0.81816681685E+03  0.50400001928E-02 0. -1.
       -1   -1    0    0    0  501  0.00000000000E+00  0.00000000000E+00 -0.67926665898E+03  0.67926665900E+03  0.50400001928E-02 0.  1.
    10030    2    1    2    0    0  0.00000000000E+00  0.00000000000E+00  0.13890015785E+03  0.14974334758E+04  0.14909774515E+04 0.  0.
        2    1    3    3  502    0  0.37395841605E+03  0.51825531210E+03  0.45493489842E+03  0.78447385378E+03  0.25500000920E-02 0. -1.
       -2    1    3    3    0  502 -0.37395841605E+03 -0.51825531210E+03 -0.31603474057E+03  0.71295962207E+03  0.25500000920E-02 0.  1.
</event>
<event>
 5   0  0.6146552E-04  0.1474123E+04  0.7818609E-02  0.8901846E-01
       -1   -1    0    0    0  501  0.00000000000E+00  0.00000000000E+00  0.37469200106E+03  0.37469200110E+03  0.50400001928E-02 0.  1.
        1   -1    0    0  501    0  0.00000000000E+00  0.00000000000E+00 -0.14498825822E+04  0.14498825823E+04  0.50400001928E-02 0. -1.
    10030    2    1    2    0    0  0.00000000000E+00  0.00000000000E+00 -0.10751905812E+04  0.18245745834E+04  0.14741226626E+04 0.  0.
        5    1    3    3  502    0  0.50197102232E+03 -0.37438868299E+02 -0.12039764291E+04  0.13049742940E+04  0.46999998093E+01 0. -1.
       -5    1    3    3    0  502 -0.50197102232E+03  0.37438868299E+02  0.12878584790E+03  0.51960028939E+03  0.46999998093E+01 0.  1.
</event>
<event>
 5   0  0.1082667E-03  0.1458317E+04  0.7818609E-02  0.8912655E-01
        2   -1    0    0  501    0  0.00000000000E+00  0.00000000000E+00  0.70354385709E+03  0.70354385710E+03  0.25500000920E-02 0. -1.
       -2   -1    0    0    0  501  0.00000000000E+00  0.00000000000E+00 -0.75570552152E+03  0.75570552152E+03  0.25500000920E-02 0.  1.
    10030    2    1    2    0    0  0.00000000000E+00  0.00000000000E+00 -0.52161664426E+02  0.14592493786E+04  0.14583168071E+04 0.  0.
        5    1    3    3  502    0 -0.21501751633E+03  0.36115984268E+03 -0.62226459430E+03  0.75093560284E+03  0.46999998093E+01 0.  1.
       -5    1    3    3    0  502  0.21501751633E+03 -0.36115984268E+03  0.57010292988E+03  0.70831377577E+03  0.46999998093E+01 0. -1.
</event>
<event>
 5   0  0.5606965E-04  0.1504506E+04  0.7818609E-02  0.8881462E-01
        1   -1    0    0  501    0  0.00000000000E+00  0.00000000000E+00  0.22748094619E+04  0.22748094619E+04  0.50400001928E-02 0. -1.
       -1   -1    0    0    0  501  0.00000000000E+00  0.00000000000E+00 -0.24876136963E+03  0.24876136968E+03  0.50400001928E-02 0.  1.
    10030    2    1    2    0    0  0.00000000000E+00  0.00000000000E+00  0.20260480922E+04  0.25235708315E+04  0.15045061880E+04 0.  0.
        4    1    3    3  502    0 -0.16839997812E+03 -0.41004605044E+03  0.20324652896E+04  0.20802435152E+04  0.12699999809E+01 0. -1.
       -4    1    3    3    0  502  0.16839997812E+03  0.41004605044E+03 -0.64171973842E+01  0.44332731636E+03  0.12699999809E+01 0.  1.
</event>
<event>
 5   0  0.1097156E-03  0.1486375E+04  0.7818609E-02  0.8893564E-01
        2   -1    0    0  501    0  0.00000000000E+00  0.00000000000E+00  0.19502308991E+04  0.19502308991E+04  0.25500000920E-02 0. -1.
       -2   -1    0    0    0  501  0.00000000000E+00  0.00000000000E+00 -0.28321146367E+03  0.28321146368E+03  0.25500000920E-02 0.  1.
    10030    2    1    2    0    0  0.00000000000E+00  0.00000000000E+00  0.16670194354E+04  0.22334423627E+04  0.14863751174E+04 0.  0.
        2    1    3    3  502    0  0.38105310226E+03  0.97828691051E+02  0.17809359059E+04  0.18238707795E+04  0.25500000920E-02 0. -1.
       -2    1    3    3    0  502 -0.38105310226E+03 -0.97828691051E+02 -0.11391647048E+03  0.40957158323E+03  0.25500000920E-02 0.  1.
</event>
<event>
 5   0  0.5924403E-04  0.1507467E+04  0.7818609E-02  0.8879502E-01
       -1   -1    0    0    0  501  0.00000000000E+00  0.00000000000E+00  0.95478236371E+03  0.95478236372E+03  0.50400001928E-02 0.  1.
        1   -1    0    0  501    0  0.00000000000E+00  0.00000000000E+00 -0.59501972072E+03  0.59501972074E+03  0.50400001928E-02 0. -1.
    10030    2    1    2    0    0  0.00000000000E+00  0.00000000000E+00  0.35976264299E+03  0.15498020845E+04  0.15074671942E+04 0.  0.
        1    1    3    3  502    0  0.66018449376E+03 -0.51117707040E+02  0.55007381718E+03  0.86083551864E+03  0.50400001928E-02 0.  1.
       -1    1    3    3    0  502 -0.66018449376E+03  0.51117707040E+02 -0.19031117419E+03  0.68896656582E+03  0.50400001928E-02 0. -1.
</event>
<event>
 5   0  0.1126175E-03  0.1496739E+04  0.7818609E-02  0.8886624E-01
        2   -1    0    0  501    0  0.00000000000E+00  0.00000000000E+00  0.69356959495E+03  0.69356959496E+03  0.25500000920E-02 0.  1.
       -2   -1    0    0    0  501  0.00000000000E+00  0.00000000000E+00 -0.80749939239E+03  0.80749939240E+03  0.25500000920E-02 0. -1.
    10030    2    1    2    0    0  0.00000000000E+00  0.00000000000E+00 -0.11392979744E+03  0.15010689874E+04  0.14967391577E+04 0.  0.
        3    1    3    3  502    0  0.38051344795E+03  0.56592047621E+02 -0.70074389186E+03  0.79939674511E+03  0.10100000352E+00 0. -1.
       -3    1    3    3    0  502 -0.38051344795E+03 -0.56592047621E+02  0.58681409442E+03  0.70167224224E+03  0.10100000352E+00 0.  1.
</event>
<event>
 5   0  0.4070625E-04  0.1574476E+04  0.7818609E-02  0.8836383E-01
        4   -1    0    0  501    0  0.00000000000E+00  0.00000000000E+00  0.73863184762E+03  0.73863293943E+03  0.12699999809E+01 0. -1.
       -4   -1    0    0    0  501  0.00000000000E+00  0.00000000000E+00 -0.83904093759E+03  0.83904189875E+03  0.12699999809E+01 0.  1.
    10030    2    1    2    0    0  0.00000000000E+00  0.00000000000E+00 -0.10040908997E+03  0.15776748382E+04  0.15744763922E+04 0.  0.
        4    1    3    3  502    0  0.21786250608E+03 -0.46422512770E+02  0.70639437933E+03  0.74068465172E+03  0.12699999809E+01 0. -1.
       -4    1    3    3    0  502 -0.21786250608E+03  0.46422512770E+02 -0.80680346930E+03  0.83699018646E+03  0.12699999809E+01 0.  1.
</event>
<event>
 5   0  0.5924403E-04  0.1488745E+04  0.7818609E-02  0.8891972E-01
       -1   -1    0    0    0  501  0.00000000000E+00  0.00000000000E+00  0.52938141804E+03  0.52938141807E+03  0.50400001928E-02 0. -1.
        1   -1    0    0  501    0  0.00000000000E+00  0.00000000000E+00 -0.10466746291E+04  0.10466746291E+04  0.50400001928E-02 0.  1.
    10030    2    1    2    0    0  0.00000000000E+00  0.00000000000E+00 -0.51729321105E+03  0.15760560472E+04  0.14887445710E+04 0.  0.
        1    1    3    3  502    0  0.50161334157E+03 -0.54548840521E+03 -0.33287702348E+03  0.81239193586E+03  0.50400001928E-02 0. -1.
       -1    1    3    3    0  502 -0.50161334157E+03  0.54548840521E+03 -0.18441618758E+03  0.76366411132E+03  0.50400001928E-02 0.  1.
</event>
<event>
 5   0  0.5606965E-04  0.1510329E+04  0.7818609E-02  0.8877613E-01
        1   -1    0    0  501    0  0.00000000000E+00  0.00000000000E+00  0.73702141950E+03  0.73702141952E+03  0.50400001928E-02 0.  1.
       -1   -1    0    0    0  501  0.00000000000E+00  0.00000000000E+00 -0.77375396411E+03  0.77375396413E+03  0.50400001928E-02 0. -1.
    10030    2    1    2    0    0  0.00000000000E+00  0.00000000000E+00 -0.36732544615E+02  0.15107753836E+04  0.15103287655E+04 0.  0.
        4    1    3    3  502    0 -0.51098325189E+03  0.49458937064E+03  0.23577401179E+03  0.74920860033E+03  0.12699999809E+01 0. -1.
       -4    1    3    3    0  502  0.51098325189E+03 -0.49458937064E+03 -0.27250655641E+03  0.76156678332E+03  0.12699999809E+01 0.  1.
</event>
<event>
 5   0  0.4070625E-04  0.1511802E+04  0.7818609E-02  0.8876643E-01
       -3   -1    0    0    0  501  0.00000000000E+00  0.00000000000E+00  0.79541144965E+03  0.79541145606E+03  0.10100000352E+00 0.  1.
        3   -1    0    0  501    0  0.00000000000E+00  0.00000000000E+00 -0.71835272583E+03  0.71835273293E+03  0.10100000352E+00 0. -1.
    10030    2    1    2    0    0  0.00000000000E+00  0.00000000000E+00  0.77058723821E+02  0.15137641890E+04  0.15118015653E+04 0.  0.
        4    1    3    3  502    0 -0.42210807538E+03  0.62420758500E+03  0.98390280375E+02  0.75992933661E+03  0.12699999809E+01 0. -1.
       -4    1    3    3    0  502  0.42210807538E+03 -0.62420758500E+03 -0.21331556555E+02  0.75383485239E+03  0.12699999809E+01 0.  1.
</event>
<event>
 5   0  0.6146552E-04  0.1495525E+04  0.7818609E-02  0.8887434E-01
        1   -1    0    0  501    0  0.00000000000E+00  0.00000000000E+00  0.16621616626E+04  0.16621616626E+04  0.50400001928E-02 0.  1.
       -1   -1    0    0    0  501  0.00000000000E+00  0.00000000000E+00 -0.33639860614E+03  0.33639860618E+03  0.50400001928E-02 0. -1.
    10030    2    1    2    0    0  0.00000000000E+00  0.00000000000E+00  0.13257630565E+04  0.19985602688E+04  0.14955251473E+04 0.  0.
        5    1    3    3  502    0 -0.64468203798E+03 -0.27978075352E+03  0.32156096575E+03  0.77286204773E+03  0.46999998093E+01 0.  1.
       -5    1    3    3    0  502  0.64468203798E+03  0.27978075352E+03  0.10042020907E+04  0.12256982211E+04  0.46999998093E+01 0. -1.
</event>
<event>
 5   0  0.4070625E-04  0.1494884E+04  0.7818609E-02  0.8887862E-01
       -4   -1    0    0    0  501  0.00000000000E+00  0.00000000000E+00  0.14174327368E+04  0.14174333057E+04  0.12699999809E+01 0.  1.
        4   -1    0    0  501    0  0.00000000000E+00  0.00000000000E+00 -0.39414022501E+03  0.39414227110E+03  0.12699999809E+01 0. -1.
    10030    2    1    2    0    0  0.00000000000E+00  0.00000000000E+00  0.10232925118E+04  0.18115755768E+04  0.14948841112E+04 0.  0.
        4    1    3    3  502    0 -0.16511092331E+03  0.60877204959E+03  0.25691330086E+02  0.63128969792E+03  0.12699999809E+01 0. -1.
       -4    1    3    3    0  502  0.16511092331E+03 -0.60877204959E+03  0.99760118168E+03  0.11802858789E+04  0.12699999809E+01 0.  1.
</event>
<event>
 5   0  0.1082667E-03  0.1480110E+04  0.7818609E-02  0.8897788E-01
       -2   -1    0    0    0  501  0.00000000000E+00  0.00000000000E+00  0.14461641313E+04  0.14461641313E+04  0.25500000920E-02 0. -1.
        2   -1    0    0  501    0  0.00000000000E+00  0.00000000000E+00 -0.37871307802E+03  0.37871307803E+03  0.25500000920E-02 0.  1.
    10030    2    1    2    0    0  0.00000000000E+00  0.00000000000E+00  0.10674510533E+04  0.18248772094E+04  0.14801098196E+04 0.  0.
        5    1    3    3  502    0 -0.30418552494E+03 -0.54695865051E+03  0.46807915320E+02  0.62761904837E+03  0.46999998093E+01 0. -1.
       -5    1    3    3    0  502  0.30418552494E+03  0.54695865051E+03  0.10206431380E+04  0.11972581610E+04  0.46999998093E+01 0.  1.
</event>
<event>
 5   0  0.1082667E-03  0.1499310E+04  0.7818609E-02  0.8884912E-01
       -2   -1    0    0    0  501  0.00000000000E+00  0.00000000000E+00  0.35959538227E+03  0.35959538228E+03  0.25500000920E-02 0.  1.
        2   -1    0    0  501    0  0.00000000000E+00  0.00000000000E+00 -0.15628195102E+04  0.15628195102E+04  0.25500000920E-02 0. -1.
    10030    2    1    2    0    0  0.00000000000E+00  0.00000000000E+00 -0.12032241279E+04  0.19224148924E+04  0.14993100802E+04 0.  0.
        5    1    3    3  502    0 -0.13334940597E+03 -0.67428036992E+03 -0.98525449329E+03  0.12013261788E+04  0.46999998093E+01 0. -1.
       -5    1    3    3    0  502  0.13334940597E+03  0.67428036992E+03 -0.21796963460E+03  0.72108871363E+03  0.46999998093E+01 0.  1.
</event>
<event>
 5   0  0.1082667E-03  0.1488537E+04  0.7818609E-02  0.8892111E-01
       -2   -1    0    0    0  501  0.00000000000E+00  0.00000000000E+00  0.54620634993E+03  0.54620634993E+03  0.25500000920E-02 0. -1.
        2   -1    0    0  501    0  0.00000000000E+00  0.00000000000E+00 -0.10141512208E+04  0.10141512208E+04  0.25500000920E-02 0.  1.
    10030    2    1    2    0    0  0.00000000000E+00  0.00000000000E+00 -0.46794487090E+03  0.15603575708E+04  0.14885373178E+04 0.  0.
        5    1    3    3  502    0  0.26306776205E+03 -0.68183888240E+03 -0.38149214500E+03  0.82441934455E+03  0.46999998093E+01 0.  1.
       -5    1    3    3    0  502 -0.26306776205E+03  0.68183888240E+03 -0.86452725901E+02  0.73593822621E+03  0.46999998093E+01 0. -1.
</event>
<event>
 5   0  0.5914645E-04  0.1469315E+04  0.7818609E-02  0.8905119E-01
       -1   -1    0    0    0  501  0.00000000000E+00  0.00000000000E+00  0.11434672002E+04  0.11434672002E+04  0.50400001928E-02 0.  1.
        1   -1    0    0  501    0  0.00000000000E+00  0.00000000000E+00 -0.47200435398E+03  0.47200435401E+03  0.50400001928E-02 0. -1.
    10030    2    1    2    0    0  0.00000000000E+00  0.00000000000E+00  0.67146284624E+03  0.16154715542E+04  0.14693148024E+04 0.  0.
        2    1    3    3  502    0  0.18823539161E+03 -0.26374622607E+03  0.10606557932E+04  0.11090470442E+04  0.25500000920E-02 0.  1.
       -2    1    3    3    0  502 -0.18823539161E+03  0.26374622607E+03 -0.38919294700E+03  0.50642451009E+03  0.25500000920E-02 0. -1.
</event>
<event>
 5   0  0.1126175E-03  0.1508994E+04  0.7818609E-02  0.8878494E-01
       -2   -1    0    0    0  501  0.00000000000E+00  0.00000000000E+00  0.55317170133E+03  0.55317170134E+03  0.25500000920E-02 0.  1.
        2   -1    0    0  501    0  0.00000000000E+00  0.00000000000E+00 -0.10290947319E+04  0.10290947319E+04  0.25500000920E-02 0. -1.
    10030    2    1    2    0    0  0.00000000000E+00  0.00000000000E+00 -0.47592303057E+03  0.15822664332E+04  0.15089944780E+04 0.  0.
        3    1    3    3  502    0 -0.51792725693E+03 -0.52410952906E+03 -0.40809492742E+03  0.84230690482E+03  0.10100000352E+00 0. -1.
       -3    1    3    3    0  502  0.51792725693E+03  0.52410952906E+03 -0.67828103157E+02  0.73995952842E+03  0.10100000352E+00 0.  1.
</event>
<event>
 5   0  0.1147755E-03  0.1502044E+04  0.7818609E-02  0.8883095E-01
       -2   -1    0    0    0  501  0.00000000000E+00  0.00000000000E+00  0.10174147410E+04  0.10174147410E+04  0.25500000920E-02 0. -1.
        2   -1    0    0  501    0  0.00000000000E+00  0.00000000000E+00 -0.55437941728E+03  0.55437941729E+03  0.25500000920E-02 0.  1.
    10030    2    1    2    0    0  0.00000000000E+00  0.00000000000E+00  0.46303532376E+03  0.15717941583E+04  0.15020436629E+04 0.  0.
        4    1    3    3  502    0 -0.27789217743E+03  0.25976250106E+03 -0.44611118764E+03  0.58627418830E+03  0.12699999809E+01 0.  1.
       -4    1    3    3    0  502  0.27789217743E+03 -0.25976250106E+03  0.90914651140E+03  0.98551997003E+03  0.12699999809E+01 0. -1.
</event>
<event>
 5   0  0.1126175E-03  0.1490629E+04  0.7818609E-02  0.8890709E-01
       -2   -1    0    0    0  501  0.00000000000E+00  0.00000000000E+00  0.12785480683E+04  0.12785480683E+04  0.25500000920E-02 0. -1.
        2   -1    0    0  501    0  0.00000000000E+00  0.00000000000E+00 -0.43447209079E+03  0.43447209079E+03  0.25500000920E-02 0.  1.
    10030    2    1    2    0    0  0.00000000000E+00  0.00000000000E+00  0.84407597746E+03  0.17130201590E+04  0.14906286625E+04 0.  0.
        3    1    3    3  502    0 -0.13065556478E+03  0.32379656351E+03  0.11787433321E+04  0.12293701413E+04  0.10100000352E+00 0. -1.
       -3    1    3    3    0  502  0.13065556478E+03 -0.32379656351E+03 -0.33466735467E+03  0.48365001771E+03  0.10100000352E+00 0.  1.
</event>
<event>
 5   0  0.5914645E-04  0.1503856E+04  0.7818609E-02  0.8881893E-01
        1   -1    0    0  501    0  0.00000000000E+00  0.00000000000E+00  0.96523403867E+03  0.96523403868E+03  0.50400001928E-02 0.  1.
       -1   -1    0    0    0  501  0.00000000000E+00  0.00000000000E+00 -0.58576009550E+03  0.58576009552E+03  0.50400001928E-02 0. -1.
    10030    2    1    2    0    0  0.00000000000E+00  0.00000000000E+00  0.37947394317E+03  0.15509941342E+04  0.15038558211E+04 0.  0.
        2    1    3    3  502    0 -0.15772515668E+03  0.46881292840E+03  0.77382141469E+03  0.91840207356E+03  0.25500000920E-02 0.  1.
       -2    1    3    3    0  502  0.15772515668E+03 -0.46881292840E+03 -0.39434747152E+03  0.63259206064E+03  0.25500000920E-02 0. -1.
</event>
<event>
 5   0  0.1097156E-03  0.1484199E+04  0.7818609E-02  0.8895029E-01
        2   -1    0    0  501    0  0.00000000000E+00  0.00000000000E+00  0.12056531414E+04  0.12056531414E+04  0.25500000920E-02 0.  1.
       -2   -1    0    0    0  501  0.00000000000E+00  0.00000000000E+00 -0.45677477243E+03  0.45677477244E+03  0.25500000920E-02 0. -1.
    10030    2    1    2    0    0  0.00000000000E+00  0.00000000000E+00  0.74887836901E+03  0.16624279139E+04  0.14841993657E+04 0.  0.
        2    1    3    3  502    0 -0.47237743936E+02  0.11365043611E+03  0.11941417891E+04  0.12004675916E+04  0.25500000920E-02 0.  1.
       -2    1    3    3    0  502  0.47237743936E+02 -0.11365043611E+03 -0.44526342007E+03  0.46196032226E+03  0.25500000920E-02 0. -1.
</event>
<event>
 5   0  0.5606965E-04  0.1475572E+04  0.7818609E-02  0.8900862E-01
        1   -1    0    0  501    0  0.00000000000E+00  0.00000000000E+00  0.90927517581E+03  0.90927517583E+03  0.50400001928E-02 0. -1.
       -1   -1    0    0    0  501  0.00000000000E+00  0.00000000000E+00 -0.59863980321E+03  0.59863980323E+03  0.50400001928E-02 0.  1.
    10030    2    1    2    0    0  0.00000000000E+00  0.00000000000E+00  0.31063537260E+03  0.15079149791E+04  0.14755721769E+04 0.  0.
        4    1    3    3  502    0 -0.59246905472E+03  0.16016764712E+03 -0.26311214240E+03  0.66775958875E+03  0.12699999809E+01 0.  1.
       -4    1    3    3    0  502  0.59246905472E+03 -0.16016764712E+03  0.57374751500E+03  0.84015539031E+03  0.12699999809E+01 0. -1.
</event>
<event>
 5   0  0.5606965E-04  0.1481997E+04  0.7818609E-02  0.8896514E-01
        1   -1    0    0  501    0  0.00000000000E+00  0.00000000000E+00  0.74757094662E+03  0.74757094663E+03  0.50400001928E-02 0. -1.
       -1   -1    0    0    0  501  0.00000000000E+00  0.00000000000E+00 -0.73448354962E+03  0.73448354964E+03  0.50400001928E-02 0.  1.
    10030    2    1    2    0    0  0.00000000000E+00  0.00000000000E+00  0.13087396991E+02  0.14820544963E+04  0.14819967105E+04 0.  0.
        4    1    3    3  502    0 -0.36545626341E+03 -0.55478052386E+03 -0.32170261356E+03  0.73812864366E+03  0.12699999809E+01 0.  1.
       -4    1    3    3    0  502  0.36545626341E+03  0.55478052386E+03  0.33479001055E+03  0.74392585261E+03  0.12699999809E+01 0. -1.
</event>
<event>
 5   0  0.1147755E-03  0.1500857E+04  0.7818609E-02  0.8883883E-01
        2   -1    0    0  501    0  0.00000000000E+00  0.00000000000E+00  0.18068536827E+04  0.18068536827E+04  0.25500000920E-02 0.  1.
       -2   -1    0    0    0  501  0.00000000000E+00  0.00000000000E+00 -0.31167052107E+03  0.31167052108E+03  0.25500000920E-02 0. -1.
    10030    2    1    2    0    0  0.00000000000E+00  0.00000000000E+00  0.14951831617E+04  0.21185242038E+04  0.15008571269E+04 0.  0.
        4    1    3    3  502    0  0.42855083206E+03 -0.23110680408E+03 -0.58441735489E+02  0.49039088480E+03  0.12699999809E+01 0. -1.
       -4    1    3    3    0  502 -0.42855083206E+03  0.23110680408E+03  0.15536248971E+04  0.16281333190E+04  0.12699999809E+01 0.  1.
</event>
<event>
 5   0  0.5840834E-04  0.1493852E+04  0.7818609E-02  0.8888552E-01
        1   -1    0    0  501    0  0.00000000000E+00  0.00000000000E+00  0.15155573844E+04  0.15155573845E+04  0.50400001928E-02 0.  1.
       -1   -1    0    0    0  501  0.00000000000E+00  0.00000000000E+00 -0.36811417698E+03  0.36811417701E+03  0.50400001928E-02 0. -1.
    10030    2    1    2    0    0  0.00000000000E+00  0.00000000000E+00  0.11474432075E+04  0.18836715615E+04  0.14938516115E+04 0.  0.
        3    1    3    3  502    0  0.34347541403E+03  0.52903332060E+03  0.69268429801E+02  0.63454687764E+03  0.10100000352E+00 0. -1.
       -3    1    3    3    0  502 -0.34347541403E+03 -0.52903332060E+03  0.10781747777E+04  0.12491246838E+04  0.10100000352E+00 0.  1.
</event>
<event>
 5   0  0.5914645E-04  0.1393724E+04  0.7818609E-02  0.8958374E-01
       -1   -1    0    0    0  501  0.00000000000E+00  0.00000000000E+00  0.44813325076E+03  0.44813325079E+03  0.50400001928E-02 0. -1.
        1   -1    0    0  501    0  0.00000000000E+00  0.00000000000E+00 -0.10836438612E+04  0.10836438613E+04  0.50400001928E-02 0.  1.
    10030    2    1    2    0    0  0.00000000000E+00  0.00000000000E+00 -0.63551061049E+03  0.15317771120E+04  0.13937242858E+04 0.  0.
        2    1    3    3  502    0  0.17431906861E+03  0.65161655282E+03 -0.51009142291E+03  0.84568583371E+03  0.25500000920E-02 0.  1.
       -2    1    3    3    0  502 -0.17431906861E+03 -0.65161655282E+03 -0.12541918758E+03  0.68609127834E+03  0.25500000920E-02 0. -1.
</event>
<event>
 5   0  0.1126175E-03  0.1513119E+04  0.7818609E-02  0.8875776E-01
        2   -1    0    0  501    0  0.00000000000E+00  0.00000000000E+00  0.10610225438E+04  0.10610225438E+04  0.25500000920E-02 0. -1.
       -2   -1    0    0    0  501  0.00000000000E+00  0.00000000000E+00 -0.53946283792E+03  0.53946283793E+03  0.25500000920E-02 0.  1.
    10030    2    1    2    0    0  0.00000000000E+00  0.00000000000E+00  0.52155970585E+03  0.16004853817E+04  0.15131189412E+04 0.  0.
        3    1    3    3  502    0  0.30126748763E+03 -0.63757023535E+03  0.55069367130E+03  0.89471863394E+03  0.10100000352E+00 0. -1.
       -3    1    3    3    0  502 -0.30126748763E+03  0.63757023535E+03 -0.29133965451E+02  0.70576674776E+03  0.10100000352E+00 0.  1.
</event>
<event>
 5   0  0.1126175E-03  0.1503619E+04  0.7818609E-02  0.8882050E-01
       -2   -1    0    0    0  501  0.00000000000E+00  0.00000000000E+00  0.32583468964E+03  0.32583468965E+03  0.25500000920E-02 0.  1.
        2   -1    0    0  501    0  0.00000000000E+00  0.00000000000E+00 -0.17346763536E+04  0.17346763536E+04  0.25500000920E-02 0. -1.
    10030    2    1    2    0    0  0.00000000000E+00  0.00000000000E+00 -0.14088416640E+04  0.20605110432E+04  0.15036192754E+04 0.  0.
        3    1    3    3  502    0 -0.29375654959E+03  0.61447493450E+03 -0.11406744169E+04  0.13285369739E+04  0.10100000352E+00 0. -1.
       -3    1    3    3    0  502  0.29375654959E+03 -0.61447493450E+03 -0.26816724707E+03  0.73197406932E+03  0.10100000352E+00 0.  1.
</event>
<event>
 5   0  0.1147755E-03  0.1496452E+04  0.7818609E-02  0.8886815E-01
        2   -1    0    0  501    0  0.00000000000E+00  0.00000000000E+00  0.65697522381E+03  0.65697522381E+03  0.25500000920E-02 0.  1.
       -2   -1    0    0    0  501  0.00000000000E+00  0.00000000000E+00 -0.85215153186E+03  0.85215153186E+03  0.25500000920E-02 0. -1.
    10030    2    1    2    0    0  0.00000000000E+00  0.00000000000E+00 -0.19517630805E+03  0.15091267557E+04  0.14964523960E+04 0.  0.
        4    1    3    3  502    0  0.20296967198E+03 -0.22220199750E+03 -0.78842326260E+03  0.84390951490E+03  0.12699999809E+01 0. -1.
       -4    1    3    3    0  502 -0.20296967198E+03  0.22220199750E+03  0.59324695455E+03  0.66521724077E+03  0.12699999809E+01 0.  1.
</event>
<event>
 5   0  0.5924403E-04  0.1400183E+04  0.7818609E-02  0.8953686E-01
        1   -1    0    0  501    0  0.00000000000E+00  0.00000000000E+00  0.83616744887E+03  0.83616744889E+03  0.50400001928E-02 0.  1.
       -1   -1    0    0    0  501  0.00000000000E+00  0.00000000000E+00 -0.58616034177E+03  0.58616034179E+03  0.50400001928E-02 0. -1.
    10030    2    1    2    0    0  0.00000000000E+00  0.00000000000E+00  0.25000710710E+03  0.14223277907E+04  0.14001831275E+04 0.  0.
        1    1    3    3  502    0  0.67789678462E+03 -0.17365024136E+03  0.10394550636E+03  0.70746245500E+03  0.50400001928E-02 0.  1.
       -1    1    3    3    0  502 -0.67789678462E+03  0.17365024136E+03  0.14606160074E+03  0.71486533568E+03  0.50400001928E-02 0. -1.
</event>
<event>
 5   0  0.1147755E-03  0.1517295E+04  0.7818609E-02  0.8873033E-01
       -2   -1    0    0    0  501  0.00000000000E+00  0.00000000000E+00  0.62991235177E+03  0.62991235178E+03  0.25500000920E-02 0. -1.
        2   -1    0    0  501    0  0.00000000000E+00  0.00000000000E+00 -0.91369228586E+03  0.91369228586E+03  0.25500000920E-02 0.  1.
    10030    2    1    2    0    0  0.00000000000E+00  0.00000000000E+00 -0.28377993408E+03  0.15436046376E+04  0.15172950360E+04 0.  0.
        4    1    3    3  502    0 -0.40702356348E+02  0.44568503893E+03 -0.76509061659E+03  0.88637300288E+03  0.12699999809E+01 0.  1.
       -4    1    3    3    0  502  0.40702356348E+02 -0.44568503893E+03  0.48131068250E+03  0.65723163476E+03  0.12699999809E+01 0. -1.
</event>
<event>
 5   0  0.5840834E-04  0.1503458E+04  0.7818609E-02  0.8882157E-01
       -1   -1    0    0    0  501  0.00000000000E+00  0.00000000000E+00  0.39928384894E+03  0.39928384898E+03  0.50400001928E-02 0. -1.
        1   -1    0    0  501    0  0.00000000000E+00  0.00000000000E+00 -0.14152755158E+04  0.14152755158E+04  0.50400001928E-02 0.  1.
    10030    2    1    2    0    0  0.00000000000E+00  0.00000000000E+00 -0.10159916669E+04  0.18145593648E+04  0.15034582207E+04 0.  0.
        3    1    3    3  502    0  0.60841106766E+03  0.40546148077E+03 -0.29709958131E+03  0.78919656047E+03  0.10100000352E+00 0. -1.
       -3    1    3    3    0  502 -0.60841106766E+03 -0.40546148077E+03 -0.71889208556E+03  0.10253628043E+04  0.10100000352E+00 0.  1.
</event>
<event>
 5   0  0.1126175E-03  0.1338929E+04  0.7818609E-02  0.8999251E-01
       -2   -1    0    0    0  501  0.00000000000E+00  0.00000000000E+00  0.35918421624E+03  0.35918421625E+03  0.25500000920E-02 0. -1.
        2   -1    0    0  501    0  0.00000000000E+00  0.00000000000E+00 -0.12477792577E+04  0.12477792577E+04  0.25500000920E-02 0.  1.
    10030    2    1    2    0    0  0.00000000000E+00  0.00000000000E+00 -0.88859504142E+03  0.16069634739E+04  0.13389288476E+04 0.  0.
        3    1    3    3  502    0 -0.32090005285E+03  0.48541754632E+03 -0.84158544865E+03  0.10231681757E+04  0.10100000352E+00 0.  1.
       -3    1    3    3    0  502  0.32090005285E+03 -0.48541754632E+03 -0.47009592769E+02  0.58379529820E+03  0.10100000352E+00 0. -1.
</event>
<event>
 5   0  0.1082667E-03  0.1486063E+04  0.7818609E-02  0.8893774E-01
       -2   -1    0    0    0  501  0.00000000000E+00  0.00000000000E+00  0.27636319041E+03  0.27636319043E+03  0.25500000920E-02 0.  1.
        2   -1    0    0  501    0  0.00000000000E+00  0.00000000000E+00 -0.19977180163E+04  0.19977180163E+04  0.25500000920E-02 0. -1.
    10030    2    1    2    0    0  0.00000000000E+00  0.00000000000E+00 -0.17213548258E+04  0.22740812067E+04  0.14860628850E+04 0.  0.
        5    1    3    3  502    0  0.17621475478E+03  0.68419729992E+03 -0.50872787387E+03  0.87063409345E+03  0.46999998093E+01 0.  1.
       -5    1    3    3    0  502 -0.17621475478E+03 -0.68419729992E+03 -0.12126269520E+04  0.14034471132E+04  0.46999998093E+01 0. -1.
</event>
<event>
 5   0  0.5924403E-04  0.1213590E+04  0.7818609E-02  0.9101044E-01
        1   -1    0    0  501    0  0.00000000000E+00  0.00000000000E+00  0.20799585833E+03  0.20799585839E+03  0.50400001928E-02 0.  1.
       -1   -1    0    0    0  501  0.00000000000E+00  0.00000000000E+00 -0.17702282809E+04  0.17702282809E+04  0.50400001928E-02 0. -1.
    10030    2    1    2    0    0  0.00000000000E+00  0.00000000000E+00 -0.15622324225E+04  0.19782241393E+04  0.12135899650E+04 0.  0.
        1    1    3    3  502    0  0.10643637445E+03  0.38823277901E+03 -0.15212185477E+04  0.15735816669E+04  0.50400001928E-02 0. -1.
       -1    1    3    3    0  502 -0.10643637445E+03 -0.38823277901E+03 -0.41013874851E+02  0.40464247238E+03  0.50400001928E-02 0.  1.
</event>
<event>
 5   0  0.5924403E-04  0.1466396E+04  0.7818609E-02  0.8907112E-01
        1   -1    0    0  501    0  0.00000000000E+00  0.00000000000E+00  0.12324378528E+04  0.12324378528E+04  0.50400001928E-02 0. -1.
       -1   -1    0    0    0  501  0.00000000000E+00  0.00000000000E+00 -0.43619200377E+03  0.43619200380E+03  0.50400001928E-02 0.  1.
    10030    2    1    2    0    0  0.00000000000E+00  0.00000000000E+00  0.79624584898E+03  0.16686298566E+04  0.14663963128E+04 0.  0.
        1    1    3    3  502    0 -0.27571788166E+03  0.42334294437E+03  0.10027600466E+04  0.11228389510E+04  0.50400001928E-02 0. -1.
       -1    1    3    3    0  502  0.27571788166E+03 -0.42334294437E+03 -0.20651419757E+03  0.54579090560E+03  0.50400001928E-02 0.  1.
</event>
<event>
 5   0  0.1149716E-03  0.1489969E+04  0.7818609E-02  0.8891151E-01
       -2   -1    0    0    0  501  0.00000000000E+00  0.00000000000E+00  0.34637733023E+03  0.34637733024E+03  0.25500000920E-02 0.  1.
        2   -1    0    0  501    0  0.00000000000E+00  0.00000000000E+00 -0.16023041244E+04  0.16023041244E+04  0.25500000920E-02 0. -1.
    10030    2    1    2    0    0  0.00000000000E+00  0.00000000000E+00 -0.12559267942E+04  0.19486814547E+04  0.14899688921E+04 0.  0.
        1    1    3    3  502    0  0.53538919477E+03 -0.36282398577E+03 -0.11115542438E+04  0.12860154242E+04  0.50400001928E-02 0. -1.
       -1    1    3    3    0  502 -0.53538919477E+03  0.36282398577E+03 -0.14437255043E+03  0.66266603042E+03  0.50400001928E-02 0.  1.
</event>
<event>
 5   0  0.5606965E-04  0.1519576E+04  0.7818609E-02  0.8871538E-01
       -1   -1    0    0    0  501  0.00000000000E+00  0.00000000000E+00  0.43024329908E+03  0.43024329911E+03  0.50400001928E-02 0.  1.
        1   -1    0    0  501    0  0.00000000000E+00  0.00000000000E+00 -0.13417478358E+04  0.13417478358E+04  0.50400001928E-02 0. -1.
    10030    2    1    2    0    0  0.00000000000E+00  0.00000000000E+00 -0.91150453674E+03  0.17719911349E+04  0.15195762771E+04 0.  0.
        4    1    3    3  502    0  0.17249147651E+03  0.48439205042E+03 -0.11080308244E+04  0.12215248212E+04  0.12699999809E+01 0. -1.
       -4    1    3    3    0  502 -0.17249147651E+03 -0.48439205042E+03  0.19652628765E+03  0.55046631379E+03  0.12699999809E+01 0.  1.
</event>
<event>
 5   0  0.1082667E-03  0.1481772E+04  0.7818609E-02  0.8896666E-01
       -2   -1    0    0    0  501  0.00000000000E+00  0.00000000000E+00  0.12765989892E+04  0.12765989892E+04  0.25500000920E-02 0. -1.
        2   -1    0    0  501    0  0.00000000000E+00  0.00000000000E+00 -0.42997976129E+03  0.42997976130E+03  0.25500000920E-02 0.  1.
    10030    2    1    2    0    0  0.00000000000E+00  0.00000000000E+00  0.84661922790E+03  0.17065787505E+04  0.14817715460E+04 0.  0.
        5    1    3    3  502    0  0.70885548480E+03  0.19235623045E+03  0.31157174939E+03  0.79785716938E+03  0.46999998093E+01 0. -1.
       -5    1    3    3    0  502 -0.70885548480E+03 -0.19235623045E+03  0.53504747851E+03  0.90872158111E+03  0.46999998093E+01 0.  1.
</event>
<event>
 5   0  0.5914645E-04  0.1490509E+04  0.7818609E-02  0.8890789E-01
        1   -1    0    0  501    0  0.00000000000E+00  0.00000000000E+00  0.77771873810E+03  0.77771873812E+03  0.50400001928E-02 0. -1.
       -1   -1    0    0    0  501  0.00000000000E+00  0.00000000000E+00 -0.71414553548E+03  0.71414553549E+03  0.50400001928E-02 0.  1.
    10030    2    1    2    0    0  0.00000000000E+00  0.00000000000E+00  0.63573202629E+02  0.14918642736E+04  0.14905091274E+04 0.  0.
        2    1    3    3  502    0 -0.24336096084E+01 -0.12867261712E+03  0.76651243954E+03  0.77724120119E+03  0.25500000920E-02 0. -1.
       -2    1    3    3    0  502  0.24336096084E+01  0.12867261712E+03 -0.70293923691E+03  0.71462307243E+03  0.25500000920E-02 0.  1.
</event>
<event>
 5   0  0.6146552E-04  0.1485793E+04  0.7818609E-02  0.8893956E-01
       -1   -1    0    0    0  501  0.00000000000E+00  0.00000000000E+00  0.48782992804E+03  0.48782992807E+03  0.50400001928E-02 0.  1.
        1   -1    0    0  501    0  0.00000000000E+00  0.00000000000E+00 -0.11313270865E+04  0.11313270866E+04  0.50400001928E-02 0. -1.
    10030    2    1    2    0    0  0.00000000000E+00  0.00000000000E+00 -0.64349715850E+03  0.16191570146E+04  0.14857930021E+04 0.  0.
        5    1    3    3  502    0 -0.10597339511E+03 -0.13638563149E+03 -0.11091265559E+04  0.11225039902E+04  0.46999998093E+01 0. -1.
       -5    1    3    3    0  502  0.10597339511E+03  0.13638563149E+03  0.46562939742E+03  0.49665302444E+03  0.46999998093E+01 0.  1.
</event>
<event>
 5   0  0.5924403E-04  0.1411354E+04  0.7818609E-02  0.8945641E-01
       -1   -1    0    0    0  501  0.00000000000E+00  0.00000000000E+00  0.26888632967E+03  0.26888632971E+03  0.50400001928E-02 0.  1.
        1   -1    0    0  501    0  0.00000000000E+00  0.00000000000E+00 -0.18520097768E+04  0.18520097768E+04  0.50400001928E-02 0. -1.
    10030    2    1    2    0    0  0.00000000000E+00  0.00000000000E+00 -0.15831234471E+04  0.21208961065E+04  0.14113541178E+04 0.  0.
        1    1    3    3  502    0  0.30931410982E+03  0.77555276510E+02 -0.17375592402E+04  0.17665792234E+04  0.50400001928E-02 0. -1.
       -1    1    3    3    0  502 -0.30931410982E+03 -0.77555276510E+02  0.15443579305E+03  0.35431688310E+03  0.50400001928E-02 0.  1.
</event>
<event>
 5   0  0.1082667E-03  0.1452012E+04  0.7818609E-02  0.8917007E-01
       -2   -1    0    0    0  501  0.00000000000E+00  0.00000000000E+00  0.46757251186E+03  0.46757251186E+03  0.25500000920E-02 0. -1.
        2   -1    0    0  501    0  0.00000000000E+00  0.00000000000E+00 -0.11272783772E+04  0.11272783772E+04  0.25500000920E-02 0.  1.
    10030    2    1    2    0    0  0.00000000000E+00  0.00000000000E+00 -0.65970586537E+03  0.15948508891E+04  0.14520115460E+04 0.  0.
        5    1    3    3  502    0  0.27308228013E+03 -0.34617325554E+03 -0.96335111096E+03  0.10594702957E+04  0.46999998093E+01 0.  1.
       -5    1    3    3    0  502 -0.27308228013E+03  0.34617325554E+03  0.30364524559E+03  0.53538059335E+03  0.46999998093E+01 0. -1.
</event>
<event>
 5   0  0.5914645E-04  0.1524998E+04  0.7818609E-02  0.8867998E-01
       -1   -1    0    0    0  501  0.00000000000E+00  0.00000000000E+00  0.55240361423E+03  0.55240361425E+03  0.50400001928E-02 0.  1.
        1   -1    0    0  501    0  0.00000000000E+00  0.00000000000E+00 -0.10525000781E+04  0.10525000781E+04  0.50400001928E-02 0. -1.
    10030    2    1    2    0    0  0.00000000000E+00  0.00000000000E+00 -0.50009646383E+03  0.16049036923E+04  0.15249981602E+04 0.  0.
        2    1    3    3  502    0  0.57481157717E+03  0.42109084844E+03  0.35613130952E+02  0.71343825731E+03  0.25500000920E-02 0.  1.
       -2    1    3    3    0  502 -0.57481157717E+03 -0.42109084844E+03 -0.53570959478E+03  0.89146543502E+03  0.25500000920E-02 0. -1.
</event>
<event>
 5   0  0.5840834E-04  0.1387205E+04  0.7818609E-02  0.8963133E-01
        1   -1    0    0  501    0  0.00000000000E+00  0.00000000000E+00  0.12582841362E+04  0.12582841362E+04  0.50400001928E-02 0. -1.
       -1   -1    0    0    0  501  0.00000000000E+00  0.00000000000E+00 -0.38233348964E+03  0.38233348968E+03  0.50400001928E-02 0.  1.
    10030    2    1    2    0    0  0.00000000000E+00  0.00000000000E+00  0.87595064656E+03  0.16406176259E+04  0.13872046205E+04 0.  0.
        3    1    3    3  502    0 -0.27209197054E+03  0.30365480963E+03  0.11015876857E+04  0.11746215235E+04  0.10100000352E+00 0. -1.
       -3    1    3    3    0  502  0.27209197054E+03 -0.30365480963E+03 -0.22563703916E+03  0.46599610243E+03  0.10100000352E+00 0.  1.
</event>
<event>
 5   0  0.1082667E-03  0.1506137E+04  0.7818609E-02  0.8880382E-01
        2   -1    0    0  501    0  0.00000000000E+00  0.00000000000E+00  0.17321493068E+04  0.17321493068E+04  0.25500000920E-02 0.  1.
       -2   -1    0    0    0  501  0.00000000000E+00  0.00000000000E+00 -0.32740394758E+03  0.32740394759E+03  0.25500000920E-02 0. -1.
    10030    2    1    2    0    0  0.00000000000E+00  0.00000000000E+00  0.14047453592E+04  0.20595532544E+04  0.15061374716E+04 0.  0.
        5    1    3    3  502    0  0.23588290445E+03 -0.56273860311E+03  0.13058694693E+04  0.14413995424E+04  0.46999998093E+01 0.  1.
       -5    1    3    3    0  502 -0.23588290445E+03  0.56273860311E+03  0.98875889943E+02  0.61815371200E+03  0.46999998093E+01 0. -1.
</event>
<event>
 5   0  0.4070625E-04  0.1500025E+04  0.7818609E-02  0.8884436E-01
       -4   -1    0    0    0  501  0.00000000000E+00  0.00000000000E+00  0.51526634284E+03  0.51526790795E+03  0.12699999809E+01 0. -1.
        4   -1    0    0  501    0  0.00000000000E+00  0.00000000000E+00 -0.10917011419E+04  0.10917018806E+04  0.12699999809E+01 0.  1.
    10030    2    1    2    0    0  0.00000000000E+00  0.00000000000E+00 -0.57643479908E+03  0.16069697886E+04  0.15000249411E+04 0.  0.
        4    1    3    3  502    0  0.46534781089E+03 -0.52989545562E+03 -0.14713120908E+02  0.70537640151E+03  0.12699999809E+01 0. -1.
       -4    1    3    3    0  502 -0.46534781089E+03  0.52989545562E+03 -0.56172167817E+03  0.90159338707E+03  0.12699999809E+01 0.  1.
</event>
<event>
 5   0  0.1149716E-03  0.1554795E+04  0.7818609E-02  0.8848811E-01
       -2   -1    0    0    0  501  0.00000000000E+00  0.00000000000E+00  0.31949025648E+03  0.31949025649E+03  0.25500000920E-02 0. -1.
        2   -1    0    0  501    0  0.00000000000E+00  0.00000000000E+00 -0.18915975513E+04  0.18915975513E+04  0.25500000920E-02 0.  1.
    10030    2    1    2    0    0  0.00000000000E+00  0.00000000000E+00 -0.15721072948E+04  0.22110878078E+04  0.15547951464E+04 0.  0.
        1    1    3    3  502    0  0.44482795719E+03  0.56077031146E+03 -0.35467919688E+03  0.79883201390E+03  0.50400001928E-02 0. -1.
       -1    1    3    3    0  502 -0.44482795719E+03 -0.56077031146E+03 -0.12174280979E+04  0.14122557939E+04  0.50400001928E-02 0.  1.
</event>
<event>
 5   0  0.5606965E-04  0.1556049E+04  0.7818609E-02  0.8848013E-01
        1   -1    0    0  501    0  0.00000000000E+00  0.00000000000E+00  0.19005138316E+04  0.19005138316E+04  0.50400001928E-02 0.  1.
       -1   -1    0    0    0  501  0.00000000000E+00  0.00000000000E+00 -0.31850465285E+03  0.31850465289E+03  0.50400001928E-02 0. -1.
    10030    2    1    2    0    0  0.00000000000E+00  0.00000000000E+00  0.15820091787E+04  0.22190184845E+04  0.15560494828E+04 0.  0.
        4    1    3    3  502    0  0.59426181124E+03 -0.35033277505E+03  0.27793887239E+03  0.74372829935E+03  0.12699999809E+01 0. -1.
       -4    1    3    3    0  502 -0.59426181124E+03  0.35033277505E+03  0.13040703063E+04  0.14752901851E+04  0.12699999809E+01 0.  1.
</event>
<event>
 5   0  0.6146552E-04  0.1495653E+04  0.7818609E-02  0.8887349E-01
        1   -1    0    0  501    0  0.00000000000E+00  0.00000000000E+00  0.49695147754E+03  0.49695147756E+03  0.50400001928E-02 0. -1.
       -1   -1    0    0    0  501  0.00000000000E+00  0.00000000000E+00 -0.11253496359E+04  0.11253496359E+04  0.50400001928E-02 0.  1.
    10030    2    1    2    0    0  0.00000000000E+00  0.00000000000E+00 -0.62839815834E+03  0.16223011135E+04  0.14956525858E+04 0.  0.
        5    1    3    3  502    0  0.22865149171E+03  0.70876511692E+03 -0.38770613760E+03  0.83962350775E+03  0.46999998093E+01 0. -1.
       -5    1    3    3    0  502 -0.22865149171E+03 -0.70876511692E+03 -0.24069202074E+03  0.78267760570E+03  0.46999998093E+01 0.  1.
</event>
<event>
 5   0  0.5840834E-04  0.1582711E+04  0.7818609E-02  0.8831240E-01
       -1   -1    0    0    0  501  0.00000000000E+00  0.00000000000E+00  0.58283605478E+03  0.58283605480E+03  0.50400001928E-02 0. -1.
        1   -1    0    0  501    0  0.00000000000E+00  0.00000000000E+00 -0.10744759793E+04  0.10744759793E+04  0.50400001928E-02 0.  1.
    10030    2    1    2    0    0  0.00000000000E+00  0.00000000000E+00 -0.49163992455E+03  0.16573120341E+04  0.15827107642E+04 0.  0.
        3    1    3    3  502    0 -0.73659318399E+03  0.14148345234E+03 -0.51001413529E+03  0.90702894903E+03  0.10100000352E+00 0.  1.
       -3    1    3    3    0  502  0.73659318399E+03 -0.14148345234E+03  0.18374210737E+02  0.75028308511E+03  0.10100000352E+00 0. -1.
</event>
<event>
 5   0  0.1097156E-03  0.1475738E+04  0.7818609E-02  0.8900749E-01
        2   -1    0    0  501    0  0.00000000000E+00  0.00000000000E+00  0.17138631255E+04  0.17138631255E+04  0.25500000920E-02 0. -1.
       -2   -1    0    0    0  501  0.00000000000E+00  0.00000000000E+00 -0.31767450739E+03  0.31767450740E+03  0.25500000920E-02 0.  1.
    10030    2    1    2    0    0  0.00000000000E+00  0.00000000000E+00  0.13961886181E+04  0.20315376329E+04  0.14757379498E+04 0.  0.
        2    1    3    3  502    0 -0.58571612699E+02  0.72293332627E+03  0.51142378715E+03  0.88747817895E+03  0.25500000920E-02 0. -1.
       -2    1    3    3    0  502  0.58571612699E+02 -0.72293332627E+03  0.88476483093E+03  0.11440594539E+04  0.25500000920E-02 0.  1.
</event>
<event>
 5   0  0.5840834E-04  0.1526916E+04  0.7818609E-02  0.8866749E-01
       -1   -1    0    0    0  501  0.00000000000E+00  0.00000000000E+00  0.83254521246E+03  0.83254521247E+03  0.50400001928E-02 0. -1.
        1   -1    0    0  501    0  0.00000000000E+00  0.00000000000E+00 -0.70010418479E+03  0.70010418481E+03  0.50400001928E-02 0.  1.
    10030    2    1    2    0    0  0.00000000000E+00  0.00000000000E+00  0.13244102766E+03  0.15326493973E+04  0.15269163530E+04 0.  0.
        3    1    3    3  502    0  0.10717574780E+03 -0.52772473788E+03  0.60944409170E+03  0.81326634690E+03  0.10100000352E+00 0. -1.
       -3    1    3    3    0  502 -0.10717574780E+03  0.52772473788E+03 -0.47700306403E+03  0.71938305039E+03  0.10100000352E+00 0.  1.
</event>
<event>
 5   0  0.5914645E-04  0.1460874E+04  0.7818609E-02  0.8910896E-01
       -1   -1    0    0    0  501  0.00000000000E+00  0.00000000000E+00  0.93076086179E+03  0.93076086181E+03  0.50400001928E-02 0. -1.
        1   -1    0    0  501    0  0.00000000000E+00  0.00000000000E+00 -0.57322815340E+03  0.57322815342E+03  0.50400001928E-02 0.  1.
    10030    2    1    2    0    0  0.00000000000E+00  0.00000000000E+00  0.35753270840E+03  0.15039890152E+04  0.14608741631E+04 0.  0.
        2    1    3    3  502    0 -0.62057446311E+03  0.14227696702E+03 -0.18982653618E+03  0.66437151765E+03  0.25500000920E-02 0.  1.
       -2    1    3    3    0  502  0.62057446311E+03 -0.14227696702E+03  0.54735924458E+03  0.83961749758E+03  0.25500000920E-02 0. -1.
</event>
<event>
 5   0  0.5606965E-04  0.1514873E+04  0.7818609E-02  0.8874622E-01
       -1   -1    0    0    0  501  0.00000000000E+00  0.00000000000E+00  0.44076592844E+03  0.44076592847E+03  0.50400001928E-02 0. -1.
        1   -1    0    0  501    0  0.00000000000E+00  0.00000000000E+00 -0.13016207658E+04  0.13016207658E+04  0.50400001928E-02 0.  1.
    10030    2    1    2    0    0  0.00000000000E+00  0.00000000000E+00 -0.86085483738E+03  0.17423866943E+04  0.15148730447E+04 0.  0.
        4    1    3    3  502    0 -0.28355616872E+03 -0.51382060617E+02 -0.12361035890E+04  0.12692509258E+04  0.12699999809E+01 0.  1.
       -4    1    3    3    0  502  0.28355616872E+03  0.51382060617E+02  0.37524875161E+03  0.47313576852E+03  0.12699999809E+01 0. -1.
</event>
<event>
 5   0  0.1126175E-03  0.1538726E+04  0.7818609E-02  0.8859101E-01
       -2   -1    0    0    0  501  0.00000000000E+00  0.00000000000E+00  0.24835883145E+03  0.24835883147E+03  0.25500000920E-02 0.  1.
        2   -1    0    0  501    0  0.00000000000E+00  0.00000000000E+00 -0.23833227658E+04  0.23833227658E+04  0.25500000920E-02 0. -1.
    10030    2    1    2    0    0  0.00000000000E+00  0.00000000000E+00 -0.21349639343E+04  0.26316815972E+04  0.15387257808E+04 0.  0.
        3    1    3    3  502    0  0.73769701146E+03  0.59805944943E+02 -0.70813341482E+03  0.10243176144E+04  0.10100000352E+00 0.  1.
       -3    1    3    3    0  502 -0.73769701146E+03 -0.59805944943E+02 -0.14268305195E+04  0.16073639828E+04  0.10100000352E+00 0. -1.
</event>
<event>
 5   0  0.1126175E-03  0.1492324E+04  0.7818609E-02  0.8889574E-01
       -2   -1    0    0    0  501  0.00000000000E+00  0.00000000000E+00  0.34074311712E+03  0.34074311713E+03  0.25500000920E-02 0. -1.
        2   -1    0    0  501    0  0.00000000000E+00  0.00000000000E+00 -0.16339506850E+04  0.16339506850E+04  0.25500000920E-02 0.  1.
    10030    2    1    2    0    0  0.00000000000E+00  0.00000000000E+00 -0.12932075679E+04  0.19746938021E+04  0.14923236239E+04 0.  0.
        3    1    3    3  502    0 -0.47443269694E+02 -0.42131102624E+03  0.16587025843E+03  0.45526563400E+03  0.10100000352E+00 0. -1.
       -3    1    3    3    0  502  0.47443269694E+02  0.42131102624E+03 -0.14590778263E+04  0.15194281681E+04  0.10100000352E+00 0.  1.
</event>
<event>
 5   0  0.5914645E-04  0.1495260E+04  0.7818609E-02  0.8887611E-01
        1   -1    0    0  501    0  0.00000000000E+00  0.00000000000E+00  0.11784026416E+04  0.11784026416E+04  0.50400001928E-02 0. -1.
       -1   -1    0    0    0  501  0.00000000000E+00  0.00000000000E+00 -0.47432901326E+03  0.47432901328E+03  0.50400001928E-02 0.  1.
    10030    2    1    2    0    0  0.00000000000E+00  0.00000000000E+00  0.70407362830E+03  0.16527316549E+04  0.14952599269E+04 0.  0.
        2    1    3    3  502    0  0.50209952977E+03  0.10027281404E+03  0.95419658358E+03  0.10828895120E+04  0.25500000920E-02 0. -1.
       -2    1    3    3    0  502 -0.50209952977E+03 -0.10027281404E+03 -0.25012295527E+03  0.56984214287E+03  0.25500000920E-02 0.  1.
</event>
<event>
 5   0  0.6146552E-04  0.1496474E+04  0.7818609E-02  0.8886801E-01
       -1   -1    0    0    0  501  0.00000000000E+00  0.00000000000E+00  0.37250135961E+03  0.37250135965E+03  0.50400001928E-02 0.  1.
        1   -1    0    0  501    0  0.00000000000E+00  0.00000000000E+00 -0.15029707566E+04  0.15029707567E+04  0.50400001928E-02 0. -1.
    10030    2    1    2    0    0  0.00000000000E+00  0.00000000000E+00 -0.11304693970E+04  0.18754721163E+04  0.14964740564E+04 0.  0.
        5    1    3    3  502    0 -0.35762319985E+03 -0.67138035774E+02  0.25412821593E+03  0.44385257580E+03  0.46999998093E+01 0.  1.
       -5    1    3    3    0  502  0.35762319985E+03  0.67138035774E+02 -0.13845976130E+04  0.14316195405E+04  0.46999998093E+01 0. -1.
</event>
<event>
 5   0  0.1082667E-03  0.1471877E+04  0.7818609E-02  0.8903373E-01
       -2   -1    0    0    0  501  0.00000000000E+00  0.00000000000E+00  0.65284206318E+03  0.65284206319E+03  0.25500000920E-02 0.  1.
        2   -1    0    0  501    0  0.00000000000E+00  0.00000000000E+00 -0.82961142795E+03  0.82961142795E+03  0.25500000920E-02 0. -1.
    10030    2    1    2    0    0  0.00000000000E+00  0.00000000000E+00 -0.17676936476E+03  0.14824534911E+04  0.14718766745E+04 0.  0.
        5    1    3    3  502    0  0.70953823241E+03  0.17053262712E+03 -0.18423823593E+03  0.75265642742E+03  0.46999998093E+01 0.  1.
       -5    1    3    3    0  502 -0.70953823241E+03 -0.17053262712E+03  0.74688711649E+01  0.72979706371E+03  0.46999998093E+01 0. -1.
</event>
<event>
 5   0  0.1126175E-03  0.1498235E+04  0.7818609E-02  0.8885628E-01
        2   -1    0    0  501    0  0.00000000000E+00  0.00000000000E+00  0.11055949035E+04  0.11055949035E+04  0.25500000920E-02 0. -1.
       -2   -1    0    0    0  501  0.00000000000E+00  0.00000000000E+00 -0.50757910780E+03  0.50757910780E+03  0.25500000920E-02 0.  1.
    10030    2    1    2    0    0  0.00000000000E+00  0.00000000000E+00  0.59801579570E+03  0.16131740113E+04  0.14982347943E+04 0.  0.
        3    1    3    3  502    0  0.54398080384E+03 -0.43196281011E+03  0.60100695190E+03  0.91854033700E+03  0.10100000352E+00 0.  1.
       -3    1    3    3    0  502 -0.54398080384E+03  0.43196281011E+03 -0.29911561929E+01  0.69463367431E+03  0.10100000352E+00 0. -1.
</event>
<event>
 5   0  0.4070625E-04  0.1471826E+04  0.7818609E-02  0.8903407E-01
        3   -1    0    0  501    0  0.00000000000E+00  0.00000000000E+00  0.81521062170E+03  0.81521062795E+03  0.10100000352E+00 0.  1.
       -3   -1    0    0    0  501  0.00000000000E+00  0.00000000000E+00 -0.66432922691E+03  0.66432923459E+03  0.10100000352E+00 0. -1.
    10030    2    1    2    0    0  0.00000000000E+00  0.00000000000E+00  0.15088139478E+03  0.14795398625E+04  0.14718264196E+04 0.  0.
        4    1    3    3  502    0  0.48113344750E+03  0.30878355725E+03 -0.39037744361E+03  0.69226645224E+03  0.12699999809E+01 0. -1.
       -4    1    3    3    0  502 -0.48113344750E+03 -0.30878355725E+03  0.54125883839E+03  0.78727341030E+03  0.12699999809E+01 0.  1.
</event>
<event>
 5   0  0.5606965E-04  0.1509465E+04  0.7818609E-02  0.8878183E-01
        1   -1    0    0  501    0  0.00000000000E+00  0.00000000000E+00  0.30157523236E+03  0.30157523240E+03  0.50400001928E-02 0.  1.
       -1   -1    0    0    0  501  0.00000000000E+00  0.00000000000E+00 -0.18888199044E+04  0.18888199044E+04  0.50400001928E-02 0. -1.
    10030    2    1    2    0    0  0.00000000000E+00  0.00000000000E+00 -0.15872446720E+04  0.21903951368E+04  0.15094652054E+04 0.  0.
        4    1    3    3  502    0 -0.70712207494E+03  0.21473175482E+03 -0.57122710994E+03  0.93404142276E+03  0.12699999809E+01 0.  1.
       -4    1    3    3    0  502  0.70712207494E+03 -0.21473175482E+03 -0.10160175621E+04  0.12563537140E+04  0.12699999809E+01 0. -1.
</event>
<event>
 5   0  0.1147755E-03  0.1501322E+04  0.7818609E-02  0.8883574E-01
       -2   -1    0    0    0  501  0.00000000000E+00  0.00000000000E+00  0.42573150535E+03  0.42573150535E+03  0.25500000920E-02 0.  1.
        2   -1    0    0  501    0  0.00000000000E+00  0.00000000000E+00 -0.13235852914E+04  0.13235852914E+04  0.25500000920E-02 0. -1.
    10030    2    1    2    0    0  0.00000000000E+00  0.00000000000E+00 -0.89785378602E+03  0.17493167967E+04  0.15013220288E+04 0.  0.
        4    1    3    3  502    0  0.13795276718E+03  0.54519509769E+02 -0.13063370572E+04  0.13147324681E+04  0.12699999809E+01 0. -1.
       -4    1    3    3    0  502 -0.13795276718E+03 -0.54519509769E+02  0.40848327117E+03  0.43458432858E+03  0.12699999809E+01 0.  1.
</event>
<event>
 5   0  0.1126175E-03  0.1513622E+04  0.7818609E-02  0.8875445E-01
       -2   -1    0    0    0  501  0.00000000000E+00  0.00000000000E+00  0.54252824569E+03  0.54252824569E+03  0.25500000920E-02 0. -1.
        2   -1    0    0  501    0  0.00000000000E+00  0.00000000000E+00 -0.10557289738E+04  0.10557289738E+04  0.25500000920E-02 0.  1.
    10030    2    1    2    0    0  0.00000000000E+00  0.00000000000E+00 -0.51320072815E+03  0.15982572195E+04  0.15136218657E+04 0.  0.
        3    1    3    3  502    0 -0.24124211935E+02  0.20174417172E+03 -0.10263912798E+04  0.10463086341E+04  0.10100000352E+00 0.  1.
       -3    1    3    3    0  502  0.24124211935E+02 -0.20174417172E+03  0.51319055164E+03  0.55194858540E+03  0.10100000352E+00 0. -1.
</event>
<event>
 5   0  0.1082667E-03  0.1501307E+04  0.7818609E-02  0.8883584E-01
       -2   -1    0    0    0  501  0.00000000000E+00  0.00000000000E+00  0.49741751548E+03  0.49741751549E+03  0.25500000920E-02 0.  1.
        2   -1    0    0  501    0  0.00000000000E+00  0.00000000000E+00 -0.11328120011E+04  0.11328120011E+04  0.25500000920E-02 0. -1.
    10030    2    1    2    0    0  0.00000000000E+00  0.00000000000E+00 -0.63539448560E+03  0.16302295166E+04  0.15013068055E+04 0.  0.
        5    1    3    3  502    0  0.35687057583E+03 -0.24665287086E+03  0.34749605238E+03  0.55585055817E+03  0.46999998093E+01 0.  1.
       -5    1    3    3    0  502 -0.35687057583E+03  0.24665287086E+03 -0.98289053798E+03  0.10743789584E+04  0.46999998093E+01 0. -1.
</event>
<event>
 5   0  0.1082667E-03  0.1495475E+04  0.7818609E-02  0.8887467E-01
        2   -1    0    0  501    0  0.00000000000E+00  0.00000000000E+00  0.41982195345E+03  0.41982195346E+03  0.25500000920E-02 0. -1.
       -2   -1    0    0    0  501  0.00000000000E+00  0.00000000000E+00 -0.13317825213E+04  0.13317825213E+04  0.25500000920E-02 0.  1.
    10030    2    1    2    0    0  0.00000000000E+00  0.00000000000E+00 -0.91196056785E+03  0.17516044748E+04  0.14954752284E+04 0.  0.
        5    1    3    3  502    0 -0.34152530772E+03  0.52055442116E+03  0.29034197875E+02  0.62328285381E+03  0.46999998093E+01 0. -1.
       -5    1    3    3    0  502  0.34152530772E+03 -0.52055442116E+03 -0.94099476573E+03  0.11283216210E+04  0.46999998093E+01 0.  1.
</event>
<event>
 5   0  0.1082667E-03  0.1508311E+04  0.7818609E-02  0.8878945E-01
        2   -1    0    0  501    0  0.00000000000E+00  0.00000000000E+00  0.57390750829E+03  0.57390750830E+03  0.25500000920E-02 0. -1.
       -2   -1    0    0    0  501  0.00000000000E+00  0.00000000000E+00 -0.99101432889E+03  0.99101432889E+03  0.25500000920E-02 0.  1.
    10030    2    1    2    0    0  0.00000000000E+00  0.00000000000E+00 -0.41710682059E+03  0.15649218372E+04  0.15083110610E+04 0.  0.
        5    1    3    3  502    0 -0.14671925453E+03  0.73547974916E+03 -0.29071834550E+03  0.80436076948E+03  0.46999998093E+01 0. -1.
       -5    1    3    3    0  502  0.14671925453E+03 -0.73547974916E+03 -0.12638847509E+03  0.76056106771E+03  0.46999998093E+01 0.  1.
</event>
<event>
 5   0  0.6146552E-04  0.1524097E+04  0.7818609E-02  0.8868585E-01
       -1   -1    0    0    0  501  0.00000000000E+00  0.00000000000E+00  0.58943177917E+03  0.58943177920E+03  0.50400001928E-02 0. -1.
        1   -1    0    0  501    0  0.00000000000E+00  0.00000000000E+00 -0.98521670996E+03  0.98521670997E+03  0.50400001928E-02 0.  1.
    10030    2    1    2    0    0  0.00000000000E+00  0.00000000000E+00 -0.39578493078E+03  0.15746484892E+04  0.15240971600E+04 0.  0.
        5    1    3    3  502    0  0.52788928968E+02 -0.40616174435E+03 -0.86181200523E+03  0.95419916996E+03  0.46999998093E+01 0.  1.
       -5    1    3    3    0  502 -0.52788928968E+02  0.40616174435E+03  0.46602707444E+03  0.62044931921E+03  0.46999998093E+01 0. -1.
</event>
<event>
 5   0  0.1149716E-03  0.1694822E+04  0.7818609E-02  0.8764323E-01
       -2   -1    0    0    0  501  0.00000000000E+00  0.00000000000E+00  0.48537268876E+03  0.48537268877E+03  0.25500000920E-02 0. -1.
        2   -1    0    0  501    0  0.00000000000E+00  0.00000000000E+00 -0.14794919753E+04  0.14794919753E+04  0.25500000920E-02 0.  1.
    10030    2    1    2    0    0  0.00000000000E+00  0.00000000000E+00 -0.99411928659E+03  0.19648646641E+04  0.16948215223E+04 0.  0.
        1    1    3    3  502    0  0.51933780398E+03 -0.66499727529E+03 -0.40598091442E+03  0.93635123414E+03  0.50400001928E-02 0. -1.
       -1    1    3    3    0  502 -0.51933780398E+03  0.66499727529E+03 -0.58813837217E+03  0.10285134300E+04  0.50400001928E-02 0.  1.
</event>
<event>
 5   0  0.5914645E-04  0.1503635E+04  0.7818609E-02  0.8882039E-01
        1   -1    0    0  501    0  0.00000000000E+00  0.00000000000E+00  0.96503658439E+03  0.96503658440E+03  0.50400001928E-02 0.  1.
       -1   -1    0    0    0  501  0.00000000000E+00  0.00000000000E+00 -0.58570784319E+03  0.58570784321E+03  0.50400001928E-02 0. -1.
    10030    2    1    2    0    0  0.00000000000E+00  0.00000000000E+00  0.37932874120E+03  0.15507444276E+04  0.15036349244E+04 0.  0.
        2    1    3    3  502    0 -0.17929001566E+03  0.62447715331E+03 -0.20049062597E+03  0.67993611158E+03  0.25500000920E-02 0. -1.
       -2    1    3    3    0  502  0.17929001566E+03 -0.62447715331E+03  0.57981936717E+03  0.87080831603E+03  0.25500000920E-02 0.  1.
</event>
<event>
 5   0  0.5606965E-04  0.1497927E+04  0.7818609E-02  0.8885833E-01
       -1   -1    0    0    0  501  0.00000000000E+00  0.00000000000E+00  0.11486688160E+04  0.11486688160E+04  0.50400001928E-02 0.  1.
        1   -1    0    0  501    0  0.00000000000E+00  0.00000000000E+00 -0.48834473562E+03  0.48834473565E+03  0.50400001928E-02 0. -1.
    10030    2    1    2    0    0  0.00000000000E+00  0.00000000000E+00  0.66032408036E+03  0.16370135516E+04  0.14979270600E+04 0.  0.
        4    1    3    3  502    0  0.61430557282E+03  0.19269657669E+03  0.74837127336E+03  0.98720032574E+03  0.12699999809E+01 0.  1.
       -4    1    3    3    0  502 -0.61430557282E+03 -0.19269657669E+03 -0.88047192990E+02  0.64981322590E+03  0.12699999809E+01 0. -1.
</event>
<event>
 5   0  0.5840834E-04  0.1500134E+04  0.7818609E-02  0.8884364E-01
       -1   -1    0    0    0  501  0.00000000000E+00  0.00000000000E+00  0.40359039584E+03  0.40359039587E+03  0.50400001928E-02 0.  1.
        1   -1    0    0  501    0  0.00000000000E+00  0.00000000000E+00 -0.13939883774E+04  0.13939883774E+04  0.50400001928E-02 0. -1.
    10030    2    1    2    0    0  0.00000000000E+00  0.00000000000E+00 -0.99039798154E+03  0.17975787733E+04  0.15001337554E+04 0.  0.
        3    1    3    3  502    0 -0.57658409436E+03 -0.44555475207E+03 -0.28208024223E+03  0.78136900899E+03  0.10100000352E+00 0. -1.
       -3    1    3    3    0  502  0.57658409436E+03  0.44555475207E+03 -0.70831773931E+03  0.10162097643E+04  0.10100000352E+00 0.  1.
</event>
<event>
 5   0  0.1149716E-03  0.1459807E+04  0.7818609E-02  0.8911629E-01
        2   -1    0    0  501    0  0.00000000000E+00  0.00000000000E+00  0.78736169530E+03  0.78736169530E+03  0.25500000920E-02 0. -1.
       -2   -1    0    0    0  501  0.00000000000E+00  0.00000000000E+00 -0.67663863721E+03  0.67663863721E+03  0.25500000920E-02 0.  1.
    10030    2    1    2    0    0  0.00000000000E+00  0.00000000000E+00  0.11072305809E+03  0.14640003325E+04  0.14598073085E+04 0.  0.
        1    1    3    3  502    0  0.25180741052E+03 -0.55242707326E+02 -0.62946194148E+03  0.68020663368E+03  0.50400001928E-02 0.  1.
       -1    1    3    3    0  502 -0.25180741052E+03  0.55242707326E+02  0.74018499957E+03  0.78379369883E+03  0.50400001928E-02 0. -1.
</event>
<event>
 5   0  0.5606965E-04  0.1436351E+04  0.7818609E-02  0.8927918E-01
        1   -1    0    0  501    0  0.00000000000E+00  0.00000000000E+00  0.67620339498E+03  0.67620339500E+03  0.50400001928E-02 0.  1.
       -1   -1    0    0    0  501  0.00000000000E+00  0.00000000000E+00 -0.76275280124E+03  0.76275280126E+03  0.50400001928E-02 0. -1.
    10030    2    1    2    0    0  0.00000000000E+00  0.00000000000E+00 -0.86549406269E+02  0.14389561963E+04  0.14363509791E+04 0.  0.
        4    1    3    3  502    0 -0.26843434602E+03 -0.12920405991E+03  0.61138107529E+03  0.68010228594E+03  0.12699999809E+01 0.  1.
       -4    1    3    3    0  502  0.26843434602E+03  0.12920405991E+03 -0.69793048155E+03  0.75885391032E+03  0.12699999809E+01 0. -1.
</event>
<event>
 5   0  0.5606965E-04  0.1524645E+04  0.7818609E-02  0.8868227E-01
       -1   -1    0    0    0  501  0.00000000000E+00  0.00000000000E+00  0.86580123919E+03  0.86580123921E+03  0.50400001928E-02 0.  1.
        1   -1    0    0  501    0  0.00000000000E+00  0.00000000000E+00 -0.67121171133E+03  0.67121171135E+03  0.50400001928E-02 0. -1.
    10030    2    1    2    0    0  0.00000000000E+00  0.00000000000E+00  0.19458952786E+03  0.15370129506E+04  0.15246454427E+04 0.  0.
        4    1    3    3  502    0 -0.13525235750E+03  0.72183692102E+03 -0.10879586598E+03  0.74241490698E+03  0.12699999809E+01 0. -1.
       -4    1    3    3    0  502  0.13525235750E+03 -0.72183692102E+03  0.30338539383E+03  0.79459804357E+03  0.12699999809E+01 0.  1.
</event>
<event>
 5   0  0.6146552E-04  0.1501160E+04  0.7818609E-02  0.8883682E-01
        1   -1    0    0  501    0  0.00000000000E+00  0.00000000000E+00  0.47955232463E+03  0.47955232465E+03  0.50400001928E-02 0.  1.
       -1   -1    0    0    0  501  0.00000000000E+00  0.00000000000E+00 -0.11747839340E+04  0.11747839340E+04  0.50400001928E-02 0. -1.
    10030    2    1    2    0    0  0.00000000000E+00  0.00000000000E+00 -0.69523160937E+03  0.16543362587E+04  0.15011600401E+04 0.  0.
        5    1    3    3  502    0 -0.29286240852E+03 -0.18572180378E+03 -0.10811856037E+04  0.11354494170E+04  0.46999998093E+01 0. -1.
       -5    1    3    3    0  502  0.29286240852E+03  0.18572180378E+03  0.38595399437E+03  0.51888684170E+03  0.46999998093E+01 0.  1.
</event>
<event>
 5   0  0.1097156E-03  0.1488999E+04  0.7818609E-02  0.8891802E-01
       -2   -1    0    0    0  501  0.00000000000E+00  0.00000000000E+00  0.31203541946E+03  0.31203541947E+03  0.25500000920E-02 0. -1.
        2   -1    0    0  501    0  0.00000000000E+00  0.00000000000E+00 -0.17763347903E+04  0.17763347903E+04  0.25500000920E-02 0.  1.
    10030    2    1    2    0    0  0.00000000000E+00  0.00000000000E+00 -0.14642993708E+04  0.20883702097E+04  0.14889988199E+04 0.  0.
        2    1    3    3  502    0  0.15441836314E+03  0.71904686204E+03 -0.56975868967E+03  0.93032165682E+03  0.25500000920E-02 0. -1.
       -2    1    3    3    0  502 -0.15441836314E+03 -0.71904686204E+03 -0.89454068113E+03  0.11580485529E+04  0.25500000920E-02 0.  1.
</event>
<event>
 5   0  0.1147755E-03  0.1548738E+04  0.7818609E-02  0.8852674E-01
       -2   -1    0    0    0  501  0.00000000000E+00  0.00000000000E+00  0.22261328980E+03  0.22261328981E+03  0.25500000920E-02 0. -1.
        2   -1    0    0  501    0  0.00000000000E+00  0.00000000000E+00 -0.26936743571E+04  0.26936743571E+04  0.25500000920E-02 0.  1.
    10030    2    1    2    0    0  0.00000000000E+00  0.00000000000E+00 -0.24710610673E+04  0.29162876470E+04  0.15487384677E+04 0.  0.
        4    1    3    3  502    0 -0.42663727867E+03  0.32093158010E+03 -0.22917449644E+04  0.23531071037E+04  0.12699999809E+01 0.  1.
       -4    1    3    3    0  502  0.42663727867E+03 -0.32093158010E+03 -0.17931610295E+03  0.56318054328E+03  0.12699999809E+01 0. -1.
</event>
<event>
 5   0  0.1082667E-03  0.1493617E+04  0.7818609E-02  0.8888709E-01
        2   -1    0    0  501    0  0.00000000000E+00  0.00000000000E+00  0.32114793272E+03  0.32114793273E+03  0.25500000920E-02 0.  1.
       -2   -1    0    0    0  501  0.00000000000E+00  0.00000000000E+00 -0.17366542044E+04  0.17366542044E+04  0.25500000920E-02 0. -1.
    10030    2    1    2    0    0  0.00000000000E+00  0.00000000000E+00 -0.14155062716E+04  0.20578021371E+04  0.14936169624E+04 0.  0.
        5    1    3    3  502    0 -0.43345588065E+03 -0.36373490750E+03 -0.13791955022E+04  0.14907680593E+04  0.46999998093E+01 0. -1.
       -5    1    3    3    0  502  0.43345588065E+03  0.36373490750E+03 -0.36310769474E+02  0.56703407780E+03  0.46999998093E+01 0.  1.
</event>
<event>
 5   0  0.1126175E-03  0.1593774E+04  0.7818609E-02  0.8824382E-01
        2   -1    0    0  501    0  0.00000000000E+00  0.00000000000E+00  0.11509691520E+04  0.11509691520E+04  0.25500000920E-02 0. -1.
       -2   -1    0    0    0  501  0.00000000000E+00  0.00000000000E+00 -0.55173406116E+03  0.55173406117E+03  0.25500000920E-02 0.  1.
    10030    2    1    2    0    0  0.00000000000E+00  0.00000000000E+00  0.59923509081E+03  0.17027032131E+04  0.15937739921E+04 0.  0.
        3    1    3    3  502    0 -0.51019012204E+03  0.62405661062E+02  0.95020512526E+03  0.10803139439E+04  0.10100000352E+00 0. -1.
       -3    1    3    3    0  502  0.51019012204E+03 -0.62405661062E+02 -0.35097003445E+03  0.62238926922E+03  0.10100000352E+00 0.  1.
</event>
<event>
 5   0  0.1082667E-03  0.1436317E+04  0.7818609E-02  0.8927942E-01
        2   -1    0    0  501    0  0.00000000000E+00  0.00000000000E+00  0.89724116363E+03  0.89724116363E+03  0.25500000920E-02 0.  1.
       -2   -1    0    0    0  501  0.00000000000E+00  0.00000000000E+00 -0.57481912885E+03  0.57481912886E+03  0.25500000920E-02 0. -1.
    10030    2    1    2    0    0  0.00000000000E+00  0.00000000000E+00  0.32242203478E+03  0.14720602925E+04  0.14363166560E+04 0.  0.
        5    1    3    3  502    0  0.95081506132E+02 -0.53092858332E+03 -0.32472274158E+03  0.62959717462E+03  0.46999998093E+01 0. -1.
       -5    1    3    3    0  502 -0.95081506132E+02  0.53092858332E+03  0.64714477636E+03  0.84246311787E+03  0.46999998093E+01 0.  1.
</event>
<event>
 5   0  0.1097156E-03  0.1248695E+04  0.7818609E-02  0.9071270E-01
       -2   -1    0    0    0  501  0.00000000000E+00  0.00000000000E+00  0.25090019316E+03  0.25090019317E+03  0.25500000920E-02 0.  1.
        2   -1    0    0  501    0  0.00000000000E+00  0.00000000000E+00 -0.15536447154E+04  0.15536447155E+04  0.25500000920E-02 0. -1.
    10030    2    1    2    0    0  0.00000000000E+00  0.00000000000E+00 -0.13027445223E+04  0.18045449086E+04  0.12486949335E+04 0.  0.
        2    1    3    3  502    0  0.46949809600E+02  0.70021665368E+02  0.24263688344E+03  0.25686567589E+03  0.25500000920E-02 0.  1.
       -2    1    3    3    0  502 -0.46949809600E+02 -0.70021665368E+02 -0.15453814057E+04  0.15476792327E+04  0.25500000920E-02 0. -1.
</event>
<event>
 5   0  0.5924403E-04  0.1493021E+04  0.7818609E-02  0.8889107E-01
        1   -1    0    0  501    0  0.00000000000E+00  0.00000000000E+00  0.21305557303E+04  0.21305557303E+04  0.50400001928E-02 0.  1.
       -1   -1    0    0    0  501  0.00000000000E+00  0.00000000000E+00 -0.26156459594E+03  0.26156459599E+03  0.50400001928E-02 0. -1.
    10030    2    1    2    0    0  0.00000000000E+00  0.00000000000E+00  0.18689911344E+04  0.23921203263E+04  0.14930210297E+04 0.  0.
        1    1    3    3  502    0 -0.37648187308E+03 -0.54331351154E+03  0.37866843853E+03  0.76178603226E+03  0.50400001928E-02 0. -1.
       -1    1    3    3    0  502  0.37648187308E+03  0.54331351154E+03  0.14903226959E+04  0.16303342941E+04  0.50400001928E-02 0.  1.
</event>
<event>
 5   0  0.5606965E-04  0.1513929E+04  0.7818609E-02  0.8875243E-01
       -1   -1    0    0    0  501  0.00000000000E+00  0.00000000000E+00  0.63901083195E+03  0.63901083197E+03  0.50400001928E-02 0.  1.
        1   -1    0    0  501    0  0.00000000000E+00  0.00000000000E+00 -0.89669059051E+03  0.89669059053E+03  0.50400001928E-02 0. -1.
    10030    2    1    2    0    0  0.00000000000E+00  0.00000000000E+00 -0.25767975856E+03  0.15357014225E+04  0.15139286645E+04 0.  0.
        4    1    3    3  502    0 -0.70016286977E+03 -0.33739894614E+02  0.16097334128E+03  0.71922211743E+03  0.12699999809E+01 0.  1.
       -4    1    3    3    0  502  0.70016286977E+03  0.33739894614E+02 -0.41865309985E+03  0.81647930507E+03  0.12699999809E+01 0. -1.
</event>
<event>
 5   0  0.1149716E-03  0.1502668E+04  0.7818609E-02  0.8882680E-01
       -2   -1    0    0    0  501  0.00000000000E+00  0.00000000000E+00  0.62416363111E+03  0.62416363111E+03  0.25500000920E-02 0.  1.
        2   -1    0    0  501    0  0.00000000000E+00  0.00000000000E+00 -0.90441531075E+03  0.90441531076E+03  0.25500000920E-02 0. -1.
    10030    2    1    2    0    0  0.00000000000E+00  0.00000000000E+00 -0.28025167965E+03  0.15285789419E+04  0.15026684856E+04 0.  0.
        1    1    3    3  502    0 -0.45788491068E+03  0.58282112408E+03 -0.26539174308E+03  0.78725588688E+03  0.50400001928E-02 0. -1.
       -1    1    3    3    0  502  0.45788491068E+03 -0.58282112408E+03 -0.14859936566E+02  0.74132305498E+03  0.50400001928E-02 0.  1.
</event>
<event>
 5   0  0.1147755E-03  0.1482663E+04  0.7818609E-02  0.8896064E-01
        2   -1    0    0  501    0  0.00000000000E+00  0.00000000000E+00  0.97895964494E+03  0.97895964494E+03  0.25500000920E-02 0.  1.
       -2   -1    0    0    0  501  0.00000000000E+00  0.00000000000E+00 -0.56138403833E+03  0.56138403834E+03  0.25500000920E-02 0. -1.
    10030    2    1    2    0    0  0.00000000000E+00  0.00000000000E+00  0.41757560661E+03  0.15403436833E+04  0.14826629001E+04 0.  0.
        4    1    3    3  502    0  0.53081066936E+03 -0.43599686637E+03  0.49841180069E+03  0.84868673264E+03  0.12699999809E+01 0. -1.
       -4    1    3    3    0  502 -0.53081066936E+03  0.43599686637E+03 -0.80836194085E+02  0.69165695064E+03  0.12699999809E+01 0.  1.
</event>
<event>
 5   0  0.5914645E-04  0.1536551E+04  0.7818609E-02  0.8860504E-01
       -1   -1    0    0    0  501  0.00000000000E+00  0.00000000000E+00  0.31073440304E+03  0.31073440308E+03  0.50400001928E-02 0.  1.
        1   -1    0    0  501    0  0.00000000000E+00  0.00000000000E+00 -0.18995236739E+04  0.18995236739E+04  0.50400001928E-02 0. -1.
    10030    2    1    2    0    0  0.00000000000E+00  0.00000000000E+00 -0.15887892708E+04  0.22102580770E+04  0.15365511445E+04 0.  0.
        2    1    3    3  502    0  0.64907084591E+03  0.23519139774E+03 -0.30948543007E+03  0.75656406735E+03  0.25500000920E-02 0.  1.
       -2    1    3    3    0  502 -0.64907084591E+03 -0.23519139774E+03 -0.12793038408E+04  0.14536940096E+04  0.25500000920E-02 0. -1.
</event>
<event>
 5   0  0.5914645E-04  0.1497292E+04  0.7818609E-02  0.8886255E-01
        1   -1    0    0  501    0  0.00000000000E+00  0.00000000000E+00  0.13115757199E+04  0.13115757199E+04  0.50400001928E-02 0.  1.
       -1   -1    0    0    0  501  0.00000000000E+00  0.00000000000E+00 -0.42732650186E+03  0.42732650189E+03  0.50400001928E-02 0. -1.
    10030    2    1    2    0    0  0.00000000000E+00  0.00000000000E+00  0.88424921802E+03  0.17389022218E+04  0.14972923086E+04 0.  0.
        2    1    3    3  502    0 -0.28482863255E+03 -0.79105226416E+02 -0.35667648759E+03  0.46325274264E+03  0.25500000920E-02 0. -1.
       -2    1    3    3    0  502  0.28482863255E+03  0.79105226416E+02  0.12409257056E+04  0.12756494791E+04  0.25500000920E-02 0.  1.
</event>
<event>
 5   0  0.1097156E-03  0.1586744E+04  0.7818609E-02  0.8828733E-01
        2   -1    0    0  501    0  0.00000000000E+00  0.00000000000E+00  0.79087018143E+03  0.79087018144E+03  0.25500000920E-02 0.  1.
       -2   -1    0    0    0  501  0.00000000000E+00  0.00000000000E+00 -0.79588159278E+03  0.79588159279E+03  0.25500000920E-02 0. -1.
    10030    2    1    2    0    0  0.00000000000E+00  0.00000000000E+00 -0.50114113501E+01  0.15867517742E+04  0.15867438605E+04 0.  0.
        2    1    3    3  502    0 -0.73442492170E+03 -0.18214307190E+03  0.23599696271E+03  0.79262262816E+03  0.25500000920E-02 0.  1.
       -2    1    3    3    0  502  0.73442492170E+03  0.18214307190E+03 -0.24100837406E+03  0.79412914607E+03  0.25500000920E-02 0. -1.
</event>
<event>
 5   0  0.1126175E-03  0.1493287E+04  0.7818609E-02  0.8888929E-01
        2   -1    0    0  501    0  0.00000000000E+00  0.00000000000E+00  0.83267638109E+03  0.83267638109E+03  0.25500000920E-02 0. -1.
       -2   -1    0    0    0  501  0.00000000000E+00  0.00000000000E+00 -0.66949977854E+03  0.66949977854E+03  0.25500000920E-02 0.  1.
    10030    2    1    2    0    0  0.00000000000E+00  0.00000000000E+00  0.16317660255E+03  0.15021761596E+04  0.14932871830E+04 0.  0.
        3    1    3    3  502    0  0.39973586794E+03 -0.30514955186E+03 -0.47357691927E+03  0.69078225353E+03  0.10100000352E+00 0.  1.
       -3    1    3    3    0  502 -0.39973586794E+03  0.30514955186E+03  0.63675352182E+03  0.81139390611E+03  0.10100000352E+00 0. -1.
</event>
<event>
 5   0  0.1097156E-03  0.1516640E+04  0.7818609E-02  0.8873462E-01
       -2   -1    0    0    0  501  0.00000000000E+00  0.00000000000E+00  0.14574830082E+04  0.14574830082E+04  0.25500000920E-02 0.  1.
        2   -1    0    0  501    0  0.00000000000E+00  0.00000000000E+00 -0.39454955508E+03  0.39454955509E+03  0.25500000920E-02 0. -1.
    10030    2    1    2    0    0  0.00000000000E+00  0.00000000000E+00  0.10629334531E+04  0.18520325633E+04  0.15166400660E+04 0.  0.
        2    1    3    3  502    0  0.30531243639E+03  0.37999052820E+03 -0.17789031021E+03  0.51889637483E+03  0.25500000920E-02 0. -1.
       -2    1    3    3    0  502 -0.30531243639E+03 -0.37999052820E+03  0.12408237633E+04  0.13331361884E+04  0.25500000920E-02 0.  1.
</event>
<event>
 5   0  0.1149716E-03  0.1480521E+04  0.7818609E-02  0.8897511E-01
       -2   -1    0    0    0  501  0.00000000000E+00  0.00000000000E+00  0.66364689851E+03  0.66364689852E+03  0.25500000920E-02 0. -1.
        2   -1    0    0  501    0  0.00000000000E+00  0.00000000000E+00 -0.82571839605E+03  0.82571839606E+03  0.25500000920E-02 0.  1.
    10030    2    1    2    0    0  0.00000000000E+00  0.00000000000E+00 -0.16207149754E+03  0.14893652946E+04  0.14805207903E+04 0.  0.
        1    1    3    3  502    0 -0.54796075108E+03  0.49649481204E+03 -0.45936491859E+02  0.74086317523E+03  0.50400001928E-02 0. -1.
       -1    1    3    3    0  502  0.54796075108E+03 -0.49649481204E+03 -0.11613500568E+03  0.74850211935E+03  0.50400001928E-02 0.  1.
</event>
<event>
 5   0  0.6146552E-04  0.1507581E+04  0.7818609E-02  0.8879427E-01
       -1   -1    0    0    0  501  0.00000000000E+00  0.00000000000E+00  0.90492712238E+03  0.90492712240E+03  0.50400001928E-02 0.  1.
        1   -1    0    0  501    0  0.00000000000E+00  0.00000000000E+00 -0.62789637308E+03  0.62789637310E+03  0.50400001928E-02 0. -1.
    10030    2    1    2    0    0  0.00000000000E+00  0.00000000000E+00  0.27703074930E+03  0.15328234955E+04  0.15075814513E+04 0.  0.
        5    1    3    3  502    0 -0.71102329724E+03 -0.22528717403E+03  0.27741994808E+02  0.74639141761E+03  0.46999998093E+01 0. -1.
       -5    1    3    3    0  502  0.71102329724E+03  0.22528717403E+03  0.24928875450E+03  0.78643207788E+03  0.46999998093E+01 0.  1.
</event>
<event>
 5   0  0.1082667E-03  0.1383125E+04  0.7818609E-02  0.8966125E-01
        2   -1    0    0  501    0  0.00000000000E+00  0.00000000000E+00  0.10034282815E+04  0.10034282815E+04  0.25500000920E-02 0. -1.
       -2   -1    0    0    0  501  0.00000000000E+00  0.00000000000E+00 -0.47662468010E+03  0.47662468011E+03  0.25500000920E-02 0.  1.
    10030    2    1    2    0    0  0.00000000000E+00  0.00000000000E+00  0.52680360138E+03  0.14800529616E+04  0.13831249888E+04 0.  0.
        5    1    3    3  502    0 -0.56932601067E+03  0.30309716287E+03  0.53035722389E+03  0.83504543079E+03  0.46999998093E+01 0. -1.
       -5    1    3    3    0  502  0.56932601067E+03 -0.30309716287E+03 -0.35536225086E+01  0.64500753080E+03  0.46999998093E+01 0.  1.
</event>
<event>
 5   0  0.1147755E-03  0.1495407E+04  0.7818609E-02  0.8887513E-01
       -2   -1    0    0    0  501  0.00000000000E+00  0.00000000000E+00  0.37854888191E+03  0.37854888192E+03  0.25500000920E-02 0. -1.
        2   -1    0    0  501    0  0.00000000000E+00  0.00000000000E+00 -0.14768510789E+04  0.14768510789E+04  0.25500000920E-02 0.  1.
    10030    2    1    2    0    0  0.00000000000E+00  0.00000000000E+00 -0.10983021970E+04  0.18553999608E+04  0.14954067335E+04 0.  0.
        4    1    3    3  502    0 -0.27443954097E+02 -0.22538053937E+02 -0.14758027904E+04  0.14762305455E+04  0.12699999809E+01 0.  1.
       -4    1    3    3    0  502  0.27443954097E+02  0.22538053937E+02  0.37750059346E+03  0.37916941524E+03  0.12699999809E+01 0. -1.
</event>
<event>
 5   0  0.1097156E-03  0.1507625E+04  0.7818609E-02  0.8879398E-01
       -2   -1    0    0    0  501  0.00000000000E+00  0.00000000000E+00  0.41684401045E+03  0.41684401046E+03  0.25500000920E-02 0.  1.
        2   -1    0    0  501    0  0.00000000000E+00  0.00000000000E+00 -0.13631795363E+04  0.13631795363E+04  0.25500000920E-02 0. -1.
    10030    2    1    2    0    0  0.00000000000E+00  0.00000000000E+00 -0.94633552588E+03  0.17800235468E+04  0.15076249201E+04 0.  0.
        2    1    3    3  502    0 -0.11770699828E+03  0.74139460176E+03 -0.39211825607E+03  0.84692244020E+03  0.25500000920E-02 0.  1.
       -2    1    3    3    0  502  0.11770699828E+03 -0.74139460176E+03 -0.55421726980E+03  0.93310110659E+03  0.25500000920E-02 0. -1.
</event>
<event>
 5   0  0.6146552E-04  0.1473312E+04  0.7818609E-02  0.8902396E-01
       -1   -1    0    0    0  501  0.00000000000E+00  0.00000000000E+00  0.19462123592E+04  0.19462123592E+04  0.50400001928E-02 0.  1.
        1   -1    0    0  501    0  0.00000000000E+00  0.00000000000E+00 -0.27882998699E+03  0.27882998704E+03  0.50400001928E-02 0. -1.
    10030    2    1    2    0    0  0.00000000000E+00  0.00000000000E+00  0.16673823722E+04  0.22250423462E+04  0.14733124134E+04 0.  0.
        5    1    3    3  502    0 -0.51008303109E+03  0.37046415382E+03  0.25819225647E+03  0.68125892227E+03  0.46999998093E+01 0.  1.
       -5    1    3    3    0  502  0.51008303109E+03 -0.37046415382E+03  0.14091901157E+04  0.15437834239E+04  0.46999998093E+01 0. -1.
</event>
<event>
 5   0  0.6146552E-04  0.1505601E+04  0.7818609E-02  0.8880737E-01
        1   -1    0    0  501    0  0.00000000000E+00  0.00000000000E+00  0.87654920073E+03  0.87654920075E+03  0.50400001928E-02 0.  1.
       -1   -1    0    0    0  501  0.00000000000E+00  0.00000000000E+00 -0.64652265687E+03  0.64652265689E+03  0.50400001928E-02 0. -1.
    10030    2    1    2    0    0  0.00000000000E+00  0.00000000000E+00  0.23002654387E+03  0.15230718576E+04  0.15056014322E+04 0.  0.
        5    1    3    3  502    0 -0.44017381965E+02 -0.51186381960E+02  0.87346591202E+03  0.87608353772E+03  0.46999998093E+01 0.  1.
       -5    1    3    3    0  502  0.44017381965E+02  0.51186381960E+02 -0.64343936815E+03  0.64698831991E+03  0.46999998093E+01 0. -1.
</event>
<event>
 5   0  0.1149716E-03  0.1471846E+04  0.7818609E-02  0.8903394E-01
        2   -1    0    0  501    0  0.00000000000E+00  0.00000000000E+00  0.79009691591E+03  0.79009691591E+03  0.25500000920E-02 0.  1.
       -2   -1    0    0    0  501  0.00000000000E+00  0.00000000000E+00 -0.68546343348E+03  0.68546343348E+03  0.25500000920E-02 0. -1.
    10030    2    1    2    0    0  0.00000000000E+00  0.00000000000E+00  0.10463348243E+03  0.14755603494E+04  0.14718458408E+04 0.  0.
        1    1    3    3  502    0 -0.65332722314E+03  0.32804412104E+03 -0.32354317818E+02  0.73177606394E+03  0.50400001928E-02 0. -1.
       -1    1    3    3    0  502  0.65332722314E+03 -0.32804412104E+03  0.13698780025E+03  0.74378428545E+03  0.50400001928E-02 0.  1.
</event>
<event>
 5   0  0.1082667E-03  0.1465738E+04  0.7818609E-02  0.8907562E-01
       -2   -1    0    0    0  501  0.00000000000E+00  0.00000000000E+00  0.48454300382E+03  0.48454300383E+03  0.25500000920E-02 0.  1.
        2   -1    0    0  501    0  0.00000000000E+00  0.00000000000E+00 -0.11084604168E+04  0.11084604168E+04  0.25500000920E-02 0. -1.
    10030    2    1    2    0    0  0.00000000000E+00  0.00000000000E+00 -0.62391741300E+03  0.15930034207E+04  0.14657376846E+04 0.  0.
        5    1    3    3  502    0 -0.51606154912E+03  0.52033989531E+03 -0.31329901497E+03  0.79702665697E+03  0.46999998093E+01 0.  1.
       -5    1    3    3    0  502  0.51606154912E+03 -0.52033989531E+03 -0.31061839803E+03  0.79597676368E+03  0.46999998093E+01 0. -1.
</event>
<event>
 5   0  0.1082667E-03  0.1498569E+04  0.7818609E-02  0.8885405E-01
        2   -1    0    0  501    0  0.00000000000E+00  0.00000000000E+00  0.68280974085E+03  0.68280974085E+03  0.25500000920E-02 0.  1.
       -2   -1    0    0    0  501  0.00000000000E+00  0.00000000000E+00 -0.82223082500E+03  0.82223082500E+03  0.25500000920E-02 0. -1.
    10030    2    1    2    0    0  0.00000000000E+00  0.00000000000E+00 -0.13942108415E+03  0.15050405659E+04  0.14985689394E+04 0.  0.
        5    1    3    3  502    0  0.11571226245E+03  0.61309428571E+03  0.34696813030E+03  0.71392079693E+03  0.46999998093E+01 0.  1.
       -5    1    3    3    0  502 -0.11571226245E+03 -0.61309428571E+03 -0.48638921444E+03  0.79111976892E+03  0.46999998093E+01 0. -1.
</event>
<event>
 5   0  0.5606965E-04  0.1502365E+04  0.7818609E-02  0.8882882E-01
       -1   -1    0    0    0  501  0.00000000000E+00  0.00000000000E+00  0.27000409430E+03  0.27000409435E+03  0.50400001928E-02 0. -1.
        1   -1    0    0  501    0  0.00000000000E+00  0.00000000000E+00 -0.20898769856E+04  0.20898769856E+04  0.50400001928E-02 0.  1.
    10030    2    1    2    0    0  0.00000000000E+00  0.00000000000E+00 -0.18198728913E+04  0.23598810800E+04  0.15023652589E+04 0.  0.
        4    1    3    3  502    0  0.68324303384E+03  0.31056234629E+03 -0.95970097855E+03  0.12183175265E+04  0.12699999809E+01 0. -1.
       -4    1    3    3    0  502 -0.68324303384E+03 -0.31056234629E+03 -0.86017191277E+03  0.11415635535E+04  0.12699999809E+01 0.  1.
</event>
<event>
 5   0  0.5606965E-04  0.1514030E+04  0.7818609E-02  0.8875176E-01
        1   -1    0    0  501    0  0.00000000000E+00  0.00000000000E+00  0.51298492648E+03  0.51298492651E+03  0.50400001928E-02 0.  1.
       -1   -1    0    0    0  501  0.00000000000E+00  0.00000000000E+00 -0.11171314744E+04  0.11171314744E+04  0.50400001928E-02 0. -1.
    10030    2    1    2    0    0  0.00000000000E+00  0.00000000000E+00 -0.60414654792E+03  0.16301164009E+04  0.15140298640E+04 0.  0.
        4    1    3    3  502    0 -0.47069790556E+03 -0.13993552991E+03  0.31823621545E+03  0.58516183450E+03  0.12699999809E+01 0.  1.
       -4    1    3    3    0  502  0.47069790556E+03  0.13993552991E+03 -0.92238276337E+03  0.10449545664E+04  0.12699999809E+01 0. -1.
</event>
<event>
 5   0  0.5914645E-04  0.1478745E+04  0.7818609E-02  0.8898712E-01
        1   -1    0    0  501    0  0.00000000000E+00  0.00000000000E+00  0.40945417831E+03  0.40945417834E+03  0.50400001928E-02 0. -1.
       -1   -1    0    0    0  501  0.00000000000E+00  0.00000000000E+00 -0.13351222921E+04  0.13351222921E+04  0.50400001928E-02 0.  1.
    10030    2    1    2    0    0  0.00000000000E+00  0.00000000000E+00 -0.92566811381E+03  0.17445764705E+04  0.14787446042E+04 0.  0.
        2    1    3    3  502    0 -0.20507555829E+03  0.54468483763E+03  0.75137641722E+02  0.58684173519E+03  0.25500000920E-02 0. -1.
       -2    1    3    3    0  502  0.20507555829E+03 -0.54468483763E+03 -0.10008057555E+04  0.11577347353E+04  0.25500000920E-02 0.  1.
</event>
<event>
 5   0  0.1149716E-03  0.1572934E+04  0.7818609E-02  0.8837350E-01
        2   -1    0    0  501    0  0.00000000000E+00  0.00000000000E+00  0.19785698725E+04  0.19785698725E+04  0.25500000920E-02 0.  1.
       -2   -1    0    0    0  501  0.00000000000E+00  0.00000000000E+00 -0.31261498795E+03  0.31261498796E+03  0.25500000920E-02 0. -1.
    10030    2    1    2    0    0  0.00000000000E+00  0.00000000000E+00  0.16659548846E+04  0.22911848605E+04  0.15729343239E+04 0.  0.
        1    1    3    3  502    0 -0.43532454615E+03 -0.35669829502E+02  0.17856528542E+04  0.18382970143E+04  0.50400001928E-02 0.  1.
       -1    1    3    3    0  502  0.43532454615E+03  0.35669829502E+02 -0.11969796963E+03  0.45288784613E+03  0.50400001928E-02 0. -1.
</event>
<event>
 5   0  0.1082667E-03  0.1495387E+04  0.7818609E-02  0.8887526E-01
        2   -1    0    0  501    0  0.00000000000E+00  0.00000000000E+00  0.77350491131E+03  0.77350491131E+03  0.25500000920E-02 0. -1.
       -2   -1    0    0    0  501  0.00000000000E+00  0.00000000000E+00 -0.72274378593E+03  0.72274378594E+03  0.25500000920E-02 0.  1.
    10030    2    1    2    0    0  0.00000000000E+00  0.00000000000E+00  0.50761125372E+02  0.14962486972E+04  0.14953873987E+04 0.  0.
        5    1    3    3  502    0 -0.15042096062E+03  0.60077440476E+03 -0.39374902760E+03  0.73390512844E+03  0.46999998093E+01 0.  1.
       -5    1    3    3    0  502  0.15042096062E+03 -0.60077440476E+03  0.44451015297E+03  0.76234356881E+03  0.46999998093E+01 0. -1.
</event>
<event>
 5   0  0.1126175E-03  0.1481679E+04  0.7818609E-02  0.8896729E-01
        2   -1    0    0  501    0  0.00000000000E+00  0.00000000000E+00  0.78693047756E+03  0.78693047757E+03  0.25500000920E-02 0.  1.
       -2   -1    0    0    0  501  0.00000000000E+00  0.00000000000E+00 -0.69744766720E+03  0.69744766721E+03  0.25500000920E-02 0. -1.
    10030    2    1    2    0    0  0.00000000000E+00  0.00000000000E+00  0.89482810361E+02  0.14843781448E+04  0.14816785425E+04 0.  0.
        3    1    3    3  502    0  0.30716189535E+03  0.27219950459E+02 -0.63009815653E+03  0.70150769969E+03  0.10100000352E+00 0. -1.
       -3    1    3    3    0  502 -0.30716189535E+03 -0.27219950459E+02  0.71958096690E+03  0.78287044508E+03  0.10100000352E+00 0.  1.
</event>
<event>
 5   0  0.5924403E-04  0.1489348E+04  0.7818609E-02  0.8891567E-01
        1   -1    0    0  501    0  0.00000000000E+00  0.00000000000E+00  0.93747024479E+03  0.93747024480E+03  0.50400001928E-02 0. -1.
       -1   -1    0    0    0  501  0.00000000000E+00  0.00000000000E+00 -0.59152748782E+03  0.59152748785E+03  0.50400001928E-02 0.  1.
    10030    2    1    2    0    0  0.00000000000E+00  0.00000000000E+00  0.34594275696E+03  0.15289977326E+04  0.14893480706E+04 0.  0.
        1    1    3    3  502    0  0.56061946251E+03 -0.45023399508E+03  0.37186756371E+03  0.80950004141E+03  0.50400001928E-02 0. -1.
       -1    1    3    3    0  502 -0.56061946251E+03  0.45023399508E+03 -0.25924806745E+02  0.71949769124E+03  0.50400001928E-02 0.  1.
</event>
<event>
 5   0  0.1149716E-03  0.1486499E+04  0.7818609E-02  0.8893481E-01
        2   -1    0    0  501    0  0.00000000000E+00  0.00000000000E+00  0.95330820143E+03  0.95330820143E+03  0.25500000920E-02 0.  1.
       -2   -1    0    0    0  501  0.00000000000E+00  0.00000000000E+00 -0.57947653851E+03  0.57947653852E+03  0.25500000920E-02 0. -1.
    10030    2    1    2    0    0  0.00000000000E+00  0.00000000000E+00  0.37383166291E+03  0.15327847400E+04  0.14864988889E+04 0.  0.
        1    1    3    3  502    0  0.73250417015E+03 -0.12341889389E+03  0.21269744507E+03  0.77268026105E+03  0.50400001928E-02 0. -1.
       -1    1    3    3    0  502 -0.73250417015E+03  0.12341889389E+03  0.16113421784E+03  0.76010447890E+03  0.50400001928E-02 0.  1.
</event>
<event>
 5   0  0.5606965E-04  0.1556646E+04  0.7818609E-02  0.8847634E-01
       -1   -1    0    0    0  501  0.00000000000E+00  0.00000000000E+00  0.70469440302E+03  0.70469440304E+03  0.50400001928E-02 0. -1.
        1   -1    0    0  501    0  0.00000000000E+00  0.00000000000E+00 -0.85964436287E+03  0.85964436289E+03  0.50400001928E-02 0.  1.
    10030    2    1    2    0    0  0.00000000000E+00  0.00000000000E+00 -0.15494995985E+03  0.15643387659E+04  0.15566458443E+04 0.  0.
        4    1    3    3  502    0 -0.52240436593E+03 -0.48395304570E+03  0.23819213682E+03  0.75090211009E+03  0.12699999809E+01 0. -1.
       -4    1    3    3    0  502  0.52240436593E+03  0.48395304570E+03 -0.39314209667E+03  0.81343665584E+03  0.12699999809E+01 0.  1.
</event>
<event>
 5   0  0.1126175E-03  0.1505709E+04  0.7818609E-02  0.8880665E-01
        2   -1    0    0  501    0  0.00000000000E+00  0.00000000000E+00  0.11355473311E+04  0.11355473311E+04  0.25500000920E-02 0. -1.
       -2   -1    0    0    0  501  0.00000000000E+00  0.00000000000E+00 -0.49913362442E+03  0.49913362443E+03  0.25500000920E-02 0.  1.
    10030    2    1    2    0    0  0.00000000000E+00  0.00000000000E+00  0.63641370665E+03  0.16346809555E+04  0.15057089427E+04 0.  0.
        3    1    3    3  502    0  0.42223767904E+03  0.12715913220E+03 -0.34425265415E+03  0.55943185696E+03  0.10100000352E+00 0.  1.
       -3    1    3    3    0  502 -0.42223767904E+03 -0.12715913220E+03  0.98066636080E+03  0.10752490985E+04  0.10100000352E+00 0. -1.
</event>
<event>
 5   0  0.1147755E-03  0.1547057E+04  0.7818609E-02  0.8853750E-01
        2   -1    0    0  501    0  0.00000000000E+00  0.00000000000E+00  0.18340929112E+04  0.18340929112E+04  0.25500000920E-02 0. -1.
       -2   -1    0    0    0  501  0.00000000000E+00  0.00000000000E+00 -0.32623566480E+03  0.32623566481E+03  0.25500000920E-02 0.  1.
    10030    2    1    2    0    0  0.00000000000E+00  0.00000000000E+00  0.15078572464E+04  0.21603285760E+04  0.15470572326E+04 0.  0.
        4    1    3    3  502    0 -0.51995287614E+03 -0.57107752099E+03  0.81422351542E+03  0.11222486687E+04  0.12699999809E+01 0. -1.
       -4    1    3    3    0  502  0.51995287614E+03  0.57107752099E+03  0.69363373097E+03  0.10380799073E+04  0.12699999809E+01 0.  1.
</event>
<event>
 5   0  0.5924403E-04  0.1497044E+04  0.7818609E-02  0.8886421E-01
        1   -1    0    0  501    0  0.00000000000E+00  0.00000000000E+00  0.60321073056E+03  0.60321073058E+03  0.50400001928E-02 0.  1.
       -1   -1    0    0    0  501  0.00000000000E+00  0.00000000000E+00 -0.92883762658E+03  0.92883762659E+03  0.50400001928E-02 0. -1.
    10030    2    1    2    0    0  0.00000000000E+00  0.00000000000E+00 -0.32562689602E+03  0.15320483572E+04  0.14970435175E+04 0.  0.
        1    1    3    3  502    0  0.48162467192E+03  0.37129014346E+03  0.28381555848E+03  0.67109609334E+03  0.50400001928E-02 0.  1.
       -1    1    3    3    0  502 -0.48162467192E+03 -0.37129014346E+03 -0.60944245450E+03  0.86095226384E+03  0.50400001928E-02 0. -1.
</event>
<event>
 5   0  0.1126175E-03  0.1483716E+04  0.7818609E-02  0.8895354E-01
        2   -1    0    0  501    0  0.00000000000E+00  0.00000000000E+00  0.48295697576E+03  0.48295697577E+03  0.25500000920E-02 0.  1.
       -2   -1    0    0    0  501  0.00000000000E+00  0.00000000000E+00 -0.11395500151E+04  0.11395500151E+04  0.25500000920E-02 0. -1.
    10030    2    1    2    0    0  0.00000000000E+00  0.00000000000E+00 -0.65659303938E+03  0.16225069909E+04  0.14837164541E+04 0.  0.
        3    1    3    3  502    0  0.93474354630E+02  0.12474103222E+03 -0.11214396854E+04  0.11322211614E+04  0.10100000352E+00 0. -1.
       -3    1    3    3    0  502 -0.93474354630E+02 -0.12474103222E+03  0.46484664604E+03  0.49028582952E+03  0.10100000352E+00 0.  1.
</event>
<event>
 5   0  0.6146552E-04  0.1485607E+04  0.7818609E-02  0.8894081E-01
       -1   -1    0    0    0  501  0.00000000000E+00  0.00000000000E+00  0.71967487940E+03  0.71967487942E+03  0.50400001928E-02 0. -1.
        1   -1    0    0  501    0  0.00000000000E+00  0.00000000000E+00 -0.76667554096E+03  0.76667554098E+03  0.50400001928E-02 0.  1.
    10030    2    1    2    0    0  0.00000000000E+00  0.00000000000E+00 -0.47000661559E+02  0.14863504204E+04  0.14856071183E+04 0.  0.
        5    1    3    3  502    0 -0.65271454805E+03  0.35453902458E+03 -0.24415288963E+02  0.74320414257E+03  0.46999998093E+01 0. -1.
       -5    1    3    3    0  502  0.65271454805E+03 -0.35453902458E+03 -0.22585372596E+02  0.74314627783E+03  0.46999998093E+01 0.  1.
</event>
<event>
 5   0  0.6146552E-04  0.1495039E+04  0.7818609E-02  0.8887758E-01
        1   -1    0    0  501    0  0.00000000000E+00  0.00000000000E+00  0.36487021596E+03  0.36487021599E+03  0.50400001928E-02 0. -1.
       -1   -1    0    0    0  501  0.00000000000E+00  0.00000000000E+00 -0.15314643681E+04  0.15314643681E+04  0.50400001928E-02 0.  1.
    10030    2    1    2    0    0  0.00000000000E+00  0.00000000000E+00 -0.11665941521E+04  0.18963345841E+04  0.14950394440E+04 0.  0.
        5    1    3    3  502    0  0.13049818547E+03  0.14381346865E+03  0.33229634322E+03  0.38490913199E+03  0.46999998093E+01 0. -1.
       -5    1    3    3    0  502 -0.13049818547E+03 -0.14381346865E+03 -0.14988904954E+04  0.15114254521E+04  0.46999998093E+01 0.  1.
</event>
<event>
 5   0  0.5924403E-04  0.1499975E+04  0.7818609E-02  0.8884470E-01
       -1   -1    0    0    0  501  0.00000000000E+00  0.00000000000E+00  0.32472173908E+03  0.32472173912E+03  0.50400001928E-02 0. -1.
        1   -1    0    0  501    0  0.00000000000E+00  0.00000000000E+00 -0.17321946870E+04  0.17321946870E+04  0.50400001928E-02 0.  1.
    10030    2    1    2    0    0  0.00000000000E+00  0.00000000000E+00 -0.14074729479E+04  0.20569164261E+04  0.14999750281E+04 0.  0.
        1    1    3    3  502    0 -0.90325917890E+02 -0.44605778369E+03 -0.15211913793E+04  0.15878128134E+04  0.50400001928E-02 0.  1.
       -1    1    3    3    0  502  0.90325917890E+02  0.44605778369E+03  0.11371843138E+03  0.46910361275E+03  0.50400001928E-02 0. -1.
</event>
<event>
 5   0  0.5840834E-04  0.1495507E+04  0.7818609E-02  0.8887446E-01
       -1   -1    0    0    0  501  0.00000000000E+00  0.00000000000E+00  0.15479463167E+04  0.15479463167E+04  0.50400001928E-02 0.  1.
        1   -1    0    0  501    0  0.00000000000E+00  0.00000000000E+00 -0.36121127235E+03  0.36121127238E+03  0.50400001928E-02 0. -1.
    10030    2    1    2    0    0  0.00000000000E+00  0.00000000000E+00  0.11867350443E+04  0.19091575890E+04  0.14955074839E+04 0.  0.
        3    1    3    3  502    0  0.11421104331E+03  0.73650066855E+03  0.67058043747E+03  0.10025744514E+04  0.10100000352E+00 0.  1.
       -3    1    3    3    0  502 -0.11421104331E+03 -0.73650066855E+03  0.51615460684E+03  0.90658313770E+03  0.10100000352E+00 0. -1.
</event>
<event>
 5   0  0.5840834E-04  0.1550680E+04  0.7818609E-02  0.8851434E-01
        1   -1    0    0  501    0  0.00000000000E+00  0.00000000000E+00  0.71711062248E+03  0.71711062250E+03  0.50400001928E-02 0.  1.
       -1   -1    0    0    0  501  0.00000000000E+00  0.00000000000E+00 -0.83829706503E+03  0.83829706504E+03  0.50400001928E-02 0. -1.
    10030    2    1    2    0    0  0.00000000000E+00  0.00000000000E+00 -0.12118644255E+03  0.15554076875E+04  0.15506795029E+04 0.  0.
        3    1    3    3  502    0  0.47501871548E+03  0.54811310013E+03 -0.33543777171E+03  0.79911780076E+03  0.10100000352E+00 0. -1.
       -3    1    3    3    0  502 -0.47501871548E+03 -0.54811310013E+03  0.21425132917E+03  0.75628988678E+03  0.10100000352E+00 0.  1.
</event>
<event>
 5   0  0.5606965E-04  0.1493821E+04  0.7818609E-02  0.8888573E-01
       -1   -1    0    0    0  501  0.00000000000E+00  0.00000000000E+00  0.64512095094E+03  0.64512095096E+03  0.50400001928E-02 0.  1.
        1   -1    0    0  501    0  0.00000000000E+00  0.00000000000E+00 -0.86476024645E+03  0.86476024647E+03  0.50400001928E-02 0. -1.
    10030    2    1    2    0    0  0.00000000000E+00  0.00000000000E+00 -0.21963929551E+03  0.15098811974E+04  0.14938205415E+04 0.  0.
        4    1    3    3  502    0 -0.68421028076E+03  0.99813308985E+02 -0.39528657569E+03  0.79646688241E+03  0.12699999809E+01 0. -1.
       -4    1    3    3    0  502  0.68421028076E+03 -0.99813308985E+02  0.17564728018E+03  0.71341431503E+03  0.12699999809E+01 0.  1.
</event>
<event>
 5   0  0.5840834E-04  0.1510888E+04  0.7818609E-02  0.8877245E-01
       -1   -1    0    0    0  501  0.00000000000E+00  0.00000000000E+00  0.82458643036E+03  0.82458643038E+03  0.50400001928E-02 0.  1.
        1   -1    0    0  501    0  0.00000000000E+00  0.00000000000E+00 -0.69209915442E+03  0.69209915444E+03  0.50400001928E-02 0. -1.
    10030    2    1    2    0    0  0.00000000000E+00  0.00000000000E+00  0.13248727594E+03  0.15166855848E+04  0.15108879128E+04 0.  0.
        3    1    3    3  502    0  0.46738658977E+03 -0.30628373234E+01 -0.52952845373E+03  0.70630021859E+03  0.10100000352E+00 0. -1.
       -3    1    3    3    0  502 -0.46738658977E+03  0.30628373234E+01  0.66201572967E+03  0.81038536623E+03  0.10100000352E+00 0.  1.
</event>
<event>
 5   0  0.5924403E-04  0.1504116E+04  0.7818609E-02  0.8881720E-01
       -1   -1    0    0    0  501  0.00000000000E+00  0.00000000000E+00  0.17380013971E+04  0.17380013971E+04  0.50400001928E-02 0.  1.
        1   -1    0    0  501    0  0.00000000000E+00  0.00000000000E+00 -0.32542619872E+03  0.32542619876E+03  0.50400001928E-02 0. -1.
    10030    2    1    2    0    0  0.00000000000E+00  0.00000000000E+00  0.14125751984E+04  0.20634275959E+04  0.15041159371E+04 0.  0.
        1    1    3    3  502    0 -0.41355264665E+03 -0.19833934850E+03  0.15239251789E+04  0.15914497289E+04  0.50400001928E-02 0.  1.
       -1    1    3    3    0  502  0.41355264665E+03  0.19833934850E+03 -0.11134998052E+03  0.47197786696E+03  0.50400001928E-02 0. -1.
</event>
<event>
 5   0  0.6146552E-04  0.1494492E+04  0.7818609E-02  0.8888124E-01
        1   -1    0    0  501    0  0.00000000000E+00  0.00000000000E+00  0.11086873419E+04  0.11086873419E+04  0.50400001928E-02 0. -1.
       -1   -1    0    0    0  501  0.00000000000E+00  0.00000000000E+00 -0.50363754066E+03  0.50363754069E+03  0.50400001928E-02 0.  1.
    10030    2    1    2    0    0  0.00000000000E+00  0.00000000000E+00  0.60504980121E+03  0.16123248826E+04  0.14944919756E+04 0.  0.
        5    1    3    3  502    0  0.13735077804E+03  0.43792668030E+03  0.93868616833E+03  0.10448917773E+04  0.46999998093E+01 0. -1.
       -5    1    3    3    0  502 -0.13735077804E+03 -0.43792668030E+03 -0.33363636712E+03  0.56743310532E+03  0.46999998093E+01 0.  1.
</event>
<event>
 5   0  0.1126175E-03  0.1462551E+04  0.7818609E-02  0.8909745E-01
       -2   -1    0    0    0  501  0.00000000000E+00  0.00000000000E+00  0.27003198663E+03  0.27003198664E+03  0.25500000920E-02 0. -1.
        2   -1    0    0  501    0  0.00000000000E+00  0.00000000000E+00 -0.19803713970E+04  0.19803713970E+04  0.25500000920E-02 0.  1.
    10030    2    1    2    0    0  0.00000000000E+00  0.00000000000E+00 -0.17103394104E+04  0.22504033836E+04  0.14625506796E+04 0.  0.
        3    1    3    3  502    0  0.62305336601E+03  0.98271411892E+02 -0.28583406178E+03  0.69249829485E+03  0.10100000352E+00 0. -1.
       -3    1    3    3    0  502 -0.62305336601E+03 -0.98271411892E+02 -0.14245053486E+04  0.15579050888E+04  0.10100000352E+00 0.  1.
</event>
<event>
 5   0  0.1097156E-03  0.1500370E+04  0.7818609E-02  0.8884207E-01
       -2   -1    0    0    0  501  0.00000000000E+00  0.00000000000E+00  0.83662138592E+03  0.83662138592E+03  0.25500000920E-02 0. -1.
        2   -1    0    0  501    0  0.00000000000E+00  0.00000000000E+00 -0.67267894190E+03  0.67267894190E+03  0.25500000920E-02 0.  1.
    10030    2    1    2    0    0  0.00000000000E+00  0.00000000000E+00  0.16394244402E+03  0.15093003278E+04  0.15003700726E+04 0.  0.
        2    1    3    3  502    0  0.18261166368E+03  0.22813793898E+02  0.81356196840E+03  0.83411663773E+03  0.25500000920E-02 0. -1.
       -2    1    3    3    0  502 -0.18261166368E+03 -0.22813793898E+02 -0.64961952438E+03  0.67518369009E+03  0.25500000920E-02 0.  1.
</event>
<event>
 5   0  0.6146552E-04  0.1491360E+04  0.7818609E-02  0.8890219E-01
        1   -1    0    0  501    0  0.00000000000E+00  0.00000000000E+00  0.10677644318E+04  0.10677644318E+04  0.50400001928E-02 0.  1.
       -1   -1    0    0    0  501  0.00000000000E+00  0.00000000000E+00 -0.52075001639E+03  0.52075001641E+03  0.50400001928E-02 0. -1.
    10030    2    1    2    0    0  0.00000000000E+00  0.00000000000E+00  0.54701441538E+03  0.15885144482E+04  0.14913595748E+04 0.  0.
        5    1    3    3  502    0  0.23805574625E+03  0.62680332244E+03 -0.74035986923E+02  0.67457865420E+03  0.46999998093E+01 0. -1.
       -5    1    3    3    0  502 -0.23805574625E+03 -0.62680332244E+03  0.62105040231E+03  0.91393579399E+03  0.46999998093E+01 0.  1.
</event>
<event>
 5   0  0.1126175E-03  0.1399957E+04  0.7818609E-02  0.8953850E-01
       -2   -1    0    0    0  501  0.00000000000E+00  0.00000000000E+00  0.51262467012E+03  0.51262467013E+03  0.25500000920E-02 0.  1.
        2   -1    0    0  501    0  0.00000000000E+00  0.00000000000E+00 -0.95580652766E+03  0.95580652767E+03  0.25500000920E-02 0. -1.
    10030    2    1    2    0    0  0.00000000000E+00  0.00000000000E+00 -0.44318185754E+03  0.14684311978E+04  0.13999571507E+04 0.  0.
        3    1    3    3  502    0 -0.12537194227E+03 -0.61275740564E+02 -0.94106866692E+03  0.95135854773E+03  0.10100000352E+00 0. -1.
       -3    1    3    3    0  502  0.12537194227E+03  0.61275740564E+02  0.49788680938E+03  0.51707265006E+03  0.10100000352E+00 0.  1.
</event>
<event>
 5   0  0.1149716E-03  0.1519862E+04  0.7818609E-02  0.8871351E-01
       -2   -1    0    0    0  501  0.00000000000E+00  0.00000000000E+00  0.64947834539E+03  0.64947834539E+03  0.25500000920E-02 0.  1.
        2   -1    0    0  501    0  0.00000000000E+00  0.00000000000E+00 -0.88916788218E+03  0.88916788218E+03  0.25500000920E-02 0. -1.
    10030    2    1    2    0    0  0.00000000000E+00  0.00000000000E+00 -0.23968953679E+03  0.15386462276E+04  0.15198622107E+04 0.  0.
        1    1    3    3  502    0  0.33008329439E+03  0.68448708772E+03 -0.11558198257E+03  0.76865905915E+03  0.50400001928E-02 0.  1.
       -1    1    3    3    0  502 -0.33008329439E+03 -0.68448708772E+03 -0.12410755421E+03  0.76998716842E+03  0.50400001928E-02 0. -1.
</event>
<event>
 5   0  0.1147755E-03  0.1522742E+04  0.7818609E-02  0.8869469E-01
       -2   -1    0    0    0  501  0.00000000000E+00  0.00000000000E+00  0.11699143324E+04  0.11699143324E+04  0.25500000920E-02 0. -1.
        2   -1    0    0  501    0  0.00000000000E+00  0.00000000000E+00 -0.49549444725E+03  0.49549444726E+03  0.25500000920E-02 0.  1.
    10030    2    1    2    0    0  0.00000000000E+00  0.00000000000E+00  0.67441988511E+03  0.16654087796E+04  0.15227423360E+04 0.  0.
        4    1    3    3  502    0  0.44361046094E+03  0.33090352563E+02 -0.33858035400E+03  0.55903799647E+03  0.12699999809E+01 0.  1.
       -4    1    3    3    0  502 -0.44361046094E+03 -0.33090352563E+02  0.10130002391E+04  0.11063707832E+04  0.12699999809E+01 0. -1.
</event>
<event>
 5   0  0.1097156E-03  0.1498287E+04  0.7818609E-02  0.8885593E-01
       -2   -1    0    0    0  501  0.00000000000E+00  0.00000000000E+00  0.33976502052E+03  0.33976502053E+03  0.25500000920E-02 0. -1.
        2   -1    0    0  501    0  0.00000000000E+00  0.00000000000E+00 -0.16517772159E+04  0.16517772159E+04  0.25500000920E-02 0.  1.
    10030    2    1    2    0    0  0.00000000000E+00  0.00000000000E+00 -0.13120121954E+04  0.19915422365E+04  0.14982871817E+04 0.  0.
        2    1    3    3  502    0 -0.61707224208E+03  0.42466607978E+03 -0.64293591441E+03  0.98716058537E+03  0.25500000920E-02 0. -1.
       -2    1    3    3    0  502  0.61707224208E+03 -0.42466607978E+03 -0.66907628100E+03  0.10043816511E+04  0.25500000920E-02 0.  1.
</event>
<event>
 5   0  0.6146552E-04  0.1406770E+04  0.7818609E-02  0.8948933E-01
        1   -1    0    0  501    0  0.00000000000E+00  0.00000000000E+00  0.14485021595E+04  0.14485021595E+04  0.50400001928E-02 0. -1.
       -1   -1    0    0    0  501  0.00000000000E+00  0.00000000000E+00 -0.34155992209E+03  0.34155992213E+03  0.50400001928E-02 0.  1.
    10030    2    1    2    0    0  0.00000000000E+00  0.00000000000E+00  0.11069422374E+04  0.17900620816E+04  0.14067697534E+04 0.  0.
        5    1    3    3  502    0  0.66010125741E+03  0.59173095190E+02  0.85322474458E+03  0.10803932988E+04  0.46999998093E+01 0. -1.
       -5    1    3    3    0  502 -0.66010125741E+03 -0.59173095190E+02  0.25371749282E+03  0.70966878287E+03  0.46999998093E+01 0.  1.
</event>
<event>
 5   0  0.1097156E-03  0.1492040E+04  0.7818609E-02  0.8889764E-01
        2   -1    0    0  501    0  0.00000000000E+00  0.00000000000E+00  0.19589194688E+04  0.19589194688E+04  0.25500000920E-02 0.  1.
       -2   -1    0    0    0  501  0.00000000000E+00  0.00000000000E+00 -0.28410854276E+03  0.28410854277E+03  0.25500000920E-02 0. -1.
    10030    2    1    2    0    0  0.00000000000E+00  0.00000000000E+00  0.16748109260E+04  0.22430280116E+04  0.14920398864E+04 0.  0.
        2    1    3    3  502    0 -0.23960755781E+03 -0.23983671042E+03  0.18364270151E+04  0.18674575259E+04  0.25500000920E-02 0.  1.
       -2    1    3    3    0  502  0.23960755781E+03  0.23983671042E+03 -0.16161608905E+03  0.37557048563E+03  0.25500000920E-02 0. -1.
</event>
<event>
 5   0  0.6146552E-04  0.1507662E+04  0.7818609E-02  0.8879374E-01
       -1   -1    0    0    0  501  0.00000000000E+00  0.00000000000E+00  0.58851900104E+03  0.58851900107E+03  0.50400001928E-02 0.  1.
        1   -1    0    0  501    0  0.00000000000E+00  0.00000000000E+00 -0.96557839268E+03  0.96557839270E+03  0.50400001928E-02 0. -1.
    10030    2    1    2    0    0  0.00000000000E+00  0.00000000000E+00 -0.37705939164E+03  0.15540973938E+04  0.15076620724E+04 0.  0.
        5    1    3    3  502    0  0.18690896015E+03  0.55731201435E+03 -0.67498354512E+03  0.89507347011E+03  0.46999998093E+01 0. -1.
       -5    1    3    3    0  502 -0.18690896015E+03 -0.55731201435E+03  0.29792415348E+03  0.65902392365E+03  0.46999998093E+01 0.  1.
</event>
<event>
 5   0  0.5606965E-04  0.1506872E+04  0.7818609E-02  0.8879896E-01
        1   -1    0    0  501    0  0.00000000000E+00  0.00000000000E+00  0.17848945746E+04  0.17848945746E+04  0.50400001928E-02 0. -1.
       -1   -1    0    0    0  501  0.00000000000E+00  0.00000000000E+00 -0.31803888087E+03  0.31803888091E+03  0.50400001928E-02 0.  1.
    10030    2    1    2    0    0  0.00000000000E+00  0.00000000000E+00  0.14668556937E+04  0.21029334555E+04  0.15068720888E+04 0.  0.
        4    1    3    3  502    0  0.46849443496E+03 -0.29386679936E+03  0.14475132571E+04  0.15495615425E+04  0.12699999809E+01 0. -1.
       -4    1    3    3    0  502 -0.46849443496E+03  0.29386679936E+03  0.19342436535E+02  0.55337191301E+03  0.12699999809E+01 0.  1.
</event>
<event>
 5   0  0.5914645E-04  0.1476227E+04  0.7818609E-02  0.8900417E-01
       -1   -1    0    0    0  501  0.00000000000E+00  0.00000000000E+00  0.52990801554E+03  0.52990801556E+03  0.50400001928E-02 0.  1.
        1   -1    0    0  501    0  0.00000000000E+00  0.00000000000E+00 -0.10281247454E+04  0.10281247454E+04  0.50400001928E-02 0. -1.
    10030    2    1    2    0    0  0.00000000000E+00  0.00000000000E+00 -0.49821672990E+03  0.15580327610E+04  0.14762270064E+04 0.  0.
        2    1    3    3  502    0 -0.37731588524E+03 -0.16328597097E+03 -0.89608917862E+03  0.98590334294E+03  0.25500000920E-02 0. -1.
       -2    1    3    3    0  502  0.37731588524E+03  0.16328597097E+03  0.39787244872E+03  0.57212941807E+03  0.25500000920E-02 0.  1.
</event>
<event>
 5   0  0.5606965E-04  0.1402555E+04  0.7818609E-02  0.8951971E-01
        1   -1    0    0  501    0  0.00000000000E+00  0.00000000000E+00  0.65221234070E+03  0.65221234072E+03  0.50400001928E-02 0.  1.
       -1   -1    0    0    0  501  0.00000000000E+00  0.00000000000E+00 -0.75403364645E+03  0.75403364646E+03  0.50400001928E-02 0. -1.
    10030    2    1    2    0    0  0.00000000000E+00  0.00000000000E+00 -0.10182130575E+03  0.14062459872E+04  0.14025548824E+04 0.  0.
        4    1    3    3  502    0 -0.41136735130E+03 -0.52378679901E+03 -0.27106247541E+03  0.71906340959E+03  0.12699999809E+01 0. -1.
       -4    1    3    3    0  502  0.41136735130E+03  0.52378679901E+03  0.16924116966E+03  0.68718257759E+03  0.12699999809E+01 0.  1.
</event>
<event>
 5   0  0.1149716E-03  0.1569889E+04  0.7818609E-02  0.8839263E-01
       -2   -1    0    0    0  501  0.00000000000E+00  0.00000000000E+00  0.37204306352E+03  0.37204306353E+03  0.25500000920E-02 0. -1.
        2   -1    0    0  501    0  0.00000000000E+00  0.00000000000E+00 -0.16560929493E+04  0.16560929493E+04  0.25500000920E-02 0.  1.
    10030    2    1    2    0    0  0.00000000000E+00  0.00000000000E+00 -0.12840498858E+04  0.20281360128E+04  0.15698890334E+04 0.  0.
        1    1    3    3  502    0  0.74869276406E+03  0.82298960574E+02 -0.92748440666E+03  0.11947975973E+04  0.50400001928E-02 0.  1.
       -1    1    3    3    0  502 -0.74869276406E+03 -0.82298960574E+02 -0.35656547910E+03  0.83333841552E+03  0.50400001928E-02 0. -1.
</event>
<event>
 5   0  0.1147755E-03  0.1481123E+04  0.7818609E-02  0.8897104E-01
       -2   -1    0    0    0  501  0.00000000000E+00  0.00000000000E+00  0.58486348704E+03  0.58486348705E+03  0.25500000920E-02 0. -1.
        2   -1    0    0  501    0  0.00000000000E+00  0.00000000000E+00 -0.93770884544E+03  0.93770884544E+03  0.25500000920E-02 0.  1.
    10030    2    1    2    0    0  0.00000000000E+00  0.00000000000E+00 -0.35284535839E+03  0.15225723325E+04  0.14811234455E+04 0.  0.
        4    1    3    3  502    0  0.57190088320E+03  0.40443799473E+03  0.70698829201E+02  0.70401750627E+03  0.12699999809E+01 0. -1.
       -4    1    3    3    0  502 -0.57190088320E+03 -0.40443799473E+03 -0.42354418759E+03  0.81855482622E+03  0.12699999809E+01 0.  1.
</event>
<event>
 5   0  0.5840834E-04  0.1438814E+04  0.7818609E-02  0.8926193E-01
       -1   -1    0    0    0  501  0.00000000000E+00  0.00000000000E+00  0.34708318842E+03  0.34708318846E+03  0.50400001928E-02 0.  1.
        1   -1    0    0  501    0  0.00000000000E+00  0.00000000000E+00 -0.14911306562E+04  0.14911306562E+04  0.50400001928E-02 0. -1.
    10030    2    1    2    0    0  0.00000000000E+00  0.00000000000E+00 -0.11440474678E+04  0.18382138447E+04  0.14388139317E+04 0.  0.
        3    1    3    3  502    0 -0.43195661942E+03 -0.42675036758E+03 -0.79125765292E+02  0.61234246482E+03  0.10100000352E+00 0.  1.
       -3    1    3    3    0  502  0.43195661942E+03  0.42675036758E+03 -0.10649217025E+04  0.12258713799E+04  0.10100000352E+00 0. -1.
</event>
<event>
 5   0  0.1126175E-03  0.1487160E+04  0.7818609E-02  0.8893037E-01
        2   -1    0    0  501    0  0.00000000000E+00  0.00000000000E+00  0.24513142403E+04  0.24513142403E+04  0.25500000920E-02 0.  1.
       -2   -1    0    0    0  501  0.00000000000E+00  0.00000000000E+00 -0.22555705880E+03  0.22555705882E+03  0.25500000920E-02 0. -1.
    10030    2    1    2    0    0  0.00000000000E+00  0.00000000000E+00  0.22257571815E+04  0.26768712991E+04  0.14871600186E+04 0.  0.
        3    1    3    3  502    0 -0.24486729792E+02  0.62186269456E+03  0.18453621317E+04  0.19474789390E+04  0.10100000352E+00 0.  1.
       -3    1    3    3    0  502  0.24486729792E+02 -0.62186269456E+03  0.38039504987E+03  0.72939236011E+03  0.10100000352E+00 0. -1.
</event>
<event>
 5   0  0.5840834E-04  0.1516313E+04  0.7818609E-02  0.8873677E-01
       -1   -1    0    0    0  501  0.00000000000E+00  0.00000000000E+00  0.50012983999E+03  0.50012984002E+03  0.50400001928E-02 0. -1.
        1   -1    0    0  501    0  0.00000000000E+00  0.00000000000E+00 -0.11493044166E+04  0.11493044166E+04  0.50400001928E-02 0.  1.
    10030    2    1    2    0    0  0.00000000000E+00  0.00000000000E+00 -0.64917457663E+03  0.16494342567E+04  0.15163132051E+04 0.  0.
        3    1    3    3  502    0 -0.75377457499E+03 -0.38906840181E+02 -0.40235929794E+03  0.85532617577E+03  0.10100000352E+00 0. -1.
       -3    1    3    3    0  502  0.75377457499E+03  0.38906840181E+02 -0.24681527869E+03  0.79410808088E+03  0.10100000352E+00 0.  1.
</event>
<event>
 5   0  0.5914645E-04  0.1213236E+04  0.7818609E-02  0.9101350E-01
       -1   -1    0    0    0  501  0.00000000000E+00  0.00000000000E+00  0.40112499873E+03  0.40112499876E+03  0.50400001928E-02 0.  1.
        1   -1    0    0  501    0  0.00000000000E+00  0.00000000000E+00 -0.91738269732E+03  0.91738269733E+03  0.50400001928E-02 0. -1.
    10030    2    1    2    0    0  0.00000000000E+00  0.00000000000E+00 -0.51625769859E+03  0.13185076961E+04  0.12132355638E+04 0.  0.
        2    1    3    3  502    0  0.52057784946E+02  0.17437367976E+03  0.37076155830E+03  0.41301371198E+03  0.25500000920E-02 0.  1.
       -2    1    3    3    0  502 -0.52057784946E+02 -0.17437367976E+03 -0.88701925689E+03  0.90549398411E+03  0.25500000920E-02 0. -1.
</event>
<event>
 5   0  0.1097156E-03  0.1355447E+04  0.7818609E-02  0.8986715E-01
        2   -1    0    0  501    0  0.00000000000E+00  0.00000000000E+00  0.11621140987E+04  0.11621140987E+04  0.25500000920E-02 0.  1.
       -2   -1    0    0    0  501  0.00000000000E+00  0.00000000000E+00 -0.39523600165E+03  0.39523600165E+03  0.25500000920E-02 0. -1.
    10030    2    1    2    0    0  0.00000000000E+00  0.00000000000E+00  0.76687809707E+03  0.15573501004E+04  0.13554472765E+04 0.  0.
        2    1    3    3  502    0  0.18525374581E+03  0.21773512689E+03  0.10894462788E+04  0.11263306487E+04  0.25500000920E-02 0.  1.
       -2    1    3    3    0  502 -0.18525374581E+03 -0.21773512689E+03 -0.32256818174E+03  0.43101945165E+03  0.25500000920E-02 0. -1.
</event>
<event>
 5   0  0.4070625E-04  0.1504570E+04  0.7818609E-02  0.8881420E-01
        3   -1    0    0  501    0  0.00000000000E+00  0.00000000000E+00  0.61914083323E+03  0.61914084147E+03  0.10100000352E+00 0.  1.
       -3   -1    0    0    0  501  0.00000000000E+00  0.00000000000E+00 -0.91406141435E+03  0.91406141993E+03  0.10100000352E+00 0. -1.
    10030    2    1    2    0    0  0.00000000000E+00  0.00000000000E+00 -0.29492058111E+03  0.15332022614E+04  0.15045700466E+04 0.  0.
        4    1    3    3  502    0 -0.15355413069E+03 -0.73202403632E+03 -0.65347180100E+02  0.75080618514E+03  0.12699999809E+01 0.  1.
       -4    1    3    3    0  502  0.15355413069E+03  0.73202403632E+03 -0.22957340101E+03  0.78239607626E+03  0.12699999809E+01 0. -1.
</event>
<event>
 5   0  0.5924403E-04  0.1503247E+04  0.7818609E-02  0.8882297E-01
        1   -1    0    0  501    0  0.00000000000E+00  0.00000000000E+00  0.20943503041E+04  0.20943503041E+04  0.50400001928E-02 0.  1.
       -1   -1    0    0    0  501  0.00000000000E+00  0.00000000000E+00 -0.26974363308E+03  0.26974363312E+03  0.50400001928E-02 0. -1.
    10030    2    1    2    0    0  0.00000000000E+00  0.00000000000E+00  0.18246066711E+04  0.23640939373E+04  0.15032466997E+04 0.  0.
        1    1    3    3  502    0 -0.46058530482E+03 -0.54248172645E+03  0.12927190740E+04  0.14756516698E+04  0.50400001928E-02 0. -1.
       -1    1    3    3    0  502  0.46058530482E+03  0.54248172645E+03  0.53188759710E+03  0.88844226741E+03  0.50400001928E-02 0.  1.
</event>
<event>
 5   0  0.1147755E-03  0.1420752E+04  0.7818609E-02  0.8938933E-01
       -2   -1    0    0    0  501  0.00000000000E+00  0.00000000000E+00  0.53025406974E+03  0.53025406974E+03  0.25500000920E-02 0.  1.
        2   -1    0    0  501    0  0.00000000000E+00  0.00000000000E+00 -0.95168293967E+03  0.95168293968E+03  0.25500000920E-02 0. -1.
    10030    2    1    2    0    0  0.00000000000E+00  0.00000000000E+00 -0.42142886994E+03  0.14819370094E+04  0.14207515643E+04 0.  0.
        4    1    3    3  502    0 -0.29268940254E+03  0.11308981180E+03 -0.87548012298E+03  0.93001260773E+03  0.12699999809E+01 0. -1.
       -4    1    3    3    0  502  0.29268940254E+03 -0.11308981180E+03  0.45405125305E+03  0.55192440170E+03  0.12699999809E+01 0.  1.
</event>
<event>
 5   0  0.5924403E-04  0.1507015E+04  0.7818609E-02  0.8879801E-01
       -1   -1    0    0    0  501  0.00000000000E+00  0.00000000000E+00  0.96707306074E+03  0.96707306075E+03  0.50400001928E-02 0.  1.
        1   -1    0    0  501    0  0.00000000000E+00  0.00000000000E+00 -0.58710531682E+03  0.58710531684E+03  0.50400001928E-02 0. -1.
    10030    2    1    2    0    0  0.00000000000E+00  0.00000000000E+00  0.37996774392E+03  0.15541783776E+04  0.15070152431E+04 0.  0.
        1    1    3    3  502    0  0.63381494072E+03  0.99846512910E+02  0.59742143145E+03  0.87670010380E+03  0.50400001928E-02 0.  1.
       -1    1    3    3    0  502 -0.63381494072E+03 -0.99846512910E+02 -0.21745368753E+03  0.67747827379E+03  0.50400001928E-02 0. -1.
</event>
<event>
 5   0  0.1147755E-03  0.1514949E+04  0.7818609E-02  0.8874572E-01
        2   -1    0    0  501    0  0.00000000000E+00  0.00000000000E+00  0.16124039962E+04  0.16124039962E+04  0.25500000920E-02 0. -1.
       -2   -1    0    0    0  501  0.00000000000E+00  0.00000000000E+00 -0.35584626350E+03  0.35584626350E+03  0.25500000920E-02 0.  1.
    10030    2    1    2    0    0  0.00000000000E+00  0.00000000000E+00  0.12565577327E+04  0.19682502597E+04  0.15149494213E+04 0.  0.
        4    1    3    3  502    0 -0.51603353592E+03 -0.17823649253E+03  0.13104705926E+04  0.14196456053E+04  0.12699999809E+01 0. -1.
       -4    1    3    3    0  502  0.51603353592E+03  0.17823649253E+03 -0.53912859979E+02  0.54860465440E+03  0.12699999809E+01 0.  1.
</event>
<event>
 5   0  0.1082667E-03  0.1368476E+04  0.7818609E-02  0.8976959E-01
       -2   -1    0    0    0  501  0.00000000000E+00  0.00000000000E+00  0.68324017494E+03  0.68324017494E+03  0.25500000920E-02 0. -1.
        2   -1    0    0  501    0  0.00000000000E+00  0.00000000000E+00 -0.68523741289E+03  0.68523741289E+03  0.25500000920E-02 0.  1.
    10030    2    1    2    0    0  0.00000000000E+00  0.00000000000E+00 -0.19972379507E+01  0.13684775878E+04  0.13684761304E+04 0.  0.
        5    1    3    3  502    0 -0.14632936768E+02  0.42129035220E+03  0.53794532510E+03  0.68345222693E+03  0.46999998093E+01 0. -1.
       -5    1    3    3    0  502  0.14632936768E+02 -0.42129035220E+03 -0.53994256305E+03  0.68502536091E+03  0.46999998093E+01 0.  1.
</event>
<event>
 5   0  0.5606965E-04  0.1470425E+04  0.7818609E-02  0.8904361E-01
        1   -1    0    0  501    0  0.00000000000E+00  0.00000000000E+00  0.17137103091E+04  0.17137103091E+04  0.50400001928E-02 0. -1.
       -1   -1    0    0    0  501  0.00000000000E+00  0.00000000000E+00 -0.31541954796E+03  0.31541954800E+03  0.50400001928E-02 0.  1.
    10030    2    1    2    0    0  0.00000000000E+00  0.00000000000E+00  0.13982907611E+04  0.20291298571E+04  0.14704254229E+04 0.  0.
        4    1    3    3  502    0 -0.45814473751E+03 -0.49635026903E+03  0.10997524513E+04  0.12906266916E+04  0.12699999809E+01 0. -1.
       -4    1    3    3    0  502  0.45814473751E+03  0.49635026903E+03  0.29853830981E+03  0.73850316547E+03  0.12699999809E+01 0.  1.
</event>
<event>
 5   0  0.1082667E-03  0.1524485E+04  0.7818609E-02  0.8868332E-01
        2   -1    0    0  501    0  0.00000000000E+00  0.00000000000E+00  0.77292524503E+03  0.77292524504E+03  0.25500000920E-02 0.  1.
       -2   -1    0    0    0  501  0.00000000000E+00  0.00000000000E+00 -0.75170702277E+03  0.75170702278E+03  0.25500000920E-02 0. -1.
    10030    2    1    2    0    0  0.00000000000E+00  0.00000000000E+00  0.21218222261E+02  0.15246322678E+04  0.15244846143E+04 0.  0.
        5    1    3    3  502    0 -0.74038881935E+03 -0.14351003286E+03  0.12116624012E+03  0.76385475131E+03  0.46999998093E+01 0. -1.
       -5    1    3    3    0  502  0.74038881935E+03  0.14351003286E+03 -0.99948017860E+02  0.76077751651E+03  0.46999998093E+01 0.  1.
</event>
<event>
 5   0  0.5914645E-04  0.1468117E+04  0.7818609E-02  0.8905936E-01
        1   -1    0    0  501    0  0.00000000000E+00  0.00000000000E+00  0.15967364406E+04  0.15967364406E+04  0.50400001928E-02 0.  1.
       -1   -1    0    0    0  501  0.00000000000E+00  0.00000000000E+00 -0.33746457794E+03  0.33746457797E+03  0.50400001928E-02 0. -1.
    10030    2    1    2    0    0  0.00000000000E+00  0.00000000000E+00  0.12592718627E+04  0.19342010186E+04  0.14681171466E+04 0.  0.
        2    1    3    3  502    0  0.20350478363E+03  0.21023632799E+03 -0.25731479173E+03  0.38964652266E+03  0.25500000920E-02 0. -1.
       -2    1    3    3    0  502 -0.20350478363E+03 -0.21023632799E+03  0.15165866544E+04  0.15445544959E+04  0.25500000920E-02 0.  1.
</event>
<event>
 5   0  0.1097156E-03  0.1303818E+04  0.7818609E-02  0.9026543E-01
       -2   -1    0    0    0  501  0.00000000000E+00  0.00000000000E+00  0.68090644943E+03  0.68090644943E+03  0.25500000920E-02 0.  1.
        2   -1    0    0  501    0  0.00000000000E+00  0.00000000000E+00 -0.62414618222E+03  0.62414618223E+03  0.25500000920E-02 0. -1.
    10030    2    1    2    0    0  0.00000000000E+00  0.00000000000E+00  0.56760267206E+02  0.13050526317E+04  0.13038177187E+04 0.  0.
        2    1    3    3  502    0  0.43098242699E+03 -0.47197232239E+03 -0.10012150455E+03  0.64693743218E+03  0.25500000920E-02 0. -1.
       -2    1    3    3    0  502 -0.43098242699E+03  0.47197232239E+03  0.15688177175E+03  0.65811519948E+03  0.25500000920E-02 0.  1.
</event>
<event>
 5   0  0.6146552E-04  0.1507637E+04  0.7818609E-02  0.8879390E-01
       -1   -1    0    0    0  501  0.00000000000E+00  0.00000000000E+00  0.37487369830E+03  0.37487369833E+03  0.50400001928E-02 0.  1.
        1   -1    0    0  501    0  0.00000000000E+00  0.00000000000E+00 -0.15158235450E+04  0.15158235450E+04  0.50400001928E-02 0. -1.
    10030    2    1    2    0    0  0.00000000000E+00  0.00000000000E+00 -0.11409498467E+04  0.18906972434E+04  0.15076370629E+04 0.  0.
        5    1    3    3  502    0 -0.29683367561E+03 -0.52448422369E+03 -0.26296271971E+01  0.60267979625E+03  0.46999998093E+01 0.  1.
       -5    1    3    3    0  502  0.29683367561E+03  0.52448422369E+03 -0.11383202195E+04  0.12880174471E+04  0.46999998093E+01 0. -1.
</event>
</LesHouchesEvents>
